Membrane in water
40344
    1TMC1    C1    1   1.379   2.853  11.906  0.8152 -0.4365  0.0125
    1TMC1    C2    2   1.324   2.867  11.783 -0.1130  0.7302 -0.1640
    1TMC1    C3    3   1.342   2.986  11.726 -0.2023 -0.6204 -0.2586
    1TMC1    C4    4   1.446   2.954  11.979 -0.0032  0.1495 -0.2752
    1TMC1    C5    5   1.431   3.076  11.914 -0.1749 -0.3346 -0.1588
    1TMC1    C6    6   1.394   3.094  11.787  0.2661  0.5735 -0.3661
    1TMC1     C    7   1.339   2.738  11.984  0.4243 -0.4652  0.6945
    1TMC1     O    8   1.236   2.689  11.939 -0.0045  0.2232 -0.1008
    1TMC1     H    9   1.271   2.783  11.741 -1.0374  0.3386  1.7506
    1TMC1    H1   10   1.472   2.942  12.083 -1.5281 -0.3908  0.0532
    1TMC1    H2   11   1.395   3.194  11.745 -1.3600  0.0023 -1.7954
    1TMC1    C7   12   1.451   3.198  12.004  0.3096 -0.1723  0.2687
    1TMC1    C8   13   1.250   3.008  11.613  0.1290 -0.6557 -0.6104
    1TMC1    O1   14   1.353   3.238  12.070  0.3096  0.5708 -0.5596
    1TMC1    O2   15   1.135   2.967  11.630 -0.3468 -0.4630 -0.2315
    1TMC1    O3   16   1.570   3.172  12.057 -0.4559 -0.3987 -0.0765
    1TMC1    H3   17   1.625   3.124  11.991 -0.6372 -1.0654  0.2551
    1TMC1    O5   18   1.289   3.111  11.537  0.1308 -0.3129 -0.5755
    1TMC1    H5   19   1.386   3.121  11.538  0.1631 -0.7534  0.5912
    2MPD2     C   20   1.427   2.357  12.315 -0.2108 -0.2259  0.0922
    2MPD2    C1   21   1.336   2.363  12.214 -0.5582  0.4875  0.0546
    2MPD2    C2   22   1.338   2.476  12.138  0.0520 -0.0199  1.1473
    2MPD2    C3   23   1.424   2.582  12.158 -0.1351  0.1935  0.0410
    2MPD2    C4   24   1.510   2.574  12.263  0.9481  0.6764 -0.2793
    2MPD2    C5   25   1.506   2.464  12.346  0.1845  0.6498 -0.8594
    2MPD2     H   26   1.270   2.468  12.053 -0.4478  1.2958  1.4090
    2MPD2    H1   27   1.558   2.665  12.296  1.2658  0.9663 -1.5480
    2MPD2    H2   28   1.441   2.271  12.380 -2.8885  0.6898  1.8823
    2MPD2    H3   29   1.569   2.462  12.435  1.0943  1.1891 -1.4961
    2MPD2     N   30   1.434   2.699  12.078 -0.0713 -0.0091 -0.2087
    2MPD2    H5   31   1.513   2.760  12.095 -0.6716  1.2026 -1.7451
    2MPD2    N1   32   1.250   2.258  12.178 -0.3619  0.0762  0.2125
    2MPD2    H7   33   1.193   2.286  12.099 -2.2006 -0.1505  1.4612
    3TMC1    C1   34   0.265   3.471  10.597  0.5957 -0.3406 -0.0965
    3TMC1    C2   35   0.278   3.462  10.459  0.7223 -0.3822 -0.4930
    3TMC1    C3   36   0.354   3.359  10.416 -0.2678 -0.1235  0.7660
    3TMC1    C4   37   0.327   3.394  10.689 -0.6518 -0.1884 -0.5601
    3TMC1    C5   38   0.420   3.307  10.631 -0.0475 -0.5125 -0.0137
    3TMC1    C6   39   0.428   3.282  10.499  0.6245  0.8660 -0.3534
    3TMC1     C   40   0.197   3.593  10.647 -0.1339  1.3122 -0.0229
    3TMC1     O   41   0.209   3.694  10.577  0.5965 -0.2235 -0.1318
    3TMC1     H   42   0.216   3.525  10.395  1.4971  1.5975  0.6975
    3TMC1    H1   43   0.320   3.398  10.797 -2.5875  1.0482 -0.7326
    3TMC1    H2   44   0.494   3.209  10.453  1.6294  0.8010  1.2157
    3TMC1    C7   45   0.517   3.241  10.717  0.5759 -0.3204 -0.4331
    3TMC1    C8   46   0.360   3.321  10.283  0.4824  0.0189  0.0441
    3TMC1    O1   47   0.497   3.245  10.839 -0.2276  0.4069 -0.3801
    3TMC1    O2   48   0.450   3.261  10.227  0.2468 -0.5605  0.2363
    3TMC1    O3   49   0.641   3.257  10.655  0.3003 -0.0887 -0.2870
    3TMC1    H3   50   0.640   3.269  10.558  1.3836 -0.1954 -0.3123
    3TMC1    O5   51   0.234   3.314  10.227 -0.0439 -0.0058  0.3759
    3TMC1    H5   52   0.159   3.342  10.283 -0.0157 -2.4725  1.6375
    4MPD2     C   53   4.651   3.857  10.988 -0.3150  0.3557  0.2952
    4MPD2    C1   54   4.665   3.725  11.034 -0.0024 -0.5792  0.1190
    4MPD2    C2   55   0.013   3.631  10.962  0.1204  0.5523  0.6643
    4MPD2    C3   56   0.085   3.678  10.855  0.0468  0.5808 -0.4604
    4MPD2    C4   57   0.087   3.814  10.828 -0.0145  0.5258  0.0537
    4MPD2    C5   58   0.001   3.900  10.894  0.0058 -0.0471  0.5451
    4MPD2     H   59   0.024   3.528  10.993  2.3065 -0.0569 -2.1614
    4MPD2    H1   60   0.146   3.849  10.745 -0.1752 -1.3671 -0.8688
    4MPD2    H2   61   4.580   3.928  11.027 -1.0613  0.5947 -1.4723
    4MPD2    H3   62   4.735   4.004  10.862  1.7817  0.1111  0.8382
    4MPD2     N   63   0.150   3.584  10.771 -0.3390 -0.5618 -0.7279
    4MPD2    H5   64   0.145   3.488  10.804  1.0498 -0.7355 -1.0097
    4MPD2    N1   65   4.587   3.671  11.128 -0.3222 -0.4795  0.4726
    4MPD2    H7   66   4.603   3.571  11.135  0.5116 -0.5077 -1.7352
    5TCq1    O1   67   2.377   4.370  12.036 -0.0241 -0.4096  0.5107
    5TCq1    C1   68   2.349   4.452  11.927  0.3594 -0.1219  0.4872
    5TCq1    O2   69   2.399   4.445  11.815 -0.3667  0.4842  0.2885
    5TCq1    C2   70   2.237   4.533  11.962  0.4801  0.1982  0.3697
    5TCq1    C3   71   2.215   4.566  12.097  0.3611 -1.4804  0.6818
    5TCq1    C4   72   2.093   4.603  12.140 -1.0151  0.5780 -0.5708
    5TCq1    C5   73   1.986   4.608  12.054 -1.0897  0.2006 -0.6235
    5TCq1    C6   74   2.012   4.574  11.923  0.4741 -0.2241 -0.6464
    5TCq1    C7   75   2.138   4.546  11.872  0.6865 -0.3709  0.7265
    5TCq1    C8   76   1.906   4.602  11.827  0.1226 -0.3213 -0.2972
    5TCq1    O4   77   1.930   4.566  11.715 -0.0629  0.2360 -0.0009
    5TCq1    C9   78   2.081   4.633  12.280 -0.7781 -0.5898 -0.0742
    5TCq1    O5   79   1.962   4.626  12.329 -0.1701  0.3423  0.6961
    5TCq1    O6   80   2.184   4.628  12.349  0.0874  0.0369 -0.2637
    5TCq1    H1   81   2.320   4.382  12.115  0.6217  0.2966  0.8641
    5TCq1    H2   82   2.296   4.568  12.169  0.1062  0.0321  0.9137
    5TCq1    H3   83   1.891   4.629  12.101  0.2273 -0.0917  2.2001
    5TCq1    H4   84   2.158   4.541  11.766  0.7755 -0.8677  0.7653
    6MPD2     C   85   1.619   0.086  11.858  0.1817  0.7522 -0.5498
    6MPD2    C1   86   1.686   4.715  11.811 -0.1589  0.5091 -0.2830
    6MPD2    C2   87   1.644   4.650  11.700  0.1281 -0.7953 -0.3474
    6MPD2    C3   88   1.521   4.682  11.644 -0.4614 -0.1366  0.0982
    6MPD2    C4   89   1.461   0.068  11.686 -0.4437 -0.6401  0.7587
    6MPD2    C5   90   1.520   0.144  11.785 -0.1013  0.5509 -0.1055
    6MPD2     H   91   1.704   4.568  11.661 -1.5929 -1.1673 -2.1940
    6MPD2    H1   92   1.382   0.115  11.629 -1.7531  0.0645  3.1579
    6MPD2    H2   93   1.667   0.137  11.941 -0.4399  0.3757  0.0353
    6MPD2    H3   94   1.485   0.245  11.799 -2.1042 -0.0739 -0.4939
    6MPD2     N   95   1.480   4.617  11.530  0.6819 -0.2438 -0.2469
    6MPD2    H5   96   1.528   4.533  11.503 -1.0570 -1.1267 -0.6061
    6MPD2    N1   97   1.804   4.677  11.882 -0.5791  0.1176  0.0342
    6MPD2    H7   98   1.813   4.715  11.975  0.7339  0.4574 -0.2312
    7TCq1    O1   99   3.183   3.669  13.193  0.4217 -0.4694 -0.2093
    7TCq1    C1  100   3.169   3.549  13.263  0.1935 -0.5192 -0.4033
    7TCq1    O2  101   3.079   3.534  13.344 -0.7289 -0.7887  0.0361
    7TCq1    C2  102   3.217   3.452  13.171  0.7403 -0.6059  0.3446
    7TCq1    C3  103   3.272   3.481  13.047  0.4010  0.6361  0.2572
    7TCq1    C4  104   3.322   3.378  12.978 -0.0007 -0.6737  0.4396
    7TCq1    C5  105   3.309   3.245  13.020  0.0293  0.0434  0.0363
    7TCq1    C6  106   3.262   3.226  13.147  0.1309 -1.0459 -0.5039
    7TCq1    C7  107   3.222   3.329  13.223  0.2331 -0.0942 -0.1037
    7TCq1    C8  108   3.326   3.107  13.206  0.4749  0.3966  0.7826
    7TCq1    O4  109   3.399   3.041  13.130 -0.0988  0.0611  0.3219
    7TCq1    C9  110   3.401   3.412  12.861 -0.3892  0.1181  0.5634
    7TCq1    O5  111   3.492   3.334  12.836  0.0798 -0.4951  0.0771
    7TCq1    O6  112   3.363   3.515  12.800  0.2209  0.2520  0.2539
    7TCq1    H1  113   3.271   3.680  13.150  1.9649 -1.4825  2.6877
    7TCq1    H2  114   3.262   3.579  13.002 -1.7092  0.1624 -0.3064
    7TCq1    H3  115   3.362   3.174  12.959  1.6021  0.5446  0.8046
    7TCq1    H4  116   3.180   3.309  13.321 -1.8419  0.8706 -0.7811
    8MPD2     C  117   3.645   3.027  13.580  0.1830  0.2904 -1.0456
    8MPD2    C1  118   3.651   2.967  13.454 -0.1869 -0.1793 -0.5102
    8MPD2    C2  119   3.540   2.991  13.376 -0.3191 -0.1965  1.0362
    8MPD2    C3  120   3.433   3.068  13.421  0.4793 -0.5756  0.9723
    8MPD2    C4  121   3.427   3.123  13.549  0.3253 -0.3317  0.4440
    8MPD2    C5  122   3.537   3.109  13.621 -0.2380  0.6621  0.4548
    8MPD2     H  123   3.532   2.943  13.278  1.6574 -1.6667  1.6026
    8MPD2    H1  124   3.346   3.188  13.581 -0.8402 -0.5866 -1.9390
    8MPD2    H2  125   3.726   3.024  13.653  0.5414  0.5187 -1.4342
    8MPD2    H3  126   3.564   3.164  13.711  0.7861  0.2455  0.4018
    8MPD2     N  127   3.322   3.109  13.343 -0.4168 -0.6506  0.8730
    8MPD2    H5  128   3.248   3.152  13.397 -0.8165 -0.3982  0.1157
    8MPD2    N1  129   3.745   2.868  13.425 -0.2057 -0.0064 -0.6688
    8MPD2    H7  130   3.813   2.861  13.500 -0.4606 -0.9698 -0.5311
    9TMC1    C1  131   0.570   2.528  10.945  0.3724 -0.5308  0.1513
    9TMC1    C2  132   0.465   2.502  11.030  0.9337  0.2736  0.4828
    9TMC1    C3  133   0.368   2.416  10.982 -0.1032 -0.0687 -0.2570
    9TMC1    C4  134   0.576   2.471  10.820 -0.7416 -0.0645  0.2922
    9TMC1    C5  135   0.473   2.387  10.778 -0.4214 -0.2823  0.0794
    9TMC1    C6  136   0.365   2.354  10.854 -0.0641 -0.8565 -0.2054
    9TMC1     C  137   0.673   2.627  10.979 -0.6567 -0.3544 -0.1011
    9TMC1     O  138   0.744   2.657  10.883  0.2114  0.6646  0.6411
    9TMC1     H  139   0.450   2.564  11.117  3.1006  1.9084 -0.3034
    9TMC1    H1  140   0.663   2.485  10.757 -0.4613 -0.0057  0.6873
    9TMC1    H2  141   0.285   2.293  10.815  0.7106 -1.4459 -0.8659
    9TMC1    C7  142   0.494   2.319  10.650 -0.3144  0.2941 -0.2432
    9TMC1    C8  143   0.260   2.389  11.067 -0.4711  0.1684  0.1172
    9TMC1    O1  144   0.544   2.372  10.549  0.6834 -0.2013 -0.5546
    9TMC1    O2  145   0.156   2.334  11.032  0.0146  0.5360 -0.6430
    9TMC1    O3  146   0.449   2.194  10.653  0.3480  0.1252 -0.0451
    9TMC1    H3  147   0.429   2.149  10.738  0.2164 -0.0114 -0.1479
    9TMC1    O5  148   0.310   2.382  11.195  0.6052 -0.1156 -0.3019
    9TMC1    H5  149   0.393   2.434  11.208  0.4080  0.1268 -0.0206
   10MPD2     C  150   0.839   2.840  11.115  0.4539 -0.0735 -0.2862
   10MPD2    C1  151   0.763   2.748  11.183  0.4240 -0.3540  0.1291
   10MPD2    C2  152   0.774   2.745  11.317  0.3325  0.5450 -0.0054
   10MPD2    C3  153   0.866   2.825  11.385 -0.6938  0.6454 -1.0483
   10MPD2    C4  154   0.954   2.899  11.317  0.0228  0.0619  0.1870
   10MPD2    C5  155   0.940   2.904  11.177  0.2280 -0.3478  0.0345
   10MPD2     H  156   0.711   2.676  11.372  1.3440 -0.5260 -0.1797
   10MPD2    H1  157   1.038   2.949  11.364  0.1374 -1.2803  1.3871
   10MPD2    H2  158   0.832   2.867  11.010 -0.1284  0.6988 -0.0533
   10MPD2    H3  159   1.022   2.953  11.125 -0.0358  1.1224  0.9963
   10MPD2     N  160   0.880   2.820  11.524 -0.1810  0.2235 -0.6195
   10MPD2    H5  161   0.952   2.877  11.567 -1.3185 -0.0163  1.6150
   10MPD2    N1  162   0.680   2.653  11.114 -0.1756  0.4515  0.5244
   10MPD2    H7  163   0.617   2.606  11.178 -1.1618  0.8283 -0.1704
   11TCq1    O1  164   1.679   2.961  14.302 -0.4069 -0.6075  0.2085
   11TCq1    C1  165   1.687   2.955  14.169 -0.8663 -0.1786  0.2471
   11TCq1    O2  166   1.601   3.007  14.099  0.5643 -0.5352 -0.2383
   11TCq1    C2  167   1.754   2.833  14.135 -0.9606 -0.1797  0.3877
   11TCq1    C3  168   1.833   2.756  14.224  0.0767 -0.2070  0.3268
   11TCq1    C4  169   1.858   2.622  14.192 -0.1748  0.7668 -0.3290
   11TCq1    C5  170   1.807   2.565  14.082  0.2394  0.5800 -0.8786
   11TCq1    C6  171   1.728   2.641  13.998 -1.1275 -0.5314 -0.5455
   11TCq1    C7  172   1.695   2.776  14.020 -0.2944  0.0155  0.9286
   11TCq1    C8  173   1.665   2.583  13.884 -0.1049  0.6620 -0.1472
   11TCq1    O4  174   1.633   2.652  13.790 -0.2591 -0.2587  0.2330
   11TCq1    C9  175   1.935   2.537  14.280 -0.3376  0.1083  0.3766
   11TCq1    O5  176   2.013   2.585  14.365 -0.3684  0.3575  0.5933
   11TCq1    O6  177   1.931   2.415  14.254 -0.0364  0.5633 -0.2717
   11TCq1    H1  178   1.754   2.904  14.327 -0.9096 -0.5025  1.9744
   11TCq1    H2  179   1.872   2.811  14.309  1.7149 -0.2222 -0.4255
   11TCq1    H3  180   1.842   2.470  14.043  0.5338 -0.6829  2.4291
   11TCq1    H4  181   1.628   2.832  13.956  0.1623  0.5285  0.8986
   12MPD2     C  182   1.605   2.404  13.665 -0.3238  0.2849 -0.1706
   12MPD2    C1  183   1.602   2.364  13.796 -0.0968  0.2897  0.4785
   12MPD2    C2  184   1.570   2.229  13.826 -0.0109 -0.0996  0.0455
   12MPD2    C3  185   1.549   2.135  13.723  0.4981 -0.4338 -0.5318
   12MPD2    C4  186   1.559   2.181  13.598  0.0426  0.2767 -0.5632
   12MPD2    C5  187   1.577   2.314  13.566  0.9252 -0.8706 -0.1168
   12MPD2     H  188   1.553   2.194  13.928  2.7128 -1.8232 -0.1102
   12MPD2    H1  189   1.533   2.119  13.513  1.2809  0.3789 -1.0196
   12MPD2    H2  190   1.634   2.503  13.632  0.9129 -0.5584 -1.6471
   12MPD2    H3  191   1.584   2.337  13.460  0.4831 -1.1877 -0.2152
   12MPD2     N  192   1.505   1.998  13.746  0.3308 -0.0834 -0.5119
   12MPD2    H5  193   1.483   1.942  13.663  2.1052 -1.8002  0.1893
   12MPD2    N1  194   1.646   2.450  13.900  0.0225 -0.2839 -0.5169
   12MPD2    H7  195   1.656   2.421  13.997 -0.2848  0.3271 -0.3025
   13TCq1    O1  196   0.962   2.967  10.205  0.4904 -0.3589 -0.2276
   13TCq1    C1  197   0.895   2.892  10.113 -1.1354  0.2654 -0.3176
   13TCq1    O2  198   0.925   2.891   9.994 -0.4270  0.5955  0.0800
   13TCq1    C2  199   0.768   2.845  10.165 -0.0886 -0.0347  0.4838
   13TCq1    C3  200   0.716   2.732  10.103  0.2184  0.8461  0.0660
   13TCq1    C4  201   0.608   2.667  10.160 -0.0093 -0.4341  0.2423
   13TCq1    C5  202   0.543   2.715  10.272 -0.8102  0.3434  0.1084
   13TCq1    C6  203   0.603   2.825  10.328 -1.2033  0.0080 -0.4323
   13TCq1    C7  204   0.712   2.893  10.281 -0.1373 -0.0411  0.0905
   13TCq1    C8  205   0.551   2.870  10.457 -0.0277  0.1606 -0.0416
   13TCq1    O4  206   0.618   2.956  10.511 -0.3884  0.3353  0.4120
   13TCq1    C9  207   0.571   2.540  10.105  0.1233 -0.1224 -0.1773
   13TCq1    O5  208   0.618   2.507   9.994  0.1465  0.0941  0.3717
   13TCq1    O6  209   0.472   2.492  10.157  0.8050 -0.4952 -0.5586
   13TCq1    H1  210   0.953   2.937  10.298 -1.4768 -3.7016 -1.4876
   13TCq1    H2  211   0.762   2.696  10.012 -0.5312 -0.3735  0.1613
   13TCq1    H3  212   0.462   2.656  10.314  0.9843 -1.5150  0.9665
   13TCq1    H4  213   0.749   2.980  10.334 -0.4735  1.6995 -2.4650
   14MPD2     C  214   0.288   2.730  10.656 -0.9491  0.1795 -0.5363
   14MPD2    C1  215   0.400   2.799  10.635  0.0259  0.8721  0.0476
   14MPD2    C2  216   0.458   2.875  10.742  0.5474  0.1256 -1.5028
   14MPD2    C3  217   0.394   2.876  10.866  0.2395 -0.0226  0.4385
   14MPD2    C4  218   0.275   2.802  10.885  0.6969 -0.3393 -0.3374
   14MPD2    C5  219   0.227   2.731  10.780 -0.3285 -0.9051  0.1642
   14MPD2     H  220   0.548   2.932  10.722  1.5482 -0.2943  1.7791
   14MPD2    H1  221   0.231   2.796  10.984 -1.7534  0.3988 -1.3772
   14MPD2    H2  222   0.238   2.672  10.578  0.6723 -0.9689 -0.7273
   14MPD2    H3  223   0.148   2.660  10.804 -1.4657  0.5013  0.5729
   14MPD2     N  224   0.450   2.955  10.966 -0.3238  0.1627 -0.1885
   14MPD2    H5  225   0.512   3.028  10.932 -2.7435  2.3110 -0.0172
   14MPD2    N1  226   0.451   2.796  10.504  0.3314  0.1608  0.5783
   14MPD2    H7  227   0.407   2.725  10.446 -1.4094  1.6181  0.1387
   15TCq1    O1  228   2.822   1.996   2.062 -0.1290 -0.1210  0.1096
   15TCq1    C1  229   2.950   2.031   2.086 -0.3204 -0.1025 -0.0968
   15TCq1    O2  230   2.987   2.130   2.147  0.0482  0.0390 -0.4949
   15TCq1    C2  231   3.027   1.913   2.076 -0.1626  0.8374 -0.1331
   15TCq1    C3  232   3.125   1.902   2.171  0.4974  0.3694  0.2910
   15TCq1    C4  233   3.205   1.790   2.154  0.1278  0.9803  0.6781
   15TCq1    C5  234   3.190   1.690   2.058 -0.6857  0.0465 -0.4282
   15TCq1    C6  235   3.090   1.712   1.966 -0.3490 -0.1410  0.2949
   15TCq1    C7  236   3.002   1.824   1.977 -0.1415 -0.1883  0.2732
   15TCq1    C8  237   3.052   1.596   1.882 -0.4929  0.3672  0.5152
   15TCq1    O4  238   3.139   1.521   1.853  0.1466 -0.5499 -0.8560
   15TCq1    C9  239   3.327   1.786   2.231 -0.2671  0.0962 -0.4413
   15TCq1    O5  240   3.396   1.677   2.216 -0.3163 -0.2163 -0.6672
   15TCq1    O6  241   3.352   1.882   2.309  0.0035  0.1997 -0.1965
   15TCq1    H1  242   2.806   1.902   2.042 -0.1900 -0.0576 -0.1372
   15TCq1    H2  243   3.155   1.985   2.233 -0.6258 -0.0192  1.3548
   15TCq1    H3  244   3.254   1.603   2.055 -0.0143  0.5392 -0.4391
   15TCq1    H4  245   2.934   1.851   1.897  3.1285 -0.1284 -2.5019
   16MPD2     C  246   2.738   1.546   1.711  0.4141  1.0334 -0.1969
   16MPD2    C1  247   2.866   1.508   1.748 -0.0545  0.2123 -0.0244
   16MPD2    C2  248   2.938   1.400   1.700  0.5562  0.6580 -0.1024
   16MPD2    C3  249   2.875   1.310   1.617  0.7590  0.8596 -1.2135
   16MPD2    C4  250   2.747   1.340   1.582 -0.4926 -0.2799 -0.4212
   16MPD2    C5  251   2.681   1.460   1.617 -0.9290 -0.4282 -0.2841
   16MPD2     H  252   3.040   1.373   1.729  0.0613  1.4834  2.4222
   16MPD2    H1  253   2.692   1.277   1.513 -1.0006 -0.4333  0.1224
   16MPD2    H2  254   2.678   1.632   1.740 -0.6872 -0.0040  0.5524
   16MPD2    H3  255   2.584   1.484   1.575 -1.6793 -2.2455  0.4085
   16MPD2     N  256   2.948   1.205   1.563 -0.0395  0.3036  0.2317
   16MPD2    H5  257   3.039   1.200   1.608  0.3040  0.1556 -0.4802
   16MPD2    N1  258   2.920   1.599   1.844  0.3162 -0.7256 -0.3681
   16MPD2    H7  259   2.858   1.668   1.884  0.7305  0.3857 -1.6548
   17TMC1    C1  260   4.264   1.279  10.684  0.0702  0.8540 -0.3617
   17TMC1    C2  261   4.163   1.233  10.607  0.3751 -0.0223  0.2510
   17TMC1    C3  262   4.123   1.104  10.625  0.3382 -0.6281  0.0242
   17TMC1    C4  263   4.332   1.195  10.759  0.3741  0.2093  0.0687
   17TMC1    C5  264   4.284   1.068  10.779  0.2117 -0.2275  0.8790
   17TMC1    C6  265   4.177   1.015  10.710 -0.4697  0.1355 -0.0977
   17TMC1     C  266   4.315   1.417  10.658 -0.4258  0.3717  0.1913
   17TMC1     O  267   4.261   1.478  10.572 -0.1562  0.4093  0.0802
   17TMC1     H  268   4.103   1.301  10.548 -2.4052 -2.6303  0.0296
   17TMC1    H1  269   4.424   1.212  10.814  0.7944  0.4424 -0.7063
   17TMC1    H2  270   4.131   0.918  10.725  1.0777 -0.1419  2.7949
   17TMC1    C7  271   4.366   0.977  10.855 -0.1993 -0.2662 -0.0516
   17TMC1    C8  272   4.021   1.044  10.545 -0.2896 -0.5076  0.6168
   17TMC1    O1  273   4.412   1.012  10.958  0.4547  0.4356 -0.1939
   17TMC1    O2  274   3.935   0.962  10.581 -0.0121 -0.5882  0.0838
   17TMC1    O3  275   4.359   0.854  10.798  0.4454  0.2499 -0.2882
   17TMC1    H3  276   4.362   0.864  10.700  0.8208 -0.7719 -0.3774
   17TMC1    O5  277   3.997   1.131  10.449  0.7279 -0.1395 -0.8702
   17TMC1    H5  278   4.074   1.186  10.421  1.5826 -1.0392 -0.2751
   18MPD2     C  279   4.456   1.682  10.644  0.3346  0.2584 -0.1102
   18MPD2    C1  280   4.490   1.582  10.727  0.4110  0.1404  0.0958
   18MPD2    C2  281   4.606   1.600  10.804  0.0173  0.6316  0.3105
   18MPD2    C3  282   4.675   1.719  10.804 -0.2362 -0.6194 -0.7681
   18MPD2    C4  283   4.636   1.827  10.720 -0.3135  0.1245 -0.3091
   18MPD2    C5  284   4.523   1.803  10.647 -0.1352  0.4974  0.3382
   18MPD2     H  285   4.646   1.512  10.852 -1.3023 -0.2013 -0.1280
   18MPD2    H1  286   4.679   1.926  10.731  2.1634 -0.9924  0.0373
   18MPD2    H2  287   4.374   1.670  10.573 -0.4730  2.0862  0.5263
   18MPD2    H3  288   4.488   1.874  10.574  0.7356 -1.7663 -2.3188
   18MPD2     N  289   0.048   1.746  10.889 -0.1239  0.4050 -0.2891
   18MPD2    H5  290   0.089   1.836  10.867 -0.4232  0.8464  0.9691
   18MPD2    N1  291   4.420   1.463  10.740  0.0047 -0.9289  0.2679
   18MPD2    H7  292   4.450   1.407  10.820 -1.5563  0.9178  2.1380
   19TMC2    C1  293   2.594   2.249  14.340 -0.2300 -0.1215 -0.0169
   19TMC2    C2  294   2.538   2.337  14.431  0.6762 -0.5156  0.8456
   19TMC2    C3  295   2.448   2.284  14.518 -0.6422  0.9017 -0.6155
   19TMC2    C4  296   2.568   2.117  14.333  0.0389  0.3198 -0.0805
   19TMC2    C5  297   2.477   2.078  14.419 -0.5561 -0.4218  0.0212
   19TMC2    C6  298   2.417   2.153  14.517  0.0563 -0.6397 -0.0818
   19TMC2     C  299   2.710   2.308  14.262 -0.2952  0.1405  0.0858
   19TMC2     O  300   2.715   2.431  14.254  0.6151  0.7706 -0.2692
   19TMC2     H  301   2.551   2.444  14.420  1.7882 -0.7478 -0.1660
   19TMC2    H1  302   2.607   2.047  14.259 -0.2648 -0.3638  0.3991
   19TMC2    H2  303   2.343   2.118  14.587  0.2449  2.9418  1.9042
   19TMC2    C7  304   2.421   1.946  14.402 -0.2513  0.3976  0.0646
   19TMC2    C8  305   2.365   2.385  14.583  0.0407 -0.5521 -0.1092
   19TMC2    O1  306   2.490   1.857  14.349 -0.2462 -0.2464 -0.0774
   19TMC2    O2  307   2.353   2.499  14.540  0.2241  0.0461 -0.6503
   19TMC2    O5  308   2.337   2.349  14.711  0.1218  0.8285  0.8370
   19TMC2    H5  309   2.354   2.255  14.734  0.4031 -0.2190 -3.6114
   20MPD2     C  310   3.005   2.349  14.214  0.1175  0.5159 -0.2077
   20MPD2    C1  311   2.947   2.225  14.223 -0.0929 -0.2339 -0.5274
   20MPD2    C2  312   3.026   2.110  14.220 -0.3004 -0.0686  0.7345
   20MPD2    C3  313   3.157   2.120  14.186 -0.6636  0.0781  0.0722
   20MPD2    C4  314   3.218   2.241  14.170  0.4213  0.5500  0.7811
   20MPD2    C5  315   3.144   2.355  14.185 -0.8008 -0.4157  0.5660
   20MPD2     H  316   2.978   2.019  14.257  1.4066 -1.6736 -0.9871
   20MPD2    H1  317   3.323   2.257  14.146  0.1174 -0.1263 -1.0194
   20MPD2    H2  318   2.949   2.442  14.217 -0.2073  0.2408  1.9405
   20MPD2    H3  319   3.195   2.442  14.147 -1.2385  0.1113  1.1875
   20MPD2     N  320   3.231   2.000  14.181 -0.3099  0.4738 -0.6520
   20MPD2    H5  321   3.333   2.007  14.181 -0.1206 -2.3875  2.8281
   20MPD2    N1  322   2.804   2.211  14.246  0.2163 -0.2864 -0.0099
   20MPD2    H7  323   2.768   2.117  14.259 -0.2145 -0.2705 -1.0528
   21TMC2    C1  324   1.151   2.579  13.971 -0.5433 -0.4864 -0.3402
   21TMC2    C2  325   1.084   2.498  13.890 -0.2419  0.4262 -0.1393
   21TMC2    C3  326   0.967   2.542  13.843  0.3433 -0.2089  0.4950
   21TMC2    C4  327   1.104   2.698  14.014 -0.1522  0.3544 -0.8268
   21TMC2    C5  328   0.973   2.711  13.996 -0.2761 -0.1645 -0.0888
   21TMC2    C6  329   0.902   2.643  13.907  0.0951  0.3936 -0.2001
   21TMC2     C  330   1.234   2.508  14.066  0.1372  0.0752 -0.1834
   21TMC2     O  331   1.208   2.389  14.086 -0.0917 -0.2973  1.2124
   21TMC2     H  332   1.112   2.396  13.864  1.6279 -0.3552  4.9145
   21TMC2    H1  333   1.146   2.760  14.092  0.3470 -0.1818 -0.6670
   21TMC2    H2  334   0.794   2.653  13.895 -0.1508 -1.8709  0.1722
   21TMC2    C7  335   0.904   2.768  14.116 -0.2236  0.0265 -0.4599
   21TMC2    C8  336   0.888   2.436  13.777  0.2470  0.1127 -0.5137
   21TMC2    O1  337   0.972   2.801  14.212 -0.2688 -0.0730  0.3530
   21TMC2    O2  338   0.922   2.318  13.767  0.1455  0.4019  0.2705
   21TMC2    O5  339   0.769   2.475  13.742 -0.2207 -0.0151  0.6126
   21TMC2    H5  340   0.762   2.573  13.740  0.9935  0.0212 -1.3230
   22MPD2     C  341   1.435   2.603  14.521  0.6743 -0.3499  0.7133
   22MPD2    C1  342   1.338   2.515  14.487  0.0171  0.2576  0.0016
   22MPD2    C2  343   1.301   2.507  14.354  0.3346 -0.6227 -0.0005
   22MPD2    C3  344   1.361   2.581  14.254 -0.0032  0.0810  0.0571
   22MPD2    C4  345   1.461   2.665  14.293  0.8300 -0.4941  0.2761
   22MPD2    C5  346   1.499   2.678  14.428 -0.6866 -0.7734 -0.3619
   22MPD2     H  347   1.220   2.443  14.321 -0.6439  1.2375 -1.2214
   22MPD2    H1  348   1.522   2.722  14.224 -1.0009  0.2461 -0.7191
   22MPD2    H2  349   1.458   2.628  14.624 -0.1551  1.5052  0.4349
   22MPD2    H3  350   1.568   2.759  14.450 -2.2552  0.8432 -1.3406
   22MPD2     N  351   1.329   2.588  14.120  0.3926 -0.1008  0.0221
   22MPD2    H5  352   1.350   2.678  14.078  1.5973  0.8895  2.7293
   22MPD2    N1  353   1.253   2.437  14.576 -0.1619 -0.2981  0.5297
   22MPD2    H7  354   1.188   2.369  14.539 -1.6923  2.2455 -1.4666
   23TMC2    C1  355   1.875   3.626  14.975  0.6568  1.1844  0.8579
   23TMC2    C2  356   1.818   3.745  14.960  0.5997  0.4568 -0.4998
   23TMC2    C3  357   1.712   3.755  14.874 -0.2210 -0.3186 -0.6825
   23TMC2    C4  358   1.828   3.520  14.904 -0.0265  0.3172  0.3301
   23TMC2    C5  359   1.729   3.529  14.820 -0.0577  1.1937 -0.1162
   23TMC2    C6  360   1.672   3.655  14.800 -0.2883  1.2041  0.1556
   23TMC2     C  361   1.971   3.605  15.079  0.2211 -0.2262  0.1973
   23TMC2     O  362   1.939   3.506  15.140 -0.3410 -0.1453  0.4747
   23TMC2     H  363   1.839   3.828  15.026  1.8822  0.6034 -1.1044
   23TMC2    H1  364   1.872   3.422  14.918 -1.3939 -0.5742 -1.7064
   23TMC2    H2  365   1.587   3.671  14.734  1.6063 -0.3961 -2.6492
   23TMC2    C7  366   1.676   3.409  14.758 -0.0290 -0.0120  0.2805
   23TMC2    C8  367   1.626   3.873  14.899  0.0194 -0.1625  0.7230
   23TMC2    O1  368   1.756   3.312  14.741 -0.3371  0.0631  0.4338
   23TMC2    O2  369   1.671   3.974  14.952 -0.3896 -0.0842  0.2099
   23TMC2    O5  370   1.499   3.836  14.933  0.1627 -0.0891  0.2602
   23TMC2    H5  371   1.488   3.741  14.910 -1.4634  0.0328  0.5348
   24MPD2     C  372   2.333   3.746  15.406 -0.2309 -0.7844 -0.2433
   24MPD2    C1  373   2.249   3.636  15.411  0.9233  0.1944 -0.3841
   24MPD2    C2  374   2.150   3.622  15.313 -0.1422  0.2537  0.2571
   24MPD2    C3  375   2.142   3.721  15.214  0.3642 -0.0540  0.4488
   24MPD2    C4  376   2.238   3.822  15.207  0.2759 -0.0957  0.3997
   24MPD2    C5  377   2.331   3.831  15.302  0.1780 -0.1906 -0.1384
   24MPD2     H  378   2.079   3.540  15.316  0.7539 -0.5096  0.7189
   24MPD2    H1  379   2.233   3.896  15.128 -0.8140  0.3391  0.8796
   24MPD2    H2  380   2.400   3.767  15.489  0.4400 -0.4396 -0.8747
   24MPD2    H3  381   2.408   3.907  15.295 -0.6073  0.7232  1.1286
   24MPD2     N  382   2.052   3.714  15.109  0.0893 -0.9364  0.4590
   24MPD2    H5  383   2.050   3.790  15.042  0.6465 -0.8154  0.5828
   24MPD2    N1  384   2.258   3.537  15.514  0.4122 -0.6789 -0.3369
   24MPD2    H7  385   2.200   3.453  15.515  0.0072 -0.4050 -2.1858
   25TMC2    C1  386   0.703   1.428  12.231  0.0348 -0.3707  0.1109
   25TMC2    C2  387   0.723   1.480  12.358 -0.1175 -0.2809 -0.2466
   25TMC2    C3  388   0.747   1.391  12.460  0.5351 -0.7152  0.1788
   25TMC2    C4  389   0.717   1.294  12.208  0.0570  0.4438 -0.3315
   25TMC2    C5  390   0.762   1.217  12.310  0.7058  0.7903 -0.3088
   25TMC2    C6  391   0.776   1.260  12.438 -0.8317  0.1982  0.2239
   25TMC2     C  392   0.624   1.499  12.133  0.1907  0.5802  0.6914
   25TMC2     O  393   0.649   1.618  12.129 -0.3660  0.0317  0.5322
   25TMC2     H  394   0.722   1.587  12.376 -0.2390 -0.6129  1.7184
   25TMC2    H1  395   0.688   1.246  12.115 -0.4864  1.2235 -0.5603
   25TMC2    H2  396   0.806   1.190  12.515 -0.1324 -0.8460 -1.0191
   25TMC2    C7  397   0.727   1.079  12.297  0.9111  0.2491 -0.3752
   25TMC2    C8  398   0.777   1.445  12.589 -1.0144  0.9534 -0.1499
   25TMC2    O1  399   0.695   1.021  12.401  0.1377 -0.2013  0.3581
   25TMC2    O2  400   0.802   1.566  12.586  0.4305 -0.1757  0.1060
   25TMC2    O5  401   0.768   1.353  12.690  0.4615 -0.2542 -1.1258
   25TMC2    H5  402   0.729   1.266  12.667  0.6161 -1.2545  2.4163
   26MPD2     C  403   0.280   1.544  11.760 -0.5639  0.5754  0.0541
   26MPD2    C1  404   0.305   1.413  11.789 -0.3689 -0.6869 -0.3607
   26MPD2    C2  405   0.388   1.377  11.886 -0.4662 -0.7004 -0.0655
   26MPD2    C3  406   0.451   1.470  11.959 -0.2925  0.1767 -0.0759
   26MPD2    C4  407   0.426   1.603  11.933 -0.1129  0.0943 -0.4452
   26MPD2    C5  408   0.335   1.638  11.839  0.4041 -0.4522 -0.6776
   26MPD2     H  409   0.421   1.277  11.910 -2.6559 -1.2112  0.7936
   26MPD2    H1  410   0.473   1.685  11.987 -1.2170  0.4001  0.0594
   26MPD2    H2  411   0.211   1.574  11.683  0.1053  0.0056 -0.7696
   26MPD2    H3  412   0.317   1.745  11.837 -0.8500 -0.6916 -2.4137
   26MPD2     N  413   0.543   1.421  12.055  0.4718 -0.2219 -1.0170
   26MPD2    H5  414   0.531   1.321  12.069 -0.9621 -0.1161 -1.4692
   26MPD2    N1  415   0.228   1.316  11.713  0.1556 -0.6475 -0.0580
   26MPD2    H7  416   0.178   1.351  11.632 -1.7001  1.6582  2.0653
   27TMC2    C1  417   4.659   3.755  12.067 -0.1067  0.0755  0.8895
   27TMC2    C2  418   0.018   3.801  11.982  0.2549 -0.1048  0.3095
   27TMC2    C3  419   0.140   3.814  12.034 -0.1660  0.0002  0.1892
   27TMC2    C4  420   4.675   3.740  12.202  0.1009 -0.2563  0.7416
   27TMC2    C5  421   0.057   3.774  12.250  0.5482 -0.1489 -0.2649
   27TMC2    C6  422   0.156   3.808  12.166 -0.4835 -0.0689 -0.7597
   27TMC2     C  423   4.526   3.718  12.016  0.2407 -0.3895 -0.0982
   27TMC2     O  424   4.506   3.741  11.899 -0.4198  0.2037 -0.3070
   27TMC2     H  425   4.724   3.798  11.879 -0.4852 -3.8558  0.6721
   27TMC2    H1  426   4.607   3.704  12.277  2.4828 -2.4068  1.8608
   27TMC2    H2  427   0.254   3.834  12.204 -1.7912  0.7141  2.0655
   27TMC2    C7  428   0.088   3.738  12.391  0.9729 -0.4105 -0.6606
   27TMC2    C8  429   0.254   3.796  11.941 -0.1867 -0.4258  0.0149
   27TMC2    O1  430   0.019   3.657  12.449  0.5446 -0.5774  0.2590
   27TMC2    O2  431   0.373   3.797  11.977  0.6129 -0.4190  0.1012
   27TMC2    O5  432   0.206   3.810  11.822 -0.5017 -0.4740  0.0710
   27TMC2    H5  433   0.114   3.844  11.826  0.4591  2.2394 -1.2806
   28MPD2     C  434   4.053   3.558  12.054  0.3792 -0.4089 -0.7834
   28MPD2    C1  435   4.101   3.558  12.186 -0.6726  0.0471 -0.4398
   28MPD2    C2  436   4.235   3.598  12.197  0.1184 -0.1060 -0.0263
   28MPD2    C3  437   4.314   3.619  12.089  0.0654 -0.5699 -0.5814
   28MPD2    C4  438   4.266   3.601  11.962 -0.5818  0.2565 -0.3302
   28MPD2    C5  439   4.130   3.575  11.943 -0.1556  0.3177 -0.0126
   28MPD2     H  440   4.277   3.603  12.297 -0.6190  2.2445  0.1707
   28MPD2    H1  441   4.310   3.619  11.864  1.2385  1.7380  0.7535
   28MPD2    H2  442   3.952   3.524  12.035 -0.3511  0.0876  2.1966
   28MPD2    H3  443   4.088   3.557  11.845  0.7467  1.1048 -0.5441
   28MPD2     N  444   4.441   3.661  12.112  0.1018  0.3176 -1.0654
   28MPD2    H5  445   4.477   3.643  12.206 -0.6634  2.0414 -0.4457
   28MPD2    N1  446   4.012   3.535  12.291 -0.4788  0.0201 -0.0928
   28MPD2    H7  447   3.914   3.517  12.271  0.0810 -0.3132 -2.4514
   29TMC2    C1  448   4.110   0.746  13.918 -0.3026 -0.5845  0.7734
   29TMC2    C2  449   4.225   0.743  13.988 -0.1820 -0.6551  0.2528
   29TMC2    C3  450   4.282   0.866  14.006 -0.1772  0.0508 -0.1810
   29TMC2    C4  451   4.054   0.861  13.869  0.1439  0.0784 -0.1081
   29TMC2    C5  452   4.118   0.977  13.895  0.3691  0.1741  0.3052
   29TMC2    C6  453   4.240   0.976  13.948 -0.2364  0.0082  0.0276
   29TMC2     C  454   4.043   0.617  13.899 -0.3214 -0.0759  0.3062
   29TMC2     O  455   4.119   0.519  13.887  0.3654  0.1324 -0.2709
   29TMC2     H  456   4.265   0.647  14.019  0.7269 -0.4924 -0.4457
   29TMC2    H1  457   3.969   0.859  13.802 -0.1096 -0.2071  0.2208
   29TMC2    H2  458   4.303   1.064  13.947 -1.3781  0.8378  0.3895
   29TMC2    C7  459   4.072   1.096  13.832 -0.7187  0.2940 -0.0112
   29TMC2    C8  460   4.419   0.856  14.039 -0.3867 -0.3413  0.4807
   29TMC2    O1  461   3.975   1.085  13.757 -0.3909 -0.2036  0.3560
   29TMC2    O2  462   4.508   0.899  13.967 -0.0826  0.0120 -0.2610
   29TMC2    O5  463   4.438   0.769  14.142 -0.0338 -0.4090 -0.3602
   29TMC2    H5  464   4.349   0.750  14.179  0.0184  1.8677  0.9337
   30MPD2     C  465   3.649   0.293  13.954  0.2999 -0.1599  0.0179
   30MPD2    C1  466   3.785   0.270  13.940 -0.1662 -0.5180 -0.4041
   30MPD2    C2  467   3.874   0.372  13.920 -0.1125  1.2602  0.3458
   30MPD2    C3  468   3.830   0.504  13.914 -0.6415  0.2496 -0.5168
   30MPD2    C4  469   3.699   0.529  13.918  0.6966 -0.1134  0.3131
   30MPD2    C5  470   3.614   0.423  13.939  0.5649  0.0438  0.0675
   30MPD2     H  471   3.981   0.357  13.914 -0.2845 -0.7943  2.1107
   30MPD2    H1  472   3.658   0.629  13.909  0.5153 -0.3108 -1.0248
   30MPD2    H2  473   3.576   0.216  13.974  2.2170 -1.9930 -0.0109
   30MPD2    H3  474   3.508   0.445  13.937  0.2981 -1.3350 -2.1253
   30MPD2     N  475   3.912   0.618  13.907  0.0553 -0.0739  0.2897
   30MPD2    H5  476   3.860   0.705  13.912 -2.0621 -1.4102  1.5365
   30MPD2    N1  477   3.841   0.132  13.937 -0.9728  0.5657  0.5415
   30MPD2    H7  478   3.938   0.115  13.911 -0.6806  1.6666  0.9168
   31TMC2    C1  479   1.652   4.235  15.851  0.4645  1.0739 -0.1400
   31TMC2    C2  480   1.518   4.256  15.868  1.1645  0.2603  0.4204
   31TMC2    C3  481   1.457   4.240  15.991  0.2827  0.6971 -0.5057
   31TMC2    C4  482   1.731   4.189  15.949  0.0524  0.3031 -0.2528
   31TMC2    C5  483   1.673   4.192  16.072  0.4513  0.6004 -0.1643
   31TMC2    C6  484   1.536   4.215  16.102  0.5461  0.4068  0.0458
   31TMC2     C  485   1.706   4.245  15.716 -0.7446 -0.1150 -0.2537
   31TMC2     O  486   1.641   4.314  15.640  0.6008 -0.0033 -0.1099
   31TMC2     H  487   1.465   4.271  15.775 -0.1600 -1.5718  0.8857
   31TMC2    H1  488   1.838   4.172  15.939  0.1160 -0.9870  2.5771
   31TMC2    H2  489   1.488   4.199  16.199  1.8431  0.4618  0.6939
   31TMC2    C7  490   1.742   4.113  16.173  0.2032 -1.1290  0.2325
   31TMC2    C8  491   1.337   4.157  15.992 -0.0337 -0.3970  0.0109
   31TMC2    O1  492   1.789   4.006  16.139 -0.3385  0.0488 -0.2494
   31TMC2    O2  493   1.328   4.049  16.049 -0.3133  0.4226 -0.4815
   31TMC2    O5  494   1.238   4.219  15.930 -0.2664 -0.2289 -0.2887
   31TMC2    H5  495   1.270   4.303  15.891  0.9048 -1.1407 -1.3005
   32MPD2     C  496   2.050   4.103  15.366  0.3316  0.4834  0.1406
   32MPD2    C1  497   1.947   4.195  15.354 -0.0507 -0.2882 -0.4631
   32MPD2    C2  498   1.870   4.228  15.462  0.0557  0.5704 -0.0390
   32MPD2    C3  499   1.891   4.157  15.580 -0.1823 -0.6112  0.2442
   32MPD2    C4  500   1.994   4.067  15.588 -0.0494  0.0933  0.4877
   32MPD2    C5  501   2.073   4.035  15.480 -0.2948  0.0367  0.4723
   32MPD2     H  502   1.798   4.308  15.452  1.5333  2.2283  2.5338
   32MPD2    H1  503   2.019   4.025  15.685  1.3029  1.6461  0.8073
   32MPD2    H2  504   2.123   4.090  15.288 -0.3339 -4.2054  0.2865
   32MPD2    H3  505   2.162   3.975  15.495  0.5695  1.3805  0.7393
   32MPD2     N  506   1.812   4.167  15.700  0.6098  0.1815  0.3565
   32MPD2    H5  507   1.833   4.104  15.777  0.0649 -0.0876  0.2884
   32MPD2    N1  508   1.939   4.255  15.225 -0.3377 -0.4609 -0.1357
   32MPD2    H7  509   2.010   4.245  15.154 -0.6246 -0.3614 -0.4368
   33TMC2    C1  510   0.933   2.157  10.547 -0.6641  0.3322 -0.1875
   33TMC2    C2  511   0.985   2.045  10.486  0.4498  0.0103 -0.0803
   33TMC2    C3  512   1.088   2.074  10.410  0.1369  0.1810 -0.4265
   33TMC2    C4  513   0.977   2.287  10.520  0.1929 -0.3860  0.1229
   33TMC2    C5  514   1.091   2.298  10.447 -0.5432  0.5346  0.3353
   33TMC2    C6  515   1.151   2.194  10.392 -0.8115 -0.2624 -0.7403
   33TMC2     C  516   0.853   2.134  10.668 -0.6222 -0.1306  0.1031
   33TMC2     O  517   0.793   2.029  10.675  0.2158  0.5269 -0.1021
   33TMC2     H  518   0.941   1.948  10.507 -1.9077  1.1854  0.3913
   33TMC2    H1  519   0.926   2.376  10.554  3.1665  1.6173 -0.6333
   33TMC2    H2  520   1.239   2.201  10.329 -0.0991 -1.1533  0.1477
   33TMC2    C7  521   1.134   2.433  10.406  0.6578  0.4210  0.3041
   33TMC2    C8  522   1.156   1.955  10.367  0.5566  0.0680 -0.0086
   33TMC2    O1  523   1.108   2.533  10.478 -0.5551  0.2178 -0.1949
   33TMC2    O2  524   1.184   1.859  10.440  0.0557  0.4567  0.1715
   33TMC2    O5  525   1.204   1.968  10.241 -0.2978  0.1726  1.1395
   33TMC2    H5  526   1.170   2.045  10.191 -1.9625 -1.1173  0.2921
   34MPD2     C  527   0.671   2.269  11.140 -0.1207  0.3117 -0.6337
   34MPD2    C1  528   0.623   2.184  11.040  0.1300  0.4563  0.2978
   34MPD2    C2  529   0.683   2.171  10.917  0.5580 -0.4192  0.0786
   34MPD2    C3  530   0.798   2.240  10.887 -0.0658 -0.1447  0.6957
   34MPD2    C4  531   0.838   2.332  10.979 -0.3194 -0.3702 -0.3690
   34MPD2    C5  532   0.774   2.346  11.104 -0.2194 -0.3688  0.1046
   34MPD2     H  533   0.646   2.097  10.847 -0.3758  0.6786 -0.5791
   34MPD2    H1  534   0.921   2.400  10.962 -1.2318  0.4050 -1.7378
   34MPD2    H2  535   0.624   2.265  11.237 -0.5526  0.2391 -0.8456
   34MPD2    H3  536   0.814   2.412  11.180 -1.4041  0.2723  0.1773
   34MPD2     N  537   0.863   2.238  10.762 -0.4675 -0.5202  0.1729
   34MPD2    H5  538   0.929   2.313  10.741 -0.7902 -0.7979 -1.8258
   34MPD2    N1  539   0.528   2.085  11.090 -0.2054  0.0429  0.1430
   34MPD2    H7  540   0.530   2.070  11.191  1.6929 -0.0494  0.0991
   35TMC2    C1  541   2.327   3.650  11.670  0.2628 -0.1731 -0.4756
   35TMC2    C2  542   2.203   3.692  11.715  0.1867 -0.1712 -0.1126
   35TMC2    C3  543   2.149   3.625  11.818  0.2579  0.0185 -0.8682
   35TMC2    C4  544   2.401   3.551  11.721  0.4086  1.3593  0.2957
   35TMC2    C5  545   2.338   3.487  11.830  0.1715  0.3612  0.6410
   35TMC2    C6  546   2.211   3.518  11.877  0.5398 -0.1750  0.9082
   35TMC2     C  547   2.404   3.745  11.596 -0.3040  0.0651 -0.0505
   35TMC2     O  548   2.339   3.820  11.524 -0.0027  0.4120  0.7880
   35TMC2     H  549   2.159   3.779  11.670  0.1900 -0.2409 -0.2499
   35TMC2    H1  550   2.491   3.511  11.676  1.1249  0.1526  2.8524
   35TMC2    H2  551   2.151   3.454  11.941  0.1948 -0.6796  0.0871
   35TMC2    C7  552   2.365   3.343  11.826 -0.3405 -0.0547  0.2012
   35TMC2    C8  553   2.012   3.654  11.869  0.4383  0.4817 -0.0265
   35TMC2    O1  554   2.280   3.271  11.875 -0.1911  0.1323 -0.4118
   35TMC2    O2  555   1.919   3.703  11.806 -0.3623 -0.1717  0.6032
   35TMC2    O5  556   2.016   3.643  12.002  0.7034  0.0046 -0.5404
   35TMC2    H5  557   2.103   3.630  12.045 -0.5455  1.6937  2.5058
   36MPD2     C  558   2.847   4.012  11.586 -0.0230 -0.1744 -0.1204
   36MPD2    C1  559   2.870   3.895  11.657 -0.0835  0.9038  0.3490
   36MPD2    C2  560   2.764   3.806  11.663 -0.0038 -0.7628  0.9814
   36MPD2    C3  561   2.640   3.834  11.606  0.3887 -0.5754 -0.0456
   36MPD2    C4  562   2.615   3.955  11.544 -0.2209  0.0622  0.8319
   36MPD2    C5  563   2.724   4.037  11.532 -0.1910  0.0611  1.0915
   36MPD2     H  564   2.775   3.718  11.726  0.4834 -1.7478 -0.4988
   36MPD2    H1  565   2.519   3.984  11.503  0.4634 -0.0968 -0.9001
   36MPD2    H2  566   2.926   4.084  11.572  0.4074 -0.6108  0.0937
   36MPD2    H3  567   2.705   4.125  11.472 -1.7034 -1.0979 -0.1435
   36MPD2     N  568   2.536   3.739  11.626  0.2450 -0.6445  0.0487
   36MPD2    H5  569   2.565   3.675  11.699  0.9793 -1.2772 -0.7973
   36MPD2    N1  570   2.994   3.883  11.731 -0.3620  0.0558 -0.0558
   36MPD2    H7  571   3.057   3.962  11.724  1.3416 -1.3675 -0.8645
   37TMC2    C1  572   0.487   3.559  12.204  0.1350 -0.0376 -0.5905
   37TMC2    C2  573   0.363   3.514  12.191 -0.9193  0.5037 -0.1398
   37TMC2    C3  574   0.335   3.481  12.060 -0.2206 -0.0265 -0.3765
   37TMC2    C4  575   0.576   3.580  12.102  0.2179 -0.2155  0.2532
   37TMC2    C5  576   0.550   3.531  11.980 -0.1095 -0.7280 -0.1007
   37TMC2    C6  577   0.419   3.496  11.950 -0.4653 -0.2971  0.0304
   37TMC2     C  578   0.516   3.614  12.336  0.3457 -0.6116  0.4141
   37TMC2     O  579   0.441   3.575  12.423 -0.2682  0.4782 -0.0642
   37TMC2     H  580   0.292   3.498  12.271 -1.1286  0.1798 -0.3937
   37TMC2    H1  581   0.677   3.613  12.125  0.3340 -0.7281  0.4828
   37TMC2    H2  582   0.409   3.438  11.859  0.6472 -2.7691  1.4558
   37TMC2    C7  583   0.646   3.571  11.878 -0.1927  0.1624  0.1727
   37TMC2    C8  584   0.191   3.463  12.047  0.7270 -0.4893 -0.2152
   37TMC2    O1  585   0.743   3.638  11.916  0.0984 -0.2109 -0.5501
   37TMC2    O2  586   0.115   3.447  12.141  0.1112  0.2046 -0.0784
   37TMC2    O5  587   0.163   3.468  11.921 -0.3657 -0.5901  0.0500
   37TMC2    H5  588   0.234   3.490  11.858 -0.1756  1.6646  1.0748
   38MPD2     C  589   0.823   3.836  12.693  0.2256  0.1634  0.3528
   38MPD2    C1  590   0.879   3.855  12.574 -0.1673  0.8460  0.0396
   38MPD2    C2  591   0.802   3.817  12.463  0.1642  0.7141 -0.0528
   38MPD2    C3  592   0.679   3.747  12.466 -0.0347 -0.3493 -0.1847
   38MPD2    C4  593   0.633   3.712  12.587  0.7909 -0.1018  0.4354
   38MPD2    C5  594   0.699   3.768  12.695 -0.1702 -0.2594  0.0445
   38MPD2     H  595   0.843   3.837  12.365  1.5707  0.4417  0.4863
   38MPD2    H1  596   0.553   3.641  12.607  0.4132 -0.5623 -2.7914
   38MPD2    H2  597   0.870   3.880  12.781 -0.2942 -1.8092  1.6406
   38MPD2    H3  598   0.673   3.745  12.797  0.2655  0.2750  0.2748
   38MPD2     N  599   0.625   3.695  12.346 -0.4765 -0.1102  0.1819
   38MPD2    H5  600   0.679   3.729  12.267 -3.3194 -0.5983 -1.9925
   38MPD2    N1  601   1.000   3.914  12.550 -0.1303 -0.9831  0.2242
   38MPD2    H7  602   1.040   3.906  12.457 -2.2143 -1.3493 -0.6377
   39TMC2    C1  603   3.649   0.660   1.665  0.9196 -0.3688 -0.5815
   39TMC2    C2  604   3.778   0.618   1.651  0.4641  0.0705  0.2197
   39TMC2    C3  605   3.871   0.680   1.718  0.1480  0.2525 -0.4082
   39TMC2    C4  606   3.615   0.766   1.748 -0.5697  0.5431 -0.3679
   39TMC2    C5  607   3.717   0.835   1.803 -0.1360 -0.5109 -0.8551
   39TMC2    C6  608   3.849   0.804   1.782  0.3307  0.1364 -0.6880
   39TMC2     C  609   3.544   0.595   1.592 -0.0956 -0.1467  0.2419
   39TMC2     O  610   3.430   0.609   1.634 -0.1210 -0.1703  0.3079
   39TMC2     H  611   3.803   0.534   1.587 -2.0547  0.3138 -1.0614
   39TMC2    H1  612   3.517   0.792   1.786 -0.6793  1.5742 -1.3650
   39TMC2    H2  613   3.929   0.839   1.846  1.7469 -0.7269 -1.9629
   39TMC2    C7  614   3.681   0.960   1.875  0.4094  0.1137 -0.2469
   39TMC2    C8  615   4.005   0.668   1.663  0.5828 -0.0428 -0.7271
   39TMC2    O1  616   3.564   0.976   1.912 -0.3852  0.5511 -0.0647
   39TMC2    O2  617   4.058   0.565   1.621  0.5845 -0.0190  0.0309
   39TMC2    O5  618   4.010   0.791   1.604 -0.3060  0.1677 -0.4325
   39TMC2    H5  619   3.980   0.854   1.673 -0.4230  0.1153 -0.4355
   40MPD2     C  620   3.546   0.327   1.330  0.0223  0.2543 -0.7002
   40MPD2    C1  621   3.491   0.419   1.419 -0.3289  1.1860 -0.7451
   40MPD2    C2  622   3.352   0.428   1.426  0.6285 -0.3020 -0.1367
   40MPD2    C3  623   3.270   0.343   1.349 -0.2001 -0.0836  0.4799
   40MPD2    C4  624   3.330   0.265   1.256  0.8283  0.2579  0.4347
   40MPD2    C5  625   3.467   0.250   1.256 -0.3489 -0.3775  0.3706
   40MPD2     H  626   3.294   0.497   1.486  3.0601  1.9559 -0.3990
   40MPD2    H1  627   3.277   0.188   1.201  2.1319 -0.2917 -0.0580
   40MPD2    H2  628   3.654   0.319   1.327  0.1981  2.2362  0.0669
   40MPD2    H3  629   3.515   0.183   1.187 -2.1610 -1.5001  0.2094
   40MPD2     N  630   3.129   0.342   1.342 -0.4150  0.0886  0.1410
   40MPD2    H5  631   3.088   0.283   1.270  1.1864  2.0962 -2.4386
   40MPD2    N1  632   3.580   0.501   1.486  0.3024 -0.0392  0.1064
   40MPD2    H7  633   3.678   0.480   1.467  0.0963 -1.1188  0.2139
   41TMC2    C1  634   3.256   4.474  13.192  0.3182  0.3258  0.2791
   41TMC2    C2  635   3.317   4.577  13.256 -0.7692  0.3372  0.3110
   41TMC2    C3  636   3.345   4.679  13.174 -0.1469  0.4666 -0.2708
   41TMC2    C4  637   3.247   4.464  13.058  0.2334  0.3939 -0.2590
   41TMC2    C5  638   3.267   4.578  12.985  0.4099 -0.5764 -0.4827
   41TMC2    C6  639   3.313   4.691  13.045  0.0615  0.1552  0.2179
   41TMC2     C  640   3.243   4.353  13.265 -0.7469  0.0692  0.0419
   41TMC2     O  641   3.158   4.270  13.239 -0.5009 -0.2168  0.1445
   41TMC2     H  642   3.341   4.585  13.362  1.5846  0.3908 -0.2113
   41TMC2    H1  643   3.206   4.373  13.017 -1.0785  0.3765  1.1163
   41TMC2    H2  644   3.313   0.051  12.998 -1.3977  0.0538  0.0189
   41TMC2    C7  645   3.260   4.579  12.843 -0.4046  0.7885 -0.5861
   41TMC2    C8  646   3.410   0.043  13.251 -0.2095  0.0938 -0.0958
   41TMC2    O1  647   3.262   4.693  12.790  0.2087  0.2338  0.0501
   41TMC2    O2  648   3.415   0.055  13.372 -0.2896 -0.1196  0.3676
   41TMC2    O5  649   3.500   0.096  13.171 -0.2679  0.5266  0.1098
   41TMC2    H5  650   3.508   0.059  13.081 -0.8972 -1.2779  0.7987
   42MPD2     C  651   3.463   4.267  13.541 -0.0078 -0.2554  0.1848
   42MPD2    C1  652   3.350   4.254  13.463 -0.6149  0.2670  0.6710
   42MPD2    C2  653   3.259   4.153  13.485 -0.5663  0.2364 -0.5105
   42MPD2    C3  654   3.284   4.066  13.588 -0.3570  1.1394 -0.2539
   42MPD2    C4  655   3.410   4.068  13.653 -0.5167  0.3477  0.2585
   42MPD2    C5  656   3.492   4.176  13.638 -0.0906  0.1124 -0.6151
   42MPD2     H  657   3.178   4.141  13.414 -0.7194 -1.2238 -0.0893
   42MPD2    H1  658   3.428   3.995  13.732 -1.1342  2.0070  1.9406
   42MPD2    H2  659   3.531   4.350  13.522  0.1314 -0.0798  1.4053
   42MPD2    H3  660   3.581   4.181  13.700 -0.5925 -3.0089  0.3549
   42MPD2     N  661   3.190   3.966  13.619  0.2177 -0.1559  0.0792
   42MPD2    H5  662   3.219   3.911  13.699 -0.3272 -0.0768  0.3257
   42MPD2    N1  663   3.339   4.351  13.362 -0.5511  0.0988 -0.2606
   42MPD2    H7  664   3.404   4.427  13.370 -0.3558  0.1051 -1.9914
   43TMC2    C1  665   4.064   1.659   1.020 -0.2452 -0.1105 -0.0559
   43TMC2    C2  666   4.010   1.537   1.060  0.0394 -0.1842  0.1723
   43TMC2    C3  667   3.993   1.524   1.196 -0.2727 -0.5535 -0.6941
   43TMC2    C4  668   4.102   1.762   1.106 -0.6164 -0.1294 -0.0559
   43TMC2    C5  669   4.082   1.735   1.238  0.3255 -0.2057  0.0544
   43TMC2    C6  670   4.027   1.615   1.281 -0.3845  0.4504  0.1669
   43TMC2     C  671   4.086   1.675   0.874 -0.4284  0.8316 -0.2862
   43TMC2     O  672   4.065   1.576   0.808 -0.1041  0.1554  0.0914
   43TMC2     H  673   3.991   1.464   0.983 -0.8577 -1.4773  1.6094
   43TMC2    H1  674   4.155   1.852   1.078  0.4006 -0.8660 -0.5009
   43TMC2    H2  675   4.039   1.586   1.385  2.1685 -1.9889 -0.8371
   43TMC2    C7  676   4.126   1.843   1.323  0.8823  0.1951 -0.3778
   43TMC2    C8  677   3.983   1.395   1.244  0.5469 -0.3804 -0.5067
   43TMC2    O1  678   4.176   1.945   1.279 -0.3735 -0.2947 -0.1611
   43TMC2    O2  679   3.962   1.366   1.361 -0.0300 -0.7970 -0.0793
   43TMC2    O5  680   4.068   1.322   1.168 -0.2833 -0.0650 -0.2880
   43TMC2    H5  681   4.111   1.352   1.085  0.8749 -0.3182  0.2264
   44MPD2     C  682   4.304   1.881   0.457 -0.2714 -0.4502  0.0471
   44MPD2    C1  683   4.242   1.759   0.479 -0.3148 -0.2723  0.2618
   44MPD2    C2  684   4.181   1.738   0.598  0.4980  0.1645  0.0344
   44MPD2    C3  685   4.166   1.830   0.693 -0.3294  0.1580  0.8039
   44MPD2    C4  686   4.199   1.963   0.660  0.0575 -0.3085 -0.4024
   44MPD2    C5  687   4.277   1.980   0.552 -0.4698  0.0214 -0.4926
   44MPD2     H  688   4.141   1.638   0.615 -0.0825  0.1759 -1.2857
   44MPD2    H1  689   4.197   2.045   0.730  0.6092 -1.3673  0.8374
   44MPD2    H2  690   4.363   1.909   0.370  0.5966  2.2871  1.5308
   44MPD2    H3  691   4.308   2.079   0.520  1.0459  0.1012  1.1933
   44MPD2     N  692   4.130   1.798   0.828 -0.7797 -0.6435 -0.5010
   44MPD2    H5  693   4.146   1.876   0.892  0.4012  0.0443 -1.6291
   44MPD2    N1  694   4.237   1.656   0.382  0.3601  0.1150  0.2173
   44MPD2    H7  695   4.203   1.567   0.418 -0.7156  0.7211  0.7018
   45TMC2    C1  696   0.610   4.398   9.889  0.6794  0.0251  0.1078
   45TMC2    C2  697   0.750   4.414   9.905  0.3820  0.7113  0.7235
   45TMC2    C3  698   0.795   4.531   9.968 -0.3370  0.3816  0.0467
   45TMC2    C4  699   0.520   4.476   9.963 -0.0366 -0.2751  0.2417
   45TMC2    C5  700   0.573   4.590  10.016  0.1812 -0.7437  1.0158
   45TMC2    C6  701   0.708   4.617  10.028  0.3821  0.0576 -0.1390
   45TMC2     C  702   0.562   4.295   9.795  0.0812 -0.3491 -0.5962
   45TMC2     O  703   0.652   4.237   9.739  0.4724  0.9213 -0.2874
   45TMC2     H  704   0.817   4.341   9.861 -3.4927  0.4608 -4.6304
   45TMC2    H1  705   0.413   4.469   9.978  0.0015 -1.2645  0.0558
   45TMC2    H2  706   0.744   4.701  10.086  2.3826 -0.9565  0.0680
   45TMC2    C7  707   0.473   4.690  10.067  0.6033  0.2279  0.0495
   45TMC2    C8  708   0.917   4.528  10.043  0.3656 -0.3981 -0.3087
   45TMC2    O1  709   0.362   4.658  10.114  0.1258 -0.4121  0.3745
   45TMC2    O2  710   0.922   4.560  10.164 -0.4685 -0.5905  0.0152
   45TMC2    O5  711   1.002   4.433   9.986 -0.2132  0.3746 -0.7850
   45TMC2    H5  712   0.985   4.440   9.890 -0.8576 -0.1072 -0.7075
   46MPD2     C  713   0.395   4.099   9.644 -0.1968 -0.0520  0.3112
   46MPD2    C1  714   0.347   4.203   9.724  0.0750  0.3279 -0.0420
   46MPD2    C2  715   0.212   4.204   9.740  0.0597  0.0925 -0.5978
   46MPD2    C3  716   0.126   4.118   9.676 -0.0623  0.6759 -0.0669
   46MPD2    C4  717   0.177   4.034   9.586  0.7653 -0.1205  0.4892
   46MPD2    C5  718   0.308   4.012   9.584 -0.5893 -0.0503 -0.8049
   46MPD2     H  719   0.171   4.273   9.813 -0.3654  0.0396 -0.7875
   46MPD2    H1  720   0.112   3.961   9.538  0.7974  0.3683 -0.2908
   46MPD2    H2  721   0.500   4.079   9.626 -0.8935 -1.7225 -1.8885
   46MPD2    H3  722   0.345   3.924   9.533  1.1036 -0.5128  1.2189
   46MPD2     N  723   4.717   4.121   9.711 -0.4914 -0.8405 -0.2094
   46MPD2    H5  724   4.679   4.197   9.767  4.1407  0.9388  0.5341
   46MPD2    N1  725   0.425   4.297   9.789  0.1299 -0.4483  0.0494
   46MPD2    H7  726   0.375   4.356   9.855  0.1105  0.6224 -0.9300
   47TMC2    C1  727   2.498   4.263   9.654 -0.6026 -0.1889  0.1707
   47TMC2    C2  728   2.579   4.213   9.548 -0.2032  0.9764  0.1268
   47TMC2    C3  729   2.510   4.186   9.432 -0.1500 -0.3870 -0.4494
   47TMC2    C4  730   2.365   4.265   9.651  1.0069  0.2993 -0.3705
   47TMC2    C5  731   2.303   4.211   9.536  0.3005  0.0241 -0.1544
   47TMC2    C6  732   2.368   4.179   9.425 -0.0481 -0.2641 -0.1433
   47TMC2     C  733   2.566   4.267   9.782  0.0195  0.1415  0.1456
   47TMC2     O  734   2.687   4.275   9.775 -0.0123 -0.3444  0.0770
   47TMC2     H  735   2.687   4.224   9.551 -0.2501  1.5817 -0.5065
   47TMC2    H1  736   2.305   4.302   9.733  1.8757  2.5786 -0.7673
   47TMC2    H2  737   2.319   4.149   9.333 -2.0895 -1.8979  1.4784
   47TMC2    C7  738   2.153   4.208   9.535  0.2124 -0.6210 -0.3848
   47TMC2    C8  739   2.575   4.127   9.322 -0.0951  0.4513 -0.2759
   47TMC2    O1  740   2.092   4.271   9.621 -0.5533 -0.4517 -0.3225
   47TMC2    O2  741   2.576   4.176   9.210 -0.4654 -0.4912  0.6537
   47TMC2    O5  742   2.556   3.996   9.349  0.2020  0.3575  0.3363
   47TMC2    H5  743   2.536   3.978   9.443 -3.2070  0.6603 -0.3278
   48MPD2     C  744   2.643   4.299  10.063 -0.0364  0.0565  0.3326
   48MPD2    C1  745   2.529   4.229  10.023  0.9403  0.2964  0.6968
   48MPD2    C2  746   2.447   4.165  10.120 -0.4943  0.4945  0.5144
   48MPD2    C3  747   2.488   4.161  10.251  0.5666  0.1628  0.4439
   48MPD2    C4  748   2.604   4.221  10.286 -0.0663 -0.3582 -0.1932
   48MPD2    C5  749   2.678   4.296  10.195  0.4731 -0.2911  0.0769
   48MPD2     H  750   2.358   4.114  10.086  0.8844 -2.1033  0.7019
   48MPD2    H1  751   2.652   4.217  10.383  0.7668  0.6233 -0.5687
   48MPD2    H2  752   2.700   4.357   9.992 -0.7113  0.5082  0.1607
   48MPD2    H3  753   2.771   4.336  10.234 -0.5817  1.9187  0.3005
   48MPD2     N  754   2.409   4.080  10.337  0.2398  0.9415 -0.1220
   48MPD2    H5  755   2.310   4.066  10.317 -0.2533  0.8237  2.3598
   48MPD2    N1  756   2.485   4.230   9.891 -0.1662  0.3202 -0.7593
   48MPD2    H7  757   2.393   4.191   9.872 -0.1692 -1.0860  2.0617
   49TMC2    C1  758   4.035   1.856  10.578 -0.3578  0.0696  0.1423
   49TMC2    C2  759   3.983   1.868  10.457 -0.4833 -0.1990  0.8596
   49TMC2    C3  760   3.926   1.757  10.401 -0.5781 -0.4435  0.0063
   49TMC2    C4  761   4.027   1.739  10.655  0.4587 -0.4020 -0.0070
   49TMC2    C5  762   3.972   1.628  10.594  0.3518  0.4816  0.5104
   49TMC2    C6  763   3.921   1.632  10.461  0.3585  0.0364  0.3626
   49TMC2     C  764   4.104   1.971  10.625 -0.1083  0.0606  0.0426
   49TMC2     O  765   4.069   2.082  10.586  0.1815  0.3446  0.2767
   49TMC2     H  766   3.972   1.968  10.416 -2.8911 -1.0509 -0.5680
   49TMC2    H1  767   4.064   1.724  10.756  2.5894  0.4572 -0.6683
   49TMC2    H2  768   3.882   1.540  10.419  1.4117  0.0783 -0.7157
   49TMC2    C7  769   3.942   1.511  10.671  0.0903  0.3698 -0.3274
   49TMC2    C8  770   3.896   1.758  10.264 -0.1629  0.2008 -0.9567
   49TMC2    O1  771   3.856   1.436  10.619 -0.2387  0.1418  0.4696
   49TMC2    O2  772   3.944   1.667  10.193 -0.4639  0.1878  0.0051
   49TMC2    O5  773   3.771   1.801  10.270 -0.2993 -0.0382 -0.0684
   49TMC2    H5  774   3.751   1.872  10.334  0.8542  0.1965  0.0302
   50MPD2     C  775   4.322   2.141  10.730  0.0540  0.3243 -0.2034
   50MPD2    C1  776   4.294   2.014  10.774 -0.7589 -0.4634 -0.2236
   50MPD2    C2  777   4.375   1.966  10.880  0.3390 -0.3848 -0.1568
   50MPD2    C3  778   4.471   2.041  10.943  0.8615  0.2330  0.2078
   50MPD2    C4  779   4.501   2.162  10.885 -1.0816 -0.3552 -0.1189
   50MPD2    C5  780   4.428   2.211  10.777 -0.2349  0.0611 -0.5647
   50MPD2     H  781   4.357   1.867  10.920 -1.5455  0.8180  1.9816
   50MPD2    H1  782   4.580   2.218  10.934 -1.8678 -1.7866  2.7465
   50MPD2    H2  783   4.260   2.186  10.654 -0.8098  0.3398  0.5146
   50MPD2    H3  784   4.444   2.313  10.743 -1.1183  0.4636  0.2262
   50MPD2     N  785   4.548   1.988  11.054 -0.1022  0.1468 -0.4803
   50MPD2    H5  786   4.630   2.046  11.066 -0.6149  0.8989 -0.5463
   50MPD2    N1  787   4.197   1.931  10.719 -0.6521 -0.0971 -0.2243
   50MPD2    H7  788   4.194   1.842  10.766 -0.8266 -0.4015 -0.8101
   51TMC2    C1  789   1.205   1.128   1.392  0.7315  0.1605  0.0555
   51TMC2    C2  790   1.334   1.094   1.418  0.1462  0.1736 -0.1335
   51TMC2    C3  791   1.434   1.189   1.413 -0.0877  0.0212  0.2685
   51TMC2    C4  792   1.179   1.259   1.354 -0.6016 -0.5297 -0.9557
   51TMC2    C5  793   1.282   1.350   1.353 -0.0317 -0.4172 -0.8813
   51TMC2    C6  794   1.414   1.315   1.375 -0.2552 -0.0661 -0.4815
   51TMC2     C  795   1.107   1.023   1.381 -0.2738  0.3902  0.1137
   51TMC2     O  796   1.143   0.907   1.370 -0.2622 -0.0311  0.0748
   51TMC2     H  797   1.361   0.994   1.447  2.4665  0.5350 -1.0444
   51TMC2    H1  798   1.084   1.272   1.305 -0.9709  1.1828  0.2184
   51TMC2    H2  799   1.489   1.393   1.387  0.4815 -0.9738  0.8222
   51TMC2    C7  800   1.256   1.494   1.317 -0.4664 -0.5587  0.2095
   51TMC2    C8  801   1.571   1.149   1.457 -0.4384  0.2159 -0.2746
   51TMC2    O1  802   1.345   1.561   1.262  0.1506  0.1244  0.1508
   51TMC2    O2  803   1.630   1.050   1.411 -0.0661  0.5699  0.1726
   51TMC2    O5  804   1.623   1.250   1.539 -0.2742 -0.1907  0.0010
   51TMC2    H5  805   1.547   1.301   1.574  2.0384  1.2772  2.8935
   52MPD2     C  806   0.628   0.859   1.293 -0.0339 -0.1464 -0.5508
   52MPD2    C1  807   0.752   0.788   1.292  0.3326  0.5582 -0.6927
   52MPD2    C2  808   0.874   0.853   1.316 -0.4076 -0.1933  0.3492
   52MPD2    C3  809   0.867   0.986   1.354 -0.1084 -0.5684 -0.5136
   52MPD2    C4  810   0.744   1.042   1.373  1.1079 -0.4013 -0.2694
   52MPD2    C5  811   0.631   0.978   1.349 -0.4899 -0.3463 -1.1210
   52MPD2     H  812   0.966   0.798   1.305 -0.3713 -0.1419  0.3990
   52MPD2    H1  813   0.746   1.150   1.386 -0.3987 -0.5018  0.8703
   52MPD2    H2  814   0.531   0.811   1.297 -0.5987  0.8849 -1.8514
   52MPD2    H3  815   0.539   1.036   1.351  0.0358  0.4205  0.2905
   52MPD2     N  816   0.977   1.064   1.390 -0.3630 -0.6887 -0.5580
   52MPD2    H5  817   0.972   1.163   1.413  0.7423 -0.9790  0.9638
   52MPD2    N1  818   0.758   0.652   1.258 -0.6490  0.2297 -0.0384
   52MPD2    H7  819   0.846   0.602   1.252 -1.1740 -0.7885  0.9047
   53TMC2    C1  820   1.247   3.750  11.562  0.0768  0.0147 -0.6995
   53TMC2    C2  821   1.378   3.737  11.534 -0.5941 -0.3119  0.4336
   53TMC2    C3  822   1.474   3.800  11.609  0.6659  1.0032 -0.2530
   53TMC2    C4  823   1.214   3.832  11.664  0.7401  0.5826  0.2218
   53TMC2    C5  824   1.308   3.895  11.739  0.1731  0.2470  0.6892
   53TMC2    C6  825   1.445   3.869  11.717  0.3080  0.3791  0.1001
   53TMC2     C  826   1.146   3.684  11.486  0.3472  0.1038 -0.0128
   53TMC2     O  827   1.157   3.654  11.369 -0.1335 -0.0418  0.0019
   53TMC2     H  828   1.411   3.684  11.445 -0.3433 -2.0662  1.5819
   53TMC2    H1  829   1.109   3.860  11.670  0.6239  0.2901 -0.4272
   53TMC2    H2  830   1.523   3.902  11.785  0.0047  0.9298  0.1863
   53TMC2    C7  831   1.267   3.953  11.861 -0.1454 -0.2930  0.2114
   53TMC2    C8  832   1.612   3.815  11.566 -0.0622  0.5918  0.3268
   53TMC2    O1  833   1.150   3.959  11.889 -0.3586  0.2768  0.3408
   53TMC2    O2  834   1.681   3.912  11.593  0.7002  0.1704  0.0808
   53TMC2    O5  835   1.671   3.696  11.527 -0.5190  0.2775  0.6323
   53TMC2    H5  836   1.603   3.626  11.520 -0.1559 -0.1608  1.4913
   54MPD2     C  837   0.863   3.566  11.416 -0.1966 -0.9103 -0.9856
   54MPD2    C1  838   0.909   3.603  11.540  0.8359  0.3262  0.4787
   54MPD2    C2  839   0.824   3.596  11.642 -0.3812 -0.4600 -0.0415
   54MPD2    C3  840   0.695   3.545  11.637 -0.6084  0.0173 -0.4062
   54MPD2    C4  841   0.643   3.514  11.511 -0.3591  0.4200 -0.3329
   54MPD2    C5  842   0.732   3.519  11.406  0.0556  0.1448  0.2526
   54MPD2     H  843   0.866   3.625  11.738 -0.3968 -0.7676  0.0588
   54MPD2    H1  844   0.547   3.467  11.492  0.5464 -0.5075 -2.6263
   54MPD2    H2  845   0.914   3.580  11.322 -1.0830 -0.0158 -1.3361
   54MPD2    H3  846   0.698   3.495  11.306 -3.1394 -0.9113  1.5795
   54MPD2     N  847   0.612   3.533  11.749 -0.5504  0.0156  0.6278
   54MPD2    H5  848   0.517   3.500  11.731 -0.0073 -1.6222  0.7666
   54MPD2    N1  849   1.040   3.655  11.569 -0.8556  0.5674  0.1060
   54MPD2    H7  850   1.048   3.678  11.668  0.7552  1.6120 -0.2704
   55TMC2    C1  851   1.893   1.352  17.496 -0.0024  0.3536  0.0517
   55TMC2    C2  852   1.926   1.352  17.363 -0.2535  0.7543 -0.1575
   55TMC2    C3  853   1.931   1.228  17.302 -0.3835  0.5456 -0.2460
   55TMC2    C4  854   1.871   1.240  17.574 -0.0560 -0.3807  0.5512
   55TMC2    C5  855   1.891   1.118  17.508 -0.3858 -0.8714 -0.1097
   55TMC2    C6  856   1.910   1.111  17.373  0.1725 -0.4201  0.2765
   55TMC2     C  857   1.906   1.477  17.571  0.7284  0.1695 -0.1269
   55TMC2     O  858   1.855   1.479  17.681  0.2388 -0.0966  0.1200
   55TMC2     H  859   1.933   1.445  17.308  1.4850 -0.7235 -2.4396
   55TMC2    H1  860   1.851   1.256  17.679  0.9683  1.9793  0.3842
   55TMC2    H2  861   1.919   1.018  17.317 -1.8226 -0.6980  0.4365
   55TMC2    C7  862   1.905   0.992  17.588  0.0608  0.6177 -0.1071
   55TMC2    C8  863   1.966   1.215  17.166 -0.3308 -0.0040  0.1482
   55TMC2    O1  864   1.908   0.893  17.519 -0.1304 -0.8846  0.0563
   55TMC2    O2  865   2.065   1.161  17.120  0.1890  0.9257 -0.0870
   55TMC2    O5  866   1.851   1.223  17.105 -0.3365  0.4671 -0.4559
   55TMC2    H5  867   1.780   1.270  17.154 -1.4653 -0.1250 -1.5065
   56MPD2     C  868   2.177   1.736  17.559 -1.1601 -0.4861  0.5625
   56MPD2    C1  869   2.050   1.678  17.581  0.3035 -0.2455  0.1908
   56MPD2    C2  870   1.967   1.749  17.660 -0.4469 -0.1704 -0.4611
   56MPD2    C3  871   2.010   1.866  17.719 -0.2845  0.0055 -0.5946
   56MPD2    C4  872   2.142   1.915  17.714  0.5367 -0.9100 -0.1145
   56MPD2    C5  873   2.220   1.845  17.631 -0.3688  0.4101 -0.2219
   56MPD2     H  874   1.862   1.726  17.672 -0.5886  0.8547  0.2695
   56MPD2    H1  875   2.173   2.011   0.005  1.8240 -0.4183 -2.3160
   56MPD2    H2  876   2.246   1.677  17.501  1.2849  2.4096  0.5049
   56MPD2    H3  877   2.321   1.882  17.618 -0.1986 -0.3611 -1.1016
   56MPD2     N  878   1.926   1.928   0.064 -0.4623 -0.6808 -0.0364
   56MPD2    H5  879   1.834   1.884   0.064 -1.9142  2.3205  2.8212
   56MPD2    N1  880   2.004   1.562  17.516 -0.4124 -1.0422 -0.4195
   56MPD2    H7  881   2.054   1.541  17.430  2.3351 -1.7555  1.3586
   57TMC2    C1  882   1.387   2.960  13.717 -0.2231 -0.0727  0.5483
   57TMC2    C2  883   1.376   3.089  13.748 -0.5118 -0.1544 -0.1809
   57TMC2    C3  884   1.484   3.174  13.738  0.7842  0.4023 -0.5034
   57TMC2    C4  885   1.509   2.912  13.662  0.0887 -0.1404  0.7746
   57TMC2    C5  886   1.609   3.000  13.647 -0.3211 -0.1749  0.8985
   57TMC2    C6  887   1.598   3.130  13.688  0.0919  0.2376 -0.2975
   57TMC2     C  888   1.264   2.889  13.680 -0.0377  1.1887 -0.8935
   57TMC2     O  889   1.161   2.945  13.706 -0.7242 -0.3742 -0.4684
   57TMC2     H  890   1.277   3.123  13.777 -0.9572 -0.5457 -1.2755
   57TMC2    H1  891   1.519   2.808  13.633  0.0508  0.0182  0.1961
   57TMC2    H2  892   1.680   3.201  13.678 -0.1137  0.3376 -1.2322
   57TMC2    C7  893   1.738   2.965  13.587  0.3387  0.2464  0.1729
   57TMC2    C8  894   1.460   3.314  13.703 -0.1675 -0.2339  0.4579
   57TMC2    O1  895   1.800   3.065  13.554 -0.0062  0.2996  0.3246
   57TMC2    O2  896   1.479   3.348  13.584  0.0621 -0.2749 -0.1398
   57TMC2    O5  897   1.356   3.347  13.786  0.0245  0.2378 -0.2866
   57TMC2    H5  898   1.359   3.294  13.868  0.8329  1.0594  0.2155
   58MPD2     C  899   1.010   2.519  13.428 -0.0390 -0.0608 -0.2099
   58MPD2    C1  900   0.974   2.646  13.456 -0.3522  0.2707  0.0140
   58MPD2    C2  901   1.069   2.724  13.524 -0.5776 -0.4804  0.6301
   58MPD2    C3  902   1.191   2.667  13.571 -0.5928  0.1544 -0.8538
   58MPD2    C4  903   1.225   2.539  13.538  0.0822  0.4317  1.1177
   58MPD2    C5  904   1.133   2.467  13.465  0.6929 -0.6579  0.0917
   58MPD2     H  905   1.050   2.829  13.542  1.4821 -0.1035  0.5335
   58MPD2    H1  906   1.324   2.502  13.563 -0.0435 -0.4670  0.2729
   58MPD2    H2  907   0.946   2.444  13.383  0.9392  0.2109 -2.0515
   58MPD2    H3  908   1.169   2.371  13.430 -1.9766 -0.9400 -1.8963
   58MPD2     N  909   1.288   2.758  13.627 -0.3067  0.1186 -0.2480
   58MPD2    H5  910   1.384   2.726  13.619 -0.3620 -0.0567 -0.2188
   58MPD2    N1  911   0.845   2.702  13.422  0.1171 -0.1352  0.0848
   58MPD2    H7  912   0.832   2.802  13.436 -0.9898 -0.0438 -1.6067
   59TMC2    C1  913   3.653   2.951  12.530  0.2098 -0.0815  0.3047
   59TMC2    C2  914   3.560   2.859  12.570  0.3327 -0.2740  0.0520
   59TMC2    C3  915   3.466   2.818  12.484  0.3590  0.8519 -0.8898
   59TMC2    C4  916   3.650   2.991  12.402  0.5213 -0.4960 -0.1895
   59TMC2    C5  917   3.558   2.942  12.315 -0.7280  0.2918  0.1394
   59TMC2    C6  918   3.460   2.860  12.353 -0.3678  0.8237 -0.2404
   59TMC2     C  919   3.745   3.015  12.624 -0.3700 -0.4622  0.0897
   59TMC2     O  920   3.856   3.048  12.582 -0.7959 -0.0454 -0.5906
   59TMC2     H  921   3.557   2.829  12.674 -1.2295  1.2899  0.4688
   59TMC2    H1  922   3.731   3.052  12.363  0.4503 -0.0838  0.3178
   59TMC2    H2  923   3.382   2.827  12.286  1.3212 -1.9520 -0.8326
   59TMC2    C7  924   3.552   2.996  12.179  0.2908  0.6727  1.0748
   59TMC2    C8  925   3.401   2.702  12.526 -0.0400 -0.0132  0.2142
   59TMC2    O1  926   3.514   2.914  12.098  0.5369  0.2459  0.5228
   59TMC2    O2  927   3.348   2.686  12.636  1.1747 -0.5337 -0.0231
   59TMC2    O5  928   3.482   2.617  12.461 -0.2422 -0.2073 -0.4169
   59TMC2    H5  929   3.555   2.671  12.422  1.5866 -2.6466 -0.3802
   60MPD2     C  930   3.672   3.087  12.977  0.0971 -0.5649 -0.4072
   60MPD2    C1  931   3.755   3.060  12.873  0.4569  0.6331  0.4266
   60MPD2    C2  932   3.893   3.060  12.889  0.6981  0.3034  0.3131
   60MPD2    C3  933   3.948   3.068  13.018 -0.3394 -0.3169 -0.8873
   60MPD2    C4  934   3.861   3.094  13.117  0.2061 -0.1249  0.1763
   60MPD2    C5  935   3.727   3.099  13.103 -1.1383  0.0943 -0.2617
   60MPD2     H  936   3.959   3.038  12.806 -0.5001 -1.8269 -0.1033
   60MPD2    H1  937   3.903   3.101  13.217 -1.2955  2.3460  0.6111
   60MPD2    H2  938   3.564   3.075  12.969 -0.1844 -0.8908  3.6792
   60MPD2    H3  939   3.665   3.111  13.191 -0.8299  0.4911 -0.0944
   60MPD2     N  940   4.086   3.043  13.048  0.1276  0.1323 -0.4634
   60MPD2    H5  941   4.116   3.059  13.144  0.2530  0.5707 -0.5768
   60MPD2    N1  942   3.692   3.033  12.748 -0.2015 -0.4059 -0.0704
   60MPD2    H7  943   3.592   3.019  12.747 -0.3270  0.5551 -1.3736
   61TMC2    C1  944   2.991   3.892  15.593  0.3659 -0.1743  0.1135
   61TMC2    C2  945   3.072   3.858  15.695 -0.0080  0.1895  0.5445
   61TMC2    C3  946   3.139   3.950  15.763 -0.3137  0.1137 -0.2997
   61TMC2    C4  947   2.983   4.023  15.557  0.1772 -0.3730 -0.1674
   61TMC2    C5  948   3.046   4.115  15.637  0.8824  0.3633  0.4434
   61TMC2    C6  949   3.134   4.084  15.733 -0.1786 -0.0487 -0.4739
   61TMC2     C  950   2.984   3.792  15.495 -0.5418  0.1716 -0.6332
   61TMC2     O  951   2.971   3.675  15.530  0.3278 -0.0118 -0.4992
   61TMC2     H  952   3.077   3.755  15.726  1.6676 -0.0351 -0.4796
   61TMC2    H1  953   2.933   4.061  15.468 -0.1785 -2.4102 -0.8317
   61TMC2    H2  954   3.195   4.156  15.786 -1.3397  0.0525  0.7025
   61TMC2    C7  955   3.016   4.255  15.631  0.7962 -0.6412 -0.3018
   61TMC2    C8  956   3.213   3.926  15.884 -0.4668  1.0748  0.1619
   61TMC2    O1  957   3.076   4.334  15.703 -0.9829  0.0645  0.4456
   61TMC2    O2  958   3.264   3.818  15.910 -0.5901 -0.2008  0.0250
   61TMC2    O5  959   3.135   3.997  15.971  0.3026 -0.8873 -0.3909
   61TMC2    H5  960   3.093   4.077  15.934  2.0130  0.3256  0.3100
   62MPD2     C  961   2.965   3.652  15.230  0.0517 -0.2211 -0.3950
   62MPD2    C1  962   3.029   3.775  15.251  0.3843 -0.5741  0.4865
   62MPD2    C2  963   3.098   3.836  15.152  0.4682 -0.1343 -0.2462
   62MPD2    C3  964   3.123   3.769  15.034 -0.6160  0.2460  0.1092
   62MPD2    C4  965   3.067   3.640  15.011 -0.7980  0.4652 -0.2571
   62MPD2    C5  966   2.993   3.590  15.114 -0.6624  0.3811  0.5365
   62MPD2     H  967   3.129   3.938  15.166  0.4767 -0.1692 -0.0105
   62MPD2    H1  968   3.079   3.582  14.920 -0.7848 -1.2068  0.7986
   62MPD2    H2  969   2.903   3.596  15.299  0.6250 -1.6843 -1.0918
   62MPD2    H3  970   2.944   3.497  15.087 -0.3514 -0.2357  2.1250
   62MPD2     N  971   3.186   3.825  14.919  0.2449 -0.2590  0.4053
   62MPD2    H5  972   3.199   3.766  14.838  0.5343  0.4768 -0.0859
   62MPD2    N1  973   3.026   3.845  15.374 -0.6395  0.2081  0.3664
   62MPD2    H7  974   3.073   3.935  15.368  1.3058 -0.7264  1.9232
   63TMC2    C1  975   1.976   0.218  10.553  0.5667 -0.1863  0.6591
   63TMC2    C2  976   2.024   0.121  10.473 -0.5536 -0.0075 -0.2379
   63TMC2    C3  977   2.100   0.170  10.370  0.0581 -0.3028 -0.0897
   63TMC2    C4  978   2.006   0.348  10.541 -0.0758  0.7219  0.2648
   63TMC2    C5  979   2.087   0.393  10.433 -0.1703 -0.0581  0.4747
   63TMC2    C6  980   2.137   0.300  10.351  0.0963 -0.4723  0.1796
   63TMC2     C  981   1.893   0.176  10.669 -0.2499 -0.1675  0.8443
   63TMC2     O  982   1.833   0.272  10.712 -0.1285 -0.3424 -0.6108
   63TMC2     H  983   1.993   0.018  10.485  0.2400 -0.3560 -1.2588
   63TMC2    H1  984   1.968   0.424  10.609 -3.1399  0.2752 -0.9876
   63TMC2    H2  985   2.169   0.332  10.252 -1.3484  0.9205  0.1614
   63TMC2    C7  986   2.079   0.523  10.380  0.4846 -0.4770  0.2794
   63TMC2    C8  987   2.115   0.077  10.261 -0.2445 -0.7448  0.2331
   63TMC2    O1  988   2.160   0.559  10.295  0.2597 -0.4825 -0.5263
   63TMC2    O2  989   2.070   4.702  10.273  0.2979  0.2692 -0.7029
   63TMC2    O5  990   2.243   0.106  10.225  0.3773 -0.4377  0.8449
   63TMC2    H5  991   2.256   0.201  10.206  1.7796 -0.9807 -0.9406
   64MPD2     C  992   1.648   4.562  10.936  0.1423  0.4750  0.0955
   64MPD2    C1  993   1.769   4.512  10.885 -0.3264 -0.1348  0.2597
   64MPD2    C2  994   1.852   4.592  10.812 -0.6874  0.2000 -0.1137
   64MPD2    C3  995   1.811   4.716  10.784 -0.1578  0.1326  0.2186
   64MPD2    C4  996   1.701   0.033  10.840 -0.2236 -0.5372 -0.7267
   64MPD2    C5  997   1.616   4.692  10.902 -0.3995 -0.3187  0.0491
   64MPD2     H  998   1.939   4.544  10.770 -1.3087  0.3857 -1.5803
   64MPD2    H1  999   1.673   0.135  10.819  1.4280  0.3807  1.5228
   64MPD2    H2 1000   1.576   4.510  10.999 -0.1911  0.6524 -0.1371
   64MPD2    H3 1001   1.527   4.733  10.947 -0.2662 -1.0107  0.9479
   64MPD2     N 1002   1.901   0.043  10.696 -0.1416  0.4939  0.0259
   64MPD2    H5 1003   1.976   4.722  10.662  0.6202  1.2617  0.3693
   64MPD2    N1 1004   1.806   4.374  10.907 -0.2286 -0.8819  0.5996
   64MPD2    H7 1005   1.895   4.339  10.873  0.4532 -0.4949  2.0030
   65TMC2    C1 1006   4.119   3.697  15.602 -0.3533 -1.1317  0.3963
   65TMC2    C2 1007   4.132   3.654  15.473 -0.3621 -0.2784  0.1065
   65TMC2    C3 1008   4.118   3.752  15.377 -0.2026 -0.3748 -0.2481
   65TMC2    C4 1009   4.111   3.829  15.636  0.3917  0.5570  0.6977
   65TMC2    C5 1010   4.123   3.922  15.528  0.2870 -0.9709 -0.6217
   65TMC2    C6 1011   4.122   3.881  15.401 -0.2584  0.0128  0.3176
   65TMC2     C 1012   4.109   3.607  15.719  0.4474  0.1662 -0.0131
   65TMC2     O 1013   4.129   3.651  15.831  0.7687  0.1667  0.1950
   65TMC2     H 1014   4.136   3.554  15.431 -1.8240 -0.8404  1.3007
   65TMC2    H1 1015   4.110   3.862  15.739  0.0124  0.4327  0.7332
   65TMC2    H2 1016   4.133   3.941  15.312 -1.1329  1.3853  1.1280
   65TMC2    C7 1017   4.086   4.063  15.550 -0.1830  0.1932 -0.3165
   65TMC2    C8 1018   4.148   3.709  15.246 -0.1229 -0.4330 -0.2451
   65TMC2    O1 1019   4.129   4.143  15.470 -0.3816  0.4890 -0.3056
   65TMC2    O2 1020   4.233   3.620  15.232  0.1287 -0.5233 -0.0425
   65TMC2    O5 1021   4.085   3.790  15.159 -0.2496 -0.5614  0.0309
   65TMC2    H5 1022   4.025   3.859  15.194  1.1133 -0.1683  1.5651
   66MPD2     C 1023   4.015   3.399  15.916 -0.0956 -1.1165 -0.2311
   66MPD2    C1 1024   4.003   3.392  15.772 -0.0258  0.7438 -0.0768
   66MPD2    C2 1025   3.936   3.271  15.721  0.5579  0.3950 -0.2070
   66MPD2    C3 1026   3.890   3.173  15.807 -0.6363  0.5900  0.0035
   66MPD2    C4 1027   3.911   3.182  15.944 -0.1510  0.1657  0.9328
   66MPD2    C5 1028   3.969   3.297  15.999  0.7743  0.4231  0.1298
   66MPD2     H 1029   3.925   3.267  15.613 -2.7456 -0.1639  0.1532
   66MPD2    H1 1030   3.877   3.114  16.021  0.5474  0.9945  1.9791
   66MPD2    H2 1031   4.066   3.477  15.970  0.0161 -0.4102 -1.3496
   66MPD2    H3 1032   3.992   3.305  16.105 -0.1921 -0.4261  0.3990
   66MPD2     N 1033   3.836   3.050  15.765 -0.1809  0.0577  0.4623
   66MPD2    H5 1034   3.801   2.990  15.839 -2.2428 -0.2364 -0.7658
   66MPD2    N1 1035   4.054   3.488  15.682 -0.1677 -0.3755  0.2401
   66MPD2    H7 1036   4.015   3.475  15.589 -0.5734 -0.7784  0.4642
   67TMC2    C1 1037   3.859   3.384  14.377  0.3775 -0.2081  0.5251
   67TMC2    C2 1038   3.842   3.489  14.462 -0.3114 -0.2267  0.1694
   67TMC2    C3 1039   3.901   3.481  14.581 -0.0410  0.1753 -0.7826
   67TMC2    C4 1040   3.928   3.273  14.405 -0.4193  0.1566 -0.7411
   67TMC2    C5 1041   3.984   3.268  14.531 -0.1446  0.0460 -0.1953
   67TMC2    C6 1042   3.975   3.375  14.620 -0.0621  0.0169  0.5950
   67TMC2     C 1043   3.770   3.366  14.261  0.3987 -0.5273 -0.3246
   67TMC2     O 1044   3.767   3.258  14.208 -0.0528  0.1536  0.3619
   67TMC2     H 1045   3.787   3.574  14.424 -1.4472 -0.1834  1.8787
   67TMC2    H1 1046   3.933   3.190  14.335  0.3295 -2.0396  1.8960
   67TMC2    H2 1047   4.030   3.363  14.713  1.2987  0.6785 -0.1168
   67TMC2    C7 1048   4.085   3.167  14.557  0.7578 -0.5487  0.4777
   67TMC2    C8 1049   3.883   3.583  14.678 -0.4356  0.2664 -0.5779
   67TMC2    O1 1050   4.148   3.116  14.465 -0.0190  0.5385 -0.0491
   67TMC2    O2 1051   3.952   3.583  14.779 -0.1934  0.6900 -0.3881
   67TMC2    O5 1052   3.754   3.620  14.671 -0.1493 -0.4559  0.1008
   67TMC2    H5 1053   3.710   3.589  14.589 -1.3001 -0.3560  0.6815
   68MPD2     C 1054   3.587   3.627  14.083 -0.8418  0.5715 -0.3752
   68MPD2    C1 1055   3.621   3.499  14.121 -0.5775  0.1879  0.0854
   68MPD2    C2 1056   3.536   3.388  14.088  0.0810 -0.6214 -0.9347
   68MPD2    C3 1057   3.425   3.420  14.006 -0.2222 -0.9159 -0.4797
   68MPD2    C4 1058   3.393   3.549  13.974  0.7657 -0.7138  0.7562
   68MPD2    C5 1059   3.478   3.648  14.010 -0.3932  0.5530  0.3459
   68MPD2     H 1060   3.550   3.286  14.123  1.2171 -0.2863 -0.4081
   68MPD2    H1 1061   3.301   3.568  13.920  0.9340  0.5202  0.9207
   68MPD2    H2 1062   3.655   3.708  14.108 -1.2914  1.7229 -2.8987
   68MPD2    H3 1063   3.441   3.749  13.998 -1.0245  0.2716 -0.0811
   68MPD2     N 1064   3.330   3.326  13.965  0.2931  0.3889  0.0819
   68MPD2    H5 1065   3.251   3.369  13.918 -2.1854 -0.4587  3.4431
   68MPD2    N1 1066   3.725   3.489  14.213 -0.1634 -0.2627  0.3145
   68MPD2    H7 1067   3.772   3.577  14.235  2.0475 -1.6990  1.2925
   69TMC2    C1 1068   1.326   4.645  12.308 -0.0355  0.1892 -0.7567
   69TMC2    C2 1069   1.192   4.615  12.322  0.6950 -0.3754  0.1098
   69TMC2    C3 1070   1.124   4.590  12.208  0.3160  0.0939 -0.7089
   69TMC2    C4 1071   1.380   4.657  12.181 -0.8128  0.0374  0.5949
   69TMC2    C5 1072   1.314   4.596  12.077 -0.5805  0.1073 -0.0751
   69TMC2    C6 1073   1.185   4.578  12.082 -0.3932 -0.1970  0.2271
   69TMC2     C 1074   1.421   4.622  12.415  0.5490 -0.0341  0.6759
   69TMC2     O 1075   1.526   4.686  12.401 -0.2383  0.4331 -0.9384
   69TMC2     H 1076   1.135   4.606  12.414  0.8916  2.1948  0.4765
   69TMC2    H1 1077   1.488   4.658  12.172 -0.6255 -2.4585  2.4306
   69TMC2    H2 1078   1.127   4.567  11.991 -0.9433  1.5260  0.3655
   69TMC2    C7 1079   1.392   4.521  11.981 -0.3614  0.2097  0.3699
   69TMC2    C8 1080   0.983   4.577  12.213  0.2374 -0.3286  0.8067
   69TMC2    O1 1081   1.507   4.497  12.022  0.5637  0.0199 -0.3463
   69TMC2    O2 1082   0.925   4.598  12.320 -0.4051 -0.0519  0.8227
   69TMC2    O5 1083   0.939   4.498  12.120  0.0280  0.1106  0.5388
   69TMC2    H5 1084   1.001   4.489  12.045 -0.4123 -1.8987  0.4308
   70MPD2     C 1085   1.593   4.425  12.557 -0.2692 -0.0180  0.6684
   70MPD2    C1 1086   1.462   4.448  12.586 -0.2406  0.6645 -0.0319
   70MPD2    C2 1087   1.407   4.367  12.676 -0.2861 -0.2837 -0.1487
   70MPD2    C3 1088   1.483   4.281  12.757  0.0915  0.8824 -0.2337
   70MPD2    C4 1089   1.617   4.278  12.737  0.2239  1.1276 -0.4634
   70MPD2    C5 1090   1.675   4.349  12.635  0.1049 -0.1635  0.4161
   70MPD2     H 1091   1.306   4.391  12.704 -0.1596 -0.1620  0.1995
   70MPD2    H1 1092   1.683   4.217  12.798 -0.5773 -0.7569 -1.4827
   70MPD2    H2 1093   1.643   4.475  12.475  0.5172 -0.6569  0.7642
   70MPD2    H3 1094   1.781   4.341  12.614 -0.0269  1.6603 -0.9521
   70MPD2     N 1095   1.423   4.200  12.855  0.7099  0.4530 -0.1610
   70MPD2    H5 1096   1.479   4.129  12.902 -1.8894 -1.0071  0.7479
   70MPD2    N1 1097   1.373   4.516  12.497  0.1169  0.3473  0.1808
   70MPD2    H7 1098   1.277   4.483  12.494  1.0210 -1.9681 -3.5585
   71TMC2    C1 1099   3.448   4.693   1.708  0.1797  0.3109 -0.1358
   71TMC2    C2 1100   3.536   0.044   1.758 -0.1678  0.3673 -0.8521
   71TMC2    C3 1101   3.517   0.078   1.892  0.1647 -0.4090  0.4188
   71TMC2    C4 1102   3.337   4.655   1.773  0.3408  0.1126 -0.0786
   71TMC2    C5 1103   3.312   4.702   1.899 -0.2586  0.5923  0.0103
   71TMC2    C6 1104   3.406   0.038   1.963  0.6471 -0.1263  0.6901
   71TMC2     C 1105   3.461   4.652   1.568  0.1247 -0.3436 -0.8850
   71TMC2     O 1106   3.356   4.633   1.509 -0.0186  0.2335  0.8158
   71TMC2     H 1107   3.627   0.077   1.709 -0.4499  0.8665 -1.0402
   71TMC2    H1 1108   3.265   4.601   1.714 -0.1428 -0.3438  0.9247
   71TMC2    H2 1109   3.380   0.088   2.056 -0.0055 -0.4051  0.6556
   71TMC2    C7 1110   3.186   4.693   1.965 -0.0335  0.2240  0.1062
   71TMC2    C8 1111   3.596   0.183   1.946 -0.1821  0.2159  0.7461
   71TMC2    O1 1112   3.181   4.727   2.083 -0.3025  0.2374  0.0242
   71TMC2    O2 1113   3.662   0.181   2.047  0.0753 -0.2578 -0.0363
   71TMC2    O5 1114   3.553   0.294   1.881 -0.5634 -0.0216  0.4129
   71TMC2    H5 1115   3.501   0.276   1.800  0.7827  0.1802 -0.4757
   72MPD2     C 1116   3.707   4.666   1.107 -0.5745 -0.2025  0.2556
   72MPD2    C1 1117   3.571   4.679   1.140 -0.3672 -0.5193 -0.5404
   72MPD2    C2 1118   3.538   4.664   1.280  0.6315  0.1992  0.1526
   72MPD2    C3 1119   3.632   4.658   1.382  0.1568  0.2665  0.2044
   72MPD2    C4 1120   3.769   4.651   1.341  0.3594  0.4833  0.1534
   72MPD2    C5 1121   3.800   4.659   1.208 -0.5004 -0.4909 -0.3474
   72MPD2     H 1122   3.433   4.666   1.306  0.6227 -1.0232  0.2153
   72MPD2    H1 1123   3.843   4.647   1.420 -1.1996 -0.1339  1.5685
   72MPD2    H2 1124   3.746   4.678   1.007 -0.2946 -2.3756  0.1023
   72MPD2    H3 1125   3.906   4.664   1.186 -0.7189 -0.0203 -1.2872
   72MPD2     N 1126   3.593   4.664   1.521 -0.4303 -0.6033 -0.7445
   72MPD2    H5 1127   3.662   4.663   1.595 -2.2028  0.0982  0.9090
   72MPD2    N1 1128   3.465   4.722   1.050  0.6416  0.3690 -1.0876
   72MPD2    H7 1129   3.368   4.711   1.076  0.6222  0.5436 -1.0817
   73TMC2    C1 1130   2.872   1.600  13.891  0.5808  0.0382  0.2891
   73TMC2    C2 1131   2.855   1.539  14.009  0.0473  0.3911  0.3416
   73TMC2    C3 1132   2.964   1.486  14.065  0.0670  0.5076  0.0174
   73TMC2    C4 1133   2.990   1.593  13.821 -0.7586 -0.4507 -0.0663
   73TMC2    C5 1134   3.103   1.548  13.887  0.1545  0.5683  0.4454
   73TMC2    C6 1135   3.094   1.501  14.014  0.2062  0.4488  0.1031
   73TMC2     C 1136   2.806   1.723  13.868  0.6236  0.3908 -0.4934
   73TMC2     O 1137   2.882   1.803  13.812  0.0670  0.0436  0.0577
   73TMC2     H 1138   2.755   1.535  14.049  0.3555 -0.3047  1.0282
   73TMC2    H1 1139   2.997   1.625  13.718  1.1400 -0.3120  0.1061
   73TMC2    H2 1140   3.181   1.462  14.067 -0.3168  0.6413  1.1089
   73TMC2    C7 1141   3.212   1.634  13.870  0.2953 -0.5789 -0.4205
   73TMC2    C8 1142   2.957   1.407  14.192  0.3192  0.0830 -0.3618
   73TMC2    O1 1143   3.327   1.599  13.896 -0.0152 -0.0152  0.4860
   73TMC2    O2 1144   3.050   1.419  14.271 -0.2646  0.6636  0.1481
   73TMC2    O5 1145   2.928   1.289  14.137  0.1854  0.4311 -0.6951
   73TMC2    H5 1146   2.878   1.296  14.052 -0.6733 -1.2430 -0.3279
   74MPD2     C 1147   2.481   2.110  13.960 -0.2505  0.4922  0.0327
   74MPD2    C1 1148   2.609   2.108  13.908  0.6471  0.2444  1.1405
   74MPD2    C2 1149   2.668   1.988  13.884 -0.3096  0.1005 -0.5004
   74MPD2    C3 1150   2.614   1.868  13.936 -0.1884  0.3507 -0.4868
   74MPD2    C4 1151   2.488   1.876  13.992  0.5889 -0.8085 -0.7874
   74MPD2    C5 1152   2.425   1.993  14.002  0.1130 -0.7341 -0.6702
   74MPD2     H 1153   2.760   1.990  13.827  0.1136  0.8544  0.2153
   74MPD2    H1 1154   2.439   1.789  14.035  2.6601 -0.6455  1.9346
   74MPD2    H2 1155   2.431   2.205  13.974  0.0489  0.2522  2.7963
   74MPD2    H3 1156   2.325   1.988  14.044  0.7661 -0.2141  0.9318
   74MPD2     N 1157   2.676   1.741  13.917  0.9037  0.1925  0.0614
   74MPD2    H5 1158   2.628   1.655  13.941  0.3960  0.3396 -0.4195
   74MPD2    N1 1159   2.659   2.232  13.861 -0.1027 -1.3170 -0.2917
   74MPD2    H7 1160   2.605   2.315  13.877  2.4134 -0.1794  2.3213
   75TMC2    C1 1161   3.230   3.115  13.925  0.0078 -0.7045  0.1319
   75TMC2    C2 1162   3.115   3.148  13.998  0.1781  0.4598  0.0220
   75TMC2    C3 1163   3.009   3.060  14.013 -0.7887  0.1227  0.4224
   75TMC2    C4 1164   3.248   2.991  13.878  0.0648  0.2632  0.1423
   75TMC2    C5 1165   3.142   2.907  13.888  0.2674 -0.0813  0.0961
   75TMC2    C6 1166   3.017   2.940  13.941  0.1969 -0.4067 -0.7962
   75TMC2     C 1167   3.350   3.187  13.967 -0.1019 -0.3667 -0.6483
   75TMC2     O 1168   3.452   3.117  13.978  0.1075  0.3381  0.1431
   75TMC2     H 1169   3.110   3.245  14.047  1.1839 -0.3562  1.7407
   75TMC2    H1 1170   3.344   2.973  13.832  0.9483 -0.1597  2.1324
   75TMC2    H2 1171   2.934   2.871  13.936 -0.6294  0.5800 -0.8489
   75TMC2    C7 1172   3.125   2.831  13.765 -0.0607  0.0219 -0.3194
   75TMC2    C8 1173   2.945   3.060  14.143  0.4141  0.4897  0.3423
   75TMC2    O1 1174   3.008   2.831  13.723 -0.3184  0.0694 -0.4402
   75TMC2    O2 1175   3.010   3.089  14.240  0.2628 -0.1653  0.0105
   75TMC2    O5 1176   2.853   2.962  14.139 -0.4734  0.5956 -0.2976
   75TMC2    H5 1177   2.792   2.968  14.063  0.7958  1.3506 -1.2730
   76TMC2    C1 1178   2.352   3.506  12.271 -0.5681  0.0674 -0.4842
   76TMC2    C2 1179   2.239   3.442  12.288 -0.4647  0.0092  0.0222
   76TMC2    C3 1180   2.223   3.360  12.392  0.5113 -0.1699  0.0803
   76TMC2    C4 1181   2.460   3.501  12.364  0.6484  0.0844  0.2642
   76TMC2    C5 1182   2.435   3.417  12.471  0.0744 -0.7183  0.1301
   76TMC2    C6 1183   2.320   3.346  12.489 -0.2160  0.1305  0.2189
   76TMC2     C 1184   2.360   3.603  12.160  0.3519 -0.3285  0.4184
   76TMC2     O 1185   2.250   3.657  12.135  0.6887 -1.3189  0.7795
   76TMC2     H 1186   2.156   3.453  12.219  1.0908  1.1443 -1.6413
   76TMC2    H1 1187   2.542   3.572  12.368 -0.2667  1.1979 -1.0861
   76TMC2    H2 1188   2.296   3.284  12.575  0.1182 -2.2039 -1.3718
   76TMC2    C7 1189   2.547   3.394  12.559  0.6391 -0.3051  0.2264
   76TMC2    C8 1190   2.097   3.281  12.387 -0.5682  0.0832 -0.1519
   76TMC2    O1 1191   2.519   3.348  12.668  0.0998 -0.4711  0.4546
   76TMC2    O2 1192   1.997   3.337  12.339 -0.3911 -0.3326  0.2657
   76TMC2    O5 1193   2.144   3.158  12.350 -0.9501 -0.9100 -0.5558
   76TMC2    H5 1194   2.242   3.156  12.351 -1.0175 -3.0026  1.2686
   77MPD2     C 1195   2.590   3.984  11.888 -0.5778  0.1672 -0.3780
   77MPD2    C1 1196   2.457   3.955  11.905 -0.4621  0.0660  0.3575
   77MPD2    C2 1197   2.419   3.840  11.979  0.2858  0.0188  0.2442
   77MPD2    C3 1198   2.513   3.765  12.046 -0.3493  0.3668 -0.3570
   77MPD2    C4 1199   2.646   3.789  12.018  0.4418 -0.1359 -0.1229
   77MPD2    C5 1200   2.679   3.903  11.947  0.0198 -0.1463 -0.1658
   77MPD2     H 1201   2.314   3.811  11.984  0.1360  0.5491  0.2175
   77MPD2    H1 1202   2.731   3.740  12.066 -0.4472 -3.1678 -1.7050
   77MPD2    H2 1203   2.636   4.066  11.835 -0.1621  2.0481  2.8782
   77MPD2    H3 1204   2.786   3.917  11.931 -0.3243  0.4469 -1.9075
   77MPD2     N 1205   2.489   3.650  12.125  0.5856  0.0299 -0.3496
   77MPD2    H5 1206   2.569   3.594  12.151 -0.4170 -0.9531  0.6146
   77MPD2    N1 1207   2.367   4.039  11.829  0.2807 -0.3116 -0.4319
   77MPD2    H7 1208   2.406   4.112  11.769  1.9681 -0.7715  0.1163
   78TMC2    C1 1209   2.790   4.245   1.954 -0.1637  0.3162 -0.1464
   78TMC2    C2 1210   2.773   4.248   2.088 -0.5014  0.3843 -0.2832
   78TMC2    C3 1211   2.879   4.262   2.164  0.1723 -0.5038 -0.0715
   78TMC2    C4 1212   2.913   4.263   1.896 -0.2494 -0.3922  0.1724
   78TMC2    C5 1213   3.018   4.281   1.976  0.2556  0.1468 -0.0122
   78TMC2    C6 1214   3.005   4.284   2.114  0.7444  0.2927 -0.2443
   78TMC2     C 1215   2.678   4.190   1.875 -0.1950 -0.5521  0.1146
   78TMC2     O 1216   2.568   4.190   1.931 -0.2399 -0.5861 -0.1302
   78TMC2     H 1217   2.677   4.228   2.135  0.7591 -2.8356  0.9253
   78TMC2    H1 1218   2.929   4.277   1.790 -0.1561  2.5668  0.5737
   78TMC2    H2 1219   3.092   4.282   2.179  0.4582  1.1174  0.1545
   78TMC2    C7 1220   3.149   4.315   1.915 -0.0200  0.0378 -0.8111
   78TMC2    C8 1221   2.854   4.291   2.303  0.0492 -0.8619  0.6225
   78TMC2    O1 1222   3.163   4.294   1.792 -0.0088  0.2519 -0.1736
   78TMC2    O2 1223   2.751   4.257   2.362  0.5704 -0.0778 -0.4505
   78TMC2    O5 1224   2.929   4.392   2.348 -0.4709  0.5312 -0.5013
   78TMC2    H5 1225   3.004   4.409   2.287  0.4529  0.8957  0.7456
   79MPD1     C 1226   2.469   3.971   1.460 -0.3768  0.2887 -0.0645
   79MPD1    C1 1227   2.412   4.024   1.574  0.0409  0.6100 -1.4665
   79MPD1    C2 1228   2.490   4.068   1.673 -0.0654  0.2928 -0.9675
   79MPD1    C3 1229   2.629   4.079   1.657 -0.4134 -1.1024  0.0672
   79MPD1    C4 1230   2.684   4.043   1.536 -0.9196  0.3755  0.0617
   79MPD1    C5 1231   2.600   3.984   1.437  0.4149  0.3539 -0.1678
   79MPD1     H 1232   2.446   4.103   1.766 -0.8587 -1.2169 -0.7722
   79MPD1    H1 1233   2.790   4.060   1.520 -0.5579 -1.1913  0.7467
   79MPD1    H2 1234   2.406   3.933   1.381 -2.1913  0.1300  1.4521
   79MPD1    H3 1235   2.641   3.965   1.338  0.2274  1.2565 -0.4111
   79MPD1     N 1236   2.711   4.139   1.754 -0.1681 -0.2033 -0.3777
   79MPD1    H5 1237   2.811   4.133   1.735 -0.5073 -0.7480 -2.0022
   79MPD1    N1 1238   2.274   4.010   1.600  0.5762  0.4713  0.5704
   79MPD1    H6 1239   2.225   4.035   1.514  2.0772 -0.3856 -0.5443
   79MPD1    H7 1240   2.243   4.077   1.669 -0.3637 -0.1242  0.7305
   80TMC2    C1 1241   1.120   3.370  11.708 -0.9861  0.7044  0.2032
   80TMC2    C2 1242   1.114   3.339  11.573 -0.0449 -0.1675  0.3691
   80TMC2    C3 1243   0.997   3.273  11.541 -0.1096 -0.0905 -0.1002
   80TMC2    C4 1244   1.028   3.329  11.804  0.1856 -0.4830 -0.7241
   80TMC2    C5 1245   0.912   3.276  11.758 -0.6469 -0.0409 -0.3683
   80TMC2    C6 1246   0.895   3.241  11.626 -0.3930 -0.6501 -1.0822
   80TMC2     C 1247   1.246   3.428  11.738 -0.1275 -0.8136  0.1358
   80TMC2     O 1248   1.335   3.399  11.656 -0.3967 -0.3936  0.5241
   80TMC2     H 1249   1.180   3.380  11.498  0.4736 -0.2904  0.7630
   80TMC2    H1 1250   1.051   3.359  11.906 -1.1937  0.4170 -0.6785
   80TMC2    H2 1251   0.805   3.195  11.588 -1.7010 -0.3058  1.5558
   80TMC2    C7 1252   0.803   3.256  11.852 -0.4591 -0.2304 -0.9608
   80TMC2    C8 1253   0.983   3.231  11.405 -0.9614  0.1562 -1.0046
   80TMC2    O1 1254   0.691   3.229  11.808 -0.0066  0.1468  0.2105
   80TMC2    O2 1255   0.875   3.220  11.353 -0.1597 -0.1391 -0.5240
   80TMC2    O5 1256   1.103   3.195  11.359 -0.2803  0.2000 -0.3294
   80TMC2    H5 1257   1.173   3.176  11.424  1.6283 -0.3891 -2.5657
   81MPD2     C 1258   1.495   3.561  11.845 -0.1841 -0.7820 -0.5927
   81MPD2    C1 1259   1.370   3.575  11.902  0.4262  0.0121  0.2940
   81MPD2    C2 1260   1.353   3.650  12.020  0.8997 -0.1520  0.1405
   81MPD2    C3 1261   1.466   3.701  12.087  0.2482 -0.7344 -0.0898
   81MPD2    C4 1262   1.586   3.675  12.038 -0.6823  0.2649 -0.5685
   81MPD2    C5 1263   1.600   3.620  11.914  0.5087  0.4938  0.5704
   81MPD2     H 1264   1.253   3.670  12.057  1.4363  1.3193  0.8322
   81MPD2    H1 1265   1.680   3.706  12.083 -0.5799 -1.9458  0.7529
   81MPD2    H2 1266   1.522   3.493  11.765 -1.2970 -1.6967 -0.1923
   81MPD2    H3 1267   1.704   3.611  11.885  0.7116  1.1678  1.0959
   81MPD2     N 1268   1.456   3.783  12.205 -0.7438  0.0019  0.6061
   81MPD2    H5 1269   1.539   3.810  12.258  0.0675 -0.3359 -0.5118
   81MPD2    N1 1270   1.252   3.508  11.850 -0.0316  0.1428 -0.0590
   81MPD2    H7 1271   1.165   3.515  11.901 -0.5218  0.4374 -0.9376
   82TMC2    C1 1272   2.853   2.699  10.681  0.2626 -0.2912 -0.7705
   82TMC2    C2 1273   2.778   2.642  10.585 -0.5633  0.1140  0.1189
   82TMC2    C3 1274   2.689   2.546  10.621  0.1661 -0.2982 -0.6680
   82TMC2    C4 1275   2.855   2.652  10.807 -0.2712  0.1135  0.4535
   82TMC2    C5 1276   2.764   2.556  10.840 -0.0109 -0.2951  0.2392
   82TMC2    C6 1277   2.662   2.513  10.752  0.5038  0.4117  0.1459
   82TMC2     C 1278   2.901   2.829  10.653  0.2246 -0.0621 -0.2776
   82TMC2     O 1279   2.861   2.892  10.555 -0.4709  0.0668  0.2259
   82TMC2     H 1280   2.793   2.679  10.484 -2.1125  1.8967  0.5217
   82TMC2    H1 1281   2.943   2.664  10.870  0.3370 -1.8063 -0.0193
   82TMC2    H2 1282   2.571   2.461  10.776  1.1384 -0.3212  0.9658
   82TMC2    C7 1283   2.758   2.491  10.967  0.5227 -0.0233 -0.0922
   82TMC2    C8 1284   2.576   2.528  10.525  0.2897  0.3163 -0.5410
   82TMC2    O1 1285   2.836   2.535  11.051 -0.0257 -0.4161  0.0477
   82TMC2    O2 1286   2.568   2.605  10.431 -0.5034  0.1465  0.5549
   82TMC2    O5 1287   2.509   2.414  10.547  0.2021 -0.1400 -0.1248
   82TMC2    H5 1288   2.551   2.357  10.615  1.3450  0.9777  0.0938
   83MPD2     C 1289   3.018   3.274  10.879 -0.1222 -0.3166  0.7167
   83MPD2    C1 1290   2.943   3.255  10.761 -0.4103 -0.4532  0.5231
   83MPD2    C2 1291   2.929   3.127  10.716  0.0972 -0.1184  0.8080
   83MPD2    C3 1292   2.986   3.016  10.784 -0.5233 -0.0890 -0.0777
   83MPD2    C4 1293   3.066   3.042  10.897 -0.2832 -0.9381  0.2401
   83MPD2    C5 1294   3.090   3.169  10.937  0.5735 -0.6380  0.4016
   83MPD2     H 1295   2.865   3.114  10.629 -1.6273  3.5663  1.5412
   83MPD2    H1 1296   3.123   2.968  10.952 -0.2884 -0.2019  1.2457
   83MPD2    H2 1297   3.033   3.373  10.921 -0.1313  0.0870 -0.2294
   83MPD2    H3 1298   3.152   3.195  11.022  0.9691  2.1779 -0.7316
   83MPD2     N 1299   2.968   2.878  10.764 -0.0674 -0.4804  0.4357
   83MPD2    H5 1300   3.023   2.810  10.815 -1.2451 -1.6443  0.1399
   83MPD2    N1 1301   2.871   3.365  10.707  0.3935  0.5770  0.4192
   83MPD2    H7 1302   2.879   3.452  10.759 -0.6035  1.0508 -0.2249
   84TMC2    C1 1303   0.077   1.879  11.348  0.1644  0.9924  0.2673
   84TMC2    C2 1304   0.049   1.775  11.432 -0.7594 -0.5873 -0.6451
   84TMC2    C3 1305   4.699   1.683  11.389  0.2389  0.2049  0.3409
   84TMC2    C4 1306   4.730   1.917  11.247 -0.2578 -0.0866  0.3498
   84TMC2    C5 1307   4.633   1.828  11.210  1.1195  0.4169  0.2302
   84TMC2    C6 1308   4.623   1.713  11.278  0.2637  0.3285 -0.0863
   84TMC2     C 1309   0.164   1.984  11.393 -0.4364 -0.3163 -1.0231
   84TMC2     O 1310   0.161   2.096  11.344 -0.4201 -0.6593  0.3175
   84TMC2     H 1311   0.108   1.749  11.520  0.4301  0.4522 -1.1219
   84TMC2    H1 1312   0.035   1.996  11.187  2.5523 -1.9458 -0.0941
   84TMC2    H2 1313   4.561   1.637  11.232 -1.0495  2.0597 -1.2071
   84TMC2    C7 1314   4.528   1.868  11.122 -0.4515  0.1502 -0.1596
   84TMC2    C8 1315   4.684   1.562  11.464 -0.5626 -0.0876  0.6552
   84TMC2    O1 1316   4.443   1.786  11.102  0.5423  0.0557  0.3719
   84TMC2    O2 1317   0.042   1.505  11.520  0.1581 -0.0194 -0.0836
   84TMC2    O5 1318   4.553   1.565  11.508  0.2564 -0.3576  0.0015
   84TMC2    H5 1319   4.489   1.628  11.469 -1.9583 -2.2767  0.4965
   85TMC2    C1 1320   1.501   0.121  16.106 -0.1948  0.6053  0.3492
   85TMC2    C2 1321   1.393   0.196  16.082 -0.1008 -0.8824 -0.2590
   85TMC2    C3 1322   1.416   0.314  16.014 -0.1335 -0.8593  0.5770
   85TMC2    C4 1323   1.634   0.150  16.077 -0.1230 -0.2845 -0.0296
   85TMC2    C5 1324   1.653   0.257  16.010 -0.2405 -0.8949 -0.3635
   85TMC2    C6 1325   1.547   0.342  15.985  0.0199  0.3761 -0.6825
   85TMC2     C 1326   1.488   0.013  16.196  0.2947  0.3740 -0.4539
   85TMC2     O 1327   1.587   4.714  16.256  0.0632  0.1745 -0.1437
   85TMC2     H 1328   1.289   0.173  16.104  0.1030 -0.8488  0.7204
   85TMC2    H1 1329   1.714   0.078  16.093  0.8027  0.6989 -0.2562
   85TMC2    H2 1330   1.570   0.439  15.944  1.1467 -0.2488 -1.5018
   85TMC2    C7 1331   1.760   0.239  15.901  0.3371  0.0471  0.7068
   85TMC2    C8 1332   1.331   0.424  16.037  0.3711 -0.2943 -0.2031
   85TMC2    O1 1333   1.847   0.158  15.932 -0.2418 -0.4850 -0.1794
   85TMC2    O2 1334   1.350   0.533  15.980  0.2123  0.1778  0.0866
   85TMC2    O5 1335   1.288   0.406  16.164  0.1667 -0.2401 -0.2921
   85TMC2    H5 1336   1.310   0.321  16.208  1.8160 -0.9968 -2.6086
   86MPD2     C 1337   1.280   4.331  16.403  0.7958 -0.6108 -0.0413
   86MPD2    C1 1338   1.217   4.355  16.284 -0.5345  0.3038  0.6356
   86MPD2    C2 1339   1.254   4.465  16.210  0.2323 -0.5285 -0.1310
   86MPD2    C3 1340   1.345   4.567  16.255  0.8937 -0.0809  0.0787
   86MPD2    C4 1341   1.400   4.540  16.383 -0.0790 -0.4549  0.4021
   86MPD2    C5 1342   1.370   4.425  16.444 -0.0197 -0.1287 -0.1386
   86MPD2     H 1343   1.193   4.496  16.126 -0.1076 -0.3256  0.1919
   86MPD2    H1 1344   1.469   4.609  16.429  0.0655  0.6475 -1.4532
   86MPD2    H2 1345   1.260   4.238  16.455  0.4017  1.6783  3.8328
   86MPD2    H3 1346   1.406   4.399  16.543 -0.8812 -1.9878 -0.3208
   86MPD2     N 1347   1.373   4.680  16.182  0.2181  0.2172 -0.1946
   86MPD2    H5 1348   1.316   4.698  16.100  1.8763  1.2075 -1.1342
   86MPD2    N1 1349   1.115   4.269  16.240 -0.2204  0.4688 -0.2163
   86MPD2    H7 1350   1.086   4.277  16.144 -0.4604  0.0244 -0.1831
   87TMC2    C1 1351   3.737   2.572   1.122 -1.2116 -0.0559  0.1284
   87TMC2    C2 1352   3.747   2.540   1.255  0.0775 -0.3323  0.5751
   87TMC2    C3 1353   3.805   2.631   1.336  0.1955  0.4292 -0.2528
   87TMC2    C4 1354   3.777   2.687   1.071 -0.3025 -0.1850 -0.2758
   87TMC2    C5 1355   3.843   2.776   1.153 -0.2799  0.5284  0.0230
   87TMC2    C6 1356   3.848   2.754   1.289  0.2682  0.2946 -0.7260
   87TMC2     C 1357   3.703   2.468   1.027 -0.1892  0.5626 -0.1536
   87TMC2     O 1358   3.660   2.500   0.916  0.3920 -0.1280  0.6686
   87TMC2     H 1359   3.711   2.443   1.288 -1.7339  0.6866  1.5566
   87TMC2    H1 1360   3.771   2.701   0.964  0.5369 -0.6832 -0.3829
   87TMC2    H2 1361   3.881   2.831   1.358 -0.4683 -0.7165  0.7600
   87TMC2    C7 1362   3.816   2.916   1.115  0.5910 -0.7560  0.0207
   87TMC2    C8 1363   3.771   2.633   1.476 -0.4051  0.3019 -0.1355
   87TMC2    O1 1364   3.706   2.944   1.078 -0.1208 -0.3471  0.0452
   87TMC2    O2 1365   3.826   2.715   1.552  0.3128  0.0691  0.7662
   87TMC2    O5 1366   3.647   2.590   1.482  0.1457 -0.2442  0.0834
   87TMC2    H5 1367   3.615   2.559   1.395 -0.9049 -1.4174  0.8881
   88MPD2     C 1368   4.035   3.196   1.173  0.3890  0.3814  0.4987
   88MPD2    C1 1369   3.935   3.129   1.114 -1.1149  0.5339 -0.0581
   88MPD2    C2 1370   3.870   3.178   1.003  0.0301  0.0116  0.1472
   88MPD2    C3 1371   3.907   3.301   0.955  0.0081 -0.0437  0.3127
   88MPD2    C4 1372   4.009   3.366   1.015  0.1263 -0.1054  0.5022
   88MPD2    C5 1373   4.069   3.320   1.123  0.0417 -0.6166  0.6087
   88MPD2     H 1374   3.811   3.108   0.945 -1.3345  1.8566 -0.6886
   88MPD2    H1 1375   4.038   3.465   0.984  1.5630 -0.8215 -0.4605
   88MPD2    H2 1376   4.088   3.168   1.263 -3.0778  2.4265  3.1408
   88MPD2    H3 1377   4.145   3.381   1.171  0.2410  0.6889 -1.3853
   88MPD2     N 1378   3.858   3.357   0.833  0.3892 -0.2621 -0.1619
   88MPD2    H5 1379   3.930   3.406   0.781 -0.0225  2.5433  1.8917
   88MPD2    N1 1380   3.919   2.995   1.156  0.1347  0.2941 -0.4760
   88MPD2    H7 1381   3.997   2.957   1.209 -1.1165 -2.0860 -0.3200
   89TMC2    C1 1382   4.112   1.646   1.873 -0.8022  0.3325  0.3742
   89TMC2    C2 1383   4.196   1.739   1.933  0.0660  0.2096 -0.6688
   89TMC2    C3 1384   4.321   1.758   1.876  0.6552  0.4290 -0.3592
   89TMC2    C4 1385   4.142   1.590   1.751 -0.0723  0.0707  0.1611
   89TMC2    C5 1386   4.255   1.627   1.690  0.3261  0.2097 -0.3921
   89TMC2    C6 1387   4.354   1.705   1.753 -0.7483  0.3092  0.0708
   89TMC2     C 1388   3.982   1.614   1.932  1.2086  0.2091  0.4160
   89TMC2     O 1389   3.921   1.699   1.995  0.8600  0.2172 -0.3395
   89TMC2     H 1390   4.172   1.777   2.031 -0.3783 -0.5640 -0.4741
   89TMC2    H1 1391   4.053   1.548   1.705 -1.3052  2.2305  0.5609
   89TMC2    H2 1392   4.457   1.681   1.732 -0.3650  1.0034  1.1742
   89TMC2    C7 1393   4.280   1.547   1.577 -0.2782 -0.0557 -0.0782
   89TMC2    C8 1394   4.426   1.816   1.963  0.2070 -0.2898  0.1165
   89TMC2    O1 1395   4.208   1.452   1.560  0.2363 -0.6710 -0.1113
   89TMC2    O2 1396   4.413   1.841   2.085  0.2398 -0.1314  0.5052
   89TMC2    O5 1397   4.513   1.869   1.878  0.4424 -0.3857  0.5365
   89TMC2    H5 1398   4.516   1.832   1.787 -4.3161 -0.7296  0.4960
   90MPD2     C 1399   3.669   1.224   2.012 -0.2891  0.1199  0.0212
   90MPD2    C1 1400   3.767   1.184   1.921  0.2442 -0.7180 -0.5592
   90MPD2    C2 1401   3.849   1.283   1.882 -0.4448  0.0279 -0.1061
   90MPD2    C3 1402   3.853   1.403   1.946  0.2816  0.1300  0.0180
   90MPD2    C4 1403   3.750   1.449   2.025 -0.1487  0.6651  0.6215
   90MPD2    C5 1404   3.656   1.355   2.055  0.5041  0.8868  0.0883
   90MPD2     H 1405   3.933   1.262   1.817 -0.7063  0.0462 -0.4451
   90MPD2    H1 1406   3.748   1.550   2.063  2.6363  0.0682  2.3485
   90MPD2    H2 1407   3.596   1.155   2.053 -2.5021  2.4526 -0.0001
   90MPD2    H3 1408   3.577   1.379   2.125 -0.7056  0.5303 -1.1743
   90MPD2     N 1409   3.967   1.485   1.908  0.1345 -0.3258 -0.1889
   90MPD2    H5 1410   4.046   1.441   1.861 -0.0442 -1.9019  0.9723
   90MPD2    N1 1411   3.781   1.052   1.871  0.0897  0.2601  0.6110
   90MPD2    H7 1412   3.870   1.027   1.828  0.7111  1.2671  1.3083
   91TMC2    C1 1413   0.868   0.506  16.937  0.0930 -0.3377 -0.0505
   91TMC2    C2 1414   0.879   0.438  17.057  0.5741 -0.2785  0.4541
   91TMC2    C3 1415   0.815   0.323  17.064 -0.6299  0.0335  0.0703
   91TMC2    C4 1416   0.791   0.465  16.832  0.2942  0.1724  0.3704
   91TMC2    C5 1417   0.732   0.343  16.845  1.0040  0.0440 -0.0916
   91TMC2    C6 1418   0.752   0.267  16.954  0.3190 -0.5005  0.1194
   91TMC2     C 1419   0.959   0.614  16.918 -0.3305  0.3093 -0.5410
   91TMC2     O 1420   0.959   0.685  17.018 -0.0479  0.0330 -0.0069
   91TMC2     H 1421   0.931   0.485  17.140 -0.5214 -1.0811  1.5897
   91TMC2    H1 1422   0.798   0.526  16.743  0.7798  0.2078  0.4351
   91TMC2    H2 1423   0.711   0.167  16.957 -1.9442  0.4329 -0.1624
   91TMC2    C7 1424   0.650   0.286  16.740  0.2894  0.3964 -0.1871
   91TMC2    C8 1425   0.875   0.244  17.173 -0.0677  0.2910  0.8477
   91TMC2    O1 1426   0.588   0.181  16.756 -0.1807 -0.0858 -0.1255
   91TMC2    O2 1427   0.901   0.127  17.176 -1.0000  0.0932 -0.9342
   91TMC2    O5 1428   0.873   0.323  17.284 -0.4701  0.0285 -0.1551
   91TMC2    H5 1429   0.816   0.402  17.276 -2.2617 -1.2074  0.2388
   92MPD2     C 1430   1.097   0.849  16.812  0.1789 -0.3051  0.2748
   92MPD2    C1 1431   1.098   0.726  16.749  0.7191  0.0305 -0.2734
   92MPD2    C2 1432   1.166   0.709  16.630  0.0522  0.1869  0.2121
   92MPD2    C3 1433   1.239   0.815  16.568  0.2992 -0.1995  0.0818
   92MPD2    C4 1434   1.235   0.937  16.631 -0.4650  0.6900 -0.0943
   92MPD2    C5 1435   1.164   0.952  16.746  0.8322 -0.2972 -0.5643
   92MPD2     H 1436   1.175   0.608  16.592  2.0678  1.4928 -2.8105
   92MPD2    H1 1437   1.288   1.023  16.591 -2.2622  0.6701 -2.5033
   92MPD2    H2 1438   1.042   0.878  16.901 -0.7172 -2.5764  0.4399
   92MPD2    H3 1439   1.158   1.052  16.789 -0.3115 -0.3665 -0.5764
   92MPD2     N 1440   1.309   0.796  16.448  0.7129  0.3079 -0.6929
   92MPD2    H5 1441   1.321   0.697  16.427  0.5336  0.4351 -1.3849
   92MPD2    N1 1442   1.018   0.618  16.794 -0.1204 -0.0075 -0.7153
   92MPD2    H7 1443   1.014   0.527  16.749 -1.2974 -0.3694  0.1100
   93TMC2    C1 1444   3.261   0.702  14.061 -0.3095  0.4647 -0.2824
   93TMC2    C2 1445   3.373   0.677  14.133 -0.9341  0.3154  0.4883
   93TMC2    C3 1446   3.477   0.765  14.127 -0.4809 -0.0695 -0.2447
   93TMC2    C4 1447   3.242   0.824  14.001  0.2281  0.1185 -1.0246
   93TMC2    C5 1448   3.331   0.919  14.019 -0.4657 -0.0912  0.9747
   93TMC2    C6 1449   3.454   0.895  14.088  0.1820 -0.3535 -0.4726
   93TMC2     C 1450   3.172   0.596  14.026  0.6861  0.7219  0.0153
   93TMC2     O 1451   3.222   0.484  14.013 -0.2138 -0.1267 -0.1504
   93TMC2     H 1452   3.374   0.579  14.180  3.6666 -0.1743 -0.5840
   93TMC2    H1 1453   3.158   0.843  13.936 -2.2119 -0.1904  2.0719
   93TMC2    H2 1454   3.526   0.975  14.100 -0.2451  0.5557 -4.2438
   93TMC2    C7 1455   3.360   0.990  13.896  0.7514  0.3391  0.1357
   93TMC2    C8 1456   3.599   0.737  14.198  0.3317  0.9500 -0.1311
   93TMC2    O1 1457   3.478   0.992  13.870  0.0988  0.0821 -0.5901
   93TMC2    O2 1458   3.641   0.623  14.219 -0.0610  0.4537  0.5486
   93TMC2    O5 1459   3.623   0.850  14.274 -0.3161 -0.0744  0.0354
   93TMC2    H5 1460   3.549   0.912  14.258 -1.8122 -2.1592 -1.0702
   94MPD2     C 1461   2.950   0.431  13.927  0.0739  0.1012 -0.2536
   94MPD2    C1 1462   2.932   0.558  13.979  0.7813 -0.2014 -0.1014
   94MPD2    C2 1463   2.801   0.606  13.984 -0.6479  0.9102 -0.5078
   94MPD2    C3 1464   2.699   0.524  13.939  0.3190 -0.0717  0.0834
   94MPD2    C4 1465   2.718   0.391  13.908 -0.2976 -0.9039  0.2569
   94MPD2    C5 1466   2.847   0.348  13.908 -0.0476 -0.1585 -0.5023
   94MPD2     H 1467   2.783   0.704  14.027 -2.4129  0.4682 -0.2519
   94MPD2    H1 1468   2.642   0.329  13.862  0.2235 -1.0866 -0.3577
   94MPD2    H2 1469   3.049   0.389  13.912  0.0067 -0.2322  0.2319
   94MPD2    H3 1470   2.864   0.246  13.877 -0.1926 -0.4300  0.2937
   94MPD2     N 1471   2.563   0.570  13.927 -0.5638  0.7427  0.3187
   94MPD2    H5 1472   2.491   0.506  13.895 -0.5078 -0.4650  2.6534
   94MPD2    N1 1473   3.043   0.640  14.022 -0.3320  0.1154  0.2198
   94MPD2    H7 1474   3.022   0.735  14.053  0.8447  0.3023  0.4432
   95TMC2    C1 1475   3.500   2.772  14.740 -0.0276 -0.4900  0.4104
   95TMC2    C2 1476   3.419   2.885  14.725  0.8612 -0.2284 -0.7668
   95TMC2    C3 1477   3.345   2.891  14.608 -1.1131 -0.2703  0.0107
   95TMC2    C4 1478   3.524   2.685  14.639  0.2648 -0.6246 -0.0719
   95TMC2    C5 1479   3.454   2.707  14.519 -0.1112 -0.0040  0.9813
   95TMC2    C6 1480   3.359   2.805  14.504 -0.2101 -0.2383 -0.5681
   95TMC2     C 1481   3.546   2.739  14.875 -0.3912 -0.0836  0.2866
   95TMC2     O 1482   3.519   2.820  14.963  0.3227  0.6190 -0.1098
   95TMC2     H 1483   3.405   2.961  14.800 -3.1067 -1.8373  0.1136
   95TMC2    H1 1484   3.599   2.607  14.649  0.3744 -0.4129  0.7275
   95TMC2    H2 1485   3.320   2.819  14.403  0.6492 -2.3350 -1.1949
   95TMC2    C7 1486   3.515   2.641  14.402  1.0214 -0.2902  0.4473
   95TMC2    C8 1487   3.231   2.980  14.610 -0.1552  0.3755  0.0439
   95TMC2    O1 1488   3.607   2.561  14.428 -0.6609 -0.0203  0.3762
   95TMC2    O2 1489   3.219   3.089  14.659 -0.6609 -0.2359  0.7425
   95TMC2    O5 1490   3.154   2.942  14.509 -0.7224  0.1835  0.0991
   95TMC2    H5 1491   3.138   2.845  14.511 -3.4374  0.6923  1.7560
   96MPD2     C 1492   3.579   2.352  15.211 -0.6800 -0.5979  0.0735
   96MPD2    C1 1493   3.618   2.484  15.225  0.1439  0.7806  1.1089
   96MPD2    C2 1494   3.601   2.575  15.123 -0.3968  0.2881 -0.5135
   96MPD2    C3 1495   3.562   2.527  15.002  0.0121  0.6474  0.2663
   96MPD2    C4 1496   3.531   2.396  14.980 -0.6728 -0.0749  0.7163
   96MPD2    C5 1497   3.532   2.312  15.086  0.0173 -0.2058 -0.4861
   96MPD2     H 1498   3.619   2.681  15.132  0.8045  0.0142  0.3423
   96MPD2    H1 1499   3.491   2.367  14.884  0.7816 -0.5676  0.2605
   96MPD2    H2 1500   3.586   2.281  15.293 -2.4544 -0.2847  0.4871
   96MPD2    H3 1501   3.484   2.216  15.073  0.4289 -0.7428  1.9640
   96MPD2     N 1502   3.551   2.603  14.885 -0.0168 -0.5459  0.7641
   96MPD2    H5 1503   3.530   2.544  14.806  1.2862  1.6750 -1.2577
   96MPD2    N1 1504   3.654   2.526  15.354  0.1323 -0.0180 -0.5917
   96MPD2    H7 1505   3.622   2.471  15.433 -2.1638  0.1259 -1.4345
   97TMC2    C1 1506   0.449   0.391   0.333 -0.8305 -0.4126  0.7502
   97TMC2    C2 1507   0.408   0.309   0.231  0.4836 -0.7257 -0.5191
   97TMC2    C3 1508   0.360   0.359   0.118  0.2532  0.1189 -0.2087
   97TMC2    C4 1509   0.444   0.518   0.314 -0.1176  0.3542 -0.3939
   97TMC2    C5 1510   0.408   0.571   0.185 -0.7010 -1.0755  0.6741
   97TMC2    C6 1511   0.359   0.489   0.090  0.5026 -0.0559  0.4147
   97TMC2     C 1512   0.422   0.340   0.467 -0.0751  0.2938  0.0432
   97TMC2     O 1513   0.411   0.219   0.481  0.1765  0.1555  0.1683
   97TMC2     H 1514   0.402   0.201   0.242 -0.9256 -0.7785 -1.7249
   97TMC2    H1 1515   0.472   0.585   0.395  0.4110  0.0031 -0.2800
   97TMC2    H2 1516   0.329   0.528  17.742 -0.7358 -0.7543  0.5223
   97TMC2    C7 1517   0.419   0.714   0.167  0.3304  0.4284  0.5851
   97TMC2    C8 1518   0.288   0.273   0.024 -0.0052  0.1070  0.2396
   97TMC2    O1 1519   0.482   0.771   0.253  0.0177 -0.5837  0.5809
   97TMC2    O2 1520   0.247   0.313  17.665 -0.4789  0.3094 -0.3244
   97TMC2    O5 1521   0.219   0.188   0.103 -0.1038 -0.1653  0.3159
   97TMC2    H5 1522   0.235   0.194   0.199 -1.3151 -0.7030  0.5470
   98MPD2     C 1523   0.305   0.402   0.951 -0.1108  0.2218 -0.0394
   98MPD2    C1 1524   0.274   0.291   0.876  0.1325  0.4661  0.2960
   98MPD2    C2 1525   0.313   0.299   0.749 -1.2375  0.8201 -0.5348
   98MPD2    C3 1526   0.380   0.412   0.698  0.1697  0.4165 -0.3358
   98MPD2    C4 1527   0.406   0.520   0.778 -0.0369  0.1345  0.2439
   98MPD2    C5 1528   0.373   0.511   0.908  0.2554  0.0845 -0.1488
   98MPD2     H 1529   0.280   0.217   0.685  2.1195  0.8138 -2.2652
   98MPD2    H1 1530   0.455   0.609   0.740 -0.0135 -0.1641 -0.4252
   98MPD2    H2 1531   0.301   0.406   1.060 -6.0217  0.9077 -0.3191
   98MPD2    H3 1532   0.385   0.597   0.972 -1.7162  0.3134 -0.0741
   98MPD2     N 1533   0.410   0.438   0.565  0.7143  0.5413  0.4561
   98MPD2    H5 1534   0.409   0.534   0.533  0.1958  0.9759  1.8088
   98MPD2    N1 1535   0.210   0.189   0.938 -0.0458  0.1246  0.7133
   98MPD2    H7 1536   0.179   0.202   1.033  0.3545  0.6782  0.7647
   99TMC2    C1 1537   3.777   2.028   2.076  1.0749 -0.0386 -0.0232
   99TMC2    C2 1538   3.778   2.006   2.210  0.2366  0.0445 -0.9098
   99TMC2    C3 1539   3.654   2.024   2.279 -0.0211  0.3419 -0.3002
   99TMC2    C4 1540   3.659   2.073   2.023  0.3145  0.4753  0.0789
   99TMC2    C5 1541   3.548   2.107   2.099  0.3986 -0.2100  0.3009
   99TMC2    C6 1542   3.543   2.089   2.231  0.3624 -0.9062  0.2790
   99TMC2     C 1543   3.907   2.038   1.999  0.5518 -0.3698 -0.1833
   99TMC2     O 1544   4.004   2.068   2.065 -0.0572 -0.8646  0.3635
   99TMC2     H 1545   3.867   1.971   2.260  0.0474  0.9193  0.0171
   99TMC2    H1 1546   3.654   2.103   1.919  1.5328  1.3666  0.2792
   99TMC2    H2 1547   3.459   2.120   2.292  0.4927 -0.1708  0.0925
   99TMC2    C7 1548   3.439   2.180   2.046  0.6633 -0.0732 -0.0063
   99TMC2    C8 1549   3.659   1.998   2.421 -0.0716 -0.3295  0.3183
   99TMC2    O1 1550   3.380   2.249   2.130 -0.0428  0.0569 -0.4466
   99TMC2    O2 1551   3.757   2.019   2.489 -0.0592  0.4816  0.5329
   99TMC2    O5 1552   3.564   1.907   2.455  0.2510 -0.1058  0.7465
   99TMC2    H5 1553   3.486   1.899   2.396 -1.3158 -0.6081  2.8841
  100MPD2     C 1554   4.109   2.092   1.791  0.1415  0.7910  0.1260
  100MPD2    C1 1555   4.002   1.995   1.779 -0.5331 -0.3850  0.5105
  100MPD2    C2 1556   3.993   1.910   1.669 -0.2623 -0.8461  0.2403
  100MPD2    C3 1557   4.087   1.910   1.566  1.1460  0.0562 -0.9258
  100MPD2    C4 1558   4.187   2.006   1.579  0.4628 -0.2044 -0.4123
  100MPD2    C5 1559   4.197   2.089   1.690 -0.1664  0.3198 -0.4640
  100MPD2     H 1560   3.904   1.854   1.641 -0.0236  0.0612 -2.2720
  100MPD2    H1 1561   4.255   2.023   1.497 -1.5080  1.0400 -1.8048
  100MPD2    H2 1562   4.121   2.167   1.868 -2.0476 -1.3888  2.6120
  100MPD2    H3 1563   4.279   2.160   1.682 -1.2687  1.8254  1.5951
  100MPD2     N 1564   4.069   1.826   1.453  0.4391  0.0425 -0.1192
  100MPD2    H5 1565   3.997   1.755   1.453 -0.8210  1.3182  0.6850
  100MPD2    N1 1566   3.899   1.988   1.873  0.6201 -0.3696  0.7763
  100MPD2    H7 1567   3.819   1.927   1.861 -0.5475  1.0854  1.1283
  101TMC2    C1 1568   0.531   3.512  13.170  0.1412  0.2650  0.8956
  101TMC2    C2 1569   0.585   3.474  13.293  0.0021 -0.5957 -0.5703
  101TMC2    C3 1570   0.669   3.566  13.350  0.2831  0.4607  0.1252
  101TMC2    C4 1571   0.548   3.640  13.120 -0.0497 -0.1414 -0.7226
  101TMC2    C5 1572   0.639   3.723  13.184  0.1053 -0.2734  0.1542
  101TMC2    C6 1573   0.705   3.684  13.297  0.3975 -0.5039  0.1657
  101TMC2     C 1574   0.422   3.425  13.120 -0.8652 -0.5584  0.1292
  101TMC2     O 1575   0.395   3.329  13.192 -0.1468 -0.4365 -0.5610
  101TMC2     H 1576   0.555   3.381  13.340  1.9659 -0.4657  0.9621
  101TMC2    H1 1577   0.484   3.680  13.042  0.3483  1.3926 -0.2829
  101TMC2    H2 1578   0.779   3.745  13.347  0.7744  0.6419 -1.7640
  101TMC2    C7 1579   0.666   3.848  13.122 -0.3090 -0.6435  0.3826
  101TMC2    C8 1580   0.738   3.529  13.474 -0.2309  0.4532 -0.0961
  101TMC2    O1 1581   0.602   3.868  13.021  0.0068  0.8100  0.0289
  101TMC2    O2 1582   0.751   3.412  13.502 -0.2985  0.3560 -0.2226
  101TMC2    O5 1583   0.690   3.627  13.562  0.1751  0.7844  0.1893
  101TMC2    H5 1584   0.659   3.708  13.515  0.1868  0.1513 -0.9194
  102MPD2     C 1585   0.278   3.428  12.782  0.4221 -0.5586  0.3680
  102MPD2    C1 1586   0.293   3.392  12.915 -0.6865 -0.3408 -0.9048
  102MPD2    C2 1587   0.197   3.304  12.968  0.1972 -0.1564 -0.0011
  102MPD2    C3 1588   0.095   3.248  12.894  0.2025 -0.2642  0.4545
  102MPD2    C4 1589   0.087   3.282  12.764  0.0941 -0.2400 -0.1388
  102MPD2    C5 1590   0.179   3.371  12.709 -0.6910 -0.5350 -0.3553
  102MPD2     H 1591   0.203   3.277  13.073  1.5991  1.0367  0.2342
  102MPD2    H1 1592   0.016   3.245  12.691  1.2689 -1.7132 -0.5358
  102MPD2    H2 1593   0.355   3.486  12.733  0.8378 -2.1358 -0.8631
  102MPD2    H3 1594   0.177   3.386  12.602  0.0531 -0.0731 -0.3058
  102MPD2     N 1595   0.007   3.158  12.952 -0.0509  0.5111 -0.2524
  102MPD2    H5 1596   0.009   3.158  13.054 -0.9967  2.3286 -0.2365
  102MPD2    N1 1597   0.396   3.446  12.988  0.3179 -0.7558  0.3804
  102MPD2    H7 1598   0.447   3.520  12.941 -2.5599 -0.3462 -2.0828
  103TMC2    C1 1599   3.305   3.701  12.500 -0.6731 -0.4392 -0.4477
  103TMC2    C2 1600   3.410   3.647  12.568 -0.3825  0.1028  0.7321
  103TMC2    C3 1601   3.523   3.726  12.575  0.4422 -0.2071  0.4120
  103TMC2    C4 1602   3.311   3.831  12.455  0.4414  0.4141 -0.1702
  103TMC2    C5 1603   3.425   3.904  12.469 -0.1212  0.7000 -0.0590
  103TMC2    C6 1604   3.532   3.846  12.522  0.1881 -0.1063  0.0407
  103TMC2     C 1605   3.176   3.636  12.482  0.1448 -0.4426 -0.0503
  103TMC2     O 1606   3.101   3.671  12.396 -0.0672 -0.4383 -0.3579
  103TMC2     H 1607   3.417   3.540  12.583  0.5709  0.0511 -0.0414
  103TMC2    H1 1608   3.217   3.878  12.432  1.3076  1.4666 -1.5908
  103TMC2    H2 1609   3.623   3.904  12.533  0.7129 -0.6273 -1.5559
  103TMC2    C7 1610   3.407   4.041  12.518  0.5425  0.3356 -0.9570
  103TMC2    C8 1611   3.645   3.687  12.641 -0.0376  0.4961 -0.1660
  103TMC2    O1 1612   3.484   4.067  12.611  1.2100 -1.0365 -0.2357
  103TMC2    O2 1613   3.749   3.751  12.633 -0.6194  0.1092 -0.1161
  103TMC2    O5 1614   3.604   3.625  12.756  0.3408 -0.1264 -0.6104
  103TMC2    H5 1615   3.515   3.583  12.762  0.2888  0.0127 -0.3822
  104MPD2     C 1616   3.035   3.410  12.721 -0.0978  0.0361  0.3703
  104MPD2    C1 1617   3.025   3.494  12.616 -0.0187  0.1901  0.3654
  104MPD2    C2 1618   2.907   3.499  12.547  0.5131 -0.1470  0.1885
  104MPD2    C3 1619   2.796   3.428  12.593 -0.0664  0.0039  0.0769
  104MPD2    C4 1620   2.819   3.335  12.693 -0.0827 -0.1657 -0.4046
  104MPD2    C5 1621   2.940   3.320  12.752 -0.2771 -0.0125 -0.1161
  104MPD2     H 1622   2.899   3.572  12.468 -0.5063 -1.4242 -0.8770
  104MPD2    H1 1623   2.742   3.263  12.718 -1.6127  1.6759  0.1959
  104MPD2    H2 1624   3.134   3.402  12.765 -0.7432 -2.5555  1.3657
  104MPD2    H3 1625   2.956   3.256  12.838  1.5849 -0.7013 -0.9896
  104MPD2     N 1626   2.675   3.436  12.521  0.0540 -0.0289 -0.0817
  104MPD2    H5 1627   2.683   3.488  12.434 -1.2109 -1.4725 -1.0648
  104MPD2    N1 1628   3.150   3.556  12.586  0.9773 -0.2219  0.2793
  104MPD2    H7 1629   3.218   3.556  12.661  1.5071  2.0628 -0.2105
  105TMC2    C1 1630   3.581   2.071   0.200  0.0474  0.0561  0.1164
  105TMC2    C2 1631   3.529   2.196   0.189  0.2424  0.3599 -0.1085
  105TMC2    C3 1632   3.470   2.239   0.301  0.1303  0.1977 -0.4628
  105TMC2    C4 1633   3.602   2.006   0.323  0.4287  0.2175  0.2486
  105TMC2    C5 1634   3.549   2.056   0.436 -0.2361 -0.7784  0.0725
  105TMC2    C6 1635   3.480   2.180   0.427 -0.2624  0.3830 -0.4478
  105TMC2     C 1636   3.642   2.009   0.088  0.0700  0.0889  0.2983
  105TMC2     O 1637   3.665   1.891   0.106  0.0418 -0.1107  0.2393
  105TMC2     H 1638   3.521   2.253   0.097 -0.6770  0.3455 -0.0335
  105TMC2    H1 1639   3.660   1.916   0.340  0.0343 -0.2902 -1.1124
  105TMC2    H2 1640   3.438   2.231   0.513  1.7407  1.6118 -0.2025
  105TMC2    C7 1641   3.610   2.015   0.557  0.0464  0.1255  0.0077
  105TMC2    C8 1642   3.426   2.376   0.301 -0.1146 -0.7939  0.1478
  105TMC2    O1 1643   3.652   1.906   0.564 -0.6511 -0.1864 -0.5289
  105TMC2    O2 1644   3.469   2.440   0.392 -0.6069  0.2277  0.3654
  105TMC2    O5 1645   3.347   2.417   0.193  0.1146 -0.3143 -0.1444
  105TMC2    H5 1646   3.301   2.345   0.145  0.1247 -0.1485 -0.4089
  106MPD2     C 1647   3.924   2.012  17.410  0.0079 -0.5355 -0.2073
  106MPD2    C1 1648   3.928   2.144  17.456 -0.7339 -0.6883 -0.6374
  106MPD2    C2 1649   3.843   2.165  17.562 -0.1035  0.0260 -0.4523
  106MPD2    C3 1650   3.777   2.064  17.632 -0.4959 -0.2314  0.5326
  106MPD2    C4 1651   3.787   1.935  17.587  0.4589  0.0873  0.1338
  106MPD2    C5 1652   3.868   1.908  17.479  0.5779 -0.1878 -0.2855
  106MPD2     H 1653   3.830   2.267  17.596 -2.1237 -1.1930  2.4591
  106MPD2    H1 1654   3.746   1.849  17.638 -1.7798  0.8014 -0.5018
  106MPD2    H2 1655   3.978   1.976  17.323  1.2053  0.8119 -0.0168
  106MPD2    H3 1656   3.873   1.809  17.435  1.6111 -0.3972  0.2979
  106MPD2     N 1657   3.703   2.098  17.746 -0.1700  0.6288  0.6220
  106MPD2    H5 1658   3.695   2.197   0.018 -2.3147  0.3744  1.0201
  106MPD2    N1 1659   4.000   2.250  17.390  0.7969  0.2938 -0.2044
  106MPD2    H7 1660   3.981   2.342  17.427  0.8036 -0.6914  2.2363
  107TMC2    C1 1661   0.180   2.660  11.864  0.7603  0.3472  0.1815
  107TMC2    C2 1662   0.182   2.719  11.745 -0.2931  0.1326 -0.3252
  107TMC2    C3 1663   0.297   2.693  11.664  0.6457 -0.1724  0.4223
  107TMC2    C4 1664   0.278   2.574  11.910 -0.1275 -0.7978 -0.0112
  107TMC2    C5 1665   0.370   2.540  11.820 -0.0514 -0.4099  0.2168
  107TMC2    C6 1666   0.390   2.601  11.699 -0.1856  0.1867  0.2819
  107TMC2     C 1667   0.063   2.695  11.944  0.9619 -0.6118 -0.3311
  107TMC2     O 1668   4.697   2.728  11.879 -0.6155 -0.2146  0.2844
  107TMC2     H 1669   0.112   2.798  11.719 -1.5437 -0.5708  0.9546
  107TMC2    H1 1670   0.252   2.506  11.990 -0.6802  0.4824  0.9069
  107TMC2    H2 1671   0.456   2.549  11.631  2.2168  1.1516  1.8801
  107TMC2    C7 1672   0.394   2.402  11.834 -1.0395  0.1162 -1.0162
  107TMC2    C8 1673   0.307   2.754  11.537 -0.3033  0.4256  0.1719
  107TMC2    O1 1674   0.408   2.351  11.943 -0.5989  0.2985 -0.5706
  107TMC2    O2 1675   0.209   2.791  11.478  0.2454  0.3265 -0.4646
  107TMC2    O5 1676   0.423   2.710  11.481 -0.1511 -0.0844 -0.3166
  107TMC2    H5 1677   0.506   2.738  11.526  0.3392 -1.4375 -0.3691
  108MPD2     C 1678   0.030   2.645  12.304  0.3055  0.3661  0.2171
  108MPD2    C1 1679   4.720   2.672  12.175 -0.2228  0.7674  0.7061
  108MPD2    C2 1680   4.589   2.684  12.151 -0.0578  0.2745 -0.4045
  108MPD2    C3 1681   4.497   2.680  12.254 -0.1065  0.3469 -0.2054
  108MPD2    C4 1682   4.546   2.654  12.382 -0.4579 -0.5119  0.7701
  108MPD2    C5 1683   4.677   2.647  12.407 -0.9527  0.0778 -0.0765
  108MPD2     H 1684   4.561   2.693  12.046  1.2177 -2.2423 -0.9625
  108MPD2    H1 1685   4.477   2.650  12.466  0.7534  0.1391  1.7896
  108MPD2    H2 1686   0.135   2.630  12.327  0.1352 -0.9395  0.1853
  108MPD2    H3 1687   4.709   2.638  12.510 -1.2661 -0.5292 -0.0366
  108MPD2     N 1688   4.359   2.696  12.249  0.0558  0.1898  0.5072
  108MPD2    H5 1689   4.318   2.703  12.341 -0.5159  0.9787  0.2024
  108MPD2    N1 1690   0.084   2.674  12.074  0.0267  0.7188 -0.1849
  108MPD2    H7 1691   0.182   2.665  12.102 -0.7673 -2.5636  1.6716
  109TMC2    C1 1692   3.693   4.580   0.422  0.1379 -0.7714  0.6616
  109TMC2    C2 1693   3.653   4.650   0.313  0.1133  0.1259 -0.4188
  109TMC2    C3 1694   3.741   4.693   0.221  0.0565 -0.1195 -0.8269
  109TMC2    C4 1695   3.827   4.542   0.435 -0.4081 -0.3253  0.0595
  109TMC2    C5 1696   3.912   4.592   0.340 -0.2520 -0.8258  0.1167
  109TMC2    C6 1697   3.872   4.672   0.237  0.2164  0.0547 -0.0950
  109TMC2     C 1698   3.591   4.546   0.517 -0.5472  0.2007 -0.1042
  109TMC2     O 1699   3.483   4.554   0.469 -0.2117 -0.6806  0.3799
  109TMC2     H 1700   3.549   4.679   0.303  0.4984  2.0864  1.3410
  109TMC2    H1 1701   3.859   4.467   0.505 -1.2921 -1.1116 -0.3679
  109TMC2    H2 1702   3.940   4.710   0.162 -0.6104  1.7673  0.0198
  109TMC2    C7 1703   4.041   4.535   0.345 -0.1294  0.6156 -0.5727
  109TMC2    C8 1704   3.729   0.094   0.205 -0.1429 -0.1284 -0.8932
  109TMC2    O1 1705   4.104   4.520   0.241 -0.3610 -0.0426 -0.1391
  109TMC2    O2 1706   3.754   0.164   0.301 -0.4706  0.2673 -0.6655
  109TMC2    O5 1707   3.642   0.112   0.106  0.5957  0.2831 -0.0878
  109TMC2    H5 1708   3.605   0.031   0.065 -0.4447  0.0022  1.4237
  110MPD2     C 1709   3.402   4.375   0.957  0.6480 -0.2740  0.1484
  110MPD2    C1 1710   3.540   4.362   0.973 -0.3962 -0.1445  1.2713
  110MPD2    C2 1711   3.611   4.412   0.856  0.2422  0.0609  0.9604
  110MPD2    C3 1712   3.546   4.463   0.747  0.4760  0.4419  0.1551
  110MPD2    C4 1713   3.412   4.466   0.738  1.1740 -0.2782  0.0996
  110MPD2    C5 1714   3.343   4.420   0.843 -0.4990  0.1792  0.3243
  110MPD2     H 1715   3.719   4.413   0.859  0.2636 -0.6885  0.1406
  110MPD2    H1 1716   3.361   4.508   0.652 -0.9798 -1.3459  0.8597
  110MPD2    H2 1717   3.336   4.347   1.038  1.7267 -0.5918  0.9141
  110MPD2    H3 1718   3.235   4.424   0.843 -0.5160  0.4999 -4.3137
  110MPD2     N 1719   3.633   4.497   0.640 -0.1956  0.4982 -0.4763
  110MPD2    H5 1720   3.733   4.501   0.659 -0.1870  0.6107 -0.5471
  110MPD2    N1 1721   3.596   4.321   1.096 -0.8735 -0.5667 -0.0173
  110MPD2    H7 1722   3.526   4.293   1.163 -1.2169 -2.4049 -1.1477
  111TMC2    C1 1723   4.536   4.128  11.996 -0.2083 -0.0295  0.4878
  111TMC2    C2 1724   4.470   4.084  12.105 -0.3772  0.3391 -0.4329
  111TMC2    C3 1725   4.549   4.062  12.212 -0.0876 -0.3916 -0.1589
  111TMC2    C4 1726   4.665   4.156  11.992  0.2123  0.6620 -0.6898
  111TMC2    C5 1727   0.003   4.130  12.106  1.3425 -0.1649 -0.0748
  111TMC2    C6 1728   4.681   4.084  12.216  0.1233  0.4311  0.8350
  111TMC2     C 1729   4.463   4.201  11.892  0.5054 -0.3947 -0.3249
  111TMC2     O 1730   4.499   4.193  11.774  0.0010 -0.8136 -0.3501
  111TMC2     H 1731   4.365   4.056  12.108 -0.3581  0.2095 -1.0501
  111TMC2    H1 1732   4.706   4.210  11.908 -0.4750 -0.4259 -1.7261
  111TMC2    H2 1733   0.002   4.064  12.305  0.6681  1.5335  0.7315
  111TMC2    C7 1734   0.133   4.185  12.123 -1.1731 -0.0927  0.0439
  111TMC2    C8 1735   4.481   4.008  12.334  0.5062  0.3952  0.4082
  111TMC2    O1 1736   0.167   4.193  12.239 -0.2672 -0.5609 -0.5289
  111TMC2    O2 1737   4.403   3.915  12.325  0.1531  0.1999  0.2969
  111TMC2    O5 1738   4.554   4.038  12.439  0.0015  0.4108 -0.0694
  111TMC2    H5 1739   4.591   4.128  12.422 -0.0764  0.4695  0.0768
  112MPD2     C 1740   4.107   4.501  11.714 -0.2454 -0.0218 -0.0912
  112MPD2    C1 1741   4.215   4.442  11.649 -0.0985  0.0771 -0.5591
  112MPD2    C2 1742   4.307   4.382  11.724  0.1288  0.3946  0.2781
  112MPD2    C3 1743   4.291   4.376  11.868  0.6426  0.0139  0.6094
  112MPD2    C4 1744   4.184   4.438  11.933 -0.2388  0.2353 -0.2476
  112MPD2    C5 1745   4.092   4.503  11.849  0.3736  0.0744 -0.2513
  112MPD2     H 1746   4.401   4.353  11.678 -1.0024 -0.5959 -1.4166
  112MPD2    H1 1747   4.176   4.445  12.041  0.7925 -1.6723 -0.0444
  112MPD2    H2 1748   4.033   4.564  11.666 -1.0875 -0.8557  0.1031
  112MPD2    H3 1749   4.021   4.571  11.895  1.2441 -0.3737  1.7388
  112MPD2     N 1750   4.373   4.289  11.948  0.4622 -0.0322 -0.7273
  112MPD2    H5 1751   4.360   4.280  12.048 -1.0098  1.7456 -0.7644
  112MPD2    N1 1752   4.239   4.444  11.514  0.7134  0.0459  0.4498
  112MPD2    H7 1753   4.324   4.401  11.479  0.9144  0.3015  0.6162
  113TMC2    C1 1754   2.832   1.923   0.731  0.1477 -0.3487 -0.4827
  113TMC2    C2 1755   2.828   2.016   0.638  0.0322 -1.0878 -0.0722
  113TMC2    C3 1756   2.775   1.977   0.514 -0.5352  0.4281  0.1396
  113TMC2    C4 1757   2.767   1.800   0.710  0.3107 -0.2157 -0.2802
  113TMC2    C5 1758   2.702   1.773   0.593 -0.5165 -0.1518 -0.1760
  113TMC2    C6 1759   2.712   1.858   0.487 -0.2856 -0.3583 -0.1934
  113TMC2     C 1760   2.928   1.940   0.838 -0.1991  0.1689 -0.0515
  113TMC2     O 1761   2.974   2.052   0.856  0.4753  0.2463  0.2249
  113TMC2     H 1762   2.871   2.114   0.659 -0.9390 -0.6397 -0.1585
  113TMC2    H1 1763   2.748   1.736   0.795 -0.4000  0.3102 -0.0350
  113TMC2    H2 1764   2.668   1.827   0.393 -0.4718  0.6625 -0.4443
  113TMC2    C7 1765   2.607   1.660   0.581  0.3387  0.2183 -0.3378
  113TMC2    C8 1766   2.759   2.079   0.417  0.2989 -0.3150 -0.0925
  113TMC2    O1 1767   2.559   1.644   0.472 -0.2226 -0.2917 -0.8436
  113TMC2    O2 1768   2.715   2.183   0.460 -1.0496 -0.2316  0.0695
  113TMC2    O5 1769   2.780   2.049   0.289 -0.8601  0.5425 -0.6720
  113TMC2    H5 1770   2.840   1.972   0.272 -0.5579  0.9733 -1.5466
  114MPD2     C 1771   3.223   1.808   1.211 -0.7782  0.2796 -0.0913
  114MPD2    C1 1772   3.159   1.927   1.186  0.1203  0.0770 -0.3143
  114MPD2    C2 1773   3.073   1.932   1.084 -0.1697  0.3695 -0.2394
  114MPD2    C3 1774   3.052   1.817   1.009  0.1349 -0.0773  0.4177
  114MPD2    C4 1775   3.107   1.698   1.038 -0.6907  0.1442 -0.5941
  114MPD2    C5 1776   3.189   1.692   1.144 -0.0195 -0.2106 -1.5347
  114MPD2     H 1777   3.011   2.020   1.078  0.7637  0.9740 -0.9804
  114MPD2    H1 1778   3.090   1.611   0.975 -1.0042  0.0151 -0.3327
  114MPD2    H2 1779   3.293   1.794   1.292  1.5111  2.0950 -1.7237
  114MPD2    H3 1780   3.238   1.601   1.175  0.9699  1.2718  1.2073
  114MPD2     N 1781   2.957   1.820   0.903 -0.3152  0.0868 -0.0532
  114MPD2    H5 1782   2.924   1.736   0.857  0.9980 -0.6068  0.2620
  114MPD2    N1 1783   3.179   2.044   1.261 -0.3665  0.0599 -0.3790
  114MPD2    H7 1784   3.116   2.118   1.235  0.8050  0.5818 -1.7399
  115TMC2    C1 1785   4.357   4.573  17.528 -0.5587  0.1436  0.2587
  115TMC2    C2 1786   4.479   4.509  17.535  0.3459 -0.4787  0.0715
  115TMC2    C3 1787   4.586   4.594  17.551 -0.3273  0.0312 -0.3666
  115TMC2    C4 1788   4.343   4.712  17.555 -0.2386  0.1743  0.6519
  115TMC2    C5 1789   4.458   0.041  17.586  0.1137 -0.1548 -0.9050
  115TMC2    C6 1790   4.578   4.719  17.587  0.0512 -0.2886  0.0893
  115TMC2     C 1791   4.251   4.513  17.445 -0.4534  0.0301  0.0461
  115TMC2     O 1792   4.240   4.392  17.454  0.0813  0.2601 -0.2798
  115TMC2     H 1793   4.480   4.409  17.493 -1.6776 -1.1262  1.5593
  115TMC2    H1 1794   4.250   0.029  17.541 -0.2250  0.0290  0.0124
  115TMC2    H2 1795   4.672   0.034  17.599  0.3617 -0.7089 -0.5180
  115TMC2    C7 1796   4.458   0.181  17.630 -0.4255 -0.0716 -0.0930
  115TMC2    C8 1797   4.721   4.530  17.566  0.0497  0.2775 -0.7109
  115TMC2    O1 1798   4.546   0.223  17.701 -0.1346  0.0864  0.1836
  115TMC2    O2 1799   0.070   4.557  17.646  0.2813 -0.1633 -0.0684
  115TMC2    O5 1800   4.727   4.412  17.495  0.1907  0.1819  0.1040
  115TMC2    H5 1801   4.668   4.422  17.418  0.0243 -1.8928 -0.0323
  116MPD2     C 1802   3.812   4.545  17.186  0.4559  0.0163  0.0152
  116MPD2    C1 1803   3.865   4.439  17.242  0.3858 -0.5795  0.5428
  116MPD2    C2 1804   3.991   4.442  17.297 -0.1642 -0.6479 -0.1843
  116MPD2    C3 1805   4.062   4.564  17.299  0.1223 -0.1640  0.3695
  116MPD2    C4 1806   4.008   4.669  17.228 -0.0801 -0.4525  0.2226
  116MPD2    C5 1807   3.878   4.658  17.183  0.7228  0.2120 -0.4172
  116MPD2     H 1808   4.027   4.352  17.346 -1.0245  0.7633  2.9876
  116MPD2    H1 1809   4.057   0.028  17.229  0.7961 -0.8861 -0.7831
  116MPD2    H2 1810   3.711   4.550  17.146  0.4170 -2.3928 -0.1403
  116MPD2    H3 1811   3.829   0.005  17.136 -0.6958  0.1498  0.9503
  116MPD2     N 1812   4.181   4.597  17.360  0.3564 -0.0829 -0.5775
  116MPD2    H5 1813   4.203   4.696  17.364  2.5736 -0.6003  0.1168
  116MPD2    N1 1814   3.789   4.324  17.227 -0.6073 -0.5553  0.2895
  116MPD2    H7 1815   3.696   4.344  17.191 -0.5483  0.8426  0.9013
  117TMC2    C1 1816   2.126   1.107  14.165 -0.0399  0.0531  0.7124
  117TMC2    C2 1817   2.230   1.021  14.192  0.0977 -0.2692 -0.2726
  117TMC2    C3 1818   2.346   1.066  14.246  0.4520  0.5267  0.6251
  117TMC2    C4 1819   2.137   1.237  14.206 -0.6180 -0.1896 -0.4970
  117TMC2    C5 1820   2.249   1.278  14.269 -0.4426 -0.4426  0.4455
  117TMC2    C6 1821   2.357   1.198  14.284 -0.0975  0.4450  0.3699
  117TMC2     C 1822   2.018   1.066  14.079  0.5392 -0.3245 -0.1950
  117TMC2     O 1823   2.009   0.942  14.067 -0.3644 -0.1647 -0.1820
  117TMC2     H 1824   2.237   0.918  14.161 -2.8396 -0.1309 -1.3636
  117TMC2    H1 1825   2.063   1.307  14.168  0.0758  1.0125  0.3873
  117TMC2    H2 1826   2.447   1.232  14.333  1.1314  1.4410 -2.5726
  117TMC2    C7 1827   2.267   1.421  14.303  0.2504 -0.3993  0.0824
  117TMC2    C8 1828   2.453   0.967  14.255 -0.0747 -0.4084  0.1967
  117TMC2    O1 1829   2.377   1.471  14.300 -0.1703  0.6099  0.0505
  117TMC2    O2 1830   2.428   0.847  14.241  0.2757 -0.1063  0.0769
  117TMC2    O5 1831   2.568   1.016  14.217  0.5863  0.1190  0.2450
  117TMC2    H5 1832   2.581   1.111  14.198  1.5708  0.0022  0.3240
  118MPD2     C 1833   1.997   1.650  14.379  0.1314  0.2447  0.3059
  118MPD2    C1 1834   2.126   1.617  14.370 -0.2208 -0.8555  0.5622
  118MPD2    C2 1835   2.228   1.712  14.392  0.3389  0.7714 -0.1051
  118MPD2    C3 1836   2.199   1.846  14.420 -0.3317  0.8055  0.0636
  118MPD2    C4 1837   2.061   1.879  14.424 -0.0114  0.1896  0.3404
  118MPD2    C5 1838   1.964   1.781  14.415 -0.1165  0.1162 -0.6059
  118MPD2     H 1839   2.332   1.685  14.383  0.5465  1.2773  0.7542
  118MPD2    H1 1840   2.025   1.976  14.456  1.0334  0.1460  1.6837
  118MPD2    H2 1841   1.912   1.587  14.354  0.0288  1.0682 -1.3967
  118MPD2    H3 1842   1.857   1.802  14.422 -0.2188 -0.6055  0.0076
  118MPD2     N 1843   2.288   1.952  14.423  0.0612 -0.1160 -0.4728
  118MPD2    H5 1844   2.246   2.042  14.444  0.2640 -0.1225 -0.0261
  118MPD2    N1 1845   2.148   1.480  14.333 -0.3203 -0.2165  0.4403
  118MPD2    H7 1846   2.066   1.422  14.321  0.1981 -0.8206 -0.1832
  119TMC2    C1 1847   0.769   2.295  12.820  0.0298  0.1308 -0.2750
  119TMC2    C2 1848   0.857   2.243  12.728 -0.0278  0.2099 -0.0920
  119TMC2    C3 1849   0.806   2.148  12.640 -0.2812 -0.4705 -0.2157
  119TMC2    C4 1850   0.643   2.251  12.841  0.2856 -0.0432 -0.5533
  119TMC2    C5 1851   0.586   2.171  12.747 -0.2735 -0.6689 -0.1029
  119TMC2    C6 1852   0.668   2.125  12.649 -0.0135  0.2800  0.3621
  119TMC2     C 1853   0.809   2.404  12.911  0.0869  0.8015  0.1613
  119TMC2     O 1854   0.720   2.471  12.958  0.1236  0.1291  0.0961
  119TMC2     H 1855   0.959   2.275  12.715  0.0223 -0.5623 -1.5436
  119TMC2    H1 1856   0.582   2.310  12.909  1.3391  0.6279 -0.1867
  119TMC2    H2 1857   0.628   2.054  12.578  0.0520  0.6069 -0.0027
  119TMC2    C7 1858   0.457   2.109  12.767  0.0826  0.5355 -0.5832
  119TMC2    C8 1859   0.872   2.168  12.511 -0.0907 -0.5942  0.1010
  119TMC2    O1 1860   0.423   2.017  12.690 -0.3411  0.4128  0.0807
  119TMC2    O2 1861   0.940   2.270  12.488 -0.1398 -0.1767  0.3988
  119TMC2    O5 1862   0.837   2.066  12.426 -0.2166  0.3318  0.3246
  119TMC2    H5 1863   0.813   1.982  12.470 -0.2259  0.5440  0.7263
  120MPD2     C 1864   1.134   2.742  13.095 -0.7291 -0.6776  0.4988
  120MPD2    C1 1865   1.004   2.753  13.046  0.7178 -0.9469  0.5429
  120MPD2    C2 1866   0.942   2.644  12.993 -0.5344 -0.0637  0.0983
  120MPD2    C3 1867   1.007   2.521  12.999 -0.1914  0.1873 -0.0387
  120MPD2    C4 1868   1.133   2.513  13.052 -0.3727 -0.1719  0.3625
  120MPD2    C5 1869   1.206   2.620  13.097 -0.0085 -0.5347 -0.3092
  120MPD2     H 1870   0.849   2.648  12.939 -1.0594 -1.7332  0.9026
  120MPD2    H1 1871   1.183   2.417  13.045  0.9111  0.5268 -0.0907
  120MPD2    H2 1872   1.193   2.828  13.123 -0.6985  0.0502 -1.8439
  120MPD2    H3 1873   1.308   2.622  13.134  0.1828  0.1444 -0.8575
  120MPD2     N 1874   0.948   2.412  12.935 -0.4437 -0.1515 -0.6241
  120MPD2    H5 1875   1.002   2.329  12.913  1.7203  1.6864 -2.1603
  120MPD2    N1 1876   0.935   2.882  13.040  0.2167 -0.6723 -0.2318
  120MPD2    H7 1877   0.998   2.961  13.041 -0.5351 -0.0485 -1.1272
  121TMC2    C1 1878   1.914   4.280  14.416 -0.1346  0.2955 -0.1471
  121TMC2    C2 1879   2.000   4.203  14.337  0.8714 -0.4746 -0.1102
  121TMC2    C3 1880   1.963   4.073  14.336 -0.4047  0.1190  0.0499
  121TMC2    C4 1881   1.808   4.237  14.482  1.2097 -0.6334  0.1474
  121TMC2    C5 1882   1.788   4.106  14.476  0.6352 -0.6689  0.2202
  121TMC2    C6 1883   1.858   4.017  14.397 -0.5517 -0.2770  0.6293
  121TMC2     C 1884   1.923   4.426  14.422 -0.2493 -0.2323 -0.2648
  121TMC2     O 1885   1.883   4.481  14.526  0.3349  0.1744  0.1160
  121TMC2     H 1886   2.085   4.235  14.279  0.3554  1.8026  0.3711
  121TMC2    H1 1887   1.749   4.303  14.545 -0.5291 -0.3201 -1.7971
  121TMC2    H2 1888   1.831   3.912  14.389 -1.4908  0.0590 -0.6243
  121TMC2    C7 1889   1.679   4.056  14.555  0.5424  0.2301 -0.3748
  121TMC2    C8 1890   2.031   3.981  14.244  0.5177 -0.6497 -0.0792
  121TMC2    O1 1891   1.687   3.941  14.592  0.0305 -0.4013  0.0537
  121TMC2    O2 1892   2.135   4.011  14.189  0.1816 -0.9924 -0.2053
  121TMC2    O5 1893   1.932   3.921  14.182  0.1533 -0.2313  0.2945
  121TMC2    H5 1894   1.846   3.931  14.228  0.1810  2.1503 -0.1660
  122MPD2     C 1895   2.046   4.712  14.372 -0.9392 -0.3142  0.2374
  122MPD2    C1 1896   2.018   4.614  14.280  0.0273  0.5613 -0.5538
  122MPD2    C2 1897   2.042   4.642  14.150  0.2943 -0.5113  0.5020
  122MPD2    C3 1898   2.095   0.030  14.115  0.9704 -0.0342  0.7677
  122MPD2    C4 1899   2.097   0.132  14.207  0.3154  0.1036 -0.4276
  122MPD2    C5 1900   2.094   0.096  14.336 -0.3723 -0.8278  0.3341
  122MPD2     H 1901   2.017   4.562  14.081 -1.1308  0.4034 -0.0293
  122MPD2    H1 1902   2.146   0.223  14.176 -0.6242  0.1871 -1.6311
  122MPD2    H2 1903   2.039   4.700  14.480 -0.1075 -2.3972  0.0629
  122MPD2    H3 1904   2.114   0.168  14.414 -0.7824 -2.5617  2.0402
  122MPD2     N 1905   2.124   0.068  13.981 -0.4532 -0.2900  0.2479
  122MPD2    H5 1906   2.150   0.164  13.961 -2.0144 -0.1686 -1.2517
  122MPD2    N1 1907   1.976   4.480  14.308  0.6992  0.3342 -0.3697
  122MPD2    H7 1908   1.974   4.422  14.224  0.3288 -1.8197  1.1146
  123TMC2    C1 1909   0.690   3.247   9.903  0.2840 -0.7815 -0.4355
  123TMC2    C2 1910   0.742   3.223   9.781  0.2323 -0.1191 -0.3361
  123TMC2    C3 1911   0.690   3.110   9.724 -0.0104  0.6600 -0.3028
  123TMC2    C4 1912   0.606   3.159   9.971 -0.1085  0.4452 -0.1696
  123TMC2    C5 1913   0.564   3.050   9.903  0.3428 -0.3521 -0.1497
  123TMC2    C6 1914   0.602   3.025   9.777  0.3406 -0.4502  0.3945
  123TMC2     C 1915   0.744   3.361   9.965 -0.0626 -0.1008 -0.3176
  123TMC2     O 1916   0.835   3.409   9.898 -0.1723 -0.7138  0.5448
  123TMC2     H 1917   0.820   3.283   9.736  1.3356 -1.5711 -0.3571
  123TMC2    H1 1918   0.590   3.161  10.078 -1.2767  0.9804 -0.3432
  123TMC2    H2 1919   0.552   2.955   9.712  0.0636  0.4930 -0.3961
  123TMC2    C7 1920   0.473   2.948   9.959  0.7830  0.3688 -0.6066
  123TMC2    C8 1921   0.753   3.075   9.601  0.2560  0.4675 -0.1972
  123TMC2    O1 1922   0.459   2.858   9.877  0.2244 -0.1720  0.4841
  123TMC2    O2 1923   0.685   3.031   9.509  0.0857  0.0295  0.2962
  123TMC2    O5 1924   0.890   3.073   9.611  0.0105 -0.4752  0.0177
  123TMC2    H5 1925   0.930   3.078   9.700 -1.0461  0.6302  0.4336
  124MPD2     C 1926   0.766   3.796  10.210 -0.4748 -0.5154 -0.0127
  124MPD2    C1 1927   0.631   3.751  10.223 -0.1338  0.3791  0.0552
  124MPD2    C2 1928   0.599   3.622  10.187 -0.0142 -1.0353 -1.1776
  124MPD2    C3 1929   0.698   3.544  10.126 -0.0101  0.1035 -0.2650
  124MPD2    C4 1930   0.825   3.593  10.113 -0.2145  0.0194 -0.4868
  124MPD2    C5 1931   0.860   3.715  10.156 -0.2360  0.0336  0.7749
  124MPD2     H 1932   0.497   3.591  10.205 -0.8915  2.1730 -0.6636
  124MPD2    H1 1933   0.905   3.528  10.080  0.4011  0.2393  0.5788
  124MPD2    H2 1934   0.788   3.899  10.236 -0.9878 -0.3919 -0.0701
  124MPD2    H3 1935   0.960   3.756  10.154  0.3906 -1.5374 -0.7654
  124MPD2     N 1936   0.665   3.418  10.066 -0.2473 -0.2545 -0.6644
  124MPD2    H5 1937   0.569   3.386  10.080 -0.6438  1.7595  1.2049
  124MPD2    N1 1938   0.539   3.840  10.276  0.1002  0.3376 -0.2143
  124MPD2    H7 1939   0.580   3.932  10.282  0.7994 -0.0796  1.3150
  125TMC2    C1 1940   1.416   4.470   9.729  0.0777  0.0495 -0.6914
  125TMC2    C2 1941   1.278   4.441   9.750 -0.1775 -0.6628 -0.4214
  125TMC2    C3 1942   1.223   4.341   9.673 -0.0436 -0.0185 -0.4373
  125TMC2    C4 1943   1.487   4.406   9.628  0.3088 -0.3222 -0.6386
  125TMC2    C5 1944   1.423   4.312   9.555  0.4348  0.1765 -0.8346
  125TMC2    C6 1945   1.293   4.280   9.566  1.2099 -0.2459  0.4391
  125TMC2     C 1946   1.457   4.605   9.760  0.1661  0.1901 -0.4977
  125TMC2     O 1947   1.522   4.670   9.684 -0.5339 -1.1750 -0.0812
  125TMC2     H 1948   1.214   4.495   9.819  2.4314  2.0978 -0.2096
  125TMC2    H1 1949   1.588   4.436   9.602  0.5416  0.9819  1.8104
  125TMC2    H2 1950   1.256   4.203   9.500  1.0612  1.4314 -1.4273
  125TMC2    C7 1951   1.500   4.220   9.473 -0.7389 -0.1541 -0.2919
  125TMC2    C8 1952   1.079   4.345   9.663  0.1765 -0.3359  0.0437
  125TMC2    O1 1953   1.439   4.125   9.420 -0.3629 -0.4555  0.5114
  125TMC2    O2 1954   1.012   4.426   9.732  0.7893  0.3399 -1.1552
  125TMC2    O5 1955   1.021   4.258   9.581 -0.5463 -0.4501 -0.3823
  125TMC2    H5 1956   1.084   4.189   9.551  0.1412  0.4358 -0.9698
  126MPD1     C 1957   1.421   0.277  10.057  0.3116  0.7343  0.3657
  126MPD1    C1 1958   1.388   0.168  10.135  0.4078  0.2274  0.1493
  126MPD1    C2 1959   1.388   0.043  10.073  0.0702 -0.2402 -0.7117
  126MPD1    C3 1960   1.425   0.031   9.937  0.1624 -0.3188 -0.2981
  126MPD1    C4 1961   1.478   0.140   9.869  0.4882 -0.4197  0.0015
  126MPD1    C5 1962   1.463   0.262   9.925 -0.2894 -0.7198 -0.8034
  126MPD1     H 1963   1.378   4.688  10.128  1.8411  0.0221  0.0307
  126MPD1    H1 1964   1.509   0.126   9.766  3.6781 -1.3847  1.1010
  126MPD1    H2 1965   1.433   0.377  10.097  1.0736  2.3800 -3.9042
  126MPD1    H3 1966   1.504   0.351   9.878 -0.6934  0.1862  0.5314
  126MPD1     N 1967   1.410   4.642   9.881  0.1020 -0.2829  0.0147
  126MPD1    H5 1968   1.367   4.568   9.937  0.5324 -1.1437 -0.7922
  126MPD1    N1 1969   1.325   0.175  10.258 -0.5575 -0.2437  0.3519
  126MPD1    H6 1970   1.353   0.245  10.326  1.8482 -0.2884 -0.6252
  126MPD1    H7 1971   1.332   0.088  10.311  1.8980 -0.8581 -0.9841
  127TMC2    C1 1972   1.550   3.207  10.461 -1.3670  0.2795  0.0036
  127TMC2    C2 1973   1.493   3.176  10.579  0.6965  0.0507 -0.5907
  127TMC2    C3 1974   1.375   3.110  10.574  0.1512 -0.3396 -0.0282
  127TMC2    C4 1975   1.497   3.168  10.339  0.4883  0.2861  0.5761
  127TMC2    C5 1976   1.370   3.115  10.336  0.3211  0.2769  0.3150
  127TMC2    C6 1977   1.307   3.089  10.461 -0.4552  0.1789  0.6799
  127TMC2     C 1978   1.673   3.284  10.473 -0.6912  0.2987 -0.5167
  127TMC2     O 1979   1.716   3.308  10.586 -0.0075 -0.4557 -0.0384
  127TMC2     H 1980   1.534   3.196  10.678  1.1715 -1.2138 -0.5285
  127TMC2    H1 1981   1.541   3.183  10.241 -2.5216  0.3234 -0.7733
  127TMC2    H2 1982   1.219   3.026  10.458 -0.5632  0.2949  1.3872
  127TMC2    C7 1983   1.357   3.009  10.231 -0.9393  0.9860  0.5373
  127TMC2    C8 1984   1.311   3.053  10.689 -0.0150 -0.0514 -0.1727
  127TMC2    O1 1985   1.385   3.047  10.120  0.5026  0.3529 -0.1730
  127TMC2    O2 1986   1.246   2.951  10.674  0.2329  0.1411  0.8239
  127TMC2    O5 1987   1.299   3.145  10.783 -0.0261  0.1808  0.6019
  127TMC2    H5 1988   1.328   3.235  10.755 -0.5237  0.2427  0.2888
  128MPD2     C 1989   1.884   3.370  10.180 -0.9947  0.4093 -0.0878
  128MPD2    C1 1990   1.841   3.372  10.322 -0.2456  0.3319 -0.1498
  128MPD2    C2 1991   1.870   3.487  10.395  0.6083 -0.1341 -0.3655
  128MPD2    C3 1992   1.953   3.582  10.345  0.1131  0.0196 -0.2422
  128MPD2    C4 1993   2.007   3.576  10.218  0.4939 -0.3704  0.4664
  128MPD2    C5 1994   1.970   3.467  10.138 -0.2492 -0.1094 -0.7406
  128MPD2     H 1995   1.823   3.497  10.492  0.2560 -2.6148 -0.2864
  128MPD2    H1 1996   2.077   3.646  10.174 -1.0253  1.1162  0.3974
  128MPD2    H2 1997   1.849   3.298  10.107  1.1330 -2.0837  1.3289
  128MPD2    H3 1998   2.019   3.465  10.041 -1.7491  1.5409 -1.5462
  128MPD2     N 1999   1.988   3.683  10.438 -0.0090  0.3252 -0.3719
  128MPD2    H5 2000   1.961   3.665  10.534 -1.9078 -1.5984 -1.2679
  128MPD2    N1 2001   1.738   3.286  10.350 -0.0792  0.7953  0.5911
  128MPD2    H7 2002   1.690   3.245  10.271  0.1738  1.4575  0.0983
  129TMC2    C1 2003   0.392   4.055   0.943  0.2091 -0.4903  0.8170
  129TMC2    C2 2004   0.499   4.071   0.866 -0.5425 -0.8714 -0.0223
  129TMC2    C3 2005   0.595   3.980   0.865  0.4993  0.6151 -0.1445
  129TMC2    C4 2006   0.380   3.941   1.019 -0.0258 -0.4034  0.3066
  129TMC2    C5 2007   0.488   3.856   1.028 -0.5606  0.4370  0.4303
  129TMC2    C6 2008   0.592   3.872   0.945 -0.4859  0.4178 -0.3565
  129TMC2     C 2009   0.324   4.170   1.007 -0.7152 -0.5736 -0.2598
  129TMC2     O 2010   0.216   4.142   1.060 -0.9965  0.1985  0.2655
  129TMC2     H 2011   0.484   4.146   0.789 -1.8303 -1.0385  0.0611
  129TMC2    H1 2012   0.300   3.932   1.091 -1.0577  0.5969 -0.7188
  129TMC2    H2 2013   0.664   3.791   0.931  2.3895  2.8780  0.2447
  129TMC2    C7 2014   0.495   3.764   1.139 -0.1036 -0.1735  0.0364
  129TMC2    C8 2015   0.692   3.978   0.760  0.0884  0.1940 -0.3500
  129TMC2    O1 2016   0.386   3.746   1.198 -0.0235  0.0982  0.0503
  129TMC2    O2 2017   0.761   3.880   0.722  0.5925 -0.3336 -0.4306
  129TMC2    O5 2018   0.725   4.101   0.731 -0.2752 -0.1433 -0.4105
  129TMC2    H5 2019   0.676   4.172   0.778  0.8915  0.5803 -0.2712
  130MPD2     C 2020   0.235   4.422   1.141 -0.6472  0.4508 -1.0798
  130MPD2    C1 2021   0.348   4.417   1.056 -0.0867 -0.1394  0.4868
  130MPD2    C2 2022   0.435   4.525   1.047  0.3276  0.0497  0.0974
  130MPD2    C3 2023   0.412   4.643   1.120 -0.2653  0.5929  0.3390
  130MPD2    C4 2024   0.292   4.647   1.198 -0.0121 -0.3259  0.3888
  130MPD2    C5 2025   0.205   4.542   1.204 -0.1596 -0.1689 -0.0069
  130MPD2     H 2026   0.520   4.520   0.980 -0.7006  2.0515 -1.3227
  130MPD2    H1 2027   0.273   4.730   1.266  0.1594 -1.3831  1.7358
  130MPD2    H2 2028   0.169   4.341   1.171  1.0913 -1.4818 -2.4361
  130MPD2    H3 2029   0.122   4.535   1.274 -0.6488 -1.0241 -0.6795
  130MPD2     N 2030   0.509   0.010   1.120 -0.1559 -0.0798 -0.4587
  130MPD2    H5 2031   0.596   4.732   1.069 -0.8199 -0.2730 -1.5425
  130MPD2    N1 2032   0.394   4.291   1.004 -0.3105  0.0139 -0.0875
  130MPD2    H7 2033   0.482   4.286   0.954  0.9770 -0.2775  2.1807
  131TMC2    C1 2034   4.599   3.229  10.301  0.0949 -0.0637 -0.4615
  131TMC2    C2 2035   4.526   3.139  10.368 -0.2322 -0.4152 -0.0121
  131TMC2    C3 2036   4.504   3.022  10.295 -0.1035  0.6345  0.4433
  131TMC2    C4 2037   4.667   3.207  10.187  0.0548  0.7300  0.3522
  131TMC2    C5 2038   4.661   3.082  10.127 -0.3204 -0.4039  0.0904
  131TMC2    C6 2039   4.577   2.987  10.182  0.1210  0.1775 -0.1162
  131TMC2     C 2040   4.641   3.351  10.367  0.3033 -0.2643  1.1859
  131TMC2     O 2041   0.001   3.408  10.320  0.4979  0.3565  0.3462
  131TMC2     H 2042   4.494   3.155  10.471  0.6029  2.3741 -0.2012
  131TMC2    H1 2043   4.710   3.285  10.125  0.6753 -0.2619 -0.4649
  131TMC2    H2 2044   4.576   2.894  10.127 -0.3934  0.7514 -1.0687
  131TMC2    C7 2045   4.729   3.060   9.999 -0.9739 -0.4358  0.5794
  131TMC2    C8 2046   4.445   2.914  10.365  0.5723 -0.5344  0.4255
  131TMC2    O1 2047   4.677   2.977   9.923  0.5362  0.1114 -0.4014
  131TMC2    O2 2048   4.476   2.890  10.479 -0.2600  0.1718  0.0051
  131TMC2    O5 2049   4.383   2.820  10.286 -0.7354  0.1759  0.0082
  131TMC2    H5 2050   4.368   2.856  10.196  0.2163  2.1964  0.6533
  132MPD2     C 2051   4.480   3.572  10.616  0.2117 -0.5170 -0.4864
  132MPD2    C1 2052   4.559   3.540  10.510  0.0391 -0.5114 -0.0690
  132MPD2    C2 2053   4.644   3.639  10.456 -0.1742 -0.1243  0.1353
  132MPD2    C3 2054   4.640   3.764  10.499  0.2123 -0.2070 -0.1556
  132MPD2    C4 2055   4.556   3.804  10.604 -0.1331  0.8876 -0.7906
  132MPD2    C5 2056   4.490   3.703  10.666  0.2038  0.5360 -0.3547
  132MPD2     H 2057   4.715   3.615  10.379  0.5635 -1.7880  1.3319
  132MPD2    H1 2058   4.570   3.899  10.654 -3.0347  0.2521  1.2351
  132MPD2    H2 2059   4.412   3.508  10.672  0.6675 -0.2544  0.3687
  132MPD2    H3 2060   4.430   3.720  10.754  0.5825  0.1788 -0.0278
  132MPD2     N 2061   0.001   3.850  10.437 -0.4443 -0.2120  0.1461
  132MPD2    H5 2062   0.071   3.802  10.381  1.3147 -0.3859  2.5269
  132MPD2    N1 2063   4.561   3.399  10.468  0.0764 -0.1222  0.3160
  132MPD2    H7 2064   4.489   3.344  10.515  0.3292 -0.5186  0.2337
  133TMC2    C1 2065   4.162   0.022  10.414 -0.1188  0.8992  0.2477
  133TMC2    C2 2066   4.095   0.137  10.379  0.0625 -0.4094 -0.2608
  133TMC2    C3 2067   4.054   0.226  10.480  0.7771 -0.5733 -0.6065
  133TMC2    C4 2068   4.185   4.729  10.549  0.0535 -0.2858  0.5213
  133TMC2    C5 2069   4.146   0.074  10.647  0.2452 -0.2494 -0.0213
  133TMC2    C6 2070   4.082   0.195  10.612 -0.1967 -0.2188 -0.6900
  133TMC2     C 2071   4.217   4.675  10.319  0.5153  0.3872  0.1237
  133TMC2     O 2072   4.251   4.560  10.342  0.0614  0.5774 -0.2124
  133TMC2     H 2073   4.070   0.154  10.275 -2.3177  1.4173  0.6166
  133TMC2    H1 2074   4.240   4.639  10.574 -0.5507 -1.4788 -2.4273
  133TMC2    H2 2075   4.068   0.280  10.679 -0.1494 -1.7012  1.1944
  133TMC2    C7 2076   4.206   0.073  10.775  0.2423 -0.8580 -0.7596
  133TMC2    C8 2077   4.019   0.362  10.454  0.1682 -0.4620  0.8621
  133TMC2    O1 2078   4.308   0.011  10.796  0.1846  0.8221 -0.6993
  133TMC2    O2 2079   3.933   0.407  10.529 -0.2130  0.3530  0.2410
  133TMC2    O5 2080   4.006   0.366  10.320 -0.5749  0.0412 -0.1196
  133TMC2    H5 2081   4.087   0.346  10.268 -0.0200  1.6775  0.1373
  134MPD2     C 2082   4.373   0.056  10.003 -0.2502  0.2571  0.6450
  134MPD2    C1 2083   4.319   4.700  10.093  0.1008  0.0386 -0.1934
  134MPD2    C2 2084   4.318   4.568  10.053  0.5712 -0.3735  0.5564
  134MPD2    C3 2085   4.381   4.532   9.930  0.2831  0.6662 -0.4215
  134MPD2    C4 2086   4.446   4.627   9.853 -0.2692  0.6522  0.0120
  134MPD2    C5 2087   4.443   0.018   9.891  0.3935  0.1130  0.8290
  134MPD2     H 2088   4.265   4.499  10.117  0.0783 -0.0686  0.4763
  134MPD2    H1 2089   4.499   4.590   9.767 -2.1668  1.4125 -1.4837
  134MPD2    H2 2090   4.360   0.164  10.009 -0.5418  0.1662  1.6827
  134MPD2    H3 2091   4.476   0.100   9.829  0.6990 -0.5274  0.1359
  134MPD2     N 2092   4.375   4.402   9.876  0.0307 -0.0894 -0.6621
  134MPD2    H5 2093   4.425   4.387   9.789 -0.4884 -0.0325 -0.9657
  134MPD2    N1 2094   4.254   0.015  10.211 -0.5628 -0.1466 -0.4035
  134MPD2    H7 2095   4.238   0.115  10.217  1.2359  0.0153  1.7590
  135TMC2    C1 2096   1.260   0.120   9.570 -0.2069 -0.4277 -0.1225
  135TMC2    C2 2097   1.338   0.239   9.568  0.1487  0.3423  0.2045
  135TMC2    C3 2098   1.291   0.338   9.649  0.3320  0.0352 -0.6549
  135TMC2    C4 2099   1.147   0.114   9.646  0.2307  0.3087 -0.4209
  135TMC2    C5 2100   1.116   0.214   9.736  0.1470  0.3683  0.0847
  135TMC2    C6 2101   1.189   0.328   9.736  0.1543 -0.2852 -0.4494
  135TMC2     C 2102   1.266   0.025   9.459 -0.5437  0.3312 -0.1536
  135TMC2     O 2103   1.161   4.721   9.413 -0.3131 -0.0521  0.0533
  135TMC2     H 2104   1.423   0.254   9.502  1.1722  0.6561  1.6034
  135TMC2    H1 2105   1.074   0.035   9.638  2.0618 -1.5177  0.8858
  135TMC2    H2 2106   1.178   0.410   9.805  1.0456 -0.2314 -0.3629
  135TMC2    C7 2107   1.045   0.179   9.853  0.8436  0.3640 -0.2767
  135TMC2    C8 2108   1.350   0.469   9.650  1.0116 -0.0589  0.3490
  135TMC2    O1 2109   1.013   0.062   9.859  0.1480  0.5404  0.2539
  135TMC2    O2 2110   1.387   0.525   9.749  0.1781 -0.5781 -0.3062
  135TMC2    O5 2111   1.385   0.506   9.524 -0.0771 -0.8093 -0.2455
  135TMC2    H5 2112   1.335   0.447   9.464 -0.8382 -2.5628  2.1565
  136MPD2     C 2113   1.349   4.554   9.257 -0.7513  0.0324  0.1324
  136MPD2    C1 2114   1.436   4.638   9.322  0.5336 -0.3165 -0.0960
  136MPD2    C2 2115   1.573   4.612   9.313 -0.2176  0.4998  0.0938
  136MPD2    C3 2116   1.621   4.509   9.226  0.1367 -0.2763 -0.2034
  136MPD2    C4 2117   1.525   4.429   9.170 -0.1426  0.1867 -0.1434
  136MPD2    C5 2118   1.391   4.446   9.185  0.2409 -0.0799 -0.6307
  136MPD2     H 2119   1.631   4.681   9.373  1.5310 -0.1724 -0.8330
  136MPD2    H1 2120   1.556   4.346   9.108 -0.1378  0.5844 -0.6782
  136MPD2    H2 2121   1.241   4.565   9.261 -0.6092  1.4336  0.1059
  136MPD2    H3 2122   1.318   4.389   9.128  1.1232  1.4815 -3.3055
  136MPD2     N 2123   1.762   4.491   9.193  0.3019 -0.2154 -0.4725
  136MPD2    H5 2124   1.784   4.420   9.125  0.4312 -1.7652  1.1696
  136MPD2    N1 2125   1.396   0.006   9.407  0.7974 -0.6045 -0.5979
  136MPD2    H7 2126   1.467   0.061   9.454  0.8319 -0.8410 -0.3733
  137TMC2    C1 2127   1.692   3.800   9.554 -0.5126 -0.5239  1.0592
  137TMC2    C2 2128   1.813   3.789   9.497  0.0833 -0.3935 -0.6801
  137TMC2    C3 2129   1.819   3.689   9.399 -0.3869  0.1805  0.3259
  137TMC2    C4 2130   1.585   3.719   9.538 -0.4860  0.0427 -0.5339
  137TMC2    C5 2131   1.606   3.619   9.441 -0.4568 -0.2025 -0.0473
  137TMC2    C6 2132   1.718   3.598   9.372 -0.5759  0.1358  0.5451
  137TMC2     C 2133   1.679   3.901   9.656 -0.5283 -0.3808 -0.6181
  137TMC2     O 2134   1.783   3.968   9.665  0.1693 -0.8188  0.5748
  137TMC2     H 2135   1.898   3.855   9.501  0.5791 -1.0613 -0.3144
  137TMC2    H1 2136   1.496   3.729   9.599 -0.9827  2.4258 -1.6327
  137TMC2    H2 2137   1.732   3.510   9.311 -0.4076  1.0165 -0.6847
  137TMC2    C7 2138   1.482   3.552   9.381 -0.0565  0.6911 -0.4180
  137TMC2    C8 2139   1.953   3.676   9.341 -0.0770 -0.8172  0.4330
  137TMC2    O1 2140   1.499   3.466   9.296  0.0585  0.1375  0.1931
  137TMC2    O2 2141   2.054   3.700   9.406  0.3063  0.4022  0.1635
  137TMC2    O5 2142   1.949   3.582   9.248  0.1030  0.2559 -0.4222
  137TMC2    H5 2143   1.873   3.601   9.189  1.6375  1.5847 -1.9582
  138MPD2     C 2144   1.411   4.006   9.874  0.9878 -0.5018  0.3097
  138MPD2    C1 2145   1.530   4.015   9.812  0.6643 -0.7612 -0.0274
  138MPD2    C2 2146   1.613   4.116   9.851 -0.2431 -0.2620  0.0640
  138MPD2    C3 2147   1.579   4.222   9.933 -0.4969  0.4495 -0.0170
  138MPD2    C4 2148   1.453   4.207   9.988  0.5055  0.2735  0.3451
  138MPD2    C5 2149   1.374   4.103   9.965  0.4478  0.3131  0.3203
  138MPD2     H 2150   1.710   4.123   9.805  0.2461  0.5850  1.2312
  138MPD2    H1 2151   1.408   4.272  10.062 -0.4818  1.2106 -1.0926
  138MPD2    H2 2152   1.339   3.926   9.862 -0.0461  0.5653 -0.4597
  138MPD2    H3 2153   1.279   4.098  10.018 -0.2354 -0.5967 -1.0194
  138MPD2     N 2154   1.672   4.319   9.956 -0.3986 -0.1844  0.6308
  138MPD2    H5 2155   1.757   4.317   9.901  0.3528 -2.2915  1.8709
  138MPD2    N1 2156   1.558   3.912   9.721 -0.8046 -0.0583  0.5173
  138MPD2    H7 2157   1.479   3.850   9.706  0.1201 -1.1397  0.1803
  139TMC2    C1 2158   2.387   2.609  13.715  0.7684  1.0740  0.7604
  139TMC2    C2 2159   2.476   2.641  13.618 -0.3259  0.1561 -0.4343
  139TMC2    C3 2160   2.502   2.777  13.593  0.1225  0.1508 -0.4207
  139TMC2    C4 2161   2.302   2.696  13.779 -0.2570 -0.1126 -0.3039
  139TMC2    C5 2162   2.325   2.828  13.749  0.1240 -0.5930 -0.1746
  139TMC2    C6 2163   2.418   2.867  13.655 -0.3078  0.7035 -0.4127
  139TMC2     C 2164   2.347   2.470  13.717  0.0071 -0.2838 -0.2061
  139TMC2     O 2165   2.415   2.391  13.649  0.8318  0.2478  0.0387
  139TMC2     H 2166   2.542   2.565  13.576  1.9805  1.3797  1.0116
  139TMC2    H1 2167   2.227   2.670  13.853  2.0937  0.1526  2.1895
  139TMC2    H2 2168   2.428   2.971  13.626 -0.5602  0.2987 -1.9176
  139TMC2    C7 2169   2.240   2.932  13.803  0.4137 -0.1027 -0.8342
  139TMC2    C8 2170   2.571   2.815  13.473 -0.8672 -1.2460 -0.6830
  139TMC2    O1 2171   2.202   3.022  13.730 -0.6071  0.2826  0.4293
  139TMC2    O2 2172   2.564   2.754  13.367  0.5300  0.1615  0.3196
  139TMC2    O5 2173   2.641   2.929  13.499 -0.3458 -0.2357  0.1904
  139TMC2    H5 2174   2.632   2.946  13.596  0.9897 -1.6214  0.5670
  140MPD2     C 2175   2.007   2.331  13.771 -1.1453  0.0721  0.1792
  140MPD2    C1 2176   2.143   2.332  13.754 -1.0215  0.0236  0.0304
  140MPD2    C2 2177   2.208   2.211  13.727  0.8909 -0.4353 -0.2742
  140MPD2    C3 2178   2.141   2.088  13.718  0.1389  0.0184 -0.0043
  140MPD2    C4 2179   2.004   2.096  13.729  0.4964  0.2207  0.6706
  140MPD2    C5 2180   1.938   2.209  13.759  0.1393 -0.0318 -0.5720
  140MPD2     H 2181   2.317   2.213  13.722  1.1359 -0.0596  4.5716
  140MPD2    H1 2182   1.937   2.011  13.723 -0.1301  0.7687 -0.1602
  140MPD2    H2 2183   1.943   2.416  13.789  0.1076  1.1083 -0.2290
  140MPD2    H3 2184   1.831   2.202  13.771  0.5799  0.0190  3.2560
  140MPD2     N 2185   2.218   1.969  13.699  0.1550  0.7441 -0.0712
  140MPD2    H5 2186   2.315   1.976  13.668  0.0014  0.5362 -0.6122
  140MPD2    N1 2187   2.216   2.457  13.755  0.3351 -0.2797  0.2312
  140MPD2    H7 2188   2.174   2.548  13.763 -0.3247 -0.4034 -1.9058
  141TMC2    C1 2189   3.007   3.823  13.598  0.0011 -0.2082 -0.8139
  141TMC2    C2 2190   2.940   3.738  13.516  0.2962  0.7293 -0.2784
  141TMC2    C3 2191   2.834   3.668  13.560  0.3559 -0.5589  0.5813
  141TMC2    C4 2192   2.961   3.838  13.727  0.3347 -0.7997  0.1617
  141TMC2    C5 2193   2.861   3.759  13.773 -0.4121  0.5282  0.2253
  141TMC2    C6 2194   2.792   3.679  13.684  0.2357  0.4944  0.7038
  141TMC2     C 2195   3.103   3.906  13.533  0.3995 -1.3004  0.2067
  141TMC2     O 2196   3.092   3.922  13.410  0.7338 -0.1944 -0.3800
  141TMC2     H 2197   2.971   3.745  13.412 -0.0164 -1.1340 -0.5021
  141TMC2    H1 2198   3.017   3.903  13.793  1.5644 -2.2259  0.5228
  141TMC2    H2 2199   2.707   3.619  13.716 -0.5527  1.3948  0.3222
  141TMC2    C7 2200   2.816   3.766  13.911  0.3796 -0.6712 -0.2555
  141TMC2    C8 2201   2.750   3.577  13.477 -0.0413 -0.0725 -0.4105
  141TMC2    O1 2202   2.727   3.690  13.942  0.2670 -0.0763  0.0296
  141TMC2    O2 2203   2.629   3.592  13.485  0.0674  0.7538  0.3980
  141TMC2    O5 2204   2.820   3.584  13.361  0.0449  0.2589  0.3947
  141TMC2    H5 2205   2.916   3.564  13.368  0.2295  1.3365  0.8863
  142TMC2    C1 2206   4.641   2.930  10.808 -0.1236 -0.4200 -0.4099
  142TMC2    C2 2207   4.667   3.044  10.880  0.4397  0.3103 -0.3849
  142TMC2    C3 2208   0.008   3.145  10.838  0.9039 -0.4142  0.1249
  142TMC2    C4 2209   4.694   2.923  10.683  0.9233 -0.2865  0.0122
  142TMC2    C5 2210   0.043   3.022  10.647 -0.1710 -1.1204  0.6823
  142TMC2    C6 2211   0.066   3.137  10.718 -0.1605  0.0079 -0.0832
  142TMC2     C 2212   4.517   2.860  10.841  0.1596 -0.6297 -0.0030
  142TMC2     O 2213   4.495   2.861  10.962 -0.0293  0.9999  0.3518
  142TMC2     H 2214   4.621   3.057  10.978 -1.6627  2.3834 -1.6337
  142TMC2    H1 2215   4.683   2.830  10.627 -2.5895  0.8416 -1.1572
  142TMC2    H2 2216   0.131   3.215  10.679  0.1874 -1.5364 -2.5946
  142TMC2    C7 2217   0.098   3.014  10.517  0.0373  0.4730 -0.0843
  142TMC2    C8 2218   0.075   3.235  10.936  0.3037  0.4243  0.5381
  142TMC2    O1 2219   0.140   3.120  10.473 -0.0131  0.3966  0.2275
  142TMC2    O2 2220   0.126   3.344  10.907  0.1642 -0.0147 -0.0997
  142TMC2    O5 2221   0.101   3.168  11.050  0.1469  0.5011 -0.8037
  142TMC2    H5 2222   0.058   3.080  11.060 -0.0171  0.3949 -2.4527
  143MPD2     C 2223   4.215   2.466  10.756 -0.8417 -0.1057 -0.3491
  143MPD2    C1 2224   4.271   2.503  10.871 -0.6479 -0.4947 -0.4654
  143MPD2    C2 2225   4.356   2.608  10.873 -0.4537  0.0079 -0.3833
  143MPD2    C3 2226   4.384   2.669  10.747  0.4666 -0.2126  0.1977
  143MPD2    C4 2227   4.324   2.632  10.632  0.2040 -0.0166 -0.2629
  143MPD2    C5 2228   4.239   2.528  10.639 -0.2483 -0.9626 -0.2955
  143MPD2     H 2229   4.396   2.638  10.969 -2.8771  0.2849  0.5389
  143MPD2    H1 2230   4.344   2.689  10.542  0.5219 -0.4159 -0.4445
  143MPD2    H2 2231   4.147   2.383  10.743 -0.3571 -0.5629  0.0430
  143MPD2    H3 2232   4.189   2.484  10.554  0.1584  0.3796 -1.2232
  143MPD2     N 2233   4.466   2.786  10.740 -0.2791  0.0976  0.0714
  143MPD2    H5 2234   4.492   2.822  10.648 -1.4708 -0.7445 -0.5902
  143MPD2    N1 2235   4.234   2.439  10.992 -0.1137  0.3702 -0.8793
  143MPD2    H7 2236   4.152   2.379  10.990  0.1111  0.0239  0.6656
  144TMC2    C1 2237   3.077   0.836   0.763 -0.4450  0.2761 -0.2975
  144TMC2    C2 2238   3.119   0.710   0.741  0.1423  0.1335 -0.0985
  144TMC2    C3 2239   3.240   0.681   0.809 -0.2688 -0.5352 -0.7508
  144TMC2    C4 2240   3.125   0.924   0.860  0.0925  0.0772  0.5730
  144TMC2    C5 2241   3.233   0.877   0.936  0.1171  0.0676  0.4941
  144TMC2    C6 2242   3.303   0.758   0.900  0.6560 -0.1091  0.3640
  144TMC2     C 2243   2.969   0.877   0.672 -0.2950 -0.1462  0.2112
  144TMC2     O 2244   2.928   0.797   0.591  0.1192  0.2690  0.1955
  144TMC2     H 2245   3.079   0.641   0.668  1.8011 -0.2863 -0.5979
  144TMC2    H1 2246   3.076   1.020   0.875 -1.2731 -0.3400 -1.2285
  144TMC2    H2 2247   3.394   0.733   0.951  0.7885 -1.6152 -0.6161
  144TMC2    C7 2248   3.279   0.951   1.058 -0.5515 -0.3214 -0.2339
  144TMC2    C8 2249   3.302   0.564   0.760 -0.2590 -0.1393  0.3461
  144TMC2    O1 2250   3.363   0.888   1.120  0.0529  0.6864 -0.0225
  144TMC2    O2 2251   3.313   0.535   0.639 -0.0109 -0.6629 -0.1942
  144TMC2    O5 2252   3.363   0.508   0.865  0.2047  0.1331 -0.4176
  144TMC2    H5 2253   3.362   0.566   0.944 -1.5880 -1.6011  0.8040
  145MPD2     C 2254   2.614   1.222   0.478 -0.4843  0.5464 -0.4420
  145MPD2    C1 2255   2.633   1.085   0.458  0.1262 -0.3787  0.4120
  145MPD2    C2 2256   2.735   1.015   0.518 -0.2810  0.0728 -0.2857
  145MPD2    C3 2257   2.828   1.077   0.600 -0.6294 -0.3112  0.5055
  145MPD2    C4 2258   2.816   1.218   0.619  0.4749  0.8409  0.2695
  145MPD2    C5 2259   2.713   1.284   0.555 -0.3932 -0.4179  0.2505
  145MPD2     H 2260   2.740   0.911   0.489 -2.5386  0.2937 -1.4461
  145MPD2    H1 2261   2.897   1.265   0.673 -0.5046  1.4704  1.1881
  145MPD2    H2 2262   2.535   1.278   0.429  2.5067  3.4280 -1.9867
  145MPD2    H3 2263   2.710   1.392   0.564  1.3773 -0.1459 -2.4818
  145MPD2     N 2264   2.937   1.020   0.673 -0.1304 -1.1633 -0.8189
  145MPD2    H5 2265   2.979   1.084   0.740  1.6396 -1.1265 -1.9499
  145MPD2    N1 2266   2.559   1.004   0.371  0.8387 -0.3796  0.2461
  145MPD2    H7 2267   2.582   0.905   0.371 -1.9891 -1.0250 -0.4325
  146TMC2    C1 2268   4.386   4.727  12.881 -0.2045  0.5261  0.1112
  146TMC2    C2 2269   4.267   0.008  12.815  0.0118  0.0322 -0.5059
  146TMC2    C3 2270   4.236   4.642  12.726  0.4628 -0.5671 -0.0286
  146TMC2    C4 2271   4.471   4.618  12.870 -0.3747 -0.9266  0.2004
  146TMC2    C5 2272   4.433   4.518  12.783 -0.9354 -0.5210 -0.4556
  146TMC2    C6 2273   4.317   4.525  12.711 -0.4891  0.1700 -0.2653
  146TMC2     C 2274   4.421   0.094  12.977  1.1397  0.4465 -0.3734
  146TMC2     O 2275   4.378   0.208  12.959  0.3495  0.0794 -0.2481
  146TMC2     H 2276   4.215   0.102  12.831 -2.1691 -1.3256  0.4344
  146TMC2    H1 2277   4.573   4.616  12.909 -0.3595  0.0941  0.2200
  146TMC2    H2 2278   4.279   4.447  12.647  0.9013 -0.2841 -0.5330
  146TMC2    C7 2279   4.506   4.392  12.770  0.3474  0.4244  0.3201
  146TMC2    C8 2280   4.159   4.667  12.611 -0.4127 -0.0353  0.4869
  146TMC2    O1 2281   4.479   4.326  12.672 -0.1106  0.6731  0.4264
  146TMC2    O2 2282   4.140   4.585  12.522  0.9744 -0.0629 -0.4026
  146TMC2    O5 2283   4.163   0.063  12.595 -0.0533  0.0876 -0.2607
  146TMC2    H5 2284   4.197   0.110  12.674  0.8536 -2.4947  0.8607
  147MPD2     C 2285   0.171   4.084  12.886  0.5421 -0.1165 -0.4652
  147MPD2    C1 2286   0.144   4.165  12.991  0.6713  0.2005 -0.2624
  147MPD2    C2 2287   0.038   4.251  12.981 -0.6560 -0.6403 -0.0315
  147MPD2    C3 2288   4.690   4.255  12.876 -0.4818 -0.6383 -0.4471
  147MPD2    C4 2289   4.718   4.176  12.768 -0.0023  0.4071 -0.1171
  147MPD2    C5 2290   0.092   4.091  12.767 -0.1039 -0.5502 -0.8703
  147MPD2     H 2291   4.736   4.310  13.063  0.0338  0.4093 -0.4683
  147MPD2    H1 2292   4.661   4.191  12.677  1.6080 -3.0271 -1.6828
  147MPD2    H2 2293   0.265   4.030  12.886  0.8877  0.4788 -0.5796
  147MPD2    H3 2294   0.124   4.031  12.683 -1.3153 -1.4346 -0.6826
  147MPD2     N 2295   4.596   4.362  12.871 -0.0113  0.3049  0.1356
  147MPD2    H5 2296   4.576   4.421  12.952  1.1342  0.9446 -0.0521
  147MPD2    N1 2297   0.236   4.179  13.091  0.2384  0.4525 -0.2022
  147MPD2    H7 2298   0.332   4.154  13.068 -0.0315 -1.5127  0.8290
  148TMC2    C1 2299   3.351   3.630  10.844 -0.3908 -0.2446  0.7440
  148TMC2    C2 2300   3.262   3.711  10.913 -0.0877 -0.2268 -0.1394
  148TMC2    C3 2301   3.292   3.730  11.043  0.5540 -0.0419 -0.0475
  148TMC2    C4 2302   3.469   3.588  10.900 -0.0495  0.3368  0.6173
  148TMC2    C5 2303   3.499   3.621  11.028  0.7481  0.0956 -0.2653
  148TMC2    C6 2304   3.405   3.687  11.103  0.7049  0.6124 -0.4887
  148TMC2     C 2305   3.298   3.557  10.728  0.3760  0.0112 -0.0012
  148TMC2     O 2306   3.345   3.448  10.706  0.0614  0.1423  0.5648
  148TMC2     H 2307   3.167   3.745  10.873  0.5127  2.0092  0.3634
  148TMC2    H1 2308   3.536   3.521  10.848 -1.2441 -0.5748  0.2778
  148TMC2    H2 2309   3.420   3.719  11.205 -2.5404  3.2788 -0.8482
  148TMC2    C7 2310   3.596   3.538  11.091  0.4935 -0.9807 -0.6923
  148TMC2    C8 2311   3.186   3.738  11.141 -0.3036 -0.2615  0.0087
  148TMC2    O1 2312   3.683   3.482  11.025  0.0618 -0.4957 -1.1842
  148TMC2    O2 2313   3.123   3.843  11.151 -0.3440 -0.6057 -0.9052
  148TMC2    O5 2314   3.127   3.621  11.117 -0.5460 -0.1919 -0.2858
  148TMC2    H5 2315   3.204   3.562  11.105  0.3926  1.1933 -1.0134
  149MPD2     C 2316   3.125   3.447  10.513 -0.6479 -0.0419 -0.1152
  149MPD2    C1 2317   3.145   3.587  10.538 -0.1870 -0.4062 -0.1831
  149MPD2    C2 2318   3.082   3.678  10.453 -0.2817 -0.7675 -0.3336
  149MPD2    C3 2319   3.001   3.639  10.349  0.0347  0.1355  0.2752
  149MPD2    C4 2320   2.976   3.505  10.330 -0.0751 -0.0819  0.1487
  149MPD2    C5 2321   3.042   3.420  10.411 -0.4535 -0.2157 -0.1283
  149MPD2     H 2322   3.107   3.782  10.471 -0.1161 -0.7458 -0.7030
  149MPD2    H1 2323   2.922   3.466  10.244  2.5985 -0.9849 -1.1246
  149MPD2    H2 2324   3.164   3.367  10.576  1.9592  1.6503  0.4323
  149MPD2    H3 2325   3.030   3.316  10.382  3.2332 -1.1318  1.6766
  149MPD2     N 2326   2.926   3.726  10.269 -0.6396 -0.0470  0.9857
  149MPD2    H5 2327   2.859   3.688  10.203 -1.1026 -2.6850  3.0261
  149MPD2    N1 2328   3.214   3.635  10.655  0.1444 -0.2764 -0.2229
  149MPD2    H7 2329   3.221   3.735  10.669 -2.7698 -0.0662 -0.2475
  150TMC2    C1 2330   1.524   3.144  12.489  0.4080 -0.3619  0.0325
  150TMC2    C2 2331   1.446   3.251  12.483 -0.3235  0.2258  0.3590
  150TMC2    C3 2332   1.513   3.368  12.511 -0.2305  0.4812 -0.4258
  150TMC2    C4 2333   1.645   3.138  12.549  0.1697 -0.1533 -0.4878
  150TMC2    C5 2334   1.708   3.257  12.568  0.3853  0.5541  0.0634
  150TMC2    C6 2335   1.640   3.371  12.552  0.3157  0.2628 -0.0168
  150TMC2     C 2336   1.468   3.016  12.445  0.0581 -0.1502 -0.9511
  150TMC2     O 2337   1.531   2.915  12.467  0.2469  0.3705 -0.4263
  150TMC2     H 2338   1.346   3.254  12.443  0.1323 -0.5477 -0.8559
  150TMC2    H1 2339   1.697   3.043  12.556 -2.3121 -1.4558  0.1774
  150TMC2    H2 2340   1.684   3.468  12.573  0.0468  0.2416  0.6489
  150TMC2    C7 2341   1.824   3.257  12.660 -0.3114 -0.1860  1.0261
  150TMC2    C8 2342   1.444   3.483  12.466  0.2234 -0.2707 -0.0458
  150TMC2    O1 2343   1.838   3.361  12.732  0.4318  0.0325 -0.1004
  150TMC2    O2 2344   1.323   3.488  12.458 -0.0742  0.2168  0.2136
  150TMC2    O5 2345   1.524   3.571  12.396  0.1015  0.3157  0.6942
  150TMC2    H5 2346   1.616   3.536  12.393  0.3932  0.9423  2.3117
  151MPD2     C 2347   1.092   2.719  12.256  0.4748 -0.0065  0.7289
  151MPD2    C1 2348   1.088   2.841  12.189 -0.0189  0.5098  0.4342
  151MPD2    C2 2349   1.175   2.943  12.230  0.3621  0.2106  0.2868
  151MPD2    C3 2350   1.274   2.913  12.325  0.5714 -0.8012 -0.2652
  151MPD2    C4 2351   1.280   2.793  12.387  0.2250  0.1338 -0.4214
  151MPD2    C5 2352   1.187   2.698  12.354  0.1800 -0.2585 -0.4181
  151MPD2     H 2353   1.164   3.040  12.183 -1.1208  0.1842  0.5798
  151MPD2    H1 2354   1.352   2.765  12.462  1.6273  2.0019 -1.0690
  151MPD2    H2 2355   1.019   2.641  12.236  0.4143  0.6207 -1.4865
  151MPD2    H3 2356   1.181   2.607  12.411 -0.2363  0.8255  1.2610
  151MPD2     N 2357   1.362   3.022  12.360 -0.2746  0.6315  0.2073
  151MPD2    H5 2358   1.334   3.108  12.313  3.0734  1.9568  0.6256
  151MPD2    N1 2359   0.989   2.849  12.084  0.0614  0.2950  0.3603
  151MPD2    H7 2360   0.944   2.761  12.061 -2.2812  0.9650  2.4085
  152TMC2    C1 2361   1.759   2.457  12.935  0.3339 -0.3490  0.6034
  152TMC2    C2 2362   1.825   2.393  12.833  0.1531  0.2117 -0.4511
  152TMC2    C3 2363   1.963   2.407  12.825  0.1626  0.6566 -0.1412
  152TMC2    C4 2364   1.826   2.542  13.024  0.0251  0.3789  0.6738
  152TMC2    C5 2365   1.961   2.556  13.016 -0.5190 -0.4721 -0.0192
  152TMC2    C6 2366   2.032   2.488  12.913  0.0040  0.9892 -0.1137
  152TMC2     C 2367   1.619   2.481  12.921 -0.1511  0.1432 -0.0025
  152TMC2     O 2368   1.559   2.558  12.999  0.2731  0.3979  0.0174
  152TMC2     H 2369   1.780   2.344  12.747  1.1392 -2.0582  0.3245
  152TMC2    H1 2370   1.762   2.601  13.088 -0.3535  0.2064  0.4550
  152TMC2    H2 2371   2.138   2.500  12.893 -0.2405  0.9639 -1.3880
  152TMC2    C7 2372   2.012   2.678  13.064 -0.1772 -0.5052  0.5951
  152TMC2    C8 2373   2.044   2.325  12.738 -0.0833 -0.1115 -0.4572
  152TMC2    O1 2374   1.934   2.761  13.108 -0.2470  0.5554 -1.2854
  152TMC2    O2 2375   2.145   2.273  12.784 -0.0057 -0.2291 -0.5121
  152TMC2    O5 2376   2.006   2.330  12.604 -0.0399  0.8551  0.4273
  152TMC2    H5 2377   1.921   2.377  12.589 -0.4637  0.8461  2.8292
  153MPD2     C 2378   1.361   2.299  12.730 -0.5618 -1.1640  0.1892
  153MPD2    C1 2379   1.419   2.407  12.793 -0.9686  0.1013 -0.4547
  153MPD2    C2 2380   1.360   2.529  12.779 -0.1979  0.0573  0.5662
  153MPD2    C3 2381   1.252   2.536  12.702  0.3679 -0.1903 -0.3240
  153MPD2    C4 2382   1.198   2.426  12.642 -0.4595 -1.1611  0.2731
  153MPD2    C5 2383   1.251   2.305  12.659  0.1155 -0.0065 -0.0292
  153MPD2     H 2384   1.403   2.617  12.825  0.3125  0.6178 -0.9812
  153MPD2    H1 2385   1.110   2.430  12.579 -0.2952 -1.5728  0.0176
  153MPD2    H2 2386   1.415   2.206  12.723  3.3157  1.0905  0.2770
  153MPD2    H3 2387   1.216   2.217  12.605 -0.2706  1.0785 -1.5453
  153MPD2     N 2388   1.188   2.665  12.705  0.2903 -0.1635 -0.1574
  153MPD2    H5 2389   1.243   2.742  12.742 -0.7837  0.2850  0.4931
  153MPD2    N1 2390   1.552   2.391  12.840  0.1630  0.1182  0.9578
  153MPD2    H7 2391   1.598   2.305  12.810 -1.4134 -0.0480 -0.9706
  154TMC2    C1 2392   3.464   1.936   0.979  0.1383  0.2420  0.0288
  154TMC2    C2 2393   3.473   2.029   1.077  0.9511 -0.5369  0.3200
  154TMC2    C3 2394   3.561   1.997   1.177 -0.1305 -0.1195  0.0215
  154TMC2    C4 2395   3.520   1.814   0.980  0.3044 -0.1375 -0.4299
  154TMC2    C5 2396   3.598   1.787   1.091 -0.4195 -0.3145  0.3681
  154TMC2    C6 2397   3.622   1.879   1.188 -0.5541 -0.2052 -0.0118
  154TMC2     C 2398   3.375   1.973   0.876 -0.0032 -0.1944 -0.4995
  154TMC2     O 2399   3.330   2.086   0.881  0.3830  0.3735 -0.2496
  154TMC2     H 2400   3.425   2.126   1.072  1.0758 -0.4122  1.5051
  154TMC2    H1 2401   3.501   1.738   0.905 -0.2174 -1.4616  1.0631
  154TMC2    H2 2402   3.681   1.854   1.275 -1.2651 -0.1363  0.4937
  154TMC2    C7 2403   3.644   1.654   1.114  0.8478 -0.3315 -0.0607
  154TMC2    C8 2404   3.594   2.105   1.268 -0.3230  1.0590  0.1200
  154TMC2    O1 2405   3.697   1.643   1.223 -0.0076 -0.0933  0.1862
  154TMC2    O2 2406   3.564   2.224   1.248 -0.1304  0.4878  0.8285
  154TMC2    O5 2407   3.627   2.059   1.388 -0.6724  0.0484 -0.1197
  154TMC2    H5 2408   3.606   1.964   1.398 -0.1118  0.0476  1.0261
  155MPD2     C 2409   3.294   1.814   0.550  0.2301 -0.9318 -0.3410
  155MPD2    C1 2410   3.286   1.908   0.650  0.1727  0.0019 -0.3650
  155MPD2    C2 2411   3.229   2.032   0.620  0.3469 -1.1823 -0.9619
  155MPD2    C3 2412   3.182   2.061   0.492 -0.3791  0.0536 -0.7737
  155MPD2    C4 2413   3.193   1.969   0.391  0.2345  0.6713  0.2349
  155MPD2    C5 2414   3.246   1.845   0.427 -0.3217  0.0811 -0.0336
  155MPD2     H 2415   3.223   2.119   0.684 -1.7089 -0.6872 -1.8313
  155MPD2    H1 2416   3.171   1.987   0.286  0.5583  2.4768  0.4782
  155MPD2    H2 2417   3.338   1.717   0.567  1.5581 -0.1571  0.6579
  155MPD2    H3 2418   3.253   1.774   0.345  0.8151  1.5530 -1.2195
  155MPD2     N 2419   3.121   2.188   0.480 -0.6228 -0.1989 -0.0124
  155MPD2    H5 2420   3.130   2.253   0.558 -1.6227 -0.5290  0.3782
  155MPD2    N1 2421   3.355   1.883   0.776  0.0085  0.1033  0.2813
  155MPD2    H7 2422   3.408   1.797   0.785  0.0450  0.0243 -0.6206
  156TMC2    C1 2423   2.068   0.177  11.924  1.0777  0.2746  0.1486
  156TMC2    C2 2424   2.204   0.145  11.924  0.0259  0.2662  0.5799
  156TMC2    C3 2425   2.277   0.153  11.810  0.0025 -0.2239  0.0497
  156TMC2    C4 2426   1.998   0.207  11.810 -0.4247 -0.0928  0.2026
  156TMC2    C5 2427   2.077   0.216  11.697  0.7096  0.6979  0.3267
  156TMC2    C6 2428   2.212   0.187  11.694  1.0001 -0.8517 -0.1106
  156TMC2     C 2429   2.005   0.204  12.055  0.0703 -0.2212 -0.2278
  156TMC2     O 2430   1.882   0.205  12.058  0.1943  0.2175 -0.2654
  156TMC2     H 2431   2.245   0.098  12.013  1.1545 -0.5460 -0.3679
  156TMC2    H1 2432   1.907   0.265  11.816 -0.4542 -0.2313  1.0104
  156TMC2    H2 2433   2.260   0.189  11.597 -1.5744  3.5349 -1.2788
  156TMC2    C7 2434   2.012   0.187  11.572 -0.7073 -0.1956  0.0264
  156TMC2    C8 2435   2.408   0.096  11.804  0.2236  0.5301  0.8827
  156TMC2    O1 2436   2.065   0.113  11.491  0.2183 -0.7931  0.1071
  156TMC2    O2 2437   2.453   0.025  11.713  0.1199  0.7548  0.5783
  156TMC2    O5 2438   2.478   0.132  11.907  0.2593 -0.0105  0.4289
  156TMC2    H5 2439   2.428   0.193  11.966 -1.0169 -1.0625  0.4465
  157MPD2     C 2440   2.172   0.230  12.386 -0.4342  0.4974 -1.6679
  157MPD2    C1 2441   2.071   0.237  12.288  0.9777  0.2895 -0.4031
  157MPD2    C2 2442   1.946   0.259  12.341  0.1671 -0.3972  0.0937
  157MPD2    C3 2443   1.926   0.279  12.482  0.4980 -0.2355 -0.6194
  157MPD2    C4 2444   2.034   0.278  12.568  0.2294  0.4625  0.4347
  157MPD2    C5 2445   2.160   0.270  12.512  0.3389 -0.1170  0.3589
  157MPD2     H 2446   1.864   0.265  12.271  0.4152 -3.2207 -0.4092
  157MPD2    H1 2447   2.022   0.299  12.673 -0.8363  0.4185  0.3151
  157MPD2    H2 2448   2.270   0.198  12.353 -0.0841  0.2245 -0.3493
  157MPD2    H3 2449   2.250   0.270  12.572 -0.5144  0.6945  1.6384
  157MPD2     N 2450   1.788   0.305  12.518 -0.0927  0.0231  0.2420
  157MPD2    H5 2451   1.717   0.306  12.446 -0.9250  1.7030  1.0930
  157MPD2    N1 2452   2.099   0.227  12.150 -0.4644 -0.2766 -0.5498
  157MPD2    H7 2453   2.198   0.225  12.124 -1.0744 -0.5094 -2.8712
  158TMC2    C1 2454   2.685   3.943  13.342  0.0907  0.0025 -0.4405
  158TMC2    C2 2455   2.740   3.993  13.235  0.1382  0.1675 -0.1348
  158TMC2    C3 2456   2.682   3.968  13.111  0.8724 -0.2207  0.0069
  158TMC2    C4 2457   2.565   3.877  13.338  0.8545  0.2765  0.1564
  158TMC2    C5 2458   2.509   3.857  13.216  0.0656 -0.5839  0.3217
  158TMC2    C6 2459   2.563   3.910  13.103  0.6254 -0.3026 -0.0083
  158TMC2     C 2460   2.716   4.011  13.468 -0.0657  0.7725  0.1010
  158TMC2     O 2461   2.824   4.071  13.471  0.0550  0.2951 -0.2615
  158TMC2     H 2462   2.834   4.047  13.230  0.2273 -0.0811 -1.1469
  158TMC2    H1 2463   2.521   3.830  13.425 -0.3280  1.5944  0.2720
  158TMC2    H2 2464   2.514   3.889  13.008  0.1853  2.8354 -0.4840
  158TMC2    C7 2465   2.365   3.844  13.201  0.0898  0.6243 -0.4398
  158TMC2    C8 2466   2.740   4.034  12.990 -0.8060  0.4688 -0.7933
  158TMC2    O1 2467   2.326   3.881  13.092 -0.1976 -0.1698  0.2702
  158TMC2    O2 2468   2.674   4.046  12.892 -0.6130  0.2092  0.0427
  158TMC2    O5 2469   2.877   4.014  12.993  0.0138  0.1481 -0.5038
  158TMC2    H5 2470   2.915   3.960  13.066  0.1197  0.7617 -0.1033
  159MPD2     C 2471   2.619   4.073  13.970 -0.2736  0.6663  0.0739
  159MPD2    C1 2472   2.531   3.975  13.915 -0.2075  0.4528 -0.5903
  159MPD2    C2 2473   2.533   3.943  13.779 -0.7376  0.5732  0.2439
  159MPD2    C3 2474   2.616   4.017  13.702 -0.0817 -0.0896  0.0592
  159MPD2    C4 2475   2.699   4.110  13.751  0.5937 -0.1374  0.4675
  159MPD2    C5 2476   2.697   4.152  13.886 -0.1808  0.3850 -0.7869
  159MPD2     H 2477   2.458   3.874  13.742 -0.2201  0.4344 -0.5414
  159MPD2    H1 2478   2.778   4.156  13.692  0.8796 -2.3935 -0.8988
  159MPD2    H2 2479   2.632   4.093  14.075  1.6106  1.2347 -0.2683
  159MPD2    H3 2480   2.774   4.211  13.933 -0.7778 -0.5999  1.4281
  159MPD2     N 2481   2.619   3.987  13.565 -0.0230  0.0852  0.0260
  159MPD2    H5 2482   2.544   3.929  13.530  1.6768 -0.8244 -2.0663
  159MPD2    N1 2483   2.453   3.908  14.013 -0.1980 -0.0591  0.2835
  159MPD2    H7 2484   2.479   3.928  14.109  3.4666  1.1218 -0.9566
  160TMC2    C1 2485   1.097   1.136   1.011  0.5074  0.6179 -0.6431
  160TMC2    C2 2486   1.052   1.010   1.007 -0.0195 -0.4273  0.3096
  160TMC2    C3 2487   1.145   0.913   1.006  0.9290 -0.6500 -0.7135
  160TMC2    C4 2488   1.231   1.172   1.013 -0.2339  0.6949 -0.9140
  160TMC2    C5 2489   1.316   1.071   1.009 -0.4634 -0.3585  0.4268
  160TMC2    C6 2490   1.275   0.939   1.008 -0.2608  0.2531  0.5783
  160TMC2     C 2491   0.995   1.238   1.034 -0.1179 -0.3978  0.3467
  160TMC2     O 2492   0.883   1.200   1.061  0.7108  0.0662  0.4731
  160TMC2     H 2493   0.947   0.983   0.994  0.1874 -1.5802  1.0497
  160TMC2    H1 2494   1.265   1.275   1.017  2.2833 -0.0578 -2.9196
  160TMC2    H2 2495   1.352   0.864   0.994 -2.1366 -1.7329  0.9419
  160TMC2    C7 2496   1.456   1.092   1.035 -0.1831  0.2452 -0.6141
  160TMC2    C8 2497   1.095   0.777   1.017 -0.2728 -0.1996 -0.3119
  160TMC2    O1 2498   1.528   0.996   1.064  0.2436 -0.0172  0.1958
  160TMC2    O2 2499   0.989   0.750   0.974  0.3425 -0.3204 -0.2588
  160TMC2    O5 2500   1.202   0.694   1.029 -0.6473  0.1626 -0.0543
  160TMC2    H5 2501   1.281   0.741   1.063  0.4365 -1.2871 -0.5232
  161MPD2     C 2502   0.829   1.491   1.088  0.5709  0.5907 -0.2188
  161MPD2    C1 2503   0.966   1.486   1.052  0.4966  0.1358 -0.0011
  161MPD2    C2 2504   1.022   1.611   1.032  0.4525  0.1581 -0.4934
  161MPD2    C3 2505   0.952   1.733   1.027  0.2003  0.7351 -0.2848
  161MPD2    C4 2506   0.815   1.729   1.054 -0.3718  0.1046  0.2668
  161MPD2    C5 2507   0.754   1.610   1.086  0.1316  1.1241  0.2090
  161MPD2     H 2508   1.130   1.622   1.029  0.5745 -1.6310 -2.3741
  161MPD2    H1 2509   0.759   1.822   1.048 -3.6452 -1.6746  2.8210
  161MPD2    H2 2510   0.776   1.397   1.101  1.2808  0.2253 -0.0243
  161MPD2    H3 2511   0.647   1.598   1.101  0.2877  0.1224  0.5159
  161MPD2     N 2512   1.018   1.857   0.997 -0.1921  0.0207 -0.1363
  161MPD2    H5 2513   0.954   1.933   0.979 -0.6452  0.2558  2.4186
  161MPD2    N1 2514   1.041   1.368   1.033  0.3554 -0.0942  0.2613
  161MPD2    H7 2515   1.140   1.380   1.016  0.4087 -1.0650 -0.1382
  162TMC2    C1 2516   4.149   3.700   1.200  0.8657  0.3113  0.3546
  162TMC2    C2 2517   4.039   3.779   1.215  0.1611  0.0973 -0.2803
  162TMC2    C3 2518   3.993   3.798   1.346  0.0428  0.0921  0.1109
  162TMC2    C4 2519   4.217   3.639   1.308  0.5041  0.5354  0.4763
  162TMC2    C5 2520   4.157   3.655   1.437  0.3549  0.0191  0.1701
  162TMC2    C6 2521   4.058   3.740   1.458 -0.1976  0.5354 -0.3240
  162TMC2     C 2522   4.238   3.708   1.084 -0.0340 -0.1463 -0.3437
  162TMC2     O 2523   4.338   3.638   1.087 -0.1483  0.0366 -0.6648
  162TMC2     H 2524   3.979   3.823   1.136 -2.0563 -2.2251  0.0982
  162TMC2    H1 2525   4.299   3.569   1.297  1.3810  1.3167  2.0474
  162TMC2    H2 2526   4.007   3.744   1.554 -2.1633  1.0511 -1.3791
  162TMC2    C7 2527   4.185   3.570   1.550 -0.7974  0.2191 -0.5258
  162TMC2    C8 2528   3.870   3.875   1.368  0.5712  0.0555  0.3356
  162TMC2    O1 2529   4.098   3.564   1.638 -0.3868  0.1127  0.7974
  162TMC2    O2 2530   3.844   3.921   1.481 -0.1739 -0.1913  0.1177
  162TMC2    O5 2531   3.781   3.860   1.270  0.3929 -0.6184 -0.0186
  162TMC2    H5 2532   3.821   3.804   1.200 -1.0481  0.5427 -1.7675
  163MPD2     C 2533   4.315   3.886   0.610 -0.1475 -0.5213 -1.2414
  163MPD2    C1 2534   4.344   3.762   0.664  0.2029 -0.0004  0.1990
  163MPD2    C2 2535   4.316   3.743   0.796  0.7097  0.1256 -1.0155
  163MPD2    C3 2536   4.251   3.837   0.874 -0.0117  0.3318 -0.4792
  163MPD2    C4 2537   4.225   3.954   0.818  0.3995  0.5552  0.4562
  163MPD2    C5 2538   4.249   3.985   0.684  0.3636  0.1064 -0.2991
  163MPD2     H 2539   4.342   3.649   0.845  0.1568 -0.0895 -1.1361
  163MPD2    H1 2540   4.185   4.027   0.887 -0.0028  1.5669 -0.8382
  163MPD2    H2 2541   4.347   3.915   0.511 -0.3355  1.2425 -0.7952
  163MPD2    H3 2542   4.223   4.085   0.652  1.0399  0.7065  1.0307
  163MPD2     N 2543   4.205   3.816   1.005  0.4516  0.4419 -0.2912
  163MPD2    H5 2544   4.148   3.889   1.046 -0.7097 -0.5374 -0.1697
  163MPD2    N1 2545   4.409   3.669   0.577 -0.4322  0.0547 -0.6328
  163MPD2    H7 2546   4.409   3.694   0.478  0.0154  1.0692 -0.3745
  164TMC2    C1 2547   4.421   3.652  11.304 -0.8802  0.3166  1.3917
  164TMC2    C2 2548   4.510   3.581  11.380 -0.1194  0.0125 -0.0210
  164TMC2    C3 2549   4.497   3.590  11.518 -0.4374  0.0404  0.2321
  164TMC2    C4 2550   4.311   3.712  11.359 -0.1183 -0.1262 -0.1973
  164TMC2    C5 2551   4.309   3.716  11.496  0.2892 -0.3605  0.0436
  164TMC2    C6 2552   4.409   3.666  11.573 -1.2153 -0.8153 -0.4727
  164TMC2     C 2553   4.481   3.727  11.198  0.2409  0.1595 -0.2174
  164TMC2     O 2554   4.444   3.842  11.196  0.8542  0.0972  0.2672
  164TMC2     H 2555   4.595   3.529  11.335 -0.0200 -0.3116  0.5377
  164TMC2    H1 2556   4.243   3.773  11.300 -1.0927 -0.2547  0.8195
  164TMC2    H2 2557   4.411   3.667  11.681  0.2062 -0.6492 -0.4991
  164TMC2    C7 2558   4.215   3.809  11.552  0.1685 -0.6856  0.2513
  164TMC2    C8 2559   4.603   3.534  11.594  0.0705  1.1757  0.2014
  164TMC2    O1 2560   4.116   3.826  11.479 -0.3911  0.0726 -0.2639
  164TMC2    O2 2561   4.642   3.420  11.581 -0.4600  0.4430 -0.8173
  164TMC2    O5 2562   4.649   3.627  11.676 -0.3271 -0.0003 -0.2709
  164TMC2    H5 2563   4.634   3.721  11.650  0.0371  0.1690  0.1365
  165TMC2    C1 2564   1.422   2.101   1.341  0.8550 -0.3200 -0.6808
  165TMC2    C2 2565   1.386   2.155   1.463  0.1404 -0.0215 -0.4008
  165TMC2    C3 2566   1.491   2.213   1.528 -0.3628  0.1553 -0.1445
  165TMC2    C4 2567   1.543   2.117   1.284  0.2671  0.1289 -0.3706
  165TMC2    C5 2568   1.645   2.165   1.355 -0.1857  0.4928  0.1223
  165TMC2    C6 2569   1.618   2.216   1.481 -0.1492 -0.5496 -0.2447
  165TMC2     C 2570   1.329   2.007   1.278  0.1817  0.2371  0.9019
  165TMC2     O 2571   1.379   1.918   1.206  0.1477  0.6862 -0.2801
  165TMC2     H 2572   1.285   2.149   1.502  0.8568  0.8418  1.6065
  165TMC2    H1 2573   1.557   2.065   1.189  1.4402  2.3354 -1.4024
  165TMC2    H2 2574   1.692   2.248   1.553  0.3488  0.5630 -1.2416
  165TMC2    C7 2575   1.765   2.088   1.342  0.1440 -1.0578  0.1831
  165TMC2    C8 2576   1.482   2.206   1.675 -0.1486  0.1416  0.3263
  165TMC2    O1 2577   1.746   1.976   1.294  0.2242  0.4745 -0.4614
  165TMC2    O2 2578   1.555   2.122   1.732 -0.2321 -0.3097  0.3396
  165TMC2    O5 2579   1.350   2.223   1.710  0.1533 -0.3217  0.6456
  165TMC2    H5 2580   1.312   2.294   1.654 -1.8357 -0.4820  1.8249
  166MPD2     C 2581   0.949   1.683   1.390  0.1993  0.6285  0.4876
  166MPD2    C1 2582   1.084   1.666   1.354 -0.4481 -0.3861 -0.4712
  166MPD2    C2 2583   1.164   1.775   1.321 -0.2715 -0.3888 -0.2331
  166MPD2    C3 2584   1.119   1.898   1.341  0.1841  0.3176 -0.0190
  166MPD2    C4 2585   0.982   1.917   1.371  0.0077 -0.2477 -0.0777
  166MPD2    C5 2586   0.898   1.810   1.388  0.5157  0.5125  0.3062
  166MPD2     H 2587   1.268   1.762   1.292 -0.5965 -1.3603 -0.9529
  166MPD2    H1 2588   0.937   2.014   1.390 -0.0635 -0.6679  1.8418
  166MPD2    H2 2589   0.883   1.602   1.417  0.8783  0.5235  1.8183
  166MPD2    H3 2590   0.793   1.832   1.405  0.4957 -0.9098  2.0298
  166MPD2     N 2591   1.195   2.014   1.314 -0.1692 -0.5123 -0.2715
  166MPD2    H5 2592   1.171   2.104   1.354  2.6001 -0.1692  0.6696
  166MPD2    N1 2593   1.130   1.528   1.359  0.1691  0.1901  0.4258
  166MPD2    H7 2594   1.068   1.461   1.402  2.1333  0.6026  3.9113
  167TMC2    C1 2595   0.018   3.592  13.082 -0.3739 -0.1481 -0.6442
  167TMC2    C2 2596   0.033   3.569  13.214  0.0932  0.4125  0.1663
  167TMC2    C3 2597   4.683   3.490  13.274 -0.6265 -0.3645 -0.4286
  167TMC2    C4 2598   4.649   3.543  13.013 -0.4558 -0.0834 -0.1245
  167TMC2    C5 2599   4.565   3.462  13.082 -0.2408 -0.0486  0.0857
  167TMC2    C6 2600   4.572   3.436  13.217 -0.4670  0.2783  0.3290
  167TMC2     C 2601   0.129   3.670  13.026 -0.5595 -0.4336 -0.3357
  167TMC2     O 2602   0.222   3.702  13.099 -0.1413  0.7483  0.0533
  167TMC2     H 2603   0.112   3.612  13.276 -0.1711 -2.0092  2.2276
  167TMC2    H1 2604   4.649   3.538  12.905  1.2226 -2.5388 -0.0117
  167TMC2    H2 2605   4.511   3.371  13.280 -2.5924 -0.6310 -2.6644
  167TMC2    C7 2606   4.455   3.398  13.009 -0.2530 -0.3580 -0.1153
  167TMC2    C8 2607   4.701   3.466  13.417  0.3623  0.2212 -0.1086
  167TMC2    O1 2608   4.382   3.333  13.078  0.3348 -0.1937 -0.1367
  167TMC2    O2 2609   0.067   3.463  13.482 -0.2752 -0.4157  0.1611
  167TMC2    O5 2610   4.580   3.491  13.475  0.2867 -0.1498 -0.4046
  167TMC2    H5 2611   4.506   3.525  13.419  1.5251  1.0990 -1.2655
  168MPD2     C 2612   0.320   3.797  12.836  0.0547  0.2124 -0.5312
  168MPD2    C1 2613   0.213   3.725  12.801  0.5929 -0.4379 -0.0375
  168MPD2    C2 2614   0.178   3.714  12.672  0.1208 -0.2898  0.3456
  168MPD2    C3 2615   0.246   3.789  12.573  1.1082 -0.3650  0.2047
  168MPD2    C4 2616   0.351   3.862  12.608 -0.0491 -0.4332  0.2432
  168MPD2    C5 2617   0.391   3.862  12.737 -0.3311 -0.1623 -0.0331
  168MPD2     H 2618   0.089   3.654  12.657 -0.5252  0.6260  0.5315
  168MPD2    H1 2619   0.402   3.921  12.533 -2.7210  0.7131 -0.6970
  168MPD2    H2 2620   0.335   3.817  12.941  1.0135  0.2321 -0.6755
  168MPD2    H3 2621   0.473   3.931  12.756  0.7143 -1.8888  1.6624
  168MPD2     N 2622   0.207   3.794  12.436 -0.6806  0.7333 -0.0376
  168MPD2    H5 2623   0.259   3.858  12.378  2.1252 -2.1687 -0.6899
  168MPD2    N1 2624   0.118   3.674  12.891  0.8567 -0.0604 -0.3510
  168MPD2    H7 2625   0.040   3.632  12.842 -0.7796 -0.0109  2.2674
  169MPD1     C 2626   1.072   1.432  10.112 -0.2715 -0.2881 -0.0280
  169MPD1    C1 2627   1.040   1.560  10.152  0.2974 -0.8530  0.7476
  169MPD1    C2 2628   1.138   1.659  10.153 -0.3832 -0.3433 -0.3470
  169MPD1    C3 2629   1.271   1.629  10.129  0.1704 -0.1681  0.0727
  169MPD1    C4 2630   1.302   1.498  10.095  0.3506 -0.0345  0.9750
  169MPD1    C5 2631   1.204   1.406  10.091 -0.4048 -0.0706  0.0503
  169MPD1     H 2632   1.115   1.763  10.174  1.1526 -0.5199  2.2382
  169MPD1    H1 2633   1.406   1.466  10.098  0.4930  0.4388  1.1339
  169MPD1    H2 2634   0.994   1.358  10.099  0.8341 -1.6126  0.7508
  169MPD1    H3 2635   1.230   1.302  10.077  0.5889  0.3326 -1.0288
  169MPD1     N 2636   1.373   1.722  10.141 -0.1556 -1.0925  0.1134
  169MPD1    H5 2637   1.339   1.811  10.176  1.2580 -0.9710  1.1529
  169MPD1    N1 2638   0.907   1.595  10.159 -0.0248 -0.1715  0.2034
  169MPD1    H6 2639   0.897   1.659  10.238 -2.2667  0.5245 -0.6505
  169MPD1    H7 2640   0.846   1.518  10.186 -0.6869  0.4392  0.4620
  170MPD1     C 2641   0.232   0.813  12.810  0.5249  0.0175 -0.2101
  170MPD1    C1 2642   0.181   0.913  12.886  0.1415 -0.0363 -0.4270
  170MPD1    C2 2643   0.206   0.911  13.022  0.0984  0.1835 -0.9492
  170MPD1    C3 2644   0.266   0.802  13.082  0.3398  0.4320  0.6013
  170MPD1    C4 2645   0.315   0.694  13.002 -1.3715  0.2200 -0.7259
  170MPD1    C5 2646   0.304   0.709  12.868  0.6510  0.4458  0.1957
  170MPD1     H 2647   0.168   0.992  13.082 -2.1467 -1.7429  0.2497
  170MPD1    H1 2648   0.366   0.609  13.046  1.3267  2.1274 -0.1632
  170MPD1    H2 2649   0.221   0.809  12.702  0.1912  0.5109 -0.1915
  170MPD1    H3 2650   0.345   0.635  12.800  0.0400 -0.9415  1.3301
  170MPD1     N 2651   0.277   0.805  13.214 -0.4691  0.4515  0.0736
  170MPD1    H5 2652   0.221   0.878  13.260  0.8472  1.1759  0.5302
  170MPD1    N1 2653   0.147   1.029  12.813  0.3652  0.0295  0.0106
  170MPD1    H6 2654   0.087   0.999  12.737 -0.1615  0.0248  0.4291
  170MPD1    H7 2655   0.119   1.097  12.884  0.0286  0.2383 -0.3213
  171MPD1     C 2656   3.627   1.493  15.236 -0.2446  0.6440 -0.7290
  171MPD1    C1 2657   3.657   1.581  15.334  0.6244 -0.0173 -0.5021
  171MPD1    C2 2658   3.749   1.544  15.421  0.4209  0.1368  0.0589
  171MPD1    C3 2659   3.836   1.436  15.395  0.3836  0.5489 -0.3351
  171MPD1    C4 2660   3.821   1.361  15.280 -0.6048  0.3078  0.3281
  171MPD1    C5 2661   3.708   1.384  15.211 -0.2697  0.4613  0.1685
  171MPD1     H 2662   3.766   1.605  15.509  0.2110  1.0080 -0.5133
  171MPD1    H1 2663   3.875   1.270  15.259 -0.5983  0.7304 -1.4758
  171MPD1    H2 2664   3.540   1.504  15.173  0.6266  1.4130 -1.8160
  171MPD1    H3 2665   3.685   1.316  15.131  1.0637 -1.0236  1.0487
  171MPD1     N 2666   3.921   1.383  15.493 -0.4047  0.3284 -0.5376
  171MPD1    H5 2667   3.982   1.310  15.458 -0.8814 -0.4032  0.1570
  171MPD1    N1 2668   3.567   1.680  15.356  0.1597  0.2634  0.2187
  171MPD1    H6 2669   3.514   1.707  15.273 -0.9507  1.1487  1.2124
  171MPD1    H7 2670   3.607   1.757  15.408  0.7908  1.6933 -2.3765
  172MPD1     C 2671   2.516   0.530   0.333  0.7445 -0.0631 -0.4793
  172MPD1    C1 2672   2.591   0.515   0.222 -0.0246  0.3817  0.4262
  172MPD1    C2 2673   2.711   0.579   0.210 -0.0427 -0.1608 -0.0128
  172MPD1    C3 2674   2.762   0.647   0.320  0.1534  0.0658  0.1533
  172MPD1    C4 2675   2.689   0.656   0.436  0.9389 -0.7368 -0.1114
  172MPD1    C5 2676   2.570   0.594   0.438  0.6554  0.5818  0.7419
  172MPD1     H 2677   2.760   0.563   0.115 -1.4477  0.4932 -0.8322
  172MPD1    H1 2678   2.720   0.708   0.526  1.0381  0.1544 -0.6599
  172MPD1    H2 2679   2.421   0.479   0.346  0.5425 -0.2062 -2.4457
  172MPD1    H3 2680   2.503   0.598   0.523 -1.6461 -0.5665 -1.0227
  172MPD1     N 2681   2.882   0.715   0.319 -0.0417 -0.1430  0.0167
  172MPD1    H5 2682   2.906   0.768   0.402 -0.3019 -1.7872  1.1467
  172MPD1    N1 2683   2.541   0.438   0.115 -0.2402  0.3528 -0.0803
  172MPD1    H6 2684   2.598   0.389   0.047 -0.3956 -1.5925  1.1931
  172MPD1    H7 2685   2.456   0.475   0.073 -0.4334  0.2210  0.1931
  173MPD1     C 2686   0.262   1.487  14.017  0.0182  0.0486 -0.0764
  173MPD1    C1 2687   0.336   1.450  14.129 -0.3458  0.1099  0.6823
  173MPD1    C2 2688   0.283   1.342  14.201  0.0836 -0.2012  0.1093
  173MPD1    C3 2689   0.170   1.269  14.163 -0.5944  0.5401  0.4862
  173MPD1    C4 2690   0.109   1.307  14.052 -0.4736  0.1559  0.4780
  173MPD1    C5 2691   0.154   1.417  13.979  0.1294  0.6264 -0.3097
  173MPD1     H 2692   0.328   1.326  14.298  0.0564 -2.2437 -0.2072
  173MPD1    H1 2693   0.041   1.241  13.999 -0.8468  1.5462 -0.7790
  173MPD1    H2 2694   0.306   1.567  13.957 -1.7682  0.9749 -0.1710
  173MPD1    H3 2695   0.103   1.445  13.888 -0.3399  1.2865  0.1599
  173MPD1     N 2696   0.135   1.157  14.241  0.4797 -0.4803  0.1048
  173MPD1    H5 2697   0.202   1.111  14.301 -0.1573  0.5248  1.5953
  173MPD1    N1 2698   0.429   1.537  14.180 -0.3540 -0.0618  0.3438
  173MPD1    H6 2699   0.480   1.581  14.103  1.7069  0.8436  2.2235
  173MPD1    H7 2700   0.490   1.521  14.259  2.8503  1.3492 -1.8484
  174MPD1     C 2701   0.727   0.580  14.435 -0.0461 -0.1108 -0.0909
  174MPD1    C1 2702   0.641   0.554  14.530  1.1141 -0.4464  0.2457
  174MPD1    C2 2703   0.525   0.630  14.529  0.2504  0.2549 -0.4221
  174MPD1    C3 2704   0.484   0.702  14.413  0.2298 -0.2324 -0.2375
  174MPD1    C4 2705   0.582   0.727  14.317  0.0619  0.3103 -0.1680
  174MPD1    C5 2706   0.709   0.660  14.327 -0.2283  0.0038 -0.1339
  174MPD1     H 2707   0.463   0.619  14.617  0.0407  0.0228 -0.5977
  174MPD1    H1 2708   0.568   0.776  14.221  1.2828 -0.1909 -0.6104
  174MPD1    H2 2709   0.829   0.547  14.448 -0.5263 -1.7397 -0.4351
  174MPD1    H3 2710   0.795   0.678  14.263 -0.5102  1.4454 -0.1050
  174MPD1     N 2711   0.356   0.766  14.392 -0.0368 -0.1541 -0.2864
  174MPD1    H5 2712   0.343   0.822  14.309  1.9432  0.4483 -0.2080
  174MPD1    N1 2713   0.695   0.505  14.644 -0.2929  0.2489 -0.0130
  174MPD1    H6 2714   0.766   0.435  14.625 -0.3403  0.1675  0.1080
  174MPD1    H7 2715   0.619   0.459  14.694 -0.8097  0.9723 -0.1241
  175MPD1     C 2716   3.172   1.680  15.460 -0.0610 -0.3756 -0.6532
  175MPD1    C1 2717   3.063   1.738  15.526  0.2527 -0.6120  0.4604
  175MPD1    C2 2718   3.004   1.671  15.645  0.1178 -0.1191 -0.0754
  175MPD1    C3 2719   3.079   1.574  15.704 -0.5014 -0.0212 -0.2998
  175MPD1    C4 2720   3.185   1.526  15.641  0.1361  0.5088 -0.7946
  175MPD1    C5 2721   3.242   1.582  15.531 -0.0916  0.2236  0.2031
  175MPD1     H 2722   2.915   1.708  15.693  0.2229 -0.1886  0.1743
  175MPD1    H1 2723   3.240   1.453  15.700  0.2703 -0.1731 -1.7652
  175MPD1    H2 2724   3.216   1.718  15.369  1.3794 -0.5731 -0.0321
  175MPD1    H3 2725   3.333   1.544  15.484 -0.4801  2.2732 -2.2216
  175MPD1     N 2726   3.045   1.517  15.825  0.5375  0.2312 -0.5411
  175MPD1    H5 2727   3.101   1.438  15.855 -2.3022 -1.5302  0.1860
  175MPD1    N1 2728   2.988   1.827  15.451 -0.2394  0.0387 -0.1183
  175MPD1    H6 2729   2.919   1.873  15.509  0.7860  1.5710 -0.1211
  175MPD1    H7 2730   3.049   1.897  15.410 -1.0042 -0.5800 -2.3367
  176MPD1     C 2731   4.366   4.142  17.654  0.3340  0.3722  0.1576
  176MPD1    C1 2732   4.343   4.219   0.014  0.6208  0.1754  0.4782
  176MPD1    C2 2733   4.454   4.274   0.074  0.0702  0.5571 -0.3837
  176MPD1    C3 2734   4.583   4.262   0.036 -0.1662  0.2029  0.1196
  176MPD1    C4 2735   4.606   4.184  17.674  0.3130  0.5996  0.5324
  176MPD1    C5 2736   4.496   4.128  17.610 -0.3955  0.1694 -0.0010
  176MPD1     H 2737   4.438   4.335   0.163 -2.9285  0.3502 -0.8007
  176MPD1    H1 2738   4.705   4.164  17.633  0.1977  0.2723  0.4103
  176MPD1    H2 2739   4.286   4.104  17.593  1.0150 -0.8915  0.0648
  176MPD1    H3 2740   4.508   4.087  17.510 -0.7373 -0.1311  0.0783
  176MPD1     N 2741   4.686   4.318   0.113  0.3319  0.2440  0.5008
  176MPD1    H5 2742   4.658   4.405   0.156 -0.9684  0.7970 -1.5090
  176MPD1    N1 2743   4.217   4.219   0.071  0.0875  0.3515  0.3021
  176MPD1    H6 2744   4.192   4.296   0.132  0.6766  1.5085 -0.9124
  176MPD1    H7 2745   4.141   4.194   0.008  3.6957 -0.8416 -3.6281
  177MPD1     C 2746   2.720   3.438  10.982 -0.1727  0.0092  0.0919
  177MPD1    C1 2747   2.767   3.564  10.954  0.2090  0.3006  0.3291
  177MPD1    C2 2748   2.682   3.659  10.903  0.4882 -0.0080 -0.3240
  177MPD1    C3 2749   2.549   3.624  10.881 -0.3989  0.2075 -0.2563
  177MPD1    C4 2750   2.502   3.505  10.921 -0.0318 -0.5820  0.3518
  177MPD1    C5 2751   2.587   3.415  10.978  0.1961  0.1406  0.0790
  177MPD1     H 2752   2.719   3.753  10.866  4.5255 -0.7561  1.7993
  177MPD1    H1 2753   2.398   3.477  10.917 -0.2761  0.3211  0.5498
  177MPD1    H2 2754   2.782   3.363  11.030  0.8507  0.5847 -0.3407
  177MPD1    H3 2755   2.547   3.322  11.017 -0.9791 -0.0487 -1.5629
  177MPD1     N 2756   2.466   3.721  10.810 -0.7036  0.1265 -0.0482
  177MPD1    H5 2757   2.507   3.810  10.785 -0.4912  0.5335  1.7565
  177MPD1    N1 2758   2.903   3.589  10.950 -0.1512  0.1248 -0.0964
  177MPD1    H6 2759   2.932   3.687  10.951  2.0011 -0.5273  0.4392
  177MPD1    H7 2760   2.954   3.537  11.021  1.6314  0.3989 -1.1694
  178MPD1     C 2761   0.490   4.246   0.466 -0.6320  0.5247  0.2605
  178MPD1    C1 2762   0.417   4.213   0.352  0.6400  0.0307 -0.3074
  178MPD1    C2 2763   0.467   4.242   0.225  0.4856 -0.4286 -0.0838
  178MPD1    C3 2764   0.585   4.319   0.213  0.8022 -0.1666  0.7120
  178MPD1    C4 2765   0.644   4.361   0.328  0.1949  0.6915 -0.0021
  178MPD1    C5 2766   0.594   4.334   0.451  0.2527 -0.0410  0.0076
  178MPD1     H 2767   0.418   4.210   0.134  2.3814 -0.6823 -0.9928
  178MPD1    H1 2768   0.730   4.424   0.308  0.4811 -0.0273 -1.0222
  178MPD1    H2 2769   0.474   4.204   0.565 -0.4166  0.9508  0.4778
  178MPD1    H3 2770   0.656   4.364   0.534  0.4669  0.3115 -0.2789
  178MPD1     N 2771   0.656   4.348   0.095  0.1675  0.2204  0.1460
  178MPD1    H5 2772   0.730   4.418   0.101  0.3322  0.2152 -1.7719
  178MPD1    N1 2773   0.320   4.106   0.362  0.0817 -0.7901 -0.3256
  178MPD1    H6 2774   0.257   4.111   0.282  0.4617  1.9237 -0.4473
  178MPD1    H7 2775   0.265   4.113   0.447  3.2507  1.8496  1.5111
  179MPD1     C 2776   4.599   3.165  15.185  0.1654  0.0079  0.0705
  179MPD1    C1 2777   4.677   3.106  15.284 -0.0695 -0.1757 -0.4398
  179MPD1    C2 2778   4.688   2.968  15.292 -0.1262 -0.0881 -0.2505
  179MPD1    C3 2779   4.640   2.884  15.189  0.6645 -0.4293  0.6483
  179MPD1    C4 2780   4.569   2.949  15.092 -0.2459 -0.0175  0.1143
  179MPD1    C5 2781   4.554   3.086  15.083  0.2428 -0.7761 -0.4567
  179MPD1     H 2782   0.007   2.926  15.375 -0.1343  1.3376  0.4777
  179MPD1    H1 2783   4.505   2.895  15.023 -0.6369  0.5935  0.0052
  179MPD1    H2 2784   4.581   3.272  15.187  2.0332  0.3227  0.2986
  179MPD1    H3 2785   4.492   3.115  14.999  0.3876 -0.0536 -0.3167
  179MPD1     N 2786   4.635   2.744  15.188 -0.3252  0.2764 -0.2557
  179MPD1    H5 2787   4.563   2.700  15.130 -1.8321  1.7188  0.5331
  179MPD1    N1 2788   4.725   3.182  15.396 -0.4714 -0.5732 -0.3624
  179MPD1    H6 2789   0.076   3.142  15.426 -1.0685 -0.1570  1.9071
  179MPD1    H7 2790   0.004   3.282  15.384 -0.1899 -0.6325 -0.4684
  180MPD1     C 2791   0.884   4.500  15.461  0.3442  0.3493  0.1834
  180MPD1    C1 2792   0.937   4.416  15.369  0.1045  0.1204 -0.0253
  180MPD1    C2 2793   0.852   4.348  15.287  0.5704  0.1641 -0.4144
  180MPD1    C3 2794   0.711   4.366  15.289 -0.1791  0.1237 -0.7170
  180MPD1    C4 2795   0.661   4.466  15.372  0.0443  0.3543 -0.4630
  180MPD1    C5 2796   0.749   4.536  15.459 -0.2464 -0.5321 -0.8054
  180MPD1     H 2797   0.896   4.276  15.219 -3.2434  0.0399 -2.7256
  180MPD1    H1 2798   0.558   4.500  15.372 -0.0880 -0.0432 -0.2065
  180MPD1    H2 2799   0.945   4.566  15.521  3.2773 -2.0609 -0.1354
  180MPD1    H3 2800   0.697   4.614  15.514  1.1645 -0.0123 -0.2101
  180MPD1     N 2801   0.631   4.291  15.201 -0.3176 -0.2215 -0.1737
  180MPD1    H5 2802   0.665   4.209  15.153  0.8001  0.8152 -1.1633
  180MPD1    N1 2803   1.075   4.395  15.346 -0.3643 -0.3766  0.1429
  180MPD1    H6 2804   1.126   4.443  15.420 -1.6946 -1.0904  1.5509
  180MPD1    H7 2805   1.095   4.295  15.349 -0.9616 -0.3985  3.7111
  181MPD1     C 2806   0.704   1.238  10.820 -0.2355  0.2608  0.2707
  181MPD1    C1 2807   0.777   1.153  10.897  0.0333 -0.0047  0.4264
  181MPD1    C2 2808   0.910   1.185  10.916 -0.4196 -0.2429 -0.4582
  181MPD1    C3 2809   0.971   1.277  10.842  0.0832  0.2057  0.3342
  181MPD1    C4 2810   0.891   1.360  10.764  0.1119  0.7770  0.3279
  181MPD1    C5 2811   0.759   1.334  10.750  0.3018  1.4853  0.5000
  181MPD1     H 2812   0.961   1.123  10.989  0.9956  1.0267 -0.3846
  181MPD1    H1 2813   0.940   1.442  10.713  1.5866  0.5814  1.4265
  181MPD1    H2 2814   0.606   1.211  10.782 -0.0872 -0.0971  0.1439
  181MPD1    H3 2815   0.695   1.381  10.676  0.2425  0.7322  0.0815
  181MPD1     N 2816   1.108   1.299  10.833  0.0390 -0.1700  0.2916
  181MPD1    H5 2817   1.135   1.378  10.775  1.6793 -0.5053  0.5906
  181MPD1    N1 2818   0.712   1.055  10.978 -0.4023 -0.4442 -0.0969
  181MPD1    H6 2819   0.648   1.001  10.921 -0.6846 -0.4004  0.1831
  181MPD1    H7 2820   0.781   0.989  11.014  1.6980  1.4480 -0.6182
  182MPD1     C 2821   2.649   4.609   1.231 -0.0405  0.0553  0.3502
  182MPD1    C1 2822   2.635   4.560   1.104 -0.1371  0.1134 -0.2449
  182MPD1    C2 2823   2.533   4.613   1.025  0.0353  0.0716 -0.2104
  182MPD1    C3 2824   2.446   4.707   1.075  0.1174 -0.1264 -0.2038
  182MPD1    C4 2825   2.460   0.015   1.204 -0.3130 -0.0873  0.5595
  182MPD1    C5 2826   2.565   4.702   1.280 -0.1559  0.4611  0.0046
  182MPD1     H 2827   2.517   4.565   0.929  0.7417 -0.1853 -0.2021
  182MPD1    H1 2828   2.393   0.087   1.250  0.5224 -0.6801  2.7173
  182MPD1    H2 2829   2.727   4.576   1.299 -0.4999 -2.2381 -0.2220
  182MPD1    H3 2830   2.583   0.000   1.381 -0.7760 -1.5316  0.8206
  182MPD1     N 2831   2.336   0.020   0.999  0.0734 -0.5288  0.5437
  182MPD1    H5 2832   2.267   0.066   1.058 -1.5371  0.0960 -1.7932
  182MPD1    N1 2833   2.744   4.492   1.050  0.2276 -0.0016  0.4612
  182MPD1    H6 2834   2.783   4.427   1.118 -1.7869 -0.4483  1.1939
  182MPD1    H7 2835   2.719   4.428   0.976 -1.4122  1.8467 -0.5769
  183MPD1     C 2836   3.561   1.610  10.545  0.3405  0.7638 -0.2923
  183MPD1    C1 2837   3.503   1.514  10.626 -0.1890  0.1542  0.0012
  183MPD1    C2 2838   3.373   1.474  10.586  0.5396 -0.2945  0.3073
  183MPD1    C3 2839   3.316   1.501  10.462  0.8859 -0.7402  0.7857
  183MPD1    C4 2840   3.375   1.604  10.396 -0.2431 -0.3787 -0.5352
  183MPD1    C5 2841   3.497   1.655  10.438 -0.2778 -0.4880  0.5467
  183MPD1     H 2842   3.329   1.387  10.634 -1.6417  0.2356 -0.7329
  183MPD1    H1 2843   3.330   1.663  10.317  0.3704 -2.0884 -2.1435
  183MPD1    H2 2844   3.663   1.636  10.568  0.0255  1.5902  0.1601
  183MPD1    H3 2845   3.529   1.744  10.384  1.5683 -0.9539  0.9001
  183MPD1     N 2846   3.192   1.445  10.423 -0.0136 -0.4805  0.0266
  183MPD1    H5 2847   3.162   1.371  10.486 -1.0452  0.1806  0.3131
  183MPD1    N1 2848   3.549   1.471  10.746 -0.6761  0.0509 -0.7537
  183MPD1    H6 2849   3.649   1.489  10.754 -0.2238 -1.9223 -2.0060
  183MPD1    H7 2850   3.535   1.371  10.760  1.0289 -0.2153 -0.8296
  184MPD1     C 2851   1.427   4.376  10.712  0.0164 -0.5955 -0.2978
  184MPD1    C1 2852   1.354   4.275  10.656 -0.1437 -0.6404  0.0219
  184MPD1    C2 2853   1.410   4.189  10.560 -0.3801 -0.4791  0.4321
  184MPD1    C3 2854   1.544   4.218  10.522  0.6140 -0.1947 -0.1235
  184MPD1    C4 2855   1.601   4.337  10.564 -0.3677  0.6323 -0.0165
  184MPD1    C5 2856   1.543   4.415  10.653  0.3619 -0.0387 -0.3826
  184MPD1     H 2857   1.356   4.108  10.513 -0.0218 -0.4229 -0.0730
  184MPD1    H1 2858   1.701   4.361  10.530  0.5095 -0.3857  1.8276
  184MPD1    H2 2859   1.398   4.436  10.797 -0.8351 -0.2322 -0.8532
  184MPD1    H3 2860   1.595   4.502  10.691  0.7462  0.4804 -2.1118
  184MPD1     N 2861   1.612   4.153  10.417 -0.2261 -0.3850  0.5071
  184MPD1    H5 2862   1.711   4.177  10.413 -0.2791  0.2701  3.1882
  184MPD1    N1 2863   1.235   4.239  10.719  0.1419  0.5203  0.2877
  184MPD1    H6 2864   1.182   4.324  10.739 -1.3592  0.1296 -2.0760
  184MPD1    H7 2865   1.187   4.172  10.661 -0.5103  0.3828  0.9819
  185MPD1     C 2866   1.812   3.365   9.666 -0.5226  0.2745  0.0654
  185MPD1    C1 2867   1.695   3.388   9.732 -0.1613  0.7039 -0.0045
  185MPD1    C2 2868   1.690   3.493   9.818 -0.4496 -0.3567  0.1668
  185MPD1    C3 2869   1.790   3.595   9.819 -0.4145 -0.5592 -0.1089
  185MPD1    C4 2870   1.895   3.578   9.737  0.6498  0.2779 -0.1932
  185MPD1    C5 2871   1.909   3.457   9.671 -0.4295 -0.1373  0.1148
  185MPD1     H 2872   1.601   3.512   9.876 -0.1494  1.7565 -0.0437
  185MPD1    H1 2873   1.981   3.643   9.743  2.4501 -2.0352 -1.0607
  185MPD1    H2 2874   1.828   3.275   9.607  1.5304  0.0806  0.9273
  185MPD1    H3 2875   2.007   3.442   9.627  0.3199  0.5695  1.5327
  185MPD1     N 2876   1.794   3.704   9.906 -0.9007 -0.1268  0.3157
  185MPD1    H5 2877   1.868   3.774   9.900 -1.1093  0.2138  1.7522
  185MPD1    N1 2878   1.589   3.291   9.730 -0.3557  0.8565 -0.0178
  185MPD1    H6 2879   1.503   3.340   9.752 -2.7974 -2.9475 -0.9161
  185MPD1    H7 2880   1.578   3.236   9.645 -0.3506 -0.5807  0.9076
  186MPD1     C 2881   0.803   2.812  15.557 -0.0774 -0.1776 -0.1325
  186MPD1    C1 2882   0.747   2.759  15.669 -0.9647  0.3967  0.3598
  186MPD1    C2 2883   0.720   2.841  15.778 -0.1392 -0.5022  1.0092
  186MPD1    C3 2884   0.753   2.977  15.769 -0.2172  0.2768 -0.1423
  186MPD1    C4 2885   0.818   3.025  15.657  0.0926 -0.1036 -0.3022
  186MPD1    C5 2886   0.845   2.940  15.557 -0.0290  0.1322 -0.2167
  186MPD1     H 2887   0.678   2.791  15.865 -2.0575  0.3978  0.5988
  186MPD1    H1 2888   0.851   3.127  15.645  2.6746 -0.8165  0.7017
  186MPD1    H2 2889   0.811   2.749  15.469 -0.5407 -0.5928  0.1216
  186MPD1    H3 2890   0.901   2.969  15.469  1.5436 -1.7405  0.1677
  186MPD1     N 2891   0.745   3.061  15.883 -0.5956 -0.5357 -0.1204
  186MPD1    H5 2892   0.803   3.143  15.874 -0.1147 -0.8806 -0.2074
  186MPD1    N1 2893   0.693   2.630  15.654 -0.1574  0.3042 -0.3483
  186MPD1    H6 2894   0.736   2.573  15.582  0.6204 -0.7445  0.9399
  186MPD1    H7 2895   0.669   2.571  15.734  1.0456  1.4217  0.8249
  187MPD1     C 2896   4.712   0.486   0.411 -0.2689  1.0634  0.0575
  187MPD1    C1 2897   0.042   0.589   0.347 -0.1396 -0.3028 -0.5398
  187MPD1    C2 2898   0.053   0.594   0.211 -0.3153 -0.2752  0.5400
  187MPD1    C3 2899   4.722   0.497   0.136 -0.4293  0.3602  0.1673
  187MPD1    C4 2900   4.654   0.396   0.198  0.0742  0.4535  0.2635
  187MPD1    C5 2901   4.646   0.392   0.335  0.0851  0.2907 -0.9683
  187MPD1     H 2902   0.081   0.685   0.159 -1.2768 -0.4799 -0.3317
  187MPD1    H1 2903   4.593   0.328   0.140  1.4809  0.0153 -0.7102
  187MPD1    H2 2904   4.699   0.485   0.519 -0.4551  0.6939  0.0309
  187MPD1    H3 2905   4.578   0.323   0.385  2.3297 -0.6478  0.8287
  187MPD1     N 2906   4.720   0.491  17.743 -0.6578  0.8045  0.5061
  187MPD1    H5 2907   4.673   0.413  17.698  1.9879  0.1777 -1.1842
  187MPD1    N1 2908   0.090   0.696   0.424 -0.2335 -0.0500 -0.1957
  187MPD1    H6 2909   0.122   0.676   0.519 -1.0876 -0.6718 -0.0385
  187MPD1    H7 2910   0.164   0.757   0.392  0.0357  1.2443  2.9466
  188MPD1     C 2911   4.368   0.522  10.509  0.2362  0.2666  0.1667
  188MPD1    C1 2912   4.422   0.456  10.398  0.0931  0.1161 -0.0252
  188MPD1    C2 2913   4.456   0.325  10.408 -0.4712 -0.0456 -0.0280
  188MPD1    C3 2914   4.456   0.260  10.528 -0.2528 -0.0023 -0.1528
  188MPD1    C4 2915   4.417   0.331  10.641  0.0956  0.2518  0.5443
  188MPD1    C5 2916   4.368   0.458  10.631  0.7261 -0.4161  0.4942
  188MPD1     H 2917   4.483   0.267  10.320  3.6796 -2.7726  3.0811
  188MPD1    H1 2918   4.412   0.280  10.737 -0.0355  1.3572  1.1257
  188MPD1    H2 2919   4.368   0.630  10.516 -0.0977  0.3372 -0.7941
  188MPD1    H3 2920   4.341   0.519  10.716 -0.6771  2.4916 -2.0282
  188MPD1     N 2921   4.497   0.121  10.543 -0.4201  0.1446  0.3806
  188MPD1    H5 2922   4.475   0.075  10.631 -0.2678  1.2925  1.0144
  188MPD1    N1 2923   4.427   0.512  10.267  0.4988 -0.1256 -0.1835
  188MPD1    H6 2924   4.432   0.614  10.260 -0.7449 -0.1655 -1.5329
  188MPD1    H7 2925   4.506   0.482  10.212  0.4441  3.0297 -2.0072
  189MPD1     C 2926   1.486   0.810   0.325  0.0819 -0.6253  0.1722
  189MPD1    C1 2927   1.499   0.914   0.241  0.3550 -1.5783 -0.2501
  189MPD1    C2 2928   1.396   1.004   0.221  0.5381 -0.1785 -0.5248
  189MPD1    C3 2929   1.282   0.981   0.295  0.3420 -0.0248  0.3170
  189MPD1    C4 2930   1.266   0.865   0.366  0.3052  0.4970  0.4126
  189MPD1    C5 2931   1.364   0.777   0.382  0.7825  0.3056 -0.0620
  189MPD1     H 2932   1.408   1.092   0.158 -2.1037 -0.4077 -1.3721
  189MPD1    H1 2933   1.174   0.844   0.419 -0.5742  2.0807 -0.4961
  189MPD1    H2 2934   1.568   0.747   0.356 -0.3303 -1.2174  0.0526
  189MPD1    H3 2935   1.342   0.685   0.434  2.6157 -0.5696 -0.8553
  189MPD1     N 2936   1.170   1.072   0.284 -0.5054  0.1407 -0.4929
  189MPD1    H5 2937   1.080   1.045   0.323  0.4932  0.2501  1.8265
  189MPD1    N1 2938   1.621   0.933   0.176 -0.6953 -0.2333  0.6298
  189MPD1    H6 2939   1.607   0.967   0.081  2.9321 -2.6600 -0.7652
  189MPD1    H7 2940   1.681   0.851   0.173  0.3836  0.6111 -0.9175
  190MPD1     C 2941   0.375   3.416  15.525  0.1691 -0.2130 -0.2491
  190MPD1    C1 2942   0.322   3.531  15.577  0.4334 -0.4429  0.2163
  190MPD1    C2 2943   0.402   3.640  15.596  0.3730  0.5673  0.0765
  190MPD1    C3 2944   0.534   3.635  15.577  0.2388  0.0503 -0.0034
  190MPD1    C4 2945   0.591   3.513  15.551 -0.2439 -0.1542  0.0229
  190MPD1    C5 2946   0.510   3.402  15.522 -0.0006 -0.3748 -0.3374
  190MPD1     H 2947   0.366   3.737  15.630 -1.4547  0.1177 -0.5870
  190MPD1    H1 2948   0.695   3.496  15.528 -0.3693 -1.6497  0.5620
  190MPD1    H2 2949   0.308   3.334  15.500 -0.1876  0.6836 -2.2187
  190MPD1    H3 2950   0.548   3.303  15.502 -1.5188 -0.7094 -1.5819
  190MPD1     N 2951   0.597   3.758  15.591 -0.2417  0.6508  0.6495
  190MPD1    H5 2952   0.543   3.836  15.626 -2.6874 -0.6932 -0.1278
  190MPD1    N1 2953   0.179   3.554  15.581 -0.3808 -0.3731 -0.6045
  190MPD1    H6 2954   0.126   3.470  15.603 -0.3680 -0.9522 -2.7794
  190MPD1    H7 2955   0.147   3.627  15.644  0.6528 -0.3273 -0.1413
  191MPD1     C 2956   0.135   0.792  12.292  0.0729 -0.2385 -0.0494
  191MPD1    C1 2957   0.193   0.911  12.276  0.6717  0.2038 -0.2343
  191MPD1    C2 2958   0.121   1.024  12.250  0.1442 -0.6736 -0.6222
  191MPD1    C3 2959   4.724   1.018  12.251  0.3061  0.6964  0.1413
  191MPD1    C4 2960   4.664   0.896  12.260 -0.0758 -0.1488  0.0004
  191MPD1    C5 2961   0.002   0.779  12.285 -0.3042 -0.4362 -0.2580
  191MPD1     H 2962   0.177   1.117  12.246  0.7931 -1.0059  0.8504
  191MPD1    H1 2963   4.556   0.889  12.253 -0.0723 -0.6203  0.4397
  191MPD1    H2 2964   0.197   0.705  12.314 -1.9378 -1.0830  2.3020
  191MPD1    H3 2965   4.687   0.686  12.303 -0.4975 -0.5868 -1.5927
  191MPD1     N 2966   4.651   1.144  12.245 -0.0966  0.0222 -0.3846
  191MPD1    H5 2967   4.705   1.228  12.226  1.2621 -0.6992  0.2212
  191MPD1    N1 2968   0.332   0.921  12.270 -0.1914 -0.3632  0.3508
  191MPD1    H6 2969   0.368   0.836  12.313 -0.9200 -1.3113 -0.8982
  191MPD1    H7 2970   0.369   0.995  12.329  0.0384 -0.7788  0.7357
  192MPD1     C 2971   4.075   1.546  11.511  0.6826  0.4211 -0.1052
  192MPD1    C1 2972   4.109   1.421  11.549  0.4596  0.2942 -0.5148
  192MPD1    C2 2973   4.156   1.405  11.676 -0.2399 -0.0972  0.6531
  192MPD1    C3 2974   4.175   1.512  11.766  0.0807 -0.3022 -0.7357
  192MPD1    C4 2975   4.129   1.634  11.729 -0.9405  0.0694 -0.1892
  192MPD1    C5 2976   4.077   1.653  11.603 -0.1848 -0.0861  0.2092
  192MPD1     H 2977   4.178   1.304  11.710 -1.4971 -0.3437  0.7402
  192MPD1    H1 2978   4.115   1.717  11.797 -0.6195  0.6278 -0.7994
  192MPD1    H2 2979   4.037   1.559  11.410 -0.6423  1.5829  0.5535
  192MPD1    H3 2980   4.041   1.754  11.587 -1.0832 -0.3412  0.6114
  192MPD1     N 2981   4.229   1.507  11.903 -0.4419  0.4073  0.1235
  192MPD1    H5 2982   4.248   1.596  11.947  1.5794  0.4788 -0.9100
  192MPD1    N1 2983   4.093   1.303  11.466 -0.5436  1.1202 -0.9673
  192MPD1    H6 2984   4.121   1.314  11.369 -0.1904 -1.0391 -1.1248
  192MPD1    H7 2985   4.134   1.214  11.493  0.4132  1.9861  0.4531
  193MPD1     C 2986   3.733   1.375  16.061 -0.1348 -0.6277 -0.4199
  193MPD1    C1 2987   3.832   1.283  16.077  0.1202  0.1093 -0.4344
  193MPD1    C2 2988   3.927   1.304  16.170 -0.6434  0.9500 -0.4557
  193MPD1    C3 2989   3.934   1.424  16.236  0.2051  0.2753  0.3965
  193MPD1    C4 2990   3.839   1.519  16.212 -0.0114  0.7039  0.2426
  193MPD1    C5 2991   3.748   1.499  16.118  0.2318  0.4363 -1.0778
  193MPD1     H 2992   4.005   1.228  16.174 -1.3568  0.2909  0.9703
  193MPD1    H1 2993   3.845   1.614  16.263 -1.3982  0.1551  1.4106
  193MPD1    H2 2994   3.648   1.368  15.994  0.2795 -0.3814 -0.9671
  193MPD1    H3 2995   3.665   1.566  16.102 -1.1453 -1.0076 -0.0224
  193MPD1     N 2996   4.046   1.468  16.316  0.3590  0.1435  0.2488
  193MPD1    H5 2997   4.056   1.568  16.325  0.8882  0.2260 -1.1948
  193MPD1    N1 2998   3.817   1.167  16.007 -0.7203  0.2632 -0.0373
  193MPD1    H6 2999   3.798   1.200  15.913 -3.6723 -0.5610  0.2571
  193MPD1    H7 3000   3.900   1.109  16.013 -0.1519  1.2229  1.3098
  194MPD1     C 3001   1.729   3.694  16.962  0.6121  0.5342  0.3325
  194MPD1    C1 3002   1.811   3.726  17.061 -0.4792 -0.1678 -0.1194
  194MPD1    C2 3003   1.911   3.640  17.096 -0.5162  0.3275 -0.4639
  194MPD1    C3 3004   1.942   3.534  17.008  0.0316 -0.0046 -0.5161
  194MPD1    C4 3005   1.853   3.499  16.913  0.1780  0.3889  0.0794
  194MPD1    C5 3006   1.749   3.583  16.886 -0.8574  0.6016  0.6152
  194MPD1     H 3007   1.980   3.660  17.177  1.1072 -0.9001 -1.5326
  194MPD1    H1 3008   1.865   3.408  16.854 -0.2990  0.2206  0.2458
  194MPD1    H2 3009   1.642   3.754  16.938  0.6001  0.3935  0.0267
  194MPD1    H3 3010   1.681   3.556  16.807 -2.0860  2.5608  1.0042
  194MPD1     N 3011   2.041   3.436  17.037  0.3421 -0.0461  1.0066
  194MPD1    H5 3012   2.039   3.347  16.988  0.8112 -0.6058  2.0182
  194MPD1    N1 3013   1.771   3.832  17.144 -0.2859  0.4155 -0.1891
  194MPD1    H6 3014   1.725   3.903  17.088  0.3972 -0.9694 -2.4705
  194MPD1    H7 3015   1.852   3.882  17.181 -0.8352  0.8784  0.3968
  195MPD1     C 3016   3.876   1.052   0.224 -0.6418 -0.0390 -0.4857
  195MPD1    C1 3017   3.883   0.988   0.346 -0.2170  0.1009  0.1660
  195MPD1    C2 3018   3.886   0.848   0.346 -0.2392  0.1675 -0.2366
  195MPD1    C3 3019   3.925   0.777   0.232  0.2921  0.8286  0.0400
  195MPD1    C4 3020   3.929   0.844   0.114  0.2031 -0.0814  0.1033
  195MPD1    C5 3021   3.913   0.979   0.114 -0.3926 -0.9936  0.0162
  195MPD1     H 3022   3.873   0.797   0.441  0.8577 -1.3722 -0.9081
  195MPD1    H1 3023   3.952   0.788   0.025  0.3383 -1.5774  1.0660
  195MPD1    H2 3024   3.859   1.159   0.214 -0.8188 -0.2966 -2.9256
  195MPD1    H3 3025   3.932   1.029   0.019 -0.3416  1.4708  1.3048
  195MPD1     N 3026   3.939   0.633   0.224 -0.2836  0.0983  0.1120
  195MPD1    H5 3027   3.951   0.593   0.131 -4.2483 -2.2779  0.5915
  195MPD1    N1 3028   3.847   1.052   0.468 -0.5319  0.4201  1.0681
  195MPD1    H6 3029   3.886   1.145   0.456 -1.6043  0.6256 -0.8187
  195MPD1    H7 3030   3.886   1.016   0.555 -2.1761  0.3057  1.7689
  196MPD1     C 3031   3.187   0.374   0.051  0.2745 -0.4251  0.1492
  196MPD1    C1 3032   3.307   0.322   0.090  0.6344 -0.0579  0.0741
  196MPD1    C2 3033   3.319   0.260   0.220  0.6415 -0.7196 -0.1237
  196MPD1    C3 3034   3.210   0.265   0.309 -0.1898  0.1772  0.2384
  196MPD1    C4 3035   3.094   0.322   0.263  0.1252  0.8231 -0.3781
  196MPD1    C5 3036   3.083   0.373   0.139 -0.7885  0.6350  0.3337
  196MPD1     H 3037   3.406   0.203   0.249  1.2109 -1.1265 -2.6911
  196MPD1    H1 3038   2.999   0.320   0.315 -0.1543 -0.7329 -0.9472
  196MPD1    H2 3039   3.188   0.416  17.700 -3.1567  0.0468  0.2907
  196MPD1    H3 3040   2.987   0.402   0.099  0.2881  1.0760 -1.9284
  196MPD1     N 3041   3.204   0.224   0.445 -0.3699  0.6916  0.1759
  196MPD1    H5 3042   3.111   0.218   0.486 -0.4127 -0.6477 -0.0906
  196MPD1    N1 3043   3.406   0.283   0.001  0.3445  0.1525  0.3132
  196MPD1    H6 3044   3.418   0.360  17.684  1.8401  0.6576  1.1924
  196MPD1    H7 3045   3.491   0.272   0.055  0.6346  0.1097 -0.1536
  197MPD1     C 3046   2.920   1.517  17.580 -0.1687  0.1817 -0.0091
  197MPD1    C1 3047   3.037   1.572  17.589  0.4313 -0.3097 -0.4709
  197MPD1    C2 3048   3.073   1.677  17.503  0.5078  0.1918  0.2408
  197MPD1    C3 3049   2.997   1.706  17.390 -0.2536  0.1272 -1.0389
  197MPD1    C4 3050   2.874   1.646  17.381 -0.1812 -0.5180  0.0033
  197MPD1    C5 3051   2.834   1.550  17.470  0.2110 -0.4879 -0.4173
  197MPD1     H 3052   3.169   1.724  17.522 -0.3501  2.5063 -1.1512
  197MPD1    H1 3053   2.806   1.666  17.299  2.2762  1.8228 -1.4540
  197MPD1    H2 3054   2.879   1.456  17.660 -1.4675  1.9661  0.7030
  197MPD1    H3 3055   2.741   1.495  17.460  0.0416 -0.0775 -1.0391
  197MPD1     N 3056   3.039   1.796  17.291 -0.0067  0.0770  0.5091
  197MPD1    H5 3057   2.971   1.798  17.215  0.9168 -1.5745 -0.3744
  197MPD1    N1 3058   3.110   1.557  17.710  0.7572 -0.4022 -0.2408
  197MPD1    H6 3059   3.205   1.583  17.686  1.9234 -1.6801  3.0194
  197MPD1    H7 3060   3.097   1.464   0.000 -0.5525  0.3345  1.0835
  198MPD1     C 3061   0.128   0.683  15.296  0.3740 -0.0630 -0.1683
  198MPD1    C1 3062   0.082   0.621  15.411 -0.4060  0.3500  1.1726
  198MPD1    C2 3063   0.152   0.634  15.528 -0.2469 -0.5220 -0.2838
  198MPD1    C3 3064   0.269   0.702  15.538  0.0344 -0.6327  0.2951
  198MPD1    C4 3065   0.324   0.759  15.423  0.1641  0.0871 -0.1635
  198MPD1    C5 3066   0.250   0.741  15.309  0.3943 -0.3780 -1.0580
  198MPD1     H 3067   0.100   0.593  15.613 -0.6834  2.1713  0.7322
  198MPD1    H1 3068   0.421   0.808  15.420  0.5471 -0.8030 -2.4615
  198MPD1    H2 3069   0.072   0.686  15.203 -2.3749 -1.0614  1.4513
  198MPD1    H3 3070   0.286   0.802  15.227  1.8040  1.3538  0.8453
  198MPD1     N 3071   0.327   0.707  15.669  0.2032  0.2580 -0.0749
  198MPD1    H5 3072   0.289   0.642  15.737 -0.0238  1.1220  0.6166
  198MPD1    N1 3073   4.702   0.556  15.403  0.0866  0.0095 -0.1951
  198MPD1    H6 3074   4.683   0.506  15.490 -0.9656  1.6667  0.5315
  198MPD1    H7 3075   4.714   0.488  15.328  1.6006  0.9234 -0.7699
  199MPD1     C 3076   1.050   2.510  11.600  0.1223 -0.7020 -0.5600
  199MPD1    C1 3077   0.980   2.391  11.628  0.0201 -0.1967  0.2842
  199MPD1    C2 3078   0.971   2.300  11.522 -1.3536  0.1413  0.0695
  199MPD1    C3 3079   1.041   2.318  11.407 -0.4626 -0.2003  0.0864
  199MPD1    C4 3080   1.124   2.431  11.387 -0.1627  0.3226  0.1136
  199MPD1    C5 3081   1.123   2.524  11.486  0.2981  0.2825 -0.3697
  199MPD1     H 3082   0.930   2.201  11.543  0.2820 -0.5230  0.1971
  199MPD1    H1 3083   1.178   2.450  11.295 -0.9737 -1.3179 -0.6810
  199MPD1    H2 3084   1.044   2.590  11.673 -1.1862 -0.3152 -1.0808
  199MPD1    H3 3085   1.180   2.615  11.467  0.6272  0.7309  2.6926
  199MPD1     N 3086   1.033   2.224  11.299 -0.0624 -0.6992  0.1362
  199MPD1    H5 3087   1.073   2.255  11.210  0.5641 -0.3481  0.5401
  199MPD1    N1 3088   0.898   2.374  11.737  0.2704 -0.0475 -0.2777
  199MPD1    H6 3089   0.938   2.427  11.814  0.5085 -0.0785 -0.3803
  199MPD1    H7 3090   0.880   2.277  11.760  1.1062 -0.0112  0.5264
  200MPD1     C 3091   0.463   1.051  15.164  0.3112  0.4353 -0.0791
  200MPD1    C1 3092   0.387   1.110  15.075  0.5838 -0.4049  0.2720
  200MPD1    C2 3093   0.463   1.156  14.971 -0.4598  0.4756 -0.4822
  200MPD1    C3 3094   0.599   1.140  14.953  0.4638 -0.0047 -0.6050
  200MPD1    C4 3095   0.668   1.072  15.051  0.1192 -0.1660 -0.9897
  200MPD1    C5 3096   0.595   1.030  15.153  0.0214 -0.4835  0.5669
  200MPD1     H 3097   0.417   1.224  14.900 -0.4612  2.7272  1.6832
  200MPD1    H1 3098   0.775   1.056  15.046 -0.0149 -2.1825  2.9385
  200MPD1    H2 3099   0.409   1.020  15.253  1.0450 -0.9383 -0.1103
  200MPD1    H3 3100   0.642   0.973  15.233  2.3244 -0.1791 -0.5746
  200MPD1     N 3101   0.656   1.187  14.836  0.6626 -0.2691 -0.3936
  200MPD1    H5 3102   0.591   1.240  14.778 -0.3784 -1.0739  0.0451
  200MPD1    N1 3103   0.247   1.143  15.095 -0.2416  0.2142  0.3107
  200MPD1    H6 3104   0.203   1.074  15.155 -1.1635  0.4472 -0.0972
  200MPD1    H7 3105   0.194   1.150  15.008  0.1155  1.7147  0.2123
  201MPD1     C 3106   2.965   0.424  13.492  0.0790 -0.4272 -0.6004
  201MPD1    C1 3107   3.011   0.332  13.401 -0.1094  0.5384  0.1757
  201MPD1    C2 3108   3.145   0.291  13.420  0.7062  0.1120  0.0245
  201MPD1    C3 3109   3.224   0.335  13.521  0.1121  0.0245 -0.3629
  201MPD1    C4 3110   3.170   0.420  13.621 -0.0698  0.0438 -0.7749
  201MPD1    C5 3111   3.040   0.464  13.607 -0.2020 -0.5003  0.1659
  201MPD1     H 3112   3.189   0.221  13.350  1.7346  1.3940 -0.5936
  201MPD1    H1 3113   3.237   0.454  13.699 -1.0053 -2.0249  0.9123
  201MPD1    H2 3114   2.867   0.468  13.478  0.2654  0.1808 -0.0415
  201MPD1    H3 3115   3.002   0.545  13.669  0.8483 -1.0748  1.5598
  201MPD1     N 3116   3.352   0.284  13.529  0.0612 -0.2309  0.0729
  201MPD1    H5 3117   3.389   0.212  13.468 -2.0316 -0.6932 -0.6567
  201MPD1    N1 3118   2.940   0.320  13.278 -0.5954 -0.2746 -0.2095
  201MPD1    H6 3119   2.839   0.314  13.288 -0.7291  1.0815 -0.8163
  201MPD1    H7 3120   2.973   0.247  13.215 -0.8832 -1.1966  0.7063
  202MPD1     C 3121   4.177   0.831  10.125 -0.3059 -0.5472  1.2803
  202MPD1    C1 3122   4.170   0.694  10.101 -0.3699  0.2927 -0.1544
  202MPD1    C2 3123   4.043   0.640  10.126 -0.2797  0.4042  1.0805
  202MPD1    C3 3124   3.948   0.700  10.213  0.3328 -0.8206  0.2648
  202MPD1    C4 3125   3.983   0.823  10.266 -0.3099  0.1718  0.4891
  202MPD1    C5 3126   4.086   0.890  10.207 -0.0744  0.3304  0.5866
  202MPD1     H 3127   4.028   0.540  10.087  1.7752  0.3123  0.5253
  202MPD1    H1 3128   3.916   0.876  10.333 -1.4095 -1.1949  0.4772
  202MPD1    H2 3129   4.256   0.893  10.083  0.3416 -2.7692 -0.7616
  202MPD1    H3 3130   4.093   0.993  10.240 -0.4159 -0.0867  1.9827
  202MPD1     N 3131   3.835   0.624  10.245 -0.4167 -0.1410  1.3411
  202MPD1    H5 3132   3.842   0.533  10.201  1.1354 -0.4195  2.1947
  202MPD1    N1 3133   4.240   0.640   9.988 -0.4656  0.1518  0.0146
  202MPD1    H6 3134   4.337   0.671   9.986 -0.8824  1.4325 -0.0376
  202MPD1    H7 3135   4.241   0.538   9.987  2.1395  0.1840 -0.5135
  203MPD1     C 3136   2.325   1.774  13.062 -0.0998 -0.8612 -0.8978
  203MPD1    C1 3137   2.239   1.728  12.969  0.1115 -0.4082  0.6276
  203MPD1    C2 3138   2.203   1.593  12.977  0.1459 -0.1100 -0.0092
  203MPD1    C3 3139   2.270   1.509  13.070 -0.0641 -0.1392  0.3998
  203MPD1    C4 3140   2.359   1.560  13.157  0.0912 -0.1158  0.1100
  203MPD1    C5 3141   2.388   1.689  13.155  0.6324  0.1620  0.2033
  203MPD1     H 3142   2.137   1.548  12.904  0.5919  2.8544 -2.2334
  203MPD1    H1 3143   2.405   1.509  13.240 -1.6547 -0.7080  0.7296
  203MPD1    H2 3144   2.347   1.880  13.058  3.8343 -1.6266  0.5270
  203MPD1    H3 3145   2.467   1.729  13.218  0.4270  1.5731 -0.4341
  203MPD1     N 3146   2.232   1.370  13.082 -0.5299  0.2642  0.3860
  203MPD1    H5 3147   2.154   1.342  13.024  0.4800 -1.8799  0.0466
  203MPD1    N1 3148   2.175   1.820  12.882  0.9227 -0.5596 -0.0793
  203MPD1    H6 3149   2.231   1.901  12.854 -1.0003  0.6483 -0.4116
  203MPD1    H7 3150   2.126   1.778  12.804  0.7471  0.3502 -0.4604
  204MPD1     C 3151   2.234   2.415   0.011 -0.4145 -1.1858 -0.3922
  204MPD1    C1 3152   2.280   2.396  17.636  0.7657  0.3323 -0.3717
  204MPD1    C2 3153   2.190   2.324  17.549  0.8237  0.5216 -0.4889
  204MPD1    C3 3154   2.068   2.276  17.587  0.1254  0.0956  0.7659
  204MPD1    C4 3155   2.031   2.294  17.720  0.0993 -0.3598 -0.3687
  204MPD1    C5 3156   2.118   2.358   0.050  0.0939 -0.3076  0.0579
  204MPD1     H 3157   2.227   2.298  17.451 -0.2577 -1.0990 -0.4739
  204MPD1    H1 3158   1.940   2.252   0.010 -0.2560  1.1141  0.4076
  204MPD1    H2 3159   2.290   2.466   0.088 -0.0441 -2.9053  0.4874
  204MPD1    H3 3160   2.105   2.358   0.158  0.6171  1.8353  0.1334
  204MPD1     N 3161   1.992   2.207  17.491  0.4845  0.3252  0.0285
  204MPD1    H5 3162   2.033   2.205  17.398 -1.2913 -0.0258 -0.7607
  204MPD1    N1 3163   2.420   2.422  17.606 -0.0604 -0.2583  0.2434
  204MPD1    H6 3164   2.462   2.487  17.672 -1.5008 -1.5476  2.4401
  204MPD1    H7 3165   2.443   2.440  17.509  0.4636  2.7196  0.9044
  205MPD1     C 3166   1.179   1.371  16.491 -0.7043  0.2073  0.6181
  205MPD1    C1 3167   1.086   1.401  16.592 -0.5316 -0.8837  0.8699
  205MPD1    C2 3168   1.111   1.372  16.721  0.0643 -0.3035  0.5227
  205MPD1    C3 3169   1.232   1.310  16.758 -0.3893  0.6196 -0.2657
  205MPD1    C4 3170   1.329   1.278  16.664  0.3623 -0.4416 -0.5196
  205MPD1    C5 3171   1.292   1.312  16.536  0.0625  0.1021  0.2984
  205MPD1     H 3172   1.042   1.389  16.803  1.8095  4.5071  1.0098
  205MPD1    H1 3173   1.431   1.251  16.688 -0.3517 -1.3518  1.4135
  205MPD1    H2 3174   1.158   1.381  16.385  1.4677  3.4607  0.4864
  205MPD1    H3 3175   1.365   1.296  16.459 -0.4152  1.2277 -0.3914
  205MPD1     N 3176   1.273   1.279  16.887 -0.3503 -0.5327 -0.2211
  205MPD1    H5 3177   1.367   1.245  16.903 -0.5077  0.1462  2.1022
  205MPD1    N1 3178   0.979   1.486  16.566 -0.5579  0.2997 -0.4381
  205MPD1    H6 3179   0.901   1.476  16.630  1.4910 -0.6463  1.9261
  205MPD1    H7 3180   0.964   1.492  16.465  2.0995  2.0575 -0.7396
  206MPD1     C 3181   2.658   3.498  17.145 -0.9162  0.1052  0.0013
  206MPD1    C1 3182   2.629   3.394  17.064  0.2150 -0.2573 -0.7812
  206MPD1    C2 3183   2.523   3.389  16.982 -0.4081 -0.0255 -0.0046
  206MPD1    C3 3184   2.431   3.493  16.982 -0.7657  0.1418  0.1755
  206MPD1    C4 3185   2.449   3.596  17.071 -0.8353  0.0811  0.5053
  206MPD1    C5 3186   2.561   3.596  17.152  0.7182  0.3843  0.1495
  206MPD1     H 3187   2.504   3.306  16.915  0.8462  0.8958 -1.4820
  206MPD1    H1 3188   2.379   3.678  17.081  1.3881  2.0785 -0.2094
  206MPD1    H2 3189   2.740   3.505  17.216  0.1892 -0.2214 -1.2495
  206MPD1    H3 3190   2.572   3.673  17.228  1.6264  0.0123  0.3952
  206MPD1     N 3191   2.314   3.508  16.894  0.6060  0.4883 -0.4889
  206MPD1    H5 3192   2.255   3.590  16.901 -0.5608 -0.3471 -0.5181
  206MPD1    N1 3193   2.721   3.291  17.064 -0.8136 -0.2082  0.2289
  206MPD1    H6 3194   2.691   3.196  17.044  1.3664 -0.5434 -1.5335
  206MPD1    H7 3195   2.785   3.289  17.143 -0.0364 -1.7862 -0.4337
  207MPD1     C 3196   3.791   1.634  10.980  0.5048  0.0544 -0.3345
  207MPD1    C1 3197   3.783   1.757  10.916 -0.3843 -0.2093 -0.0514
  207MPD1    C2 3198   3.863   1.856  10.971 -0.1658  0.4152 -1.1698
  207MPD1    C3 3199   3.926   1.850  11.092 -0.1127 -0.8739  0.5153
  207MPD1    C4 3200   3.909   1.735  11.169 -0.1501  0.1244  0.0711
  207MPD1    C5 3201   3.847   1.625  11.103  0.5580  0.1154 -0.3378
  207MPD1     H 3202   3.876   1.946  10.912  0.4739 -1.0661 -3.2887
  207MPD1    H1 3203   3.956   1.728  11.267  1.6969  0.1760 -0.8028
  207MPD1    H2 3204   3.744   1.546  10.937  0.5401 -0.4009  0.5559
  207MPD1    H3 3205   3.851   1.526  11.148 -0.0291  0.2401 -0.0113
  207MPD1     N 3206   3.995   1.953  11.153 -0.1237  0.2882 -0.1577
  207MPD1    H5 3207   4.030   1.931  11.246 -3.1019 -1.1167  0.6181
  207MPD1    N1 3208   3.721   1.771  10.792  0.1906  0.4155  0.7532
  207MPD1    H6 3209   3.708   1.870  10.775  0.3884  0.3384  0.1520
  207MPD1    H7 3210   3.631   1.723  10.786  1.8414 -2.4527 -1.2177
  208MPD1     C 3211   1.941   0.242  16.878  0.5365 -0.2671  0.2717
  208MPD1    C1 3212   1.893   0.348  16.949 -0.4008 -0.0073 -0.0460
  208MPD1    C2 3213   1.845   0.322  17.073  0.7991 -1.2303  0.3405
  208MPD1    C3 3214   1.857   0.202  17.134  0.3823  0.0173 -0.6431
  208MPD1    C4 3215   1.930   0.103  17.071 -0.1655 -0.9098 -0.1779
  208MPD1    C5 3216   1.971   0.129  16.941  0.8127 -0.0106  0.2413
  208MPD1     H 3217   1.801   0.409  17.122 -0.2430 -1.5379 -0.0494
  208MPD1    H1 3218   1.935   0.001  17.105 -1.5378 -1.5842 -2.0222
  208MPD1    H2 3219   1.970   0.261  16.776 -0.7133 -1.9128 -0.4134
  208MPD1    H3 3220   2.010   0.051  16.876  0.1789  1.4752 -1.9291
  208MPD1     N 3221   1.790   0.188  17.258  0.0762 -0.9638 -0.2059
  208MPD1    H5 3222   1.736   0.268  17.292  0.3931 -0.1304 -1.6490
  208MPD1    N1 3223   1.869   0.465  16.887 -0.5058 -0.2309  0.0654
  208MPD1    H6 3224   1.936   0.480  16.811 -0.4753 -1.2440 -0.1112
  208MPD1    H7 3225   1.866   0.537  16.959  3.0252  0.3965 -0.4095
  209MPD1     C 3226   4.401   1.019  11.385  0.1174  0.4978 -0.4350
  209MPD1    C1 3227   4.437   1.146  11.344 -0.1470  0.4647  0.3669
  209MPD1    C2 3228   4.455   1.245  11.436 -0.4269  0.5556 -0.0740
  209MPD1    C3 3229   4.450   1.214  11.569 -0.0463  0.6303 -0.2352
  209MPD1    C4 3230   4.414   1.083  11.614 -0.1105  0.4303 -0.5854
  209MPD1    C5 3231   4.398   0.985  11.518  0.7721 -0.2529 -0.3997
  209MPD1     H 3232   4.473   1.345  11.399  2.3621 -0.4204 -1.3293
  209MPD1    H1 3233   4.399   1.056  11.718 -2.6891 -2.4167 -1.6726
  209MPD1    H2 3234   4.374   0.936  11.321  0.9473  1.3209 -1.8619
  209MPD1    H3 3235   4.364   0.883  11.533 -0.7142  0.6359  2.1867
  209MPD1     N 3236   4.492   1.315  11.665 -0.5556  0.0960  0.0237
  209MPD1    H5 3237   4.510   1.410  11.633 -1.8881 -0.3641 -2.1458
  209MPD1    N1 3238   4.440   1.175  11.207 -0.4306  0.4406  0.3234
  209MPD1    H6 3239   4.496   1.256  11.180  2.4713 -0.7682  2.7247
  209MPD1    H7 3240   4.456   1.103  11.137 -1.7513 -0.7091  1.2042
  210MPD1     C 3241   0.439   1.567  12.472  0.4781  0.5360  0.2086
  210MPD1    C1 3242   0.411   1.687  12.403  0.3011  0.0805  0.2567
  210MPD1    C2 3243   0.328   1.679  12.294  0.1907  0.2786  0.1514
  210MPD1    C3 3244   0.253   1.567  12.272  0.4597  0.2606 -0.1444
  210MPD1    C4 3245   0.264   1.461  12.360 -0.9652 -0.0902 -0.3015
  210MPD1    C5 3246   0.363   1.462  12.450  0.0466  0.4234 -0.7414
  210MPD1     H 3247   0.301   1.763  12.232 -0.2004 -0.1051 -0.1997
  210MPD1    H1 3248   0.203   1.372  12.355 -0.6083 -0.2912 -1.0934
  210MPD1    H2 3249   0.512   1.566  12.552 -0.1909 -3.3188  0.7931
  210MPD1    H3 3250   0.383   1.376  12.512 -0.0262  0.7467 -0.2617
  210MPD1     N 3251   0.169   1.567  12.164 -0.7013 -0.2689  0.5073
  210MPD1    H5 3252   0.158   1.657  12.118 -2.2833 -0.6335  0.1564
  210MPD1    N1 3253   0.478   1.805  12.433 -0.2116 -0.4799 -0.4113
  210MPD1    H6 3254   0.424   1.888  12.410 -1.5263 -1.3143 -0.3412
  210MPD1    H7 3255   0.505   1.817  12.531  0.5895 -0.1191 -0.6826
  211MPD1     C 3256   1.797   0.130  16.518 -0.6898 -0.2050  0.1368
  211MPD1    C1 3257   1.742   0.228  16.601 -0.4976  0.8657  0.5268
  211MPD1    C2 3258   1.705   0.348  16.537  0.0565  0.9297 -0.7958
  211MPD1    C3 3259   1.751   0.381  16.408  0.0882  0.2084 -0.4501
  211MPD1    C4 3260   1.832   0.297  16.334  0.4173 -0.9302  0.5249
  211MPD1    C5 3261   1.844   0.169  16.393 -0.0053  0.8784 -0.6176
  211MPD1     H 3262   1.649   0.421  16.595  0.1558 -0.5013  1.1211
  211MPD1    H1 3263   1.864   0.319  16.233  0.1525 -1.6580  0.2832
  211MPD1    H2 3264   1.807   0.028  16.552  1.0341  0.4038  1.4217
  211MPD1    H3 3265   1.892   0.090  16.336  0.9247  1.2492 -0.3461
  211MPD1     N 3266   1.690   0.500  16.346 -0.2600  0.0596 -0.2338
  211MPD1    H5 3267   1.606   0.516  16.401 -0.9911  0.1301 -1.3706
  211MPD1    N1 3268   1.682   0.193  16.721 -0.0138 -0.8748 -0.2710
  211MPD1    H6 3269   1.729   0.118  16.772  2.8312  0.8695 -0.3013
  211MPD1    H7 3270   1.687   0.274  16.783 -1.0858 -1.1206  0.1335
  212MPD1     C 3271   1.646   3.749  16.349 -0.7085 -0.4111 -0.3260
  212MPD1    C1 3272   1.540   3.820  16.403 -0.3979 -0.0451 -0.0840
  212MPD1    C2 3273   1.465   3.772  16.512  0.0675  0.5424 -1.5265
  212MPD1    C3 3274   1.504   3.655  16.570  0.8991 -0.9026 -0.0009
  212MPD1    C4 3275   1.602   3.580  16.505  0.7780 -0.3140 -0.6442
  212MPD1    C5 3276   1.668   3.624  16.392 -0.6620 -0.1313 -0.1686
  212MPD1     H 3277   1.391   3.839  16.554  1.3733  0.8180  0.3305
  212MPD1    H1 3278   1.621   3.477  16.534  1.3559  0.1076  0.4846
  212MPD1    H2 3279   1.708   3.777  16.265 -1.5175 -0.0842 -0.8149
  212MPD1    H3 3280   1.739   3.562  16.338  0.0672 -1.1603  1.9829
  212MPD1     N 3281   1.438   3.596  16.681 -0.1082  0.1506 -0.2711
  212MPD1    H5 3282   1.468   3.505  16.713 -1.2354  1.2180  3.8073
  212MPD1    N1 3283   1.498   3.936  16.340  0.5084 -0.0080  0.3527
  212MPD1    H6 3284   1.478   4.003  16.414  2.0991 -0.0575  0.8256
  212MPD1    H7 3285   1.576   3.977  16.288  0.9104 -1.0597  0.1338
  213MPD1     C 3286   4.671   4.251  15.637  0.5804  0.6651  0.1637
  213MPD1    C1 3287   4.588   4.149  15.597  0.3275  0.8429 -0.3426
  213MPD1    C2 3288   4.469   4.192  15.535 -0.8224 -0.4522  0.4256
  213MPD1    C3 3289   4.456   4.327  15.486  0.2877  0.6799  0.3244
  213MPD1    C4 3290   4.563   4.411  15.494 -0.4151  0.7230 -0.0525
  213MPD1    C5 3291   4.660   4.378  15.584 -0.0221 -0.4523  0.0028
  213MPD1     H 3292   4.388   4.122  15.522  0.4029 -1.3449 -2.3756
  213MPD1    H1 3293   4.565   4.504  15.439 -1.1339 -0.4164 -2.0150
  213MPD1    H2 3294   0.016   4.228  15.704  0.6679  1.3736  0.2992
  213MPD1    H3 3295   4.731   4.455  15.612  0.2160 -0.4958 -0.4712
  213MPD1     N 3296   4.336   4.346  15.419 -0.4643  0.4911  0.1879
  213MPD1    H5 3297   4.268   4.271  15.412  1.4724 -1.3412  1.0109
  213MPD1    N1 3298   4.611   4.029  15.665  0.3620 -0.3183  0.0400
  213MPD1    H6 3299   4.575   3.953  15.607 -0.7715  1.4617 -1.5583
  213MPD1    H7 3300   4.708   4.004  15.684 -0.5210 -2.6622  1.4919
  214MPD1     C 3301   3.722   3.988  14.729  0.7626  0.7414 -0.0774
  214MPD1    C1 3302   3.708   3.985  14.868 -0.2067  0.9770 -0.1178
  214MPD1    C2 3303   3.777   4.084  14.936 -0.5224  0.3855 -0.1313
  214MPD1    C3 3304   3.856   4.179  14.873 -0.4728  0.0839  0.5023
  214MPD1    C4 3305   3.864   4.183  14.737 -0.2255 -0.1164  1.0628
  214MPD1    C5 3306   3.803   4.082  14.667 -0.3488 -0.1861  0.1189
  214MPD1     H 3307   3.761   4.094  15.043 -1.7098  0.5664 -0.3201
  214MPD1    H1 3308   3.925   4.261  14.693 -1.0970  0.5744  1.0947
  214MPD1    H2 3309   3.675   3.908  14.674 -1.5715  1.7405  0.4909
  214MPD1    H3 3310   3.809   4.089  14.559 -1.6630  0.7001  0.1032
  214MPD1     N 3311   3.944   4.265  14.944  0.0604 -0.1036  0.4066
  214MPD1    H5 3312   4.005   4.321  14.886 -0.4565 -1.4078 -1.3845
  214MPD1    N1 3313   3.640   3.876  14.932  0.1626  0.0745  0.6432
  214MPD1    H6 3314   3.570   3.828  14.875 -1.0942  2.3191  0.2634
  214MPD1    H7 3315   3.586   3.913  15.010 -0.0796  1.1384 -0.0182
  215MPD1     C 3316   2.965   1.189  11.802 -0.0967  0.5541  0.3967
  215MPD1    C1 3317   3.046   1.253  11.890  0.0528 -0.6302  0.0681
  215MPD1    C2 3318   3.174   1.280  11.855 -0.6479 -0.0064  0.1631
  215MPD1    C3 3319   3.222   1.234  11.731 -0.2084 -0.5605  0.5537
  215MPD1    C4 3320   3.141   1.156  11.647 -0.8931  0.0392  0.1549
  215MPD1    C5 3321   3.012   1.135  11.681 -0.2099  0.0226  0.2044
  215MPD1     H 3322   3.221   1.352  11.920  1.2201 -1.8509  0.8714
  215MPD1    H1 3323   3.182   1.132  11.549  0.4355 -0.0744  0.7337
  215MPD1    H2 3324   2.860   1.173  11.825 -0.1281  2.3965  1.5285
  215MPD1    H3 3325   2.952   1.078  11.610  0.7877 -0.8277  0.0396
  215MPD1     N 3326   3.343   1.295  11.691 -0.4362 -0.1751 -0.3449
  215MPD1    H5 3327   3.401   1.325  11.768 -2.9394 -0.3062  1.5977
  215MPD1    N1 3328   2.992   1.305  12.009 -0.3459 -0.0932  0.1146
  215MPD1    H6 3329   3.053   1.308  12.091  1.3257  2.0265 -1.2208
  215MPD1    H7 3330   2.920   1.244  12.046 -1.4152  0.1935 -1.5285
  216MPD1     C 3331   1.783   2.883  16.219  0.0826  0.5572  0.1019
  216MPD1    C1 3332   1.739   2.756  16.214 -0.1195 -0.9216  0.5592
  216MPD1    C2 3333   1.680   2.701  16.325 -0.7119 -0.2698  0.1704
  216MPD1    C3 3334   1.686   2.762  16.454  0.5247  0.3636 -0.0981
  216MPD1    C4 3335   1.729   2.897  16.449  0.6432  0.1378  0.0469
  216MPD1    C5 3336   1.786   2.950  16.334 -0.8845  0.9652  0.5063
  216MPD1     H 3337   1.653   2.596  16.314  2.2109 -0.9184 -0.8300
  216MPD1    H1 3338   1.731   2.953  16.542  1.4365 -3.5996  2.2673
  216MPD1    H2 3339   1.810   2.948  16.137  0.8779 -1.8453 -1.5339
  216MPD1    H3 3340   1.841   3.043  16.338 -0.8213  1.0081 -1.3950
  216MPD1     N 3341   1.631   2.696  16.563 -0.0492  0.1379  0.1380
  216MPD1    H5 3342   1.615   2.596  16.551 -1.7799  0.6064 -1.4993
  216MPD1    N1 3343   1.727   2.688  16.086 -0.4062 -0.2129 -0.3292
  216MPD1    H6 3344   1.797   2.700  16.013 -0.4891  0.5242 -0.2821
  216MPD1    H7 3345   1.724   2.586  16.091 -1.0246 -0.1951 -0.3980
  217MPD1     C 3346   1.946   3.776   8.836  0.5904  0.5802 -0.2195
  217MPD1    C1 3347   2.059   3.790   8.916  1.1220  0.0182  0.2475
  217MPD1    C2 3348   2.099   3.918   8.960 -0.4173  0.6927  0.6060
  217MPD1    C3 3349   2.026   4.028   8.927 -0.0406 -0.9721 -0.4598
  217MPD1    C4 3350   1.913   4.017   8.846  0.0180 -0.3199  0.5743
  217MPD1    C5 3351   1.872   3.893   8.804 -0.3290 -0.5916  0.9007
  217MPD1     H 3352   2.197   3.923   9.007 -0.0996 -0.0865  0.0241
  217MPD1    H1 3353   1.875   4.114   8.816  0.9652  0.6640  2.5424
  217MPD1    H2 3354   1.916   3.680   8.797  0.2959  1.9503 -3.3625
  217MPD1    H3 3355   1.776   3.891   8.753 -0.4970 -0.2245  1.2039
  217MPD1     N 3356   2.056   4.166   8.963 -0.0703 -0.7499  0.3712
  217MPD1    H5 3357   1.984   4.236   8.947  2.0039  1.3067  0.0844
  217MPD1    N1 3358   2.131   3.673   8.956  0.1792 -0.8089 -0.8488
  217MPD1    H6 3359   2.073   3.592   8.977  0.8562 -1.4084 -1.3116
  217MPD1    H7 3360   2.202   3.687   9.027 -0.7808  4.1261 -0.8518
  218MPD1     C 3361   3.444   1.007  13.317 -0.3085  0.5093 -0.1415
  218MPD1    C1 3362   3.545   0.915  13.291  0.1636 -0.3612  0.5341
  218MPD1    C2 3363   3.652   0.956  13.214 -0.0673 -0.1581  0.0556
  218MPD1    C3 3364   3.652   1.073  13.142 -0.3188 -0.2398 -0.4749
  218MPD1    C4 3365   3.537   1.146  13.145  0.3790 -0.2771  0.1882
  218MPD1    C5 3366   3.439   1.124  13.244 -0.2228  0.2233 -0.0022
  218MPD1     H 3367   3.738   0.889  13.210  2.0875  2.6561 -0.3404
  218MPD1    H1 3368   3.521   1.234  13.084 -1.5678 -2.1997 -2.0665
  218MPD1    H2 3369   3.367   0.975  13.387 -0.5587  0.5423 -0.4034
  218MPD1    H3 3370   3.364   1.201  13.252 -1.2134 -0.5451 -2.1072
  218MPD1     N 3371   3.767   1.112  13.074  0.4732  0.3284 -0.5724
  218MPD1    H5 3372   3.846   1.048  13.074  0.1903 -0.0212 -1.6486
  218MPD1    N1 3373   3.552   0.790  13.359  0.0408  0.2419 -0.2962
  218MPD1    H6 3374   3.460   0.747  13.363  0.1395 -0.1835 -2.6986
  218MPD1    H7 3375   3.613   0.732  13.302  1.7659  2.8741 -1.1349
  219MPD1     C 3376   3.912   1.917  12.490 -0.3407 -0.6197  0.1936
  219MPD1    C1 3377   4.041   1.874  12.503  0.4564  0.3772 -0.6775
  219MPD1    C2 3378   4.073   1.796  12.616 -0.3495  0.5066 -0.0589
  219MPD1    C3 3379   3.968   1.737  12.684 -0.4044 -0.4530  0.1913
  219MPD1    C4 3380   3.842   1.769  12.657  0.1883 -0.1631  0.7557
  219MPD1    C5 3381   3.811   1.861  12.565  0.9577 -0.0025 -0.9722
  219MPD1     H 3382   4.177   1.764  12.620 -0.3206  0.5023 -0.8526
  219MPD1    H1 3383   3.758   1.737  12.718 -1.2655 -0.9975 -1.6907
  219MPD1    H2 3384   3.878   1.980  12.409  3.5960 -0.7647 -1.5683
  219MPD1    H3 3385   3.707   1.888  12.554  0.9380  0.4807  0.4272
  219MPD1     N 3386   3.973   1.633  12.773  0.2804 -0.4119 -0.2624
  219MPD1    H5 3387   3.883   1.611  12.813  0.4790 -1.7792 -0.5618
  219MPD1    N1 3388   4.134   1.926  12.414  0.7698 -0.8032 -0.5128
  219MPD1    H6 3389   4.093   1.958  12.327 -2.1356  1.1967  1.5820
  219MPD1    H7 3390   4.201   1.850  12.409  1.0162 -0.7020  1.1684
  220MPD1     C 3391   3.457   1.881   9.907  0.1533  0.4275  0.2277
  220MPD1    C1 3392   3.336   1.828   9.936 -0.0354  0.4350  0.6138
  220MPD1    C2 3393   3.289   1.847  10.061  0.1969  0.4775  0.0884
  220MPD1    C3 3394   3.355   1.908  10.160  0.3020 -0.4083  1.0089
  220MPD1    C4 3395   3.477   1.952  10.130  0.4105 -0.5311 -0.4084
  220MPD1    C5 3396   3.528   1.934  10.006  0.3077 -0.1932 -0.1586
  220MPD1     H 3397   3.195   1.794  10.075 -0.0412  1.0123  0.4936
  220MPD1    H1 3398   3.537   1.998  10.208 -1.9552  1.0384  0.4876
  220MPD1    H2 3399   3.502   1.884   9.808 -0.9133 -0.8042 -0.2955
  220MPD1    H3 3400   3.630   1.969   9.989 -0.0892  1.1576  0.2628
  220MPD1     N 3401   3.288   1.917  10.285  0.0895 -0.2282 -0.4055
  220MPD1    H5 3402   3.194   1.879  10.296  0.6167 -1.8092 -1.3550
  220MPD1    N1 3403   3.239   1.783   9.838  0.1501 -0.2978 -0.3432
  220MPD1    H6 3404   3.297   1.749   9.762 -0.7537  0.4713 -1.3895
  220MPD1    H7 3405   3.179   1.712   9.880 -0.2561 -1.2861 -2.6233
  221MPD1     C 3406   1.558   4.611  16.874  1.2273  0.4446  0.2249
  221MPD1    C1 3407   1.661   4.610  16.971  0.4011  0.2638 -0.6869
  221MPD1    C2 3408   1.782   4.544  16.932 -0.7705 -0.5679  0.8719
  221MPD1    C3 3409   1.801   4.487  16.807  0.2768 -0.5461  0.5930
  221MPD1    C4 3410   1.704   4.505  16.712  0.0919  0.2213  0.2630
  221MPD1    C5 3411   1.580   4.565  16.747 -0.3294  0.2309 -0.0888
  221MPD1     H 3412   1.850   4.536  17.016 -1.1872 -0.4887  1.2171
  221MPD1    H1 3413   1.708   4.450  16.618  2.1378  0.6396  0.1162
  221MPD1    H2 3414   1.458   4.647  16.894  1.8212  0.9820  2.2027
  221MPD1    H3 3415   1.495   4.553  16.680 -1.2435  1.2994  0.8629
  221MPD1     N 3416   1.911   4.407  16.769 -0.0042  0.1005 -0.1345
  221MPD1    H5 3417   1.915   4.370  16.674 -0.4342 -0.6943  0.1675
  221MPD1    N1 3418   1.646   4.649  17.101  0.1708  0.2859  0.2044
  221MPD1    H6 3419   1.573   4.720  17.100 -0.7157 -0.6477 -0.5332
  221MPD1    H7 3420   1.730   4.684  17.147 -0.0915 -1.6082  2.1312
  222MPD1     C 3421   0.964   4.196  17.303  0.1470 -0.8025  0.1959
  222MPD1    C1 3422   1.085   4.209  17.231  0.5587  0.1830  0.1998
  222MPD1    C2 3423   1.208   4.197  17.291  0.1467  0.0194 -0.8758
  222MPD1    C3 3424   1.209   4.153  17.421  0.0216  0.1685  0.4122
  222MPD1    C4 3425   1.095   4.137  17.498  0.0067  0.3132 -0.5159
  222MPD1    C5 3426   0.976   4.159  17.434  0.0858 -0.6252 -0.1912
  222MPD1     H 3427   1.299   4.230  17.242  1.0215  0.7882  1.2254
  222MPD1    H1 3428   1.099   4.119  17.605 -1.0083  0.6883 -0.4171
  222MPD1    H2 3429   0.865   4.197  17.257  0.7383 -3.4470 -1.1732
  222MPD1    H3 3430   0.884   4.165  17.492 -0.2562  0.3495 -0.8414
  222MPD1     N 3431   1.329   4.134  17.495 -0.7162  0.8540 -0.8606
  222MPD1    H5 3432   1.331   4.128  17.596 -2.1849 -1.6688 -0.9735
  222MPD1    N1 3433   1.072   4.257  17.103 -0.2033 -0.1278 -0.3888
  222MPD1    H6 3434   1.140   4.211  17.042  0.5811 -0.6453  0.8869
  222MPD1    H7 3435   0.980   4.265  17.059 -0.6421  1.6682  0.8899
  223MPD1     C 3436   2.352   3.721  17.458  0.1102 -0.9019 -0.4018
  223MPD1    C1 3437   2.321   3.753  17.585  0.0578 -0.1755  0.2998
  223MPD1    C2 3438   2.207   3.815  17.619 -0.4639  0.8236  0.1686
  223MPD1    C3 3439   2.120   3.861  17.521 -0.2865  0.0706  0.0530
  223MPD1    C4 3440   2.149   3.836  17.388 -0.1474  0.5365  0.2839
  223MPD1    C5 3441   2.267   3.775  17.355 -0.9237  0.7492  0.3036
  223MPD1     H 3442   2.181   3.839  17.722  1.2819  1.3173  0.4870
  223MPD1    H1 3443   2.096   3.884  17.306 -0.1261 -0.7709 -0.5035
  223MPD1    H2 3444   2.424   3.648  17.424  1.0314  0.8325 -2.1764
  223MPD1    H3 3445   2.293   3.754  17.252  1.4564 -1.0851  1.2853
  223MPD1     N 3446   1.992   3.912  17.559  0.1456  0.3779  0.6010
  223MPD1    H5 3447   1.973   3.923  17.658 -0.9625  0.7093  0.3542
  223MPD1    N1 3448   2.411   3.704  17.679 -0.3270  0.1960  0.3144
  223MPD1    H6 3449   2.478   3.642  17.635 -2.9259 -0.7090 -2.3539
  223MPD1    H7 3450   2.362   3.658   0.006 -0.1733  0.9839  0.8982
  224MPD1     C 3451   2.722   1.399   9.918  0.3057  1.0079 -0.1408
  224MPD1    C1 3452   2.584   1.405   9.950 -0.1444  0.3059 -0.6035
  224MPD1    C2 3453   2.536   1.317  10.048 -0.0670 -0.4265 -0.7191
  224MPD1    C3 3454   2.607   1.219  10.117  0.7472 -0.0406  0.1462
  224MPD1    C4 3455   2.745   1.216  10.085  0.8921  0.0532  0.2347
  224MPD1    C5 3456   2.794   1.303   9.987 -0.8670 -0.3249 -0.4221
  224MPD1     H 3457   2.428   1.318  10.045 -0.0864 -0.6780 -0.1304
  224MPD1    H1 3458   2.813   1.141  10.125  1.1663 -0.2087 -0.7268
  224MPD1    H2 3459   2.766   1.461   9.841  1.4772  0.0071 -0.2819
  224MPD1    H3 3460   2.899   1.311   9.964 -0.5647 -0.3713  0.9491
  224MPD1     N 3461   2.549   1.134  10.212  0.3993 -0.3830  0.2985
  224MPD1    H5 3462   2.599   1.051  10.243  1.9747  0.9058  1.1970
  224MPD1    N1 3463   2.490   1.487   9.879 -0.3059  0.0549  0.4816
  224MPD1    H6 3464   2.418   1.523   9.942 -1.2917 -1.0629 -0.0195
  224MPD1    H7 3465   2.535   1.552   9.815  0.2393  0.0140  0.8247
  225MPD1     C 3466   4.158   2.359  12.224 -0.1921 -0.2660  0.0136
  225MPD1    C1 3467   4.085   2.397  12.111  0.7180 -0.4337  0.5636
  225MPD1    C2 3468   3.950   2.406  12.120  0.6576  0.5294 -0.2304
  225MPD1    C3 3469   3.885   2.382  12.234 -0.7780  0.3676 -0.1549
  225MPD1    C4 3470   3.961   2.366  12.349 -0.7807 -0.7890 -0.4017
  225MPD1    C5 3471   4.098   2.353  12.345 -1.2801  0.6910  0.1180
  225MPD1     H 3472   3.902   2.431  12.026 -0.1194 -0.0751  0.0107
  225MPD1    H1 3473   3.906   2.358  12.441  2.5354 -0.2257  1.6410
  225MPD1    H2 3474   4.264   2.337  12.214 -0.6836 -2.2536 -0.7304
  225MPD1    H3 3475   4.153   2.333  12.436  0.1918 -1.4014 -1.2343
  225MPD1     N 3476   3.745   2.377  12.244  0.5433  0.2188 -0.1553
  225MPD1    H5 3477   3.714   2.325  12.326 -1.4168 -2.9015 -2.8541
  225MPD1    N1 3478   4.142   2.369  11.984 -0.0018 -0.0790  0.7226
  225MPD1    H6 3479   4.104   2.425  11.908 -3.6631 -1.1314  1.7789
  225MPD1    H7 3480   4.243   2.364  11.996  0.4268  1.8300 -2.0499
  226MPD1     C 3481   1.331   1.257  10.391 -0.3575  0.0263  0.0591
  226MPD1    C1 3482   1.292   1.381  10.435 -0.2656  0.2472  0.6025
  226MPD1    C2 3483   1.392   1.471  10.452 -0.6629 -0.6023  0.6211
  226MPD1    C3 3484   1.521   1.447  10.425  0.1167 -0.2714 -1.0088
  226MPD1    C4 3485   1.558   1.324  10.389 -0.5686 -1.0119  0.6491
  226MPD1    C5 3486   1.460   1.234  10.356 -1.0728  0.3024  0.1010
  226MPD1     H 3487   1.366   1.565  10.499  0.2061  0.8110 -1.6904
  226MPD1    H1 3488   1.659   1.297  10.359 -0.1547 -0.1830  1.2918
  226MPD1    H2 3489   1.260   1.179  10.367 -0.8136 -0.2081  2.2379
  226MPD1    H3 3490   1.493   1.136  10.323  1.1970  1.0129  0.2996
  226MPD1     N 3491   1.613   1.556  10.434 -0.4671 -0.1034 -0.6750
  226MPD1    H5 3492   1.584   1.642  10.479 -0.0219  0.0755 -0.7369
  226MPD1    N1 3493   1.162   1.402  10.493 -0.4201 -0.0075 -0.3669
  226MPD1    H6 3494   1.089   1.340  10.461 -0.3932 -0.8464  1.1843
  226MPD1    H7 3495   1.122   1.494  10.511  0.8437  0.3065  0.9361
  227MPD1     C 3496   1.741   2.460  10.786  0.3025 -0.6915  0.0071
  227MPD1    C1 3497   1.818   2.465  10.673 -0.3607 -0.4780 -0.3462
  227MPD1    C2 3498   1.856   2.350  10.613  0.8721 -0.3132 -0.3087
  227MPD1    C3 3499   1.808   2.229  10.662 -0.0156 -0.8801  0.2051
  227MPD1    C4 3500   1.741   2.228  10.784 -0.4664 -0.6533 -0.1959
  227MPD1    C5 3501   1.710   2.338  10.844 -0.1784 -0.3177 -0.3538
  227MPD1     H 3502   1.913   2.349  10.521 -2.7031  0.6185 -2.5306
  227MPD1    H1 3503   1.726   2.134  10.836 -0.4116  0.2951  1.5007
  227MPD1    H2 3504   1.718   2.551  10.840 -1.0210 -0.4401 -0.9624
  227MPD1    H3 3505   1.667   2.337  10.943  0.1136 -1.5162 -0.2413
  227MPD1     N 3506   1.850   2.119  10.580 -0.2660 -0.5208 -0.6509
  227MPD1    H5 3507   1.906   2.149  10.500  1.6867  2.9043  1.9901
  227MPD1    N1 3508   1.868   2.589  10.627  0.1573 -0.4385  0.4449
  227MPD1    H6 3509   1.964   2.584  10.594  0.0268  0.0310 -0.0050
  227MPD1    H7 3510   1.870   2.658  10.702  0.0039  2.2637 -2.0818
  228MPD1     C 3511   0.881   0.065  13.251  0.6101 -0.5372 -0.1550
  228MPD1    C1 3512   0.856   4.731  13.133 -0.0172  0.1074  0.0368
  228MPD1    C2 3513   0.776   4.621  13.146 -0.3030 -0.6126 -0.0844
  228MPD1    C3 3514   0.746   4.567  13.270 -0.2223 -0.0665  0.3357
  228MPD1    C4 3515   0.765   4.638  13.386  0.1276 -0.0971  0.3799
  228MPD1    C5 3516   0.836   0.016  13.373  0.5197  0.3679 -0.3730
  228MPD1     H 3517   0.744   4.569  13.057  1.0999  0.2646 -1.1145
  228MPD1    H1 3518   0.734   4.606  13.485  1.3094  2.9334  1.7319
  228MPD1    H2 3519   0.938   0.156  13.244 -2.7293  1.5121 -0.8942
  228MPD1    H3 3520   0.861   0.067  13.465 -0.5334  0.5721 -0.1942
  228MPD1     N 3521   0.667   4.452  13.264 -0.2243  0.5527  0.1116
  228MPD1    H5 3522   0.654   4.404  13.176  1.6104  1.7220 -0.7881
  228MPD1    N1 3523   0.870   0.057  13.006 -0.6243  0.8465 -0.1510
  228MPD1    H6 3524   0.956   0.111  12.996 -0.5724  0.1221 -3.6700
  228MPD1    H7 3525   0.860   4.724  12.933 -0.1997  0.3963  0.2255
  229MPD1     C 3526   4.668   2.773  14.820 -0.3310 -0.5061 -0.1061
  229MPD1    C1 3527   4.651   2.636  14.839  0.3170  0.1509  0.0363
  229MPD1    C2 3528   0.026   2.566  14.878 -0.0428 -0.3052 -0.3621
  229MPD1    C3 3529   0.154   2.630  14.859 -0.6553  0.3646  1.4187
  229MPD1    C4 3530   0.160   2.761  14.829  0.6145  0.6924 -0.4579
  229MPD1    C5 3531   0.049   2.836  14.809  0.3973  0.3593 -0.5810
  229MPD1     H 3532   0.029   2.458  14.892  0.1120  0.1241  2.8511
  229MPD1    H1 3533   0.253   2.802  14.793  0.9135 -1.9967 -2.7183
  229MPD1    H2 3534   4.575   2.828  14.810 -0.7641 -1.2394 -0.1594
  229MPD1    H3 3535   0.059   2.938  14.774 -0.7723  0.3471 -0.9569
  229MPD1     N 3536   0.276   2.559  14.870  0.1825 -0.4210  0.3405
  229MPD1    H5 3537   0.360   2.611  14.846  0.7380 -2.0692 -1.3523
  229MPD1    N1 3538   4.525   2.573  14.848  0.0875  0.5777 -0.0911
  229MPD1    H6 3539   4.527   2.471  14.843 -1.0786  0.5930 -0.7324
  229MPD1    H7 3540   4.457   2.613  14.784 -1.5803 -2.6663 -0.3603
  230MPD1     C 3541   1.071   2.849  14.697  0.6150  0.8976 -0.0749
  230MPD1    C1 3542   0.938   2.883  14.693 -0.2976 -0.1574  0.3311
  230MPD1    C2 3543   0.839   2.798  14.733  0.2006 -0.0657  0.0543
  230MPD1    C3 3544   0.873   2.674  14.783  1.0823  1.1850  0.5754
  230MPD1    C4 3545   1.007   2.645  14.804 -0.2216 -0.8960  0.0604
  230MPD1    C5 3546   1.101   2.735  14.757 -0.4212 -0.2215 -0.7333
  230MPD1     H 3547   0.736   2.824  14.711  0.9490  1.3254 -1.8316
  230MPD1    H1 3548   1.046   2.559  14.856 -1.7037 -0.2170  2.3170
  230MPD1    H2 3549   1.154   2.916  14.676  2.3729 -0.2185  3.3465
  230MPD1    H3 3550   1.205   2.704  14.769 -0.2918  0.0240 -1.2077
  230MPD1     N 3551   0.766   2.602  14.840 -0.5768 -0.1530 -0.4231
  230MPD1    H5 3552   0.671   2.629  14.820 -0.0969  1.0632 -1.0448
  230MPD1    N1 3553   0.899   2.995  14.614  0.0115 -0.4363 -0.3205
  230MPD1    H6 3554   0.804   3.024  14.637  0.2245  0.5420 -0.6644
  230MPD1    H7 3555   0.962   3.071  14.638 -1.1795  0.5661 -0.3833
  231MPD1     C 3556   3.305   4.661  15.230  0.9397 -0.3758  0.5519
  231MPD1    C1 3557   3.271   4.723  15.114 -0.4744 -0.3885 -0.2716
  231MPD1    C2 3558   3.373   0.049  15.048 -0.2125 -0.8876 -0.1344
  231MPD1    C3 3559   3.499   0.060  15.097 -0.2436 -0.4453 -0.1976
  231MPD1    C4 3560   3.517   0.017  15.227 -0.6353  0.2620 -0.1684
  231MPD1    C5 3561   3.425   4.680  15.288  0.6405  0.7695  0.5633
  231MPD1     H 3562   3.355   0.078  14.945  0.8597  0.7548  0.1351
  231MPD1    H1 3563   3.612   0.036  15.274 -0.0764 -2.4103 -0.2202
  231MPD1    H2 3564   3.232   4.605  15.288  1.1245 -0.1578  0.9920
  231MPD1    H3 3565   3.451   4.636  15.383  0.0298  0.1784  0.4552
  231MPD1     N 3566   3.596   0.120  15.018  0.1385  0.4201 -0.4367
  231MPD1    H5 3567   3.571   0.142  14.923 -0.7815  0.2110 -0.2457
  231MPD1    N1 3568   3.154   4.698  15.043 -0.1391  0.3783 -0.0003
  231MPD1    H6 3569   3.128   0.046  14.995  1.3398  1.3173  0.8628
  231MPD1    H7 3570   3.080   4.675  15.109  0.1556  1.1694  0.5898
  232MPD1     C 3571   0.320   3.136   0.228  0.1014  0.0558  0.1939
  232MPD1    C1 3572   0.218   3.175   0.142 -0.5223  0.1175  0.7143
  232MPD1    C2 3573   0.147   3.081   0.080  0.2416  0.7287  0.4915
  232MPD1    C3 3574   0.152   2.946   0.109 -0.4806 -0.3654 -0.1652
  232MPD1    C4 3575   0.244   2.912   0.204 -1.1266  0.1292  0.5856
  232MPD1    C5 3576   0.331   2.998   0.262 -0.6056  0.4460 -0.2933
  232MPD1     H 3577   0.075   3.122   0.010 -0.7494  1.0950  1.7189
  232MPD1    H1 3578   0.240   2.809   0.239 -3.4637  0.2015  0.5295
  232MPD1    H2 3579   0.397   3.202   0.267 -1.8021  2.3544  0.0929
  232MPD1    H3 3580   0.407   2.954   0.325 -2.0110  1.4192  2.0825
  232MPD1     N 3581   0.061   2.858   0.043  0.3749  0.3500 -0.1569
  232MPD1    H5 3582   4.733   2.895  17.724 -2.0751 -0.3434  1.8704
  232MPD1    N1 3583   0.208   3.310   0.092 -0.2315 -0.1540  0.3121
  232MPD1    H6 3584   0.249   3.380   0.153  0.0984 -1.6889  1.8409
  232MPD1    H7 3585   0.112   3.340   0.074  0.1048 -2.2257 -4.8572
  233MPD1     C 3586   0.706   0.318   1.556  1.3191  0.5865 -0.5466
  233MPD1    C1 3587   0.729   0.180   1.553  0.5670  0.1880 -0.2597
  233MPD1    C2 3588   0.859   0.135   1.540 -0.6748  0.2861  0.0796
  233MPD1    C3 3589   0.962   0.226   1.521 -0.2937  0.0040 -0.4006
  233MPD1    C4 3590   0.930   0.364   1.510 -0.3301  0.2498 -0.2604
  233MPD1    C5 3591   0.808   0.409   1.536 -0.1942  0.4373 -0.7810
  233MPD1     H 3592   0.880   0.031   1.561  1.1328 -0.1593 -3.9196
  233MPD1    H1 3593   1.007   0.440   1.502  0.5959 -0.6077  0.4424
  233MPD1    H2 3594   0.611   0.367   1.575  1.7783  1.0477  0.5297
  233MPD1    H3 3595   0.795   0.516   1.546 -1.0605  0.1549  1.1513
  233MPD1     N 3596   1.092   0.181   1.502  0.3725  0.5008  0.8004
  233MPD1    H5 3597   1.157   0.249   1.462  1.0127  1.3022  3.2206
  233MPD1    N1 3598   0.628   0.089   1.590 -0.2061 -0.2119 -0.1617
  233MPD1    H6 3599   0.537   0.131   1.571  0.0805  0.3678 -0.2690
  233MPD1    H7 3600   0.636   4.733   1.552 -1.7255 -0.3351 -0.1874
  234MPD1     C 3601   3.495   0.285   9.857  0.9990  0.1316 -0.9588
  234MPD1    C1 3602   3.469   0.152   9.830 -0.6076  0.4620 -0.3020
  234MPD1    C2 3603   3.336   0.111   9.845  0.2815  0.6353 -0.5118
  234MPD1    C3 3604   3.241   0.200   9.883 -0.2766 -0.3690  0.4958
  234MPD1    C4 3605   3.273   0.328   9.920  0.3009  0.2714  0.4307
  234MPD1    C5 3606   3.405   0.371   9.900 -0.1267 -0.1242  0.3959
  234MPD1     H 3607   3.301   0.015   9.811  1.9658 -0.4358  0.7753
  234MPD1    H1 3608   3.201   0.401   9.956  0.9603  1.1796 -0.0554
  234MPD1    H2 3609   3.596   0.322   9.845  0.8490  0.8112 -0.0659
  234MPD1    H3 3610   3.424   0.473   9.928 -0.4079  0.3937 -1.3032
  234MPD1     N 3611   3.112   0.148   9.894 -0.4673  0.2322  0.2596
  234MPD1    H5 3612   3.110   0.047   9.887  1.7241 -0.0678  3.5849
  234MPD1    N1 3613   3.575   0.072   9.783  0.0414 -0.4048 -0.0045
  234MPD1    H6 3614   3.670   0.102   9.809 -0.4815  0.8162  0.5370
  234MPD1    H7 3615   3.571   4.712   9.810 -0.0614 -0.4698 -0.2633
  235MPD1     C 3616   0.306   4.282  11.165 -0.0438  0.2863 -0.0599
  235MPD1    C1 3617   0.185   4.259  11.110  0.9247 -0.5731 -0.3572
  235MPD1    C2 3618   0.176   4.225  10.979 -1.0310  0.2656 -0.9434
  235MPD1    C3 3619   0.283   4.200  10.899  0.5782  0.5867  0.5454
  235MPD1    C4 3620   0.404   4.227  10.950 -0.6163  0.2474 -0.1590
  235MPD1    C5 3621   0.418   4.260  11.082  0.4218 -0.3766 -0.3431
  235MPD1     H 3622   0.078   4.207  10.936 -0.6388 -1.7897 -0.9649
  235MPD1    H1 3623   0.494   4.214  10.890  0.3552  1.3360  1.0532
  235MPD1    H2 3624   0.328   4.317  11.266  0.8017 -0.4305  0.0075
  235MPD1    H3 3625   0.516   4.276  11.125 -0.5053  2.7694  0.5607
  235MPD1     N 3626   0.267   4.163  10.762 -0.0638  0.4178  0.0634
  235MPD1    H5 3627   0.174   4.152  10.723 -0.7448  1.4956  1.3605
  235MPD1    N1 3628   0.067   4.254  11.185 -0.0813 -0.0458 -0.0446
  235MPD1    H6 3629   4.725   4.289  11.132  0.5232 -0.2784 -1.1212
  235MPD1    H7 3630   0.067   4.312  11.268 -1.2594  0.8558 -0.6768
  236MPD1     C 3631   3.087   4.242   9.369  0.2178  0.3835  1.2006
  236MPD1    C1 3632   3.138   4.288   9.487 -0.1003  0.6105 -0.1558
  236MPD1    C2 3633   3.096   4.215   9.595 -0.2074  0.8640  0.0084
  236MPD1    C3 3634   2.985   4.130   9.592 -0.1066  0.0109  1.0957
  236MPD1    C4 3635   2.935   4.089   9.469  0.1562 -0.3217  0.0867
  236MPD1    C5 3636   2.985   4.148   9.359 -0.0346 -0.1548 -0.1320
  236MPD1     H 3637   3.132   4.235   9.696 -1.4224 -0.5124  0.7030
  236MPD1    H1 3638   2.847   4.027   9.469 -0.0287 -0.0599 -0.4440
  236MPD1    H2 3639   3.126   4.291   9.281 -1.0232 -0.9438 -0.0897
  236MPD1    H3 3640   2.944   4.121   9.263 -0.5187 -0.1658  0.0798
  236MPD1     N 3641   2.925   4.071   9.705 -0.2590  0.0357 -0.5028
  236MPD1    H5 3642   2.846   4.010   9.685 -0.0616  0.5604 -2.8362
  236MPD1    N1 3643   3.261   4.358   9.487 -0.3846 -0.2107  0.1104
  236MPD1    H6 3644   3.273   4.392   9.582  2.3698 -0.4487 -0.1393
  236MPD1    H7 3645   3.275   4.422   9.410 -1.5764  0.2924  0.3151
  237MPD1     C 3646   4.188   1.354  14.456  0.1487  0.9161 -0.1900
  237MPD1    C1 3647   4.224   1.237  14.516  1.1963 -0.1015  0.0460
  237MPD1    C2 3648   4.151   1.185  14.617 -0.2305 -0.0250  0.0096
  237MPD1    C3 3649   4.038   1.249  14.674  0.4116  0.1061 -0.3302
  237MPD1    C4 3650   4.004   1.374  14.618 -0.3659  0.5677  0.2662
  237MPD1    C5 3651   4.075   1.417  14.506  0.2295 -0.3287 -0.1563
  237MPD1     H 3652   4.190   1.091  14.653  0.0594  0.8092  1.8874
  237MPD1    H1 3653   3.920   1.436  14.649  0.6469  1.7669  0.5763
  237MPD1    H2 3654   4.242   1.394  14.372  0.1551 -1.2990 -1.2548
  237MPD1    H3 3655   4.029   1.504  14.461  0.4415 -0.4728 -0.6507
  237MPD1     N 3656   3.958   1.205  14.783  0.0576 -0.1941 -0.1106
  237MPD1    H5 3657   3.882   1.266  14.811 -0.5342 -0.3182 -1.4641
  237MPD1    N1 3658   4.324   1.155  14.471  0.1930  0.0048  0.4930
  237MPD1    H6 3659   4.356   1.096  14.546 -1.8172 -1.4160  0.2203
  237MPD1    H7 3660   4.404   1.210  14.440 -0.0829  0.9639  1.4938
  238MPD1     C 3661   0.840   0.321  15.480  0.3738 -0.0915  0.1362
  238MPD1    C1 3662   0.720   0.291  15.532  0.3553  0.4253  0.0612
  238MPD1    C2 3663   0.640   0.206  15.461  0.3571 -0.2221  0.1614
  238MPD1    C3 3664   0.656   0.181  15.324 -1.0613  0.0879  0.2837
  238MPD1    C4 3665   0.772   0.228  15.269 -0.4136  0.2263 -0.0719
  238MPD1    C5 3666   0.861   0.298  15.349  0.6773 -0.1272 -0.2381
  238MPD1     H 3667   0.548   0.174  15.509  0.3752 -3.3382 -1.9050
  238MPD1    H1 3668   0.808   0.213  15.167 -1.2865 -4.0324  0.2320
  238MPD1    H2 3669   0.911   0.364  15.551  0.6361 -0.8216  0.3121
  238MPD1    H3 3670   0.952   0.330  15.301 -0.4831  0.7290 -1.8409
  238MPD1     N 3671   0.575   0.106  15.237  0.4026  0.8423  0.0242
  238MPD1    H5 3672   0.601   0.103  15.139  0.4866 -3.6681  0.1623
  238MPD1    N1 3673   0.701   0.292  15.674 -0.6889  0.2932  0.6962
  238MPD1    H6 3674   0.746   0.371  15.721 -0.1922 -0.1948  1.0417
  238MPD1    H7 3675   0.602   0.294  15.698 -1.1746 -0.5812 -1.2793
  239MPD1     C 3676   1.077   0.540  15.027  0.1208  0.2300  0.0694
  239MPD1    C1 3677   1.113   0.515  14.893 -0.7931 -0.5143  0.2321
  239MPD1    C2 3678   1.094   0.607  14.790  0.4118 -0.1290  0.2923
  239MPD1    C3 3679   1.048   0.729  14.819 -0.0981 -0.0529 -0.8398
  239MPD1    C4 3680   1.005   0.754  14.947  0.7274  0.5386 -0.6229
  239MPD1    C5 3681   1.020   0.665  15.053  0.2258  0.4659 -0.1188
  239MPD1     H 3682   1.119   0.581  14.688  0.4223 -1.5231  0.6495
  239MPD1    H1 3683   0.945   0.842  14.968  0.2292  0.5173 -1.9790
  239MPD1    H2 3684   1.099   0.476  15.112 -3.4808 -0.3241  0.5641
  239MPD1    H3 3685   0.983   0.669  15.155  0.3476  0.4335 -0.0739
  239MPD1     N 3686   1.017   0.817  14.719 -0.2185 -0.1301 -0.3269
  239MPD1    H5 3687   0.956   0.893  14.749  0.6270  0.6330 -0.5427
  239MPD1    N1 3688   1.154   0.385  14.859 -0.2727 -0.2108  0.6543
  239MPD1    H6 3689   1.247   0.392  14.818  0.5218  0.3343  2.5585
  239MPD1    H7 3690   1.167   0.338  14.948  2.5086 -0.1205  0.3218
  240MPD1     C 3691   0.237   0.704  14.061 -0.4937  0.1431 -0.0500
  240MPD1    C1 3692   0.103   0.721  14.089  0.0429 -0.5192  0.6843
  240MPD1    C2 3693   0.052   0.633  14.188  0.0413 -0.0279 -0.8436
  240MPD1    C3 3694   0.129   0.531  14.246  0.4217 -0.0558 -0.6239
  240MPD1    C4 3695   0.262   0.516  14.211  0.1148  0.1662  0.1354
  240MPD1    C5 3696   0.314   0.604  14.115  0.0974 -0.5167 -0.3905
  240MPD1     H 3697   4.683   0.641  14.202  0.4263  0.6121  1.6805
  240MPD1    H1 3698   0.329   0.437  14.245 -0.2024 -0.3710 -0.4931
  240MPD1    H2 3699   0.288   0.758  13.982 -0.4667  0.6641  0.3240
  240MPD1    H3 3700   0.412   0.582  14.077  1.4776  1.6231  1.9228
  240MPD1     N 3701   0.061   0.455  14.338  0.7481  0.4765  0.0927
  240MPD1    H5 3702   4.700   0.472  14.352  0.9330 -1.5764  3.8144
  240MPD1    N1 3703   0.039   0.836  14.043 -0.5565 -0.5023  0.0976
  240MPD1    H6 3704   4.675   0.841  14.040 -0.4458  1.5515 -0.7538
  240MPD1    H7 3705   0.082   0.865  13.955 -1.2255  0.5460  0.1150
  241MPD1     C 3706   0.189   0.302  15.272 -0.4744  0.3111  0.2472
  241MPD1    C1 3707   0.075   0.231  15.232 -0.3431  0.5063 -0.3949
  241MPD1    C2 3708   0.059   0.203  15.099  0.9177 -0.0335 -0.0454
  241MPD1    C3 3709   0.157   0.244  15.004  0.1101  0.4576  0.1362
  241MPD1    C4 3710   0.270   0.308  15.046  0.2869  0.0280 -0.0465
  241MPD1    C5 3711   0.286   0.339  15.181  0.0168  0.3573  0.4711
  241MPD1     H 3712   4.703   0.162  15.066  1.7572 -0.8710 -1.3578
  241MPD1    H1 3713   0.347   0.334  14.974 -1.2969 -1.1295 -2.1360
  241MPD1    H2 3714   0.201   0.321  15.378 -1.7614 -1.3277  0.6756
  241MPD1    H3 3715   0.371   0.393  15.221  1.2683  1.2749 -3.3821
  241MPD1     N 3716   0.144   0.209  14.869 -0.6008  0.0651  0.2181
  241MPD1    H5 3717   0.213   0.253  14.809 -0.3977 -0.5230  0.0256
  241MPD1    N1 3718   4.700   0.238  15.317  0.4107  0.5627  0.5193
  241MPD1    H6 3719   4.726   0.233  15.416  0.1878 -2.9837  0.3945
  241MPD1    H7 3720   4.635   0.163  15.294  0.8990  0.3797 -0.2626
  242MPD1     C 3721   0.424   4.060  15.396  0.3945 -0.4885 -0.5948
  242MPD1    C1 3722   0.294   4.015  15.375  0.1689 -0.3482 -0.0742
  242MPD1    C2 3723   0.273   3.883  15.320 -0.7796 -0.7010  0.1974
  242MPD1    C3 3724   0.379   3.815  15.270  0.1754  0.1635 -0.2894
  242MPD1    C4 3725   0.507   3.861  15.296 -0.8500 -0.0687  0.0913
  242MPD1    C5 3726   0.527   3.985  15.350  0.3740  0.7114  0.0154
  242MPD1     H 3727   0.172   3.844  15.322 -0.5751 -1.3487 -3.0289
  242MPD1    H1 3728   0.590   3.798  15.269 -0.3643  0.2960  0.7317
  242MPD1    H2 3729   0.452   4.156  15.438 -0.8162  0.2125 -1.3923
  242MPD1    H3 3730   0.631   4.013  15.363  0.2551  0.7432  0.9229
  242MPD1     N 3731   0.367   3.679  15.215  0.0899 -0.1818  0.5316
  242MPD1    H5 3732   0.456   3.635  15.192 -1.2138 -2.6200  0.1029
  242MPD1    N1 3733   0.178   4.082  15.430  0.2405  0.2284  0.1197
  242MPD1    H6 3734   0.098   4.074  15.367  1.0446 -0.4386 -0.8161
  242MPD1    H7 3735   0.190   4.183  15.432 -0.6268  0.3405 -0.0475
  243MPD1     C 3736   2.065   2.596  16.216  0.1019  0.5299  0.6532
  243MPD1    C1 3737   2.094   2.477  16.156 -0.0230  0.0213  0.1294
  243MPD1    C2 3738   2.044   2.360  16.201 -0.3890 -0.2739  0.0013
  243MPD1    C3 3739   1.994   2.351  16.329 -0.0874  0.8219 -0.5709
  243MPD1    C4 3740   1.995   2.470  16.405  0.1146  0.2545  0.8617
  243MPD1    C5 3741   2.011   2.590  16.339  0.0160  0.0241  0.0248
  243MPD1     H 3742   2.067   2.271  16.145 -0.0568 -0.2105  0.0366
  243MPD1    H1 3743   1.972   2.482  16.511 -1.7011 -0.5426  0.5531
  243MPD1    H2 3744   2.108   2.690  16.185 -1.2691  0.2184 -2.1698
  243MPD1    H3 3745   2.000   2.681  16.398 -0.3409 -1.4538  2.2675
  243MPD1     N 3746   1.940   2.232  16.380  0.5025  0.2383  1.2803
  243MPD1    H5 3747   1.946   2.149  16.323 -2.1058  0.3489  0.8581
  243MPD1    N1 3748   2.164   2.473  16.033  0.5172 -0.0222 -0.4120
  243MPD1    H6 3749   2.216   2.386  16.027  0.2205 -0.1814 -0.6845
  243MPD1    H7 3750   2.223   2.554  16.011  0.0506  0.2624 -0.6201
  244MPD1     C 3751   1.513   2.192  17.274  0.1641 -0.0349  0.1568
  244MPD1    C1 3752   1.603   2.277  17.220  0.0325  0.6470  0.1913
  244MPD1    C2 3753   1.633   2.256  17.086 -0.4163  0.1083  0.0549
  244MPD1    C3 3754   1.565   2.160  17.007  0.3261 -0.0599 -0.1764
  244MPD1    C4 3755   1.476   2.070  17.069 -0.0258 -0.3542  0.0394
  244MPD1    C5 3756   1.453   2.081  17.206  0.9296 -0.8049  0.5341
  244MPD1     H 3757   1.710   2.315  17.037 -0.9658  0.3795 -0.4798
  244MPD1    H1 3758   1.453   1.979  17.015  2.0231 -0.3428 -0.8662
  244MPD1    H2 3759   1.492   2.189  17.380 -0.2231  0.9573  0.1015
  244MPD1    H3 3760   1.392   2.008  17.257  0.5795 -1.6664 -1.1115
  244MPD1     N 3761   1.595   2.150  16.864 -0.4187 -0.2428 -0.6673
  244MPD1    H5 3762   1.655   2.223  16.828 -1.1056  0.1405 -1.0203
  244MPD1    N1 3763   1.673   2.364  17.306  0.4999  0.3818  0.2962
  244MPD1    H6 3764   1.614   2.403  17.380 -0.1073  0.5283 -0.2551
  244MPD1    H7 3765   1.731   2.433  17.259 -1.0805 -0.0743 -2.3571
  245MPD1     C 3766   4.115   2.244  12.698  0.9717 -0.1472 -0.1279
  245MPD1    C1 3767   3.982   2.268  12.731  0.0356  0.3414 -0.8559
  245MPD1    C2 3768   3.964   2.360  12.832 -0.0654  0.1690 -1.0441
  245MPD1    C3 3769   4.072   2.433  12.880 -0.7520 -0.2931 -0.4076
  245MPD1    C4 3770   4.199   2.415  12.839 -0.0701  0.0532  0.2578
  245MPD1    C5 3771   4.220   2.310  12.755  0.3605 -0.1015 -0.1147
  245MPD1     H 3772   3.865   2.381  12.872  0.7409 -1.2072  1.6584
  245MPD1    H1 3773   4.282   2.472  12.879  0.4006 -1.5123  1.5298
  245MPD1    H2 3774   4.139   2.167  12.625 -1.2054 -1.2001  0.2710
  245MPD1    H3 3775   4.316   2.292  12.708 -0.3428 -2.6522 -0.5908
  245MPD1     N 3776   4.042   2.522  12.988  0.1197 -0.1345  0.4532
  245MPD1    H5 3777   3.943   2.524  13.013 -0.0888  0.2459 -0.4098
  245MPD1    N1 3778   3.875   2.198  12.686  0.1060 -0.4498 -0.1495
  245MPD1    H6 3779   3.905   2.146  12.604  0.6124 -0.0980 -0.1847
  245MPD1    H7 3780   3.805   2.268  12.662 -1.1614 -0.6726  3.0184
  246MPD1     C 3781   4.151   0.200  11.266  0.0740 -0.0078  0.0430
  246MPD1    C1 3782   4.029   0.209  11.203  0.0385  0.3301 -0.3308
  246MPD1    C2 3783   4.030   0.187  11.067 -0.3999 -0.8682  0.4517
  246MPD1    C3 3784   4.140   0.142  11.001  0.2303 -0.8139  0.6614
  246MPD1    C4 3785   4.259   0.128  11.073  0.0369  0.2720 -0.1190
  246MPD1    C5 3786   4.269   0.171  11.198 -0.2819  0.2228  0.4975
  246MPD1     H 3787   3.941   0.203  11.009  0.0538 -0.0390 -0.0134
  246MPD1    H1 3788   4.341   0.107  11.006  0.8488 -2.4804  1.7114
  246MPD1    H2 3789   4.163   0.236  11.367  1.7120  0.3842 -0.2830
  246MPD1    H3 3790   4.370   0.166  11.236  0.5402  0.9066 -1.5907
  246MPD1     N 3791   4.128   0.145  10.860 -0.9206  0.0566 -0.0227
  246MPD1    H5 3792   4.036   0.176  10.832 -1.5762 -2.0846 -0.2682
  246MPD1    N1 3793   3.925   0.279  11.265 -0.2092 -0.1228  0.4464
  246MPD1    H6 3794   3.840   0.240  11.225 -1.1727  0.6657  1.7556
  246MPD1    H7 3795   3.931   0.265  11.366  0.9134 -2.8535  0.0237
  247MPD1     C 3796   3.522   2.490  13.917  0.1172 -0.2476  0.5192
  247MPD1    C1 3797   3.608   2.465  14.019  0.2477 -0.0339 -0.1822
  247MPD1    C2 3798   3.596   2.535  14.136 -0.4643 -1.2473  0.0182
  247MPD1    C3 3799   3.476   2.594  14.164  0.5428  0.0348  0.3871
  247MPD1    C4 3800   3.385   2.607  14.067 -0.3120 -0.8379 -0.3204
  247MPD1    C5 3801   3.407   2.561  13.941 -0.1792 -0.3895 -0.3794
  247MPD1     H 3802   3.670   2.542  14.215 -0.0979 -1.5708 -0.2916
  247MPD1    H1 3803   3.289   2.648  14.096  0.0545  0.0437 -0.3625
  247MPD1    H2 3804   3.534   2.452  13.816 -0.5956 -1.2840  0.8256
  247MPD1    H3 3805   3.330   2.574  13.866 -0.7213  0.4728  0.3243
  247MPD1     N 3806   3.439   2.643  14.291 -0.3411  0.4146  0.3516
  247MPD1    H5 3807   3.341   2.667  14.300 -0.0591  1.7922 -0.4035
  247MPD1    N1 3808   3.738   2.418  14.001  0.4055 -0.2622 -0.3541
  247MPD1    H6 3809   3.786   2.387  14.084 -0.8073 -1.7569 -0.2268
  247MPD1    H7 3810   3.748   2.349  13.927 -1.4663  0.4260 -1.2621
  248MPD1     C 3811   3.776   1.175   0.993 -0.4492 -0.0206 -0.1409
  248MPD1    C1 3812   3.739   1.234   0.872  0.0289 -0.2159 -0.0902
  248MPD1    C2 3813   3.714   1.371   0.878  0.1817  0.6303 -0.2936
  248MPD1    C3 3814   3.690   1.435   0.996  0.3496 -0.1437 -0.1638
  248MPD1    C4 3815   3.700   1.366   1.119 -0.2929  0.3889  0.0579
  248MPD1    C5 3816   3.750   1.239   1.111  0.1500  0.1547 -0.3495
  248MPD1     H 3817   3.717   1.426   0.785  0.3122  0.4727 -0.3823
  248MPD1    H1 3818   3.697   1.415   1.215  1.9170 -0.4269  0.5324
  248MPD1    H2 3819   3.816   1.075   1.005 -0.7746  0.2013  2.8268
  248MPD1    H3 3820   3.790   1.191   1.200  0.5523 -1.4091 -1.3774
  248MPD1     N 3821   3.660   1.575   1.000  0.0715 -0.3927 -0.5704
  248MPD1    H5 3822   3.660   1.616   0.907 -1.7796 -0.2799 -0.5239
  248MPD1    N1 3823   3.772   1.174   0.751 -0.7581 -0.3113  1.3670
  248MPD1    H6 3824   3.739   1.078   0.762  1.4892 -0.9101  2.9079
  248MPD1    H7 3825   3.710   1.215   0.681  1.5444  0.4297 -0.2246
  249MPD1     C 3826   4.029   1.155  11.036 -0.2883 -0.2147 -0.1609
  249MPD1    C1 3827   4.104   1.270  11.067  0.2379  0.0783  0.6611
  249MPD1    C2 3828   4.082   1.384  10.991  0.5393  0.4236  0.3129
  249MPD1    C3 3829   4.000   1.381  10.878 -0.1261  0.7792 -0.4131
  249MPD1    C4 3830   3.931   1.267  10.845  0.5449  0.4314 -0.0320
  249MPD1    C5 3831   3.948   1.154  10.922 -0.9149 -0.6087  0.0600
  249MPD1     H 3832   4.114   1.477  11.036 -0.8270  0.5197  1.0897
  249MPD1    H1 3833   3.866   1.253  10.759  0.1140  2.7775 -0.0794
  249MPD1    H2 3834   4.029   1.062  11.092  4.8788  1.1596  2.1638
  249MPD1    H3 3835   3.898   1.060  10.902  1.3912 -1.3611 -2.2573
  249MPD1     N 3836   3.997   1.503  10.796  0.2282  0.3486  0.2289
  249MPD1    H5 3837   4.054   1.582  10.826 -1.7299  2.6726 -2.2393
  249MPD1    N1 3838   4.171   1.284  11.188 -0.4447 -0.0782 -0.1877
  249MPD1    H6 3839   4.231   1.366  11.182  0.4351 -0.7160 -0.1085
  249MPD1    H7 3840   4.234   1.205  11.199  2.2723  1.8661 -1.6746
  250MPD2     C 3841   1.780   1.615  13.640 -0.6936 -0.2063  0.6225
  250MPD2    C1 3842   1.740   1.703  13.541  0.0174 -0.1521 -0.4657
  250MPD2    C2 3843   1.633   1.664  13.462 -0.5035  0.6500  1.1415
  250MPD2    C3 3844   1.573   1.535  13.485 -0.7328 -0.3968 -0.5552
  250MPD2    C4 3845   1.614   1.458  13.595 -0.3492 -0.0351  0.1666
  250MPD2    C5 3846   1.717   1.496  13.673 -0.8634  0.7799 -0.3249
  250MPD2     H 3847   1.613   1.722  13.373  0.0851 -1.0153 -0.0846
  250MPD2    H1 3848   1.574   1.360  13.616 -4.3705  1.4565 -0.4541
  250MPD2    H2 3849   1.861   1.643  13.707  0.2146  2.7088 -1.6767
  250MPD2    H3 3850   1.759   1.431  13.748  0.0816  0.7932 -0.8391
  250MPD2     N 3851   1.474   1.479  13.391  0.0666  0.2236 -0.0558
  250MPD2    H5 3852   1.453   1.383  13.415  0.2307 -0.4902 -2.7220
  250MPD2    N1 3853   1.812   1.822  13.519  0.1672  0.3973  0.1758
  250MPD2    H7 3854   1.897   1.843  13.570  1.3881  0.5921 -1.9164
  251TMC3    C1 3855   1.884   2.021  13.425 -0.3437  0.0242 -0.1539
  251TMC3    C2 3856   1.844   2.148  13.400 -0.0438 -0.0478  0.1595
  251TMC3    C3 3857   1.944   2.234  13.349 -0.3621  0.0556  0.3342
  251TMC3    C4 3858   2.010   1.977  13.415  0.8206 -0.4087  0.2564
  251TMC3    C5 3859   2.105   2.064  13.378  0.6445 -0.2745 -0.3962
  251TMC3    C6 3860   2.076   2.189  13.343  0.0085 -0.0599  0.0406
  251TMC3     C 3861   1.776   1.925  13.435 -0.0098  0.4885 -0.1111
  251TMC3     O 3862   1.667   1.950  13.388 -0.1263  1.1015 -0.2325
  251TMC3     H 3863   1.741   2.180  13.413 -0.6209 -2.1312  0.7808
  251TMC3    H1 3864   2.040   1.876  13.443  2.2352  0.0009  0.2126
  251TMC3    H2 3865   2.149   2.244  13.285 -0.7151 -0.7678 -1.5338
  251TMC3    C7 3866   2.240   2.003  13.378 -0.1637  0.6926  0.1796
  251TMC3    C8 3867   1.906   2.376  13.357  0.6579  0.4615 -0.0540
  251TMC3    O1 3868   2.245   1.878  13.373 -0.4982  0.0542 -0.4634
  251TMC3    O2 3869   1.790   2.403  13.330  0.5759  0.4135 -0.5616
  252TMC3    C1 3870   1.577   1.836  10.142 -0.3788 -0.5051  0.3356
  252TMC3    C2 3871   1.684   1.870  10.062  0.3462  0.2835  0.0454
  252TMC3    C3 3872   1.755   1.974  10.103  0.2617 -0.5697 -0.2792
  252TMC3    C4 3873   1.547   1.894  10.262 -1.1388  0.2727 -0.5816
  252TMC3    C5 3874   1.629   2.000  10.301 -0.1552  0.0512 -0.2138
  252TMC3    C6 3875   1.732   2.038  10.224 -0.3088  0.2184  0.1084
  252TMC3     C 3876   1.504   1.716  10.099 -0.8825 -1.1132  0.0682
  252TMC3     O 3877   1.569   1.630  10.039 -0.0883  0.0198 -0.7447
  252TMC3     H 3878   1.699   1.826   9.963 -1.3688  1.0507 -0.5600
  252TMC3    H1 3879   1.467   1.860  10.326  0.1421 -0.7169  0.5127
  252TMC3    H2 3880   1.801   2.112  10.264  2.4671 -2.7100  0.7848
  252TMC3    C7 3881   1.578   2.109  10.373 -0.1657  0.8167  0.1674
  252TMC3    C8 3882   1.805   2.062   9.996 -0.4700  0.0165  0.2701
  252TMC3    O1 3883   1.604   2.218  10.324 -0.2742 -0.3118 -0.0370
  252TMC3    O2 3884   1.842   2.010   9.892  0.0768 -0.0171 -0.0816
  253MPD2     C 3885   3.177   1.487  14.884 -0.7488 -0.6407 -0.2704
  253MPD2    C1 3886   3.039   1.459  14.904 -0.0006  0.1103  0.4089
  253MPD2    C2 3887   2.993   1.439  15.039  0.6407 -0.2920  0.3651
  253MPD2    C3 3888   3.084   1.429  15.144 -0.6352 -0.1996 -0.4823
  253MPD2    C4 3889   3.217   1.431  15.117  0.5644  0.0115  0.6638
  253MPD2    C5 3890   3.262   1.462  14.994 -0.6935  0.4481 -0.1604
  253MPD2     H 3891   2.894   1.399  15.060  0.3853 -0.7571 -1.7393
  253MPD2    H1 3892   3.297   1.419  15.190  1.1576  1.7306  0.3066
  253MPD2    H2 3893   3.212   1.504  14.783 -0.7727 -0.9347 -0.3286
  253MPD2    H3 3894   3.367   1.473  14.967 -0.3477 -2.2101  0.0778
  253MPD2     N 3895   3.042   1.401  15.275  0.0103 -0.2815  0.1979
  253MPD2    H5 3896   3.112   1.371  15.343 -0.5048  1.1742  1.3492
  253MPD2    N1 3897   2.952   1.442  14.794 -0.0552 -0.0706  0.4171
  253MPD2    H7 3898   2.861   1.400  14.812 -1.4743  2.0729 -1.6229
  254TMC3    C1 3899   2.890   1.396  15.458 -0.1868  0.1457  0.0198
  254TMC3    C2 3900   2.775   1.461  15.503 -0.0010  0.0677  0.5333
  254TMC3    C3 3901   2.701   1.404  15.607 -0.5667 -0.1388  0.4597
  254TMC3    C4 3902   2.942   1.284  15.520 -0.2895  0.3716  0.0452
  254TMC3    C5 3903   2.863   1.246  15.628  0.1602 -0.3505 -0.4972
  254TMC3    C6 3904   2.741   1.288  15.660  0.0546 -0.5691 -0.6114
  254TMC3     C 3905   2.915   1.427  15.315 -0.2593  0.0150  0.5406
  254TMC3     O 3906   2.821   1.488  15.259 -0.4598  0.0892  0.1876
  254TMC3     H 3907   2.753   1.555  15.455 -3.4903 -1.1985 -0.3303
  254TMC3    H1 3908   3.019   1.220  15.478  0.0000 -0.3011  1.5853
  254TMC3    H2 3909   2.693   1.250  15.750  2.0948  0.9625  1.1276
  254TMC3    C7 3910   2.944   1.179  15.728  0.4115 -0.6092  0.5894
  254TMC3    C8 3911   2.612   1.478  15.692  0.5121 -0.4204  0.2560
  254TMC3    O1 3912   2.877   1.138  15.822 -0.4582 -0.1063  0.7387
  254TMC3    O2 3913   2.560   1.428  15.792 -0.2135  0.1530  0.5211
  255MPD2     C 3914   1.325   0.087  10.637 -0.1100 -1.2301  0.2505
  255MPD2    C1 3915   1.311   4.700  10.571  0.4680 -0.2552  0.4675
  255MPD2    C2 3916   1.398   4.654  10.473 -0.0617  0.1233 -0.2100
  255MPD2    C3 3917   1.514   4.731  10.444  0.1781 -0.2292 -0.1150
  255MPD2    C4 3918   1.519   0.119  10.512  0.8081 -0.3713 -0.1313
  255MPD2    C5 3919   1.434   0.157  10.612 -0.5079 -0.8574  0.0050
  255MPD2     H 3920   1.386   4.558  10.425 -1.3528 -0.5578  1.4815
  255MPD2    H1 3921   1.601   0.188  10.495  2.4339 -2.2843 -0.0736
  255MPD2    H2 3922   1.248   0.128  10.702 -0.3642 -1.0039 -0.1901
  255MPD2    H3 3923   1.444   0.252  10.662 -0.5406 -0.9230  0.1339
  255MPD2     N 3924   1.602   4.696  10.342 -0.1463  0.0624 -0.2757
  255MPD2    H5 3925   1.584   4.610  10.291  2.1350 -0.0235 -0.9507
  255MPD2    N1 3926   1.188   4.638  10.602  0.5068 -0.4197 -0.2707
  255MPD2    H7 3927   1.133   4.684  10.674  0.3461 -0.8781 -0.0991
  256TMC3    C1 3928   0.991   4.530  10.543  0.4445 -0.3428  0.6993
  256TMC3    C2 3929   0.933   4.654  10.514 -0.1850  0.3511 -1.0345
  256TMC3    C3 3930   0.800   4.660  10.486  0.4036 -0.0881  0.5650
  256TMC3    C4 3931   0.929   4.415  10.500  0.0477  0.2619 -0.7557
  256TMC3    C5 3932   0.802   4.429  10.439 -0.3879  0.0187  0.0050
  256TMC3    C6 3933   0.735   4.553  10.443 -0.0320  0.6380 -0.7980
  256TMC3     C 3934   1.137   4.530  10.541 -0.5020 -0.5533 -0.2151
  256TMC3     O 3935   1.180   4.454  10.452  0.4783 -0.2333  0.2994
  256TMC3     H 3936   0.985   0.009  10.537  2.0398 -0.9130 -0.9373
  256TMC3    H1 3937   0.986   4.323  10.503 -0.1407  0.0853 -2.5849
  256TMC3    H2 3938   0.640   4.573  10.393 -1.0217 -2.0728  0.0055
  256TMC3    C7 3939   0.753   4.322  10.352 -0.0161  0.1201 -0.2392
  256TMC3    C8 3940   0.752   0.044  10.422 -0.0195 -0.1219  0.0161
  256TMC3    O1 3941   0.835   4.246  10.303  0.8456 -0.4810 -0.1351
  256TMC3    O2 3942   0.663   0.113  10.469  1.5083 -0.3818 -0.6491
  257MPD2     C 3943   0.661   1.509  13.407 -0.3074 -0.5849 -0.3997
  257MPD2    C1 3944   0.541   1.478  13.351  0.2369  0.3195  0.5218
  257MPD2    C2 3945   0.482   1.360  13.381 -0.5905  0.4409 -0.9592
  257MPD2    C3 3946   0.538   1.279  13.475  0.5016  0.3393 -0.5013
  257MPD2    C4 3947   0.655   1.320  13.537  0.1866  0.0566 -0.3355
  257MPD2    C5 3948   0.719   1.430  13.499 -0.5243  0.1834  0.1240
  257MPD2     H 3949   0.387   1.336  13.334 -0.0502 -0.2243 -1.7116
  257MPD2    H1 3950   0.705   1.258  13.611  1.3818 -0.4981 -1.6012
  257MPD2    H2 3951   0.728   1.591  13.382  0.3849 -0.5103  1.7105
  257MPD2    H3 3952   0.814   1.462  13.540  0.1910  0.3149 -1.6275
  257MPD2     N 3953   0.476   1.151  13.502  0.1039  0.7604 -0.5920
  257MPD2    H5 3954   0.385   1.136  13.458 -0.5608 -1.1847  1.4567
  257MPD2    N1 3955   0.506   1.571  13.251  0.1676 -0.2676 -0.4181
  257MPD2    H7 3956   0.577   1.641  13.228  0.4241 -0.6529 -0.7882
  258TMC3    C1 3957   0.460   0.920  13.558  0.2379  0.2353  0.7244
  258TMC3    C2 3958   0.383   0.898  13.450 -0.2886  1.0410 -0.6169
  258TMC3    C3 3959   0.335   0.764  13.435  0.6191  0.3218  0.1103
  258TMC3    C4 3960   0.495   0.824  13.649  0.9419  0.3752 -0.4551
  258TMC3    C5 3961   0.437   0.701  13.642 -0.0326  0.2085  0.3328
  258TMC3    C6 3962   0.362   0.671  13.534 -1.2035 -0.7064 -0.0870
  258TMC3     C 3963   0.526   1.044  13.575  1.3538 -0.6067  0.1614
  258TMC3     O 3964   0.629   1.035  13.641  1.5168  0.4904  0.3582
  258TMC3     H 3965   0.381   0.969  13.367  1.5627 -0.2342 -1.7651
  258TMC3    H1 3966   0.555   0.852  13.736 -0.3099 -0.5606  0.6972
  258TMC3    H2 3967   0.337   0.568  13.511 -1.2785 -0.4887 -1.0145
  258TMC3    C7 3968   0.479   0.597  13.741  0.1031 -0.2205 -0.0975
  258TMC3    C8 3969   0.335   0.710  13.296  0.3251  0.2061  0.4183
  258TMC3    O1 3970   0.392   0.519  13.779  0.0721  0.2453  0.1708
  258TMC3    O2 3971   0.394   0.609  13.262  0.2181 -0.7888  0.2108
  259MPD2     C 3972   4.124   2.884   0.907 -0.2474 -0.7339 -0.3094
  259MPD2    C1 3973   4.097   2.753   0.891  0.5015  0.1994 -0.4808
  259MPD2    C2 3974   4.004   2.714   0.796  0.2479  0.8372  0.0646
  259MPD2    C3 3975   3.941   2.804   0.712  0.1325  0.4019  0.5221
  259MPD2    C4 3976   3.979   2.939   0.722 -0.2053 -0.7539  0.4498
  259MPD2    C5 3977   4.065   2.978   0.825  0.2189  0.0470 -0.0453
  259MPD2     H 3978   3.982   2.613   0.765 -1.0356  1.6737 -1.7785
  259MPD2    H1 3979   3.942   3.020   0.660  0.0246 -0.2892  0.9147
  259MPD2    H2 3980   4.199   2.905   0.982 -0.4022 -1.3638  0.0237
  259MPD2    H3 3981   4.094   3.082   0.834  2.4085 -0.5651 -0.0284
  259MPD2     N 3982   3.853   2.761   0.612  0.4979  0.2907 -0.4080
  259MPD2    H5 3983   3.858   2.660   0.599 -2.8173 -0.2498  2.3493
  259MPD2    N1 3984   4.164   2.659   0.970  0.6952  0.0139  0.4081
  259MPD2    H7 3985   4.228   2.706   1.033  0.1159  0.0861  0.9428
  260TMC3    C1 3986   3.730   2.765   0.413 -0.0542  0.3874 -0.6195
  260TMC3    C2 3987   3.687   2.850   0.314  0.3476 -1.4594  1.1978
  260TMC3    C3 3988   3.707   2.811   0.186  0.9087  0.0814  0.1036
  260TMC3    C4 3989   3.765   2.633   0.389 -0.4657 -0.0995  0.2346
  260TMC3    C5 3990   3.768   2.595   0.259 -0.3648 -0.4849  0.0815
  260TMC3    C6 3991   3.748   2.683   0.155 -0.5285  0.1456  0.0346
  260TMC3     C 3992   3.779   2.840   0.524 -0.5581  0.1749  0.4299
  260TMC3     O 3993   3.769   2.961   0.512  0.1891 -0.4092  0.6461
  260TMC3     H 3994   3.654   2.951   0.335  2.5104  0.1667 -3.1462
  260TMC3    H1 3995   3.777   2.570   0.475  1.1092 -1.3055 -0.8747
  260TMC3    H2 3996   3.754   2.644   0.054  0.5950  2.3931 -0.7478
  260TMC3    C7 3997   3.808   2.453   0.223 -0.0231 -0.3339  0.2352
  260TMC3    C8 3998   3.783   2.910   0.115 -0.4911 -0.1563 -1.0437
  260TMC3    O1 3999   3.801   2.403   0.111  0.8118  0.5735 -0.1954
  260TMC3    O2 4000   3.761   3.034   0.123 -0.3962  0.1043 -0.4151
  261MPD2     C 4001   1.185   1.335  12.537  0.2025  0.0045  0.9449
  261MPD2    C1 4002   1.158   1.434  12.625 -0.2073  0.5014  0.1483
  261MPD2    C2 4003   1.117   1.556  12.577 -0.0832  0.1021  0.5648
  261MPD2    C3 4004   1.100   1.577  12.438  0.3898 -0.0909  0.3894
  261MPD2    C4 4005   1.130   1.476  12.355  0.2740  0.1464  0.8242
  261MPD2    C5 4006   1.176   1.359  12.405 -0.0946 -0.3644  0.0903
  261MPD2     H 4007   1.074   1.637  12.634 -0.7840 -0.8502  1.3769
  261MPD2    H1 4008   1.130   1.491  12.248  2.3934  1.2314  0.9679
  261MPD2    H2 4009   1.203   1.234  12.569 -2.8875 -1.0742 -0.7644
  261MPD2    H3 4010   1.193   1.265  12.354  1.0077  1.3307 -2.6190
  261MPD2     N 4011   1.045   1.699  12.384 -0.6095 -0.2406 -0.2800
  261MPD2    H5 4012   1.051   1.771  12.455 -2.5235 -1.6945  1.3512
  261MPD2    N1 4013   1.164   1.399  12.763  0.2893 -0.1368  0.2190
  261MPD2    H7 4014   1.194   1.303  12.777  0.6459  0.0256  0.5823
  262TMC3    C1 4015   1.000   1.863  12.215 -0.0668 -0.0433 -0.2755
  262TMC3    C2 4016   0.947   1.880  12.090  0.2673 -0.2682 -0.9772
  262TMC3    C3 4017   0.976   1.996  12.023  0.0672 -0.3310 -0.6571
  262TMC3    C4 4018   1.100   1.941  12.264  0.6230 -0.1277  0.4479
  262TMC3    C5 4019   1.135   2.054  12.191  0.0532 -0.3582 -0.0268
  262TMC3    C6 4020   1.064   2.085  12.071 -0.0996  0.1248 -0.0377
  262TMC3     C 4021   0.999   1.721  12.251  0.1816 -0.1752 -0.7250
  262TMC3     O 4022   0.963   1.640  12.167  0.5730 -0.1795  0.0178
  262TMC3     H 4023   0.865   1.817  12.056  2.2484 -3.0358 -0.5582
  262TMC3    H1 4024   1.151   1.924  12.359 -0.1753  0.0737  0.9058
  262TMC3    H2 4025   1.085   2.175  12.014  0.9070  0.8856  1.5559
  262TMC3    C7 4026   1.237   2.138  12.246 -0.6002  0.0077  0.3013
  262TMC3    C8 4027   0.861   2.058  11.959  0.2411  0.6343  0.0273
  262TMC3    O1 4028   1.300   2.098  12.344  0.1035  0.3713  0.1745
  262TMC3    O2 4029   0.880   2.136  11.869  0.0468  0.1496 -0.8448
  263MPD2     C 4030   1.453   0.761  11.963  0.1079  0.2589 -0.2618
  263MPD2    C1 4031   1.547   0.866  11.937  0.5152  0.7644 -0.1879
  263MPD2    C2 4032   1.536   0.948  11.827 -0.3848  0.1963 -0.9243
  263MPD2    C3 4033   1.445   0.913  11.723 -0.0713  0.3139 -0.2508
  263MPD2    C4 4034   1.354   0.811  11.748 -0.3639  0.6317  0.0628
  263MPD2    C5 4035   1.365   0.733  11.862  0.0149 -0.4355 -0.5534
  263MPD2     H 4036   1.600   1.033  11.810  0.3197  0.4214  2.8994
  263MPD2    H1 4037   1.294   0.774  11.665  0.2461 -0.8859  0.3027
  263MPD2    H2 4038   1.474   0.684  12.037  1.5649  0.4049 -0.5144
  263MPD2    H3 4039   1.298   0.648  11.870 -0.7283  0.3074  1.1116
  263MPD2     N 4040   1.451   0.987  11.606  0.2821 -0.7788  0.3421
  263MPD2    H5 4041   1.531   1.049  11.591 -1.2787  1.2112  0.2708
  263MPD2    N1 4042   1.639   0.882  12.040  0.0585  0.2190  0.3692
  263MPD2    H7 4043   1.636   0.813  12.115  1.9551  1.0726  1.2294
  264TMC3    C1 4044   1.400   1.068  11.399 -1.4465  0.2863  0.1411
  264TMC3    C2 4045   1.312   1.140  11.339 -0.0425  0.2106 -0.3531
  264TMC3    C3 4046   1.350   1.210  11.230 -0.4001 -0.7842  0.2518
  264TMC3    C4 4047   1.521   1.039  11.351 -0.2714 -0.6425  0.7167
  264TMC3    C5 4048   1.552   1.097  11.231  0.0199  0.2836 -0.0083
  264TMC3    C6 4049   1.469   1.186  11.172 -0.3315 -0.5730 -0.1861
  264TMC3     C 4050   1.351   0.995  11.516  0.3175 -0.4064 -0.0950
  264TMC3     O 4051   1.230   0.975  11.532 -0.2675  0.2440  0.1921
  264TMC3     H 4052   1.206   1.138  11.363  0.4980  0.7646  2.0411
  264TMC3    H1 4053   1.576   0.951  11.381  1.4657  0.5499  1.0265
  264TMC3    H2 4054   1.503   1.246  11.089  2.0194  0.0679  1.2293
  264TMC3    C7 4055   1.688   1.103  11.195  0.5412  0.3161  0.2300
  264TMC3    C8 4056   1.338   1.352  11.244 -0.5879  0.2978 -0.2333
  264TMC3    O1 4057   1.703   1.143  11.081  0.0513  0.0518  0.0771
  264TMC3    O2 4058   1.354   1.417  11.142  0.1306  0.1499 -0.2873
  265MPD2     C 4059   4.227   0.738  15.631 -0.5532 -0.5288  0.0402
  265MPD2    C1 4060   4.245   0.859  15.560 -0.4271 -0.0941 -0.2529
  265MPD2    C2 4061   4.303   0.853  15.438  0.1399  0.2244  0.2113
  265MPD2    C3 4062   4.362   0.737  15.389  0.6943 -0.6992 -0.2862
  265MPD2    C4 4063   4.348   0.630  15.462 -0.9922  0.6446 -0.4207
  265MPD2    C5 4064   4.283   0.627  15.577 -0.1561 -0.1609  0.5760
  265MPD2     H 4065   4.301   0.940  15.374  1.2383  0.2609  0.2307
  265MPD2    H1 4066   4.388   0.534  15.429 -0.3541  0.8526 -0.2495
  265MPD2    H2 4067   4.166   0.729  15.720 -2.7605 -1.6047 -1.5939
  265MPD2    H3 4068   4.265   0.532  15.625 -2.4101  0.0001  0.0720
  265MPD2     N 4069   4.442   0.722  15.270  0.4820 -0.0661 -0.4568
  265MPD2    H5 4070   4.479   0.629  15.250  1.7708  0.0226  1.5208
  265MPD2    N1 4071   4.196   0.981  15.608  0.7798 -0.3061  0.5560
  265MPD2    H7 4072   4.191   1.055  15.539 -0.5833  1.8998  3.0587
  266TMC3    C1 4073   4.118   1.140  15.765 -0.0102  0.0071  0.3824
  266TMC3    C2 4074   4.161   1.194  15.885 -0.2691  0.1359  0.1146
  266TMC3    C3 4075   4.124   1.321  15.921  0.1386 -0.4983 -0.3111
  266TMC3    C4 4076   4.055   1.224  15.671 -0.4860 -0.0713 -0.4088
  266TMC3    C5 4077   4.031   1.358  15.708 -0.7983  0.2355  0.4517
  266TMC3    C6 4078   4.052   1.408  15.836 -0.1652 -0.4501 -0.1880
  266TMC3     C 4079   4.153   1.003  15.738  0.1939  0.3300  1.0579
  266TMC3     O 4080   4.133   0.931  15.832 -0.0725 -0.2968  0.1704
  266TMC3     H 4081   4.220   1.135  15.954  0.5794 -2.0954 -2.5532
  266TMC3    H1 4082   4.012   1.179  15.583  1.7189 -0.6391 -1.1981
  266TMC3    H2 4083   4.007   1.496  15.880  0.1558 -0.4712  0.1857
  266TMC3    C7 4084   3.953   1.443  15.613 -0.0149 -0.1662  0.4109
  266TMC3    C8 4085   4.208   1.391  16.019  0.4707 -0.5360 -0.3031
  266TMC3    O1 4086   3.913   1.545  15.672 -0.1433 -0.0568 -0.3052
  266TMC3    O2 4087   4.268   1.313  16.089  0.5507 -0.1092 -0.2257
  267MPD2     C 4088   1.345   2.627  17.654  0.7044 -0.4263  0.5261
  267MPD2    C1 4089   1.466   2.645  17.603 -0.3560  0.0246 -0.6828
  267MPD2    C2 4090   1.475   2.665  17.467  0.0462 -1.1140  0.0876
  267MPD2    C3 4091   1.374   2.655  17.378 -0.5082  0.1823 -0.2150
  267MPD2    C4 4092   1.251   2.646  17.426 -0.0925 -0.1935 -0.6464
  267MPD2    C5 4093   1.239   2.652  17.568  0.0102  0.0212 -0.5433
  267MPD2     H 4094   1.577   2.684  17.433  0.7245 -2.6980  1.2252
  267MPD2    H1 4095   1.164   2.650  17.360  0.5694 -1.7647 -1.6277
  267MPD2    H2 4096   1.332   2.622   0.012 -0.0449 -0.0520  0.4482
  267MPD2    H3 4097   1.138   2.653  17.608 -0.5985 -2.8261 -1.9717
  267MPD2     N 4098   1.387   2.652  17.230  0.0445 -0.1142  0.3417
  267MPD2    H5 4099   1.303   2.650  17.172  0.6778  0.8400 -0.6154
  267MPD2    N1 4100   1.573   2.627  17.688 -0.2230  0.2761  0.5839
  267MPD2    H7 4101   1.558   2.600   0.036  0.1125 -0.3135  0.4727
  268TMC3    C1 4102   1.790   2.636   0.031 -0.2305 -1.3599 -0.0167
  268TMC3    C2 4103   1.909   2.697   0.042 -0.2894 -0.1599 -0.4023
  268TMC3    C3 4104   1.990   2.677   0.149 -0.2913 -0.4384 -0.5531
  268TMC3    C4 4105   1.755   2.542   0.124 -0.1690  0.2963  0.3650
  268TMC3    C5 4106   1.846   2.520   0.233  0.7376  0.9780 -0.3675
  268TMC3    C6 4107   1.969   2.585   0.249 -0.1672 -0.7692  0.6307
  268TMC3     C 4108   1.709   2.646  17.661  0.1438 -0.1977 -0.1430
  268TMC3     O 4109   1.761   2.691  17.559 -0.1609 -0.1156  1.0596
  268TMC3     H 4110   1.913   2.789  17.733  0.1311 -1.3161 -2.2371
  268TMC3    H1 4111   1.669   2.476   0.115 -1.3750  2.0261 -0.8011
  268TMC3    H2 4112   2.030   2.564   0.336 -0.0102 -1.8708  0.2498
  268TMC3    C7 4113   1.821   2.421   0.332  0.3969 -0.4781  0.5576
  268TMC3    C8 4114   2.107   2.755   0.165 -0.4066 -0.9171  0.1870
  268TMC3    O1 4115   1.920   2.362   0.383 -0.1458 -0.1882 -0.8685
  268TMC3    O2 4116   2.147   2.782   0.278  0.0079 -0.2971  0.6545
  269MPD2     C 4117   2.331   1.598  15.471 -0.0341 -0.3263  0.0129
  269MPD2    C1 4118   2.253   1.610  15.582 -0.0365 -0.5086 -0.1409
  269MPD2    C2 4119   2.200   1.733  15.614  0.7336 -0.0496 -0.1813
  269MPD2    C3 4120   2.240   1.849  15.551  0.4178 -0.0284  0.2095
  269MPD2    C4 4121   2.320   1.836  15.438 -0.2149  0.3137  0.3407
  269MPD2    C5 4122   2.372   1.714  15.404  0.1651  0.8168 -0.5662
  269MPD2     H 4123   2.143   1.752  15.704  0.7596 -0.1997 -0.1335
  269MPD2    H1 4124   2.366   1.918  15.385  1.1780  0.3119  1.5595
  269MPD2    H2 4125   2.383   1.509  15.439 -0.7187 -0.1088 -1.7334
  269MPD2    H3 4126   2.425   1.710  15.310 -0.8377 -1.4939 -1.0349
  269MPD2     N 4127   2.211   1.971  15.612 -0.1252 -0.4472 -0.2931
  269MPD2    H5 4128   2.141   1.973  15.685  0.8693 -1.8722  0.7022
  269MPD2    N1 4129   2.226   1.491  15.655  1.2447  0.1160  0.7037
  269MPD2    H7 4130   2.256   1.403  15.615 -1.3245 -1.6098  2.6124
  270TMC3    C1 4131   2.133   1.342  15.805 -0.0032 -0.0040  0.1124
  270TMC3    C2 4132   2.017   1.281  15.777 -0.0002  0.2484  0.1773
  270TMC3    C3 4133   2.011   1.165  15.715 -0.1827  0.3773  0.6201
  270TMC3    C4 4134   2.252   1.277  15.775 -0.3124  1.0902 -0.0209
  270TMC3    C5 4135   2.244   1.150  15.730  0.5652 -0.1323 -0.5072
  270TMC3    C6 4136   2.128   1.093  15.694  0.2739  0.0651  0.3731
  270TMC3     C 4137   2.151   1.479  15.765 -0.4404  0.7176 -0.4190
  270TMC3     O 4138   2.088   1.565  15.823 -0.1569  0.3592 -0.5310
  270TMC3     H 4139   1.929   1.345  15.772 -0.5917 -0.4831  1.3166
  270TMC3    H1 4140   2.348   1.314  15.808  1.2014 -2.3168 -0.5841
  270TMC3    H2 4141   2.121   0.991  15.658 -0.9784  0.8384 -1.5779
  270TMC3    C7 4142   2.367   1.072  15.733  0.0698  0.1914  0.7845
  270TMC3    C8 4143   1.891   1.142  15.642  0.2886  0.1162 -0.8059
  270TMC3    O1 4144   2.457   1.104  15.815 -0.2222 -1.0336 -0.0489
  270TMC3    O2 4145   1.796   1.217  15.670 -0.1100 -0.2904  0.1559
  271MPD2     C 4146   1.282   1.538  14.193  0.0941 -0.1386 -0.0195
  271MPD2    C1 4147   1.221   1.416  14.179 -0.2658  0.1867  0.3052
  271MPD2    C2 4148   1.086   1.401  14.146 -0.1800 -0.6273  0.0529
  271MPD2    C3 4149   1.010   1.515  14.119  0.2146 -0.2172 -0.4670
  271MPD2    C4 4150   1.069   1.633  14.143  0.3969 -0.2170  0.6634
  271MPD2    C5 4151   1.199   1.649  14.184 -0.0787  0.3139 -0.1303
  271MPD2     H 4152   1.054   1.297  14.140 -0.9291 -0.2803 -2.0674
  271MPD2    H1 4153   1.010   1.724  14.152  0.7333  0.1294 -0.6029
  271MPD2    H2 4154   1.382   1.558  14.231  1.5707 -1.2128 -3.3590
  271MPD2    H3 4155   1.232   1.750  14.209  1.0124  0.1886 -1.0586
  271MPD2     N 4156   0.869   1.506  14.091  0.0403 -0.1036 -0.1638
  271MPD2    H5 4157   0.816   1.591  14.077  0.3377 -0.2211 -2.0662
  271MPD2    N1 4158   1.300   1.301  14.204 -0.2458  0.1227  0.2161
  271MPD2    H7 4159   1.252   1.212  14.196  0.6658 -0.4006  0.6017
  272TMC3    C1 4160   1.449   1.164  14.311  0.2754  0.1936  0.3142
  272TMC3    C2 4161   1.577   1.125  14.332  0.3801  0.1774  0.4352
  272TMC3    C3 4162   1.613   1.036  14.428 -0.6212  0.1777 -0.3491
  272TMC3    C4 4163   1.355   1.116  14.391  0.9695  0.5979 -0.2272
  272TMC3    C5 4164   1.392   1.044  14.504 -0.4596  0.0324 -0.1626
  272TMC3    C6 4165   1.520   0.999  14.521 -1.5575  0.2033 -0.8689
  272TMC3     C 4166   1.429   1.294  14.252 -0.8491  0.6767 -0.0131
  272TMC3     O 4167   1.521   1.370  14.258 -0.4536 -0.3465  0.3965
  272TMC3     H 4168   1.649   1.170  14.265  0.6642  0.3659  0.8670
  272TMC3    H1 4169   1.260   1.169  14.391 -0.7332 -2.4611  1.9393
  272TMC3    H2 4170   1.529   0.926  14.602  1.4928  1.6392  0.1114
  272TMC3    C7 4171   1.318   1.069  14.626  0.0180 -0.3073  0.0974
  272TMC3    C8 4172   1.760   1.023  14.453  0.5859  0.2730  0.1920
  272TMC3    O1 4173   1.199   1.097  14.619  0.7812 -0.1547  0.4956
  272TMC3    O2 4174   1.836   1.087  14.377  0.0983  0.0500  0.2122
  273MPD2     C 4175   3.146   0.121  12.208  0.5417  1.0601 -0.8184
  273MPD2    C1 4176   3.043   0.174  12.283 -0.8036  0.6804 -0.0692
  273MPD2    C2 4177   2.919   0.201  12.222  1.1768  0.1563 -0.1711
  273MPD2    C3 4178   2.912   0.200  12.079 -0.4127 -0.6454 -0.6351
  273MPD2    C4 4179   3.017   0.139  12.015  0.4129 -0.1771 -0.8059
  273MPD2    C5 4180   3.129   0.096  12.076  0.3241  0.8860 -0.3289
  273MPD2     H 4181   2.832   0.230  12.281  1.2373 -0.9674  0.4743
  273MPD2    H1 4182   3.012   0.126  11.908  1.0890  3.9279 -1.3376
  273MPD2    H2 4183   3.235   0.084  12.257  0.5178  1.3648 -0.5378
  273MPD2    H3 4184   3.210   0.055  12.016 -0.8466  1.0467 -2.0057
  273MPD2     N 4185   2.806   0.263  12.010 -0.4948  0.4987  0.2842
  273MPD2    H5 4186   2.737   0.314  12.066 -0.3291  0.3915  0.5877
  273MPD2    N1 4187   3.065   0.197  12.421 -0.1358  0.0750  0.3289
  273MPD2    H7 4188   3.156   0.163  12.448  0.3200  1.9463  1.1275
  274TMC3    C1 4189   2.673   0.359  11.837  0.0511  0.0480  0.1715
  274TMC3    C2 4190   2.627   0.344  11.708 -0.9277  0.1672  0.1268
  274TMC3    C3 4191   2.541   0.437  11.667 -0.2332 -0.2425 -1.0238
  274TMC3    C4 4192   2.654   0.466  11.918  0.2287  0.5985  0.0730
  274TMC3    C5 4193   2.579   0.563  11.869  0.3090  0.3397 -0.0404
  274TMC3    C6 4194   2.513   0.548  11.745 -0.4247  0.3306  0.4149
  274TMC3     C 4195   2.780   0.268  11.874 -0.4316  0.7619 -0.1177
  274TMC3     O 4196   2.827   0.199  11.786 -0.3767 -0.9509  0.1280
  274TMC3     H 4197   2.651   0.257  11.649 -0.5156  1.3277 -1.4168
  274TMC3    H1 4198   2.701   0.468  12.016 -0.1515 -0.1249  0.2680
  274TMC3    H2 4199   2.466   0.638  11.707  0.9227  1.0749  0.4813
  274TMC3    C7 4200   2.531   0.667  11.964  0.7504  0.3372 -0.0575
  274TMC3    C8 4201   2.446   0.417  11.552 -0.1884 -0.3417  0.6057
  274TMC3    O1 4202   2.432   0.732  11.925  0.1279 -0.0340 -0.1814
  274TMC3    O2 4203   2.353   0.497  11.545 -0.2158 -0.3770  0.3521
  275MPD2     C 4204   2.210   2.609  15.235 -0.4383 -0.4126  0.0179
  275MPD2    C1 4205   2.258   2.494  15.173 -0.3525 -0.3218 -0.6473
  275MPD2    C2 4206   2.175   2.431  15.084  0.4555 -0.8856 -0.5142
  275MPD2    C3 4207   2.046   2.477  15.061 -0.5542  0.5231 -0.5797
  275MPD2    C4 4208   2.002   2.592  15.128  0.1007 -0.1400  1.0101
  275MPD2    C5 4209   2.083   2.652  15.213 -0.6000  0.2593  0.4385
  275MPD2     H 4210   2.212   2.347  15.026  0.4145 -0.8469 -0.5958
  275MPD2    H1 4211   1.903   2.635  15.114  0.0723 -0.3340  0.6130
  275MPD2    H2 4212   2.269   2.664  15.308 -0.6346  1.2110 -1.0504
  275MPD2    H3 4213   2.043   2.736  15.269  0.3485  0.5296  0.7070
  275MPD2     N 4214   1.950   2.419  14.974 -0.2785 -0.4852  0.3295
  275MPD2    H5 4215   1.860   2.466  14.974  0.5014  1.0007  1.4793
  275MPD2    N1 4216   2.377   2.428  15.207 -0.0572  0.2849  0.3249
  275MPD2    H7 4217   2.395   2.334  15.173  4.1503  0.5497  1.8086
  276TMC3    C1 4218   2.615   2.426  15.262 -0.0860  0.5928 -0.4481
  276TMC3    C2 4219   2.649   2.365  15.144  0.3881  0.4504 -0.1542
  276TMC3    C3 4220   2.773   2.321  15.115  0.1570 -0.1543  0.6201
  276TMC3    C4 4221   2.718   2.462  15.350 -0.4708 -0.2957  0.4340
  276TMC3    C5 4222   2.841   2.413  15.318 -0.6378 -0.7158 -0.1570
  276TMC3    C6 4223   2.873   2.347  15.205 -0.1327 -0.6712  0.3082
  276TMC3     C 4224   2.478   2.489  15.284 -0.3596 -0.4438  0.2342
  276TMC3     O 4225   2.481   2.595  15.345  0.6730  0.4797  0.3040
  276TMC3     H 4226   2.576   2.363  15.063 -2.2829  0.8744  2.2394
  276TMC3    H1 4227   2.709   2.524  15.437 -0.3814 -0.8193  0.8168
  276TMC3    H2 4228   2.976   2.333  15.171  0.5109 -0.3233  2.1233
  276TMC3    C7 4229   2.948   2.478  15.384 -0.2148  0.0739  0.0783
  276TMC3    C8 4230   2.811   2.323  14.975 -0.3905  0.6712 -0.1156
  276TMC3    O1 4231   3.035   2.523  15.313 -0.3114  0.5711 -0.2142
  276TMC3    O2 4232   2.886   2.411  14.944 -0.4754 -0.2375 -0.2031
  277MPD2     C 4233   3.977   1.969  12.936 -0.7411  0.3806 -0.0366
  277MPD2    C1 4234   3.850   1.925  12.962  0.5567 -0.3355 -0.0467
  277MPD2    C2 4235   3.836   1.819  13.039  0.3827 -0.3118 -0.8319
  277MPD2    C3 4236   3.943   1.759  13.104 -0.0908  0.3411 -0.4188
  277MPD2    C4 4237   4.073   1.804  13.069 -0.3149  0.0815  0.0381
  277MPD2    C5 4238   4.089   1.904  12.971 -0.2688  0.4812  0.4041
  277MPD2     H 4239   3.740   1.775  13.064  0.8860 -0.0986  1.4533
  277MPD2    H1 4240   4.158   1.755  13.116 -1.0743  0.2351  1.5743
  277MPD2    H2 4241   3.984   2.054  12.870  2.9392  0.0655 -0.0253
  277MPD2    H3 4242   4.184   1.939  12.933  0.8907 -0.5334  2.3433
  277MPD2     N 4243   3.905   1.648  13.177 -0.4390  0.7606 -0.1223
  277MPD2    H5 4244   3.809   1.616  13.173  0.2854 -1.5102  0.3775
  277MPD2    N1 4245   3.747   1.999  12.900  0.2203  0.1814 -0.0945
  277MPD2    H7 4246   3.781   2.074  12.841  0.8682 -0.6806 -0.8012
  278TMC3    C1 4247   3.910   1.445  13.296  0.3334  0.2205 -0.4661
  278TMC3    C2 4248   3.980   1.326  13.323 -0.4062 -0.0671  0.0105
  278TMC3    C3 4249   3.913   1.214  13.370  0.3415 -0.9331 -0.2358
  278TMC3    C4 4250   3.781   1.465  13.337  0.1618 -1.0037  0.4594
  278TMC3    C5 4251   3.721   1.354  13.392 -0.3995 -0.6529 -0.1810
  278TMC3    C6 4252   3.781   1.227  13.400 -0.0009  0.2570 -0.4570
  278TMC3     C 4253   3.985   1.559  13.243  0.2407  0.1316 -0.3879
  278TMC3     O 4254   4.101   1.552  13.250 -0.5904 -0.7841 -0.0486
  278TMC3     H 4255   4.085   1.324  13.295 -0.6835  0.8119 -1.0972
  278TMC3    H1 4256   3.725   1.557  13.328 -1.2083 -2.0538 -1.5584
  278TMC3    H2 4257   3.717   1.146  13.432 -1.1109  1.6531  0.8030
  278TMC3    C7 4258   3.581   1.366  13.429  0.8745  0.4565 -0.4142
  278TMC3    C8 4259   3.994   1.092  13.389 -0.6366 -0.2426 -0.4171
  278TMC3    O1 4260   3.530   1.468  13.392 -0.4268  0.1425 -0.9677
  278TMC3    O2 4261   4.100   1.090  13.329 -0.6824  0.2365 -0.1073
  279MPD2     C 4262   3.622   0.541   0.109 -0.6761  0.9080 -0.2597
  279MPD2    C1 4263   3.541   0.648   0.112  0.5747  0.2950  0.3317
  279MPD2    C2 4264   3.532   0.734   0.009 -0.4726  0.1737 -0.5513
  279MPD2    C3 4265   3.614   0.711  17.645 -0.1924  0.7529 -0.2902
  279MPD2    C4 4266   3.703   0.604  17.641  0.9585  0.3066  0.3188
  279MPD2    C5 4267   3.699   0.516  17.745  0.3392  0.8289 -0.7024
  279MPD2     H 4268   3.453   0.808   0.006 -0.5949  0.0229 -1.0716
  279MPD2    H1 4269   3.773   0.582  17.562 -0.6836 -0.2500 -0.9893
  279MPD2    H2 4270   3.621   0.473   0.193 -1.5391  0.4811 -0.6137
  279MPD2    H3 4271   3.769   0.434   0.006  0.2601  0.8976  0.4310
  279MPD2     N 4272   3.617   0.789  17.528  0.0012 -0.0750  0.0607
  279MPD2    H5 4273   3.674   0.756  17.451 -1.7566 -1.2195 -0.7646
  279MPD2    N1 4274   3.458   0.672   0.226  0.0281 -0.2741  0.0676
  279MPD2    H7 4275   3.446   0.599   0.296  0.5227 -0.2546  0.1747
  280TMC3    C1 4276   3.293   0.795   0.348 -0.2083 -0.9587 -0.4957
  280TMC3    C2 4277   3.196   0.740   0.274 -0.4186  0.6702 -0.9761
  280TMC3    C3 4278   3.080   0.808   0.260  0.0413 -0.3934 -0.2244
  280TMC3    C4 4279   3.271   0.910   0.415  1.0638  0.1177 -0.6808
  280TMC3    C5 4280   3.148   0.968   0.410  0.4027 -0.0970  0.2432
  280TMC3    C6 4281   3.044   0.911   0.344 -0.1937  0.1553 -0.1525
  280TMC3     C 4282   3.412   0.798   0.262 -0.2467  0.4466 -0.3707
  280TMC3     O 4283   3.441   0.911   0.221 -0.1479  0.0396  0.1073
  280TMC3     H 4284   3.217   0.657   0.207 -1.5966 -0.3137 -0.1175
  280TMC3    H1 4285   3.359   0.959   0.455 -0.5146  0.5939  2.1695
  280TMC3    H2 4286   2.948   0.961   0.333 -0.5499  0.4153  4.0211
  280TMC3    C7 4287   3.150   1.111   0.444  0.0424 -0.3647 -0.1551
  280TMC3    C8 4288   2.975   0.723   0.219  0.1304 -0.4964 -0.1500
  280TMC3    O1 4289   3.238   1.144   0.522  0.0633 -0.0012  0.2494
  280TMC3    O2 4290   2.964   0.687   0.103  0.3747  0.2447 -0.3368
  281TMC3    C1 4291   2.264   1.742  13.644  0.2741 -0.4518  0.1486
  281TMC3    C2 4292   2.399   1.765  13.657  0.0265 -0.2186 -0.6153
  281TMC3    C3 4293   2.477   1.673  13.590 -0.1222 -0.3709 -0.1556
  281TMC3    C4 4294   2.207   1.632  13.592 -0.6634 -0.0662  0.6066
  281TMC3    C5 4295   2.289   1.540  13.530 -0.1973  0.2048  0.1387
  281TMC3    C6 4296   2.429   1.558  13.535  0.4558 -0.1764  1.2807
  281TMC3     C 4297   2.170   1.841  13.703 -0.2451  0.1554  0.4245
  281TMC3     O 4298   2.054   1.814  13.728  0.3897  0.3905 -0.1048
  281TMC3     H 4299   2.452   1.856  13.685 -0.3127  0.5263 -2.4149
  281TMC3    H1 4300   2.099   1.628  13.589 -0.7369  1.6604  0.8430
  281TMC3    H2 4301   2.496   1.484  13.493  0.8885  1.8433 -1.5534
  281TMC3    C7 4302   2.246   1.406  13.519  0.5859 -0.1278  0.7229
  281TMC3    C8 4303   2.624   1.681  13.582  0.0761  0.0059 -0.4110
  281TMC3    O1 4304   2.332   1.329  13.553  0.2059 -0.1639  0.7608
  281TMC3    O2 4305   2.682   1.572  13.601  0.0328  0.1000  0.8057
  282MPD2     C 4306   4.299   2.834  14.888 -0.1556 -0.3178 -0.9812
  282MPD2    C1 4307   4.225   2.921  14.963  0.8687  0.5028  0.6949
  282MPD2    C2 4308   4.144   3.017  14.902  0.4076  0.1746 -0.6236
  282MPD2    C3 4309   4.169   3.036  14.760  0.0049  0.3932  0.1852
  282MPD2    C4 4310   4.250   2.952  14.691 -0.0274 -0.8138  0.3730
  282MPD2    C5 4311   4.320   2.853  14.756  0.1327  0.6356  0.6044
  282MPD2     H 4312   4.064   3.071  14.952 -0.3360 -1.1313 -0.3823
  282MPD2    H1 4313   4.263   2.956  14.583 -2.7535  1.2495  0.1394
  282MPD2    H2 4314   4.357   2.758  14.939 -1.8392  1.4126  3.5084
  282MPD2    H3 4315   4.381   2.781  14.703 -1.8603 -0.8263  0.2916
  282MPD2     N 4316   4.097   3.146  14.694  0.1634  0.4983 -0.7472
  282MPD2    H5 4317   4.024   3.186  14.753 -0.7666  0.0824 -1.6060
  282MPD2    N1 4318   4.200   2.891  15.101 -0.1477 -0.0468  0.2426
  282MPD2    H7 4319   4.150   2.961  15.155 -1.5601 -0.8138 -0.0747
  283TMC3    C1 4320   4.233   2.799  15.324  0.0567 -0.2871  0.7764
  283TMC3    C2 4321   4.267   2.924  15.366  0.1324  0.2717  0.7609
  283TMC3    C3 4322   4.257   2.945  15.501 -0.8008 -1.0177  0.3138
  283TMC3    C4 4323   4.199   2.687  15.389 -0.5713 -0.1714  0.3348
  283TMC3    C5 4324   4.196   2.712  15.522  0.2382  0.2272  0.0937
  283TMC3    C6 4325   4.224   2.828  15.582  0.7076  0.9579 -0.4700
  283TMC3     C 4326   4.259   2.786  15.179 -0.5981 -0.1326  0.4157
  283TMC3     O 4327   4.336   2.703  15.143 -0.4381  0.2380 -0.2326
  283TMC3     H 4328   4.313   3.001  15.304 -0.0483  0.3871  0.7676
  283TMC3    H1 4329   4.188   2.596  15.332 -2.2711  0.9446 -1.1173
  283TMC3    H2 4330   4.206   2.846  15.687 -0.5727  1.0465 -0.7046
  283TMC3    C7 4331   4.106   2.625  15.594  0.6764  0.2953  0.0148
  283TMC3    C8 4332   4.282   3.063  15.575  0.4266 -0.2949  0.6231
  283TMC3    O1 4333   4.073   2.660  15.709  0.2260 -0.0512 -0.6800
  283TMC3    O2 4334   4.308   3.050  15.693 -0.6081  0.7989  0.3126
  284MPD2     C 4335   1.867   2.300  12.179 -0.1338  0.3235 -0.2861
  284MPD2    C1 4336   1.900   2.267  12.053 -0.3315 -0.4284  0.7999
  284MPD2    C2 4337   1.870   2.149  12.001  0.5463 -0.0063 -0.8194
  284MPD2    C3 4338   1.807   2.051  12.079 -0.2602  0.1605 -0.1079
  284MPD2    C4 4339   1.787   2.070  12.214 -0.6016  0.3231 -0.3188
  284MPD2    C5 4340   1.811   2.195  12.260 -0.1647 -0.3043 -0.1494
  284MPD2     H 4341   1.917   2.136  11.905 -0.1188 -2.2937 -0.8299
  284MPD2    H1 4342   1.753   1.990  12.279 -0.6950  0.7118  0.1097
  284MPD2    H2 4343   1.882   2.390  12.236 -2.1806 -0.1324  0.9764
  284MPD2    H3 4344   1.783   2.220  12.362  0.7311  0.4190 -0.0799
  284MPD2     N 4345   1.777   1.925  12.020 -0.0422  0.0356 -0.2363
  284MPD2    H5 4346   1.779   1.847  12.086  2.3000 -1.3490 -1.9513
  284MPD2    N1 4347   1.965   2.356  11.968 -0.0130 -0.3906 -0.3642
  284MPD2    H7 4348   1.983   2.319  11.875 -0.5539 -1.6619  0.0399
  285TMC3    C1 4349   2.059   2.551  11.863  0.0324 -0.5496 -0.4106
  285TMC3    C2 4350   2.035   2.499  11.740 -0.4414  0.5265  0.0087
  285TMC3    C3 4351   2.099   2.555  11.627 -0.3112  0.6081 -0.0340
  285TMC3    C4 4352   2.147   2.653  11.878  0.2485 -0.1338  0.2685
  285TMC3    C5 4353   2.210   2.704  11.769  0.6172 -1.2576  0.4498
  285TMC3    C6 4354   2.193   2.653  11.639 -0.7876  0.2383  0.1605
  285TMC3     C 4355   2.001   2.488  11.986  0.0024  0.4603 -0.4235
  285TMC3     O 4356   2.006   2.556  12.089 -0.1933  0.1317  0.1330
  285TMC3     H 4357   1.958   2.424  11.730  0.1441 -0.3654  2.1752
  285TMC3    H1 4358   2.167   2.699  11.975  0.7897  1.4947 -0.6256
  285TMC3    H2 4359   2.259   2.689  11.561 -0.1635  0.7204  0.9096
  285TMC3    C7 4360   2.292   2.824  11.794 -0.1591 -0.0575  0.8091
  285TMC3    C8 4361   2.084   2.480  11.502  1.0773  0.0058  0.2354
  285TMC3    O1 4362   2.252   2.905  11.875 -0.7608  0.3473 -0.1049
  285TMC3    O2 4363   2.054   2.363  11.521 -0.0804 -0.6501 -0.4332
  286MPD2     C 4364   2.563   1.041   1.736 -0.7799  0.1903  0.5593
  286MPD2    C1 4365   2.496   1.013   1.617  0.1463 -0.3146 -0.1890
  286MPD2    C2 4366   2.530   0.890   1.558  0.6771 -0.4653  0.0045
  286MPD2    C3 4367   2.616   0.802   1.621 -0.8706  0.0041  0.0873
  286MPD2    C4 4368   2.668   0.829   1.750 -0.8139  0.2677 -0.6551
  286MPD2    C5 4369   2.646   0.955   1.799  0.3526  0.7693 -0.4916
  286MPD2     H 4370   2.501   0.873   1.455 -0.0892 -1.8624  0.4500
  286MPD2    H1 4371   2.735   0.760   1.800  1.1983  0.5789 -2.9067
  286MPD2    H2 4372   2.550   1.140   1.779  1.1904  0.5205  0.4177
  286MPD2    H3 4373   2.694   0.986   1.891 -0.4674  2.5117 -0.6497
  286MPD2     N 4374   2.658   0.680   1.568 -0.8534 -0.3354  0.1744
  286MPD2    H5 4375   2.719   0.620   1.623 -1.4182 -0.3037  0.8356
  286MPD2    N1 4376   2.412   1.097   1.542 -0.2869 -0.3409 -0.5843
  286MPD2    H7 4377   2.389   1.064   1.449  0.4688 -2.0224 -0.1628
  287TMC3    C1 4378   2.696   0.520   1.402  0.4148  0.3041 -0.0176
  287TMC3    C2 4379   2.650   0.441   1.293  0.6614 -0.2862  0.2975
  287TMC3    C3 4380   2.733   0.344   1.237  0.1907  0.2416 -0.2994
  287TMC3    C4 4381   2.829   0.502   1.440 -0.3336  0.4444  0.1335
  287TMC3    C5 4382   2.901   0.397   1.389  0.6546 -0.0070 -0.0396
  287TMC3    C6 4383   2.864   0.313   1.284 -0.2525  0.5657  0.1444
  287TMC3     C 4384   2.620   0.636   1.442  0.3980 -0.1414  0.4633
  287TMC3     O 4385   2.560   0.695   1.349  0.4951 -0.2995  0.2119
  287TMC3     H 4386   2.549   0.465   1.261  0.2397 -0.4510  1.4913
  287TMC3    H1 4387   2.870   0.576   1.507 -0.1162 -0.6055  1.1464
  287TMC3    H2 4388   2.921   0.232   1.238 -0.9970 -0.3936  0.8999
  287TMC3    C7 4389   3.046   0.401   1.427 -0.2644 -0.2348 -0.2455
  287TMC3    C8 4390   2.680   0.281   1.113 -0.1987  0.0104 -0.0742
  287TMC3    O1 4391   3.071   0.456   1.537 -0.0543  0.2746 -0.0296
  287TMC3    O2 4392   2.759   0.198   1.068 -0.2106 -0.5495 -0.1106
  288TMC3    C1 4393   0.130   0.812  14.440 -0.4571 -0.0950 -0.8026
  288TMC3    C2 4394   0.011   0.776  14.506  0.4324  0.7358 -0.6913
  288TMC3    C3 4395   4.633   0.841  14.477 -0.3061  0.3634 -0.1251
  288TMC3    C4 4396   0.135   0.911  14.343  0.5883  0.0619  0.1607
  288TMC3    C5 4397   0.012   0.970  14.314 -0.5873  0.0961 -0.0996
  288TMC3    C6 4398   4.632   0.944  14.382  0.0087  0.2365 -0.5895
  288TMC3     C 4399   0.247   0.735  14.475  0.5939 -0.0406 -0.3811
  288TMC3     O 4400   0.229   0.642  14.555  0.0386 -0.1101 -0.2263
  288TMC3     H 4401   0.012   0.693  14.575 -0.2751  2.5138  1.4371
  288TMC3    H1 4402   0.229   0.942  14.299  1.4418 -0.7971  1.3687
  288TMC3    H2 4403   4.539   0.996  14.360 -0.7371 -0.4023  0.9772
  288TMC3    C7 4404   0.015   1.091  14.234 -0.3435 -0.5440  0.5045
  288TMC3    C8 4405   4.534   0.852  14.583  0.2329 -0.5785 -0.0716
  288TMC3    O1 4406   4.653   1.129  14.171  0.2782  0.0777 -0.1093
  288TMC3    O2 4407   4.493   0.968  14.608 -0.4458 -0.6731 -0.0985
  289MPD2     C 4408   4.570   4.400  14.392 -0.6597  0.5311  0.1419
  289MPD2    C1 4409   4.524   4.529  14.363  0.3709  0.5676 -0.0722
  289MPD2    C2 4410   4.415   4.540  14.277  0.8330  0.7028 -0.5740
  289MPD2    C3 4411   4.358   4.430  14.212  0.5246 -0.3240  0.2538
  289MPD2    C4 4412   4.421   4.306  14.238 -0.1689  0.6826  0.6686
  289MPD2    C5 4413   4.519   4.291  14.329 -0.2595  0.0772  0.5178
  289MPD2     H 4414   4.381   4.641  14.256 -1.5142  0.2323  1.0710
  289MPD2    H1 4415   4.383   4.215  14.192  1.0677  0.5401 -0.0909
  289MPD2    H2 4416   4.646   4.373  14.465 -0.0057  2.5673  0.2287
  289MPD2    H3 4417   4.544   4.189  14.355 -0.6267 -0.5238 -1.4560
  289MPD2     N 4418   4.253   4.438  14.119  0.5478 -0.5676  0.3109
  289MPD2    H5 4419   4.241   4.364  14.050 -1.3074 -0.5949  0.6789
  289MPD2    N1 4420   4.585   4.640  14.420 -0.1008  0.2619  0.3065
  289MPD2    H7 4421   4.664   4.623  14.481  0.3735  2.8106  0.4240
  290TMC3    C1 4422   4.066   4.534  14.000 -0.9524  0.4155 -0.0603
  290TMC3    C2 4423   3.996   4.649  13.981 -0.1923 -0.5544 -0.7593
  290TMC3    C3 4424   3.862   4.641  13.951 -1.0263 -1.5367  0.6183
  290TMC3    C4 4425   4.017   4.411  13.978  0.2550 -0.0635 -0.2959
  290TMC3    C5 4426   3.887   4.402  13.943 -0.2773  1.2277 -0.0356
  290TMC3    C6 4427   3.806   4.516  13.934 -0.2622 -0.0465  1.2823
  290TMC3     C 4428   4.163   4.540  14.111 -0.3586  0.6865 -0.3971
  290TMC3     O 4429   4.155   4.629  14.196  0.0389  0.0879  0.8915
  290TMC3     H 4430   4.042   0.003  14.017  0.6165 -2.1830  2.3403
  290TMC3    H1 4431   4.081   4.326  13.995  1.7672  1.2394  0.5974
  290TMC3    H2 4432   3.706   4.515  13.892  1.3501 -1.3707 -2.5600
  290TMC3    C7 4433   3.826   4.279  13.903  0.1396  0.1960  0.0503
  290TMC3    C8 4434   3.770   0.016  13.949 -0.0778 -0.0319  0.4158
  290TMC3    O1 4435   3.712   4.293  13.873  0.6915  0.7310 -0.2268
  290TMC3    O2 4436   3.646   4.733  13.957  0.3448 -0.2274  0.2500
  291MPD2     C 4437   3.719   0.061  17.485  1.0032  0.2693  0.2767
  291MPD2    C1 4438   3.801   4.717  17.563 -0.5807  0.5994  0.6172
  291MPD2    C2 4439   3.904   0.038  17.630  0.3030  0.0808  0.7070
  291MPD2    C3 4440   3.933   0.173  17.607 -0.1712 -0.3029 -0.1417
  291MPD2    C4 4441   3.859   0.249  17.522 -1.1009  0.2296  0.1486
  291MPD2    C5 4442   3.748   0.195  17.470 -0.7911  0.1162  0.1937
  291MPD2     H 4443   3.972   4.712  17.684  1.4698  2.8234  2.4639
  291MPD2    H1 4444   3.883   0.353  17.504 -0.6412  0.0385 -0.3443
  291MPD2    H2 4445   3.622   0.028  17.451  1.3729  0.1210 -0.6231
  291MPD2    H3 4446   3.676   0.250  17.410 -1.1450 -1.4162 -0.7848
  291MPD2     N 4447   4.026   0.245  17.691  0.2685 -0.0914  0.2595
  291MPD2    H5 4448   4.034   0.343  17.664 -0.2235 -0.2010 -0.2699
  291MPD2    N1 4449   3.772   4.579  17.590 -0.0126  0.1089 -0.2562
  291MPD2    H7 4450   3.837   4.529  17.650  0.4163  2.3956  1.1818
  292TMC3    C1 4451   3.668   4.371  17.609  0.4594 -0.2053  0.3348
  292TMC3    C2 4452   3.726   4.365  17.737 -0.0613 -0.6601 -0.1562
  292TMC3    C3 4453   3.770   4.242   0.020 -0.0765 -0.4513  0.3048
  292TMC3    C4 4454   3.630   4.261  17.534  0.0390 -0.4010  0.5250
  292TMC3    C5 4455   3.658   4.137  17.587  0.1465 -0.3281 -0.6508
  292TMC3    C6 4456   3.743   4.128  17.694  0.7402  0.0644 -0.0319
  292TMC3     C 4457   3.664   4.503  17.544 -0.5520  0.2319  0.2617
  292TMC3     O 4458   3.569   4.529  17.470 -0.0491 -0.2432  0.3465
  292TMC3     H 4459   3.746   4.449   0.053 -1.9522 -1.2511  1.1947
  292TMC3    H1 4460   3.577   4.269  17.440 -0.9179 -0.5081  1.0555
  292TMC3    H2 4461   3.778   4.029  17.721  1.8008 -0.3090 -2.7824
  292TMC3    C7 4462   3.632   4.019  17.513 -0.5791 -0.0960 -0.2432
  292TMC3    C8 4463   3.828   4.222   0.151  0.4847 -0.2130  0.0552
  292TMC3    O1 4464   3.715   3.931  17.517 -0.2760 -0.6665 -0.2120
  292TMC3    O2 4465   3.868   4.325   0.208  0.0656  0.0688 -0.5329
  293MPD2     C 4466   0.925   0.591  12.635 -0.5453  0.2800  0.2990
  293MPD2    C1 4467   0.813   0.576  12.714 -0.9420  0.6075  0.3348
  293MPD2    C2 4468   0.789   0.656  12.823 -0.5662 -0.8621  0.0364
  293MPD2    C3 4469   0.873   0.761  12.851 -0.7733  0.0204  0.7399
  293MPD2    C4 4470   0.973   0.787  12.759 -0.4757  0.1669  0.0347
  293MPD2    C5 4471   1.002   0.699  12.657  0.1147  0.6303 -0.0683
  293MPD2     H 4472   0.702   0.640  12.885 -1.5585 -0.3103 -1.2074
  293MPD2    H1 4473   1.046   0.867  12.770 -2.1785  1.8247 -0.6414
  293MPD2    H2 4474   0.947   0.531  12.548 -0.6329  1.7780 -0.7698
  293MPD2    H3 4475   1.095   0.725  12.607  0.6853 -1.5776 -0.1403
  293MPD2     N 4476   0.853   0.840  12.967  0.1925 -0.4166  0.3080
  293MPD2    H5 4477   0.796   0.803  13.042 -0.5093  2.5119  1.2171
  293MPD2    N1 4478   0.713   0.490  12.661 -0.7393  0.2056  0.9848
  293MPD2    H7 4479   0.740   0.434  12.580  1.2076  0.5843  1.3948
  294TMC3    C1 4480   0.491   0.414  12.606 -0.6603  0.0776 -0.2389
  294TMC3    C2 4481   0.360   0.410  12.633 -0.0285 -0.1310  0.2168
  294TMC3    C3 4482   0.268   0.413  12.530 -0.4022  0.7772 -0.3837
  294TMC3    C4 4483   0.531   0.419  12.466 -0.0698  0.2588  0.9294
  294TMC3    C5 4484   0.438   0.412  12.368  0.0774  0.4732 -0.5556
  294TMC3    C6 4485   0.306   0.422  12.400 -0.4013  0.0908 -0.6517
  294TMC3     C 4486   0.586   0.459  12.708  0.0362 -0.0216 -0.5482
  294TMC3     O 4487   0.546   0.466  12.825 -0.5566 -0.1353  0.0489
  294TMC3     H 4488   0.335   0.415  12.739 -0.3407  1.0678  0.0932
  294TMC3    H1 4489   0.633   0.400  12.434  0.5791  1.3396  2.3749
  294TMC3    H2 4490   0.238   0.449  12.320 -0.9196  1.1170  0.1295
  294TMC3    C7 4491   0.467   0.488  12.246  0.7140 -0.3936  0.1882
  294TMC3    C8 4492   0.132   0.444  12.567 -0.7393  0.5008  0.5382
  294TMC3    O1 4493   0.438   0.443  12.136 -0.6464 -0.1039 -0.1145
  294TMC3    O2 4494   0.110   0.488  12.679 -0.3838  0.0629  0.2304
  295MPD2     C 4495   1.351   4.603   1.138  0.2791  0.2935  0.5306
  295MPD2    C1 4496   1.327   4.712   1.055  0.6321 -0.4368 -0.1141
  295MPD2    C2 4497   1.222   0.057   1.090  0.7097 -0.3056 -0.6217
  295MPD2    C3 4498   1.125   0.019   1.184 -0.4271 -0.2448 -0.2174
  295MPD2    C4 4499   1.142   4.632   1.245 -0.1490 -0.1770  0.0476
  295MPD2    C5 4500   1.254   4.555   1.228 -0.2272  0.7692  0.5439
  295MPD2     H 4501   1.208   0.141   1.022 -0.6732 -1.2459 -1.5093
  295MPD2    H1 4502   1.064   4.613   1.318 -1.2997  1.1339 -0.8238
  295MPD2    H2 4503   1.437   4.538   1.128 -0.4198 -0.3914 -1.0662
  295MPD2    H3 4504   1.254   4.458   1.276  2.3251  0.8699  0.7405
  295MPD2     N 4505   0.994   0.090   1.199  0.0786 -0.1168 -0.2112
  295MPD2    H5 4506   0.922   0.040   1.251 -0.0657 -1.2510 -1.4873
  295MPD2    N1 4507   1.413   0.010   0.947 -0.0284 -0.0454  0.3150
  295MPD2    H7 4508   1.386   0.095   0.899 -2.3935 -0.5717  0.7267
  296TMC3    C1 4509   0.834   0.268   1.175 -0.8936  0.1116  0.5095
  296TMC3    C2 4510   0.815   0.403   1.170 -0.1032 -1.1635  0.2288
  296TMC3    C3 4511   0.682   0.447   1.172 -0.3765  0.8399  0.6514
  296TMC3    C4 4512   0.729   0.178   1.171  0.7602  0.0481  0.0696
  296TMC3    C5 4513   0.599   0.230   1.163  0.0294  0.3399 -0.0831
  296TMC3    C6 4514   0.572   0.363   1.167  0.6388  0.0481 -0.6139
  296TMC3     C 4515   0.976   0.225   1.174 -0.0139  0.3907 -0.4084
  296TMC3     O 4516   1.059   0.307   1.131 -0.6344 -0.7397 -0.0437
  296TMC3     H 4517   0.902   0.466   1.162 -0.1334 -1.4136 -1.9113
  296TMC3    H1 4518   0.747   0.071   1.168  1.3174  0.1956 -1.8935
  296TMC3    H2 4519   0.470   0.398   1.168  0.6937  0.1617  0.3372
  296TMC3    C7 4520   0.488   0.137   1.170  0.0852 -0.0254  0.1630
  296TMC3    C8 4521   0.656   0.589   1.190  0.7101 -0.1540 -0.8793
  296TMC3    O1 4522   0.381   0.187   1.190 -0.3278 -0.1462 -0.2797
  296TMC3    O2 4523   0.548   0.632   1.150  0.1047  0.1743 -0.1697
  297MPD2     C 4524   3.423   1.436  16.408 -0.5746  0.5216 -0.1229
  297MPD2    C1 4525   3.361   1.504  16.308 -0.7071  0.6038  1.1352
  297MPD2    C2 4526   3.421   1.624  16.262  0.2809 -0.4465 -0.4348
  297MPD2    C3 4527   3.543   1.671  16.315  0.5062  0.1293  1.2659
  297MPD2    C4 4528   3.599   1.603  16.419  0.5000 -0.3751 -0.0522
  297MPD2    C5 4529   3.538   1.488  16.459 -0.3100  0.0210 -0.2781
  297MPD2     H 4530   3.369   1.687  16.190  0.8479  1.4084  0.7712
  297MPD2    H1 4531   3.684   1.632  16.480  0.3400  0.2995 -0.1528
  297MPD2    H2 4532   3.383   1.343  16.448  0.3389  0.3861  0.4770
  297MPD2    H3 4533   3.593   1.425  16.529 -0.9559  0.1410  0.3388
  297MPD2     N 4534   3.599   1.790  16.263  0.3677  0.9846  0.0783
  297MPD2    H5 4535   3.551   1.840  16.189 -0.8547  1.3526  1.1227
  297MPD2    N1 4536   3.236   1.476  16.250 -0.0538 -0.5683 -0.3650
  297MPD2    H7 4537   3.210   1.534  16.171 -0.7682  0.3411  0.5329
  298TMC3    C1 4538   3.025   1.384  16.222 -0.1983 -0.1744 -0.5457
  298TMC3    C2 4539   3.037   1.416  16.094  0.3873  0.2760 -0.0427
  298TMC3    C3 4540   2.925   1.455  16.017  0.2405 -0.6913 -0.5146
  298TMC3    C4 4541   2.909   1.393  16.291  0.1476  0.0459 -0.0697
  298TMC3    C5 4542   2.798   1.439  16.216  0.1873  0.5089 -0.3697
  298TMC3    C6 4543   2.804   1.463  16.082 -0.4231 -0.5179  0.1647
  298TMC3     C 4544   3.142   1.391  16.305 -0.7638  0.0635  0.1404
  298TMC3     O 4545   3.144   1.330  16.409  0.0409  0.1554 -0.6082
  298TMC3     H 4546   3.131   1.401  16.042  1.6565  0.9991  2.0721
  298TMC3    H1 4547   2.901   1.402  16.399 -0.4545  0.3330 -0.1368
  298TMC3    H2 4548   2.711   1.475  16.029  0.7903  0.6751 -1.6911
  298TMC3    C7 4549   2.760   1.566  16.272  0.0996 -0.4922  0.7584
  298TMC3    C8 4550   2.937   1.543  15.904 -0.4081  0.1506  0.4536
  298TMC3    O1 4551   2.739   1.572  16.391  0.2620 -0.2898 -0.1911
  298TMC3    O2 4552   2.866   1.641  15.914  0.3438 -0.1418 -0.0896
  299MPD2     C 4553   2.912   1.784  11.127 -0.0700  0.3559 -0.1232
  299MPD2    C1 4554   2.948   1.894  11.054  0.1251  0.3860 -0.0398
  299MPD2    C2 4555   2.898   1.905  10.923  0.1274 -0.0050 -0.0756
  299MPD2    C3 4556   2.825   1.805  10.865 -0.7768 -0.7039  0.3121
  299MPD2    C4 4557   2.785   1.699  10.945 -0.5052 -0.1363  0.0013
  299MPD2    C5 4558   2.828   1.689  11.075 -0.0272  0.4169  0.4983
  299MPD2     H 4559   2.925   1.995  10.869 -0.8297  0.2773 -0.0835
  299MPD2    H1 4560   2.712   1.624  10.915 -1.1379  1.8506 -3.4555
  299MPD2    H2 4561   2.934   1.772  11.233 -0.9208  0.4580  0.0592
  299MPD2    H3 4562   2.794   1.607  11.137  2.3900 -1.1908 -0.3110
  299MPD2     N 4563   2.755   1.818  10.740  0.0637 -0.4080 -0.5144
  299MPD2    H5 4564   2.709   1.730  10.716 -0.3152 -0.0263 -1.1818
  299MPD2    N1 4565   3.020   2.005  11.119 -0.1205 -0.3475 -0.2075
  299MPD2    H7 4566   3.039   1.984  11.217 -0.0417 -0.3691 -0.2271
  300TMC3    C1 4567   2.694   1.902  10.528  0.0170  0.2937  0.1741
  300TMC3    C2 4568   2.678   2.018  10.452  0.1777 -0.2273 -0.3076
  300TMC3    C3 4569   2.563   2.028  10.374  0.0457 -0.4748 -0.5610
  300TMC3    C4 4570   2.590   1.811  10.529 -0.4952 -0.0398  0.2360
  300TMC3    C5 4571   2.476   1.830  10.458 -0.3304 -0.1303 -0.1506
  300TMC3    C6 4572   2.461   1.941  10.377 -0.4167  0.1185 -0.3417
  300TMC3     C 4573   2.768   1.921  10.650 -0.6744 -0.2097 -0.3730
  300TMC3     O 4574   2.820   2.030  10.659 -1.0494  0.7799  0.1663
  300TMC3     H 4575   2.764   2.083  10.441 -0.5853  1.1579  1.9876
  300TMC3    H1 4576   2.602   1.725  10.594 -0.5945 -1.4018 -1.5286
  300TMC3    H2 4577   2.367   1.970  10.331 -2.3388  0.7759  4.0100
  300TMC3    C7 4578   2.349   1.804  10.530 -0.8496  0.4207  0.5110
  300TMC3    C8 4579   2.542   2.158  10.312 -0.5368  0.4054  0.2564
  300TMC3    O1 4580   2.273   1.901  10.549  0.2390 -0.3055  0.7441
  300TMC3    O2 4581   2.633   2.239  10.326 -0.7123 -0.2036  0.0098
  301MPD2     C 4582   1.225   2.847   1.143  0.1349  0.0635  0.2645
  301MPD2    C1 4583   1.112   2.772   1.158  0.9029 -0.5303 -0.6925
  301MPD2    C2 4584   1.108   2.639   1.116 -0.1621  0.2599 -0.0046
  301MPD2    C3 4585   1.211   2.592   1.037  0.9622  0.2079 -1.0241
  301MPD2    C4 4586   1.325   2.665   1.025 -0.1974  0.4682 -0.3130
  301MPD2    C5 4587   1.329   2.795   1.075  0.3489 -0.7286  0.0451
  301MPD2     H 4588   1.017   2.584   1.139 -0.2039 -0.1667 -1.1855
  301MPD2    H1 4589   1.415   2.638   0.971 -0.1391 -1.3080  0.7009
  301MPD2    H2 4590   1.228   2.952   1.168  0.6748 -0.4676  2.4860
  301MPD2    H3 4591   1.413   2.857   1.046 -0.1315  0.4212  1.0897
  301MPD2     N 4592   1.205   2.461   0.979  0.2039 -0.3803  0.0414
  301MPD2    H5 4593   1.279   2.438   0.914 -0.6331 -1.3920 -0.5737
  301MPD2    N1 4594   0.989   2.818   1.212 -0.4815 -0.2247  0.2210
  301MPD2    H7 4595   0.913   2.752   1.201 -0.2708 -0.5574  0.8061
  302TMC3    C1 4596   1.126   2.248   0.930  0.1798 -0.2116  0.2849
  302TMC3    C2 4597   1.134   2.120   0.983  0.4916  0.3611 -0.3681
  302TMC3    C3 4598   1.164   2.012   0.904 -0.2056 -0.1722 -0.2266
  302TMC3    C4 4599   1.124   2.259   0.791 -0.4579  0.6574  0.7447
  302TMC3    C5 4600   1.137   2.148   0.713 -0.2129  0.0942 -0.6288
  302TMC3    C6 4601   1.174   2.026   0.765 -0.0852  0.4402  0.3329
  302TMC3     C 4602   1.113   2.366   1.014  0.8423 -0.2103 -0.2483
  302TMC3     O 4603   1.048   2.351   1.116 -0.2132  0.1773  0.2832
  302TMC3     H 4604   1.112   2.097   1.087 -2.7146  0.9555 -0.9004
  302TMC3    H1 4605   1.095   2.353   0.745  0.8183  1.1087  0.8808
  302TMC3    H2 4606   1.169   1.930   0.716 -1.1320 -0.3486  1.9821
  302TMC3    C7 4607   1.078   2.143   0.581 -0.3814 -0.1847  0.1488
  302TMC3    C8 4608   1.143   1.881   0.954 -0.2468 -0.3362 -0.0317
  302TMC3    O1 4609   1.126   2.072   0.497 -1.0620 -0.0806  0.3145
  302TMC3    O2 4610   1.222   1.797   0.915 -0.0988  0.1815 -0.2861
  303MPD2     C 4611   0.507   1.110  11.648 -0.3615 -0.0052  0.0655
  303MPD2    C1 4612   0.439   1.011  11.589 -0.4731 -0.0519  0.3517
  303MPD2    C2 4613   0.408   1.031  11.451  0.2840 -0.0352 -0.2949
  303MPD2    C3 4614   0.447   1.143  11.378 -0.2776  0.0885 -0.7919
  303MPD2    C4 4615   0.514   1.245  11.448 -0.0459 -0.3530  0.0408
  303MPD2    C5 4616   0.547   1.224  11.577 -0.1207  1.0045  0.0614
  303MPD2     H 4617   0.349   0.958  11.395  1.3524 -0.6682 -0.6032
  303MPD2    H1 4618   0.556   1.326  11.389  0.5253 -1.9549 -1.7360
  303MPD2    H2 4619   0.537   1.103  11.752  3.0367  1.4032 -0.8337
  303MPD2    H3 4620   0.617   1.291  11.625  1.2285 -1.9678  2.2643
  303MPD2     N 4621   0.432   1.148  11.237 -0.0177 -0.0173 -0.3199
  303MPD2    H5 4622   0.470   1.232  11.194  0.2860  0.4927  0.9275
  303MPD2    N1 4623   0.396   0.901  11.665 -0.2772  0.1213  0.1517
  303MPD2    H7 4624   0.427   0.902  11.762  2.3904 -1.5238 -0.6906
  304TMC3    C1 4625   0.288   0.698  11.708  0.3737  0.0640  1.4138
  304TMC3    C2 4626   0.169   0.636  11.697 -0.0000 -0.0683  0.3758
  304TMC3    C3 4627   0.156   0.506  11.729 -0.0054 -0.8971 -0.0957
  304TMC3    C4 4628   0.390   0.629  11.772 -0.5376 -0.0237  0.2913
  304TMC3    C5 4629   0.381   0.496  11.811  0.1905  0.1385  0.1067
  304TMC3    C6 4630   0.258   0.438  11.786  0.1668 -0.0396 -0.0167
  304TMC3     C 4631   0.316   0.802  11.613  0.2146 -0.8094 -0.3091
  304TMC3     O 4632   0.269   0.786  11.505 -0.2413 -0.2296 -0.0876
  304TMC3     H 4633   0.104   0.687  11.626  0.4050  2.8190  2.0901
  304TMC3    H1 4634   0.487   0.676  11.755 -0.3145 -0.5851  0.0080
  304TMC3    H2 4635   0.232   0.339  11.822 -3.3117  1.0970  0.6337
  304TMC3    C7 4636   0.490   0.412  11.768  0.1280  0.2318 -0.2490
  304TMC3    C8 4637   0.089   0.420  11.633 -0.5796 -0.5734 -0.9094
  304TMC3    O1 4638   0.604   0.455  11.771  0.0009 -0.2401  0.2932
  304TMC3    O2 4639   0.146   0.311  11.621 -0.3551  0.0882  0.0608
  305MPD2     C 4640   4.350   3.324  13.757  0.3167  0.1893  0.0595
  305MPD2    C1 4641   4.437   3.218  13.739 -0.0137 -0.0417 -0.3583
  305MPD2    C2 4642   4.460   3.166  13.610  0.3234  0.5776 -0.5004
  305MPD2    C3 4643   4.390   3.215  13.503  0.2706  0.2494  0.1717
  305MPD2    C4 4644   4.299   3.317  13.526 -0.8300 -0.7150 -0.7453
  305MPD2    C5 4645   4.285   3.370  13.649 -0.1107 -0.1668  0.0131
  305MPD2     H 4646   4.525   3.080  13.599 -2.2111 -1.3694 -0.5028
  305MPD2    H1 4647   4.241   3.357  13.443 -0.3704  2.1372  0.3468
  305MPD2    H2 4648   4.315   3.369  13.849 -0.9757  2.6896 -1.6402
  305MPD2    H3 4649   4.211   3.448  13.653  0.6765  0.5354  0.8131
  305MPD2     N 4650   4.393   3.162  13.374 -0.7281 -0.1739  0.1285
  305MPD2    H5 4651   4.321   3.192  13.310 -2.3422  1.9039  2.9506
  305MPD2    N1 4652   4.500   3.165  13.856  0.2418  0.2104 -0.3799
  305MPD2    H7 4653   4.484   3.215  13.943 -0.5013 -1.0751  0.2099
  306TMC3    C1 4654   4.661   3.037  13.985  0.1711 -0.1324  0.6269
  306TMC3    C2 4655   0.052   2.993  13.989 -0.1525 -0.1497 -0.6340
  306TMC3    C3 4656   0.112   2.965  14.108 -0.5759  0.5153 -0.2555
  306TMC3    C4 4657   4.596   3.075  14.105  0.1429 -0.3048  0.5897
  306TMC3    C5 4658   4.667   3.064  14.221 -0.4250  0.4270 -0.2322
  306TMC3    C6 4659   0.057   3.011  14.227  0.0620  0.5115  0.5906
  306TMC3     C 4660   4.607   3.080  13.857  0.2337 -0.3375  0.6449
  306TMC3     O 4661   4.683   3.055  13.762  0.1117  0.1642  0.4016
  306TMC3     H 4662   0.105   2.957  13.902  0.6614 -2.2270  0.7473
  306TMC3    H1 4663   4.496   3.118  14.105  0.6559  0.8969  0.2307
  306TMC3    H2 4664   0.088   2.966  14.320 -0.5968 -1.2742 -0.0532
  306TMC3    C7 4665   4.595   3.118  14.333 -0.7717  0.6176 -0.8478
  306TMC3    C8 4666   0.251   2.929  14.110 -0.4582  0.3188 -0.2637
  306TMC3    O1 4667   4.476   3.135  14.317  0.0489 -0.3136  0.2164
  306TMC3    O2 4668   0.284   2.857  14.014 -0.1173  0.0424  0.0386
  307MPD2     C 4669   1.933   0.774   0.029  0.5508  0.5855  0.2916
  307MPD2    C1 4670   1.933   0.903   0.072 -0.2695 -0.2014  0.5465
  307MPD2    C2 4671   1.927   0.929   0.208  0.1509  0.5277  0.0684
  307MPD2    C3 4672   1.918   0.828   0.301  0.0580 -0.3373 -0.1568
  307MPD2    C4 4673   1.916   0.700   0.251 -0.2214  0.2805 -0.5132
  307MPD2    C5 4674   1.934   0.669   0.120  1.0670  0.0981 -0.2851
  307MPD2     H 4675   1.931   1.030   0.247 -0.1033 -0.3615  2.3964
  307MPD2    H1 4676   1.901   0.617   0.318  1.5956 -0.3498 -0.9135
  307MPD2    H2 4677   1.929   0.746  17.673 -1.2385  0.1189  0.4888
  307MPD2    H3 4678   1.929   0.568   0.081 -1.5756 -1.2961  3.6852
  307MPD2     N 4679   1.885   0.867   0.431 -0.1277  0.5518  0.5132
  307MPD2    H5 4680   1.897   0.966   0.450 -3.0528  0.5769  2.1679
  307MPD2    N1 4681   1.924   1.009  17.724  0.0350 -0.1178  0.0528
  307MPD2    H7 4682   1.925   1.106   0.004  0.8151  0.2457 -1.2224
  308TMC3    C1 4683   1.570   0.992   0.684 -0.6241  0.2031 -0.9809
  308TMC3    C2 4684   1.636   1.104   0.730 -0.4365  0.5410  0.4221
  308TMC3    C3 4685   1.769   1.100   0.717 -0.0175  0.5197  0.5343
  308TMC3    C4 4686   1.630   0.880   0.630 -0.3169 -0.1011  1.0227
  308TMC3    C5 4687   1.763   0.883   0.627  0.1328  0.6971 -0.2487
  308TMC3    C6 4688   1.836   0.994   0.669  0.4813 -0.2859  0.4346
  308TMC3     C 4689   1.428   0.984   0.668 -0.1530  0.2001  0.4662
  308TMC3     O 4690   1.370   0.881   0.686 -0.0843  0.0535 -0.1242
  308TMC3     H 4691   1.586   1.185   0.782  0.3491  2.0236 -1.1384
  308TMC3    H1 4692   1.563   0.803   0.595  1.1414 -0.5559 -0.7629
  308TMC3    H2 4693   1.944   0.981   0.665  0.3820 -0.2292 -2.1655
  308TMC3    C7 4694   1.826   0.793   0.524 -0.4951 -0.2051  0.4281
  308TMC3    C8 4695   1.841   1.202   0.783  0.4627  0.3041  0.5593
  308TMC3    O1 4696   1.785   0.679   0.510  0.4502 -0.5348  0.3935
  308TMC3    O2 4697   1.956   1.177   0.819 -0.1928  0.5272  0.0539
  309MPD2     C 4698   1.306   1.666  17.144  0.3608 -0.3899  0.0100
  309MPD2    C1 4699   1.221   1.642  17.038 -0.5521 -0.3938 -0.1847
  309MPD2    C2 4700   1.083   1.634  17.058 -0.6791 -0.4825  0.7337
  309MPD2    C3 4701   1.025   1.650  17.184 -0.1707  0.7255  0.0741
  309MPD2    C4 4702   1.115   1.670  17.290  0.3523  0.9956 -1.1263
  309MPD2    C5 4703   1.251   1.675  17.268  0.0397 -0.3736 -0.5246
  309MPD2     H 4704   1.027   1.608  16.969  2.6821 -0.0914 -1.5246
  309MPD2    H1 4705   1.085   1.699  17.391  0.2126  0.1241 -0.9171
  309MPD2    H2 4706   1.411   1.690  17.136  0.2289  0.3451  0.4912
  309MPD2    H3 4707   1.323   1.678  17.350 -2.2039  0.7999  1.3885
  309MPD2     N 4708   0.890   1.644  17.217  0.5207 -0.1299 -0.0600
  309MPD2    H5 4709   0.869   1.668  17.314  2.5210  0.4848  0.2176
  309MPD2    N1 4710   1.261   1.639  16.904  0.7661  0.0168 -0.1467
  309MPD2    H7 4711   1.195   1.639  16.827  0.7095  0.5611 -0.0987
  310TMC3    C1 4712   1.396   1.659  16.711  0.1059  0.5189 -0.6638
  310TMC3    C2 4713   1.295   1.728  16.649 -0.1109 -0.1821 -0.4369
  310TMC3    C3 4714   1.304   1.734  16.511 -0.3631  0.6378  0.2085
  310TMC3    C4 4715   1.493   1.588  16.640  0.6362  0.0793 -0.2848
  310TMC3    C5 4716   1.499   1.607  16.507  0.1296 -0.5553  1.0394
  310TMC3    C6 4717   1.394   1.667  16.440 -0.2471 -0.6680 -0.6523
  310TMC3     C 4718   1.393   1.651  16.862  1.1084 -0.6014 -0.3285
  310TMC3     O 4719   1.499   1.631  16.918  0.4522  0.8640 -0.1435
  310TMC3     H 4720   1.230   1.791  16.709  0.6620  1.2584 -1.1148
  310TMC3    H1 4721   1.573   1.535  16.691 -1.2666 -1.0272  1.5886
  310TMC3    H2 4722   1.386   1.655  16.333 -1.0466 -0.2539 -0.6385
  310TMC3    C7 4723   1.579   1.519  16.428  1.1042  0.1986  0.6717
  310TMC3    C8 4724   1.193   1.773  16.427  0.1806 -0.4738 -0.1692
  310TMC3    O1 4725   1.625   1.416  16.483 -0.3241 -0.2607  0.0171
  310TMC3    O2 4726   1.201   1.760  16.306  0.1422  0.2146 -0.3335
  311MPD2     C 4727   3.349   3.237  12.421 -0.0974  0.1049  0.3048
  311MPD2    C1 4728   3.402   3.217  12.547  0.4396  1.2608  0.4605
  311MPD2    C2 4729   3.325   3.150  12.638 -0.4587 -0.1208 -0.5354
  311MPD2    C3 4730   3.202   3.103  12.603 -0.5283  0.1901 -0.0729
  311MPD2    C4 4731   3.149   3.129  12.476  0.0466  0.5575 -0.1473
  311MPD2    C5 4732   3.222   3.204  12.391 -0.2342  0.3118  0.3909
  311MPD2     H 4733   3.368   3.128  12.735 -0.4950  2.5825  0.1109
  311MPD2    H1 4734   3.051   3.101  12.441  0.2847  1.4822 -1.5331
  311MPD2    H2 4735   3.391   3.289  12.335 -1.4267 -0.7514 -0.8508
  311MPD2    H3 4736   3.181   3.223  12.293  1.7566  0.8299 -0.3276
  311MPD2     N 4737   3.128   3.038  12.707  0.5380 -0.2886 -0.2108
  311MPD2    H5 4738   3.161   3.054  12.801 -0.6359 -1.2447  0.3748
  311MPD2    N1 4739   3.530   3.274  12.578 -0.3337  0.0999  0.1981
  311MPD2    H7 4740   3.548   3.298  12.675 -0.6266  1.8706 -0.1843
  312TMC3    C1 4741   2.954   2.923  12.814  0.4355  0.0174 -0.1149
  312TMC3    C2 4742   2.824   2.907  12.827  0.0223  0.0491  0.1935
  312TMC3    C3 4743   2.780   2.871  12.946  0.3140  0.2578  0.8946
  312TMC3    C4 4744   3.034   2.917  12.925 -0.3509  0.3764 -0.1568
  312TMC3    C5 4745   2.983   2.875  13.053  0.0497 -0.1187  0.9667
  312TMC3    C6 4746   2.851   2.845  13.059 -1.2251  0.4739  0.0475
  312TMC3     C 4747   3.002   2.980  12.688 -0.2045  0.4572  0.1941
  312TMC3     O 4748   2.945   2.943  12.585  0.8031 -0.0231  1.0053
  312TMC3     H 4749   2.757   2.933  12.745  1.4272 -0.1458 -1.0123
  312TMC3    H1 4750   3.142   2.915  12.912 -0.1916  1.6364  0.9776
  312TMC3    H2 4751   2.806   2.793  13.143  0.0749  0.4971  0.7606
  312TMC3    C7 4752   3.070   2.777  13.115  0.2771 -0.0032 -0.2552
  312TMC3    C8 4753   2.635   2.853  12.954  0.7291  0.6250 -0.2126
  312TMC3    O1 4754   3.153   2.726  13.041  0.2545 -0.4850  0.3555
  312TMC3    O2 4755   2.570   2.824  12.853  0.5162  0.1453 -0.0707
  313MPD2     C 4756   1.664   2.581  11.856 -0.2560  0.0157 -0.0282
  313MPD2    C1 4757   1.604   2.610  11.731 -1.0167  0.5820 -0.3267
  313MPD2    C2 4758   1.491   2.532  11.700  0.1238 -0.2316  0.0422
  313MPD2    C3 4759   1.452   2.423  11.771 -0.0196 -0.7098 -0.6095
  313MPD2    C4 4760   1.524   2.394  11.891 -0.4841 -0.3461 -0.4803
  313MPD2    C5 4761   1.630   2.475  11.928  0.2527  0.3824 -0.4275
  313MPD2     H 4762   1.450   2.554  11.602  1.2635 -0.8498 -0.5797
  313MPD2    H1 4763   1.497   2.315  11.960 -0.1311  0.8295  1.0087
  313MPD2    H2 4764   1.747   2.641  11.891  0.0506 -1.5645  1.9302
  313MPD2    H3 4765   1.687   2.452  12.017 -2.0041  0.0890  0.9497
  313MPD2     N 4766   1.356   2.332  11.715 -0.0376 -0.0204  0.3584
  313MPD2    H5 4767   1.315   2.354  11.624 -1.5104 -3.0516  0.2847
  313MPD2    N1 4768   1.648   2.718  11.646 -0.1962  0.2037 -0.1978
  313MPD2    H7 4769   1.599   2.718  11.557 -1.8522  0.2715  0.7080
  314TMC3    C1 4770   1.810   2.867  11.556  0.2655 -1.1942  0.0320
  314TMC3    C2 4771   1.940   2.914  11.559 -0.3197  0.5870  0.3567
  314TMC3    C3 4772   2.000   2.930  11.439 -0.0296 -0.3266  0.2960
  314TMC3    C4 4773   1.744   2.860  11.438 -0.6638  0.0664 -0.4713
  314TMC3    C5 4774   1.804   2.875  11.320  0.0412 -0.1210 -0.5448
  314TMC3    C6 4775   1.943   2.893  11.317  0.2605 -1.1175  0.5035
  314TMC3     C 4776   1.763   2.796  11.668  0.3001 -0.1018  0.0924
  314TMC3     O 4777   1.823   2.814  11.773  0.5494  0.4850 -0.1702
  314TMC3     H 4778   1.992   2.932  11.652  2.4532  2.5310 -1.5571
  314TMC3    H1 4779   1.636   2.865  11.430 -0.7027  0.4087  0.2627
  314TMC3    H2 4780   1.986   2.920  11.222  1.5940  0.1320  1.4753
  314TMC3    C7 4781   1.723   2.841  11.205 -0.7898  1.6601  0.2060
  314TMC3    C8 4782   2.144   2.913  11.432 -0.1889  0.3773  0.4550
  314TMC3    O1 4783   1.635   2.762  11.238  0.0348  0.2841 -0.3310
  314TMC3    O2 4784   2.177   2.807  11.384  0.1728 -0.2470 -0.2060
  315MPD2     C 4785   2.305   1.240  17.491 -0.0684 -0.0609 -0.2881
  315MPD2    C1 4786   2.327   1.245  17.626 -0.9889 -0.8013  0.5298
  315MPD2    C2 4787   2.398   1.354  17.672  0.4671 -0.9839 -0.4161
  315MPD2    C3 4788   2.434   1.465  17.593 -0.0866 -0.0204  0.2350
  315MPD2    C4 4789   2.399   1.460  17.462  0.2572 -0.0369 -0.6035
  315MPD2    C5 4790   2.337   1.348  17.408 -0.3705  0.3032 -0.0457
  315MPD2     H 4791   2.420   1.365   0.029 -1.0563 -0.9829 -0.1011
  315MPD2    H1 4792   2.428   1.536  17.390  1.3210  0.2184  0.1028
  315MPD2    H2 4793   2.255   1.164  17.432  0.0133 -2.1362  2.3076
  315MPD2    H3 4794   2.311   1.348  17.303  1.7899  0.7060 -0.5734
  315MPD2     N 4795   2.505   1.579  17.649  0.6563 -0.0443  0.0102
  315MPD2    H5 4796   2.526   1.577  17.749 -2.2897  2.9148  0.6872
  315MPD2    N1 4797   2.304   1.137  17.715  0.1390 -0.7130  0.0147
  315MPD2    H7 4798   2.323   1.139   0.066  1.8876  2.1231 -0.3824
  316TMC3    C1 4799   2.631   1.768  17.664  0.3063  0.0803  0.5625
  316TMC3    C2 4800   2.702   1.714   0.021 -0.2984 -0.5068  0.4754
  316TMC3    C3 4801   2.818   1.782   0.063  0.4091 -0.2897  0.6982
  316TMC3    C4 4802   2.676   1.886  17.611  0.3833  0.4552  0.2486
  316TMC3    C5 4803   2.780   1.948  17.660  0.4748 -0.5733 -0.2796
  316TMC3    C6 4804   2.857   1.901   0.015 -0.7647 -0.1271 -0.3952
  316TMC3     C 4805   2.539   1.693  17.583 -0.0450  0.5319 -0.4707
  316TMC3     O 4806   2.499   1.733  17.472  0.1060  0.1182  0.4486
  316TMC3     H 4807   2.692   1.613   0.059  3.5184 -1.2290 -0.4268
  316TMC3    H1 4808   2.616   1.934  17.534 -1.4185 -0.3775  1.1283
  316TMC3    H2 4809   2.947   1.949   0.050 -0.7347 -0.6756  0.2724
  316TMC3    C7 4810   2.822   2.076  17.604 -0.9122  0.5626 -0.6161
  316TMC3    C8 4811   2.892   1.743   0.178 -0.3851  1.1743 -0.0497
  316TMC3    O1 4812   2.893   2.144  17.675  0.0914  0.1216 -0.2866
  316TMC3    O2 4813   2.935   1.832   0.247 -0.5453  0.4349  0.1703
  317MPD2     C 4814   4.497   0.227  13.236  0.1716  0.0341  0.3588
  317MPD2    C1 4815   4.566   0.122  13.175 -1.2118 -0.0209  0.5590
  317MPD2    C2 4816   4.653   0.056  13.258 -0.1116 -0.1874  0.0093
  317MPD2    C3 4817   4.693   0.098  13.380 -0.1687 -0.4573 -0.0015
  317MPD2    C4 4818   4.641   0.207  13.431  0.4307  0.0876  0.2412
  317MPD2    C5 4819   4.541   0.270  13.358 -0.6661  0.2503 -0.2707
  317MPD2     H 4820   4.708   4.709  13.220 -0.0957  1.4874 -3.7024
  317MPD2    H1 4821   4.658   0.248  13.531 -1.2641 -1.5627  1.2002
  317MPD2    H2 4822   4.423   0.275  13.172 -0.3806  0.6151  1.4396
  317MPD2    H3 4823   4.503   0.360  13.405  0.8045  0.5669  0.3089
  317MPD2     N 4824   0.044   0.016  13.451  0.0957 -0.0964  0.2167
  317MPD2    H5 4825   0.066   4.667  13.402 -2.8040 -1.3028  1.0382
  317MPD2    N1 4826   4.514   0.048  13.066 -0.3317 -0.5962  0.1411
  317MPD2    H7 4827   4.538   4.688  13.062 -1.4991 -0.9474  1.7613
  318TMC3    C1 4828   0.115   4.627  13.627 -0.2553  0.0505 -0.1404
  318TMC3    C2 4829   0.046   4.520  13.569 -0.2219 -0.2317  0.3154
  318TMC3    C3 4830   0.053   4.397  13.630 -0.6607 -0.1636 -0.3356
  318TMC3    C4 4831   0.185   4.620  13.747  0.6712  0.7939 -1.0730
  318TMC3    C5 4832   0.181   4.493  13.797 -0.4600 -0.3370 -0.4060
  318TMC3    C6 4833   0.121   4.384  13.744 -0.1029  0.1754  0.0145
  318TMC3     C 4834   0.077   0.023  13.581  0.1161 -0.6090  0.1630
  318TMC3     O 4835   0.087   0.119  13.660  0.5235  0.3779 -0.0654
  318TMC3     H 4836   4.727   4.538  13.479 -1.4412  0.1064  1.1548
  318TMC3    H1 4837   0.226   4.710  13.790 -1.6206  0.3267  2.1026
  318TMC3    H2 4838   0.130   4.291  13.800  0.3625  0.7656  0.9115
  318TMC3    C7 4839   0.261   4.483  13.916  0.0184 -0.2361  0.7804
  318TMC3    C8 4840   4.684   4.306  13.582  1.0331  0.4304 -0.6759
  318TMC3    O1 4841   0.309   4.588  13.961 -0.0160 -0.2761  0.1110
  318TMC3    O2 4842   4.590   4.348  13.516  0.0515  0.0909  0.4967
  319MPD2     C 4843   0.719   0.902  16.690  0.8338  0.1429 -0.0016
  319MPD2    C1 4844   0.604   0.834  16.738  0.4160 -0.2916 -0.5745
  319MPD2    C2 4845   0.523   0.767  16.650 -0.5057 -0.4439 -0.0803
  319MPD2    C3 4846   0.555   0.771  16.518 -0.8814  1.1124 -0.3963
  319MPD2    C4 4847   0.665   0.847  16.471 -0.0407 -0.2724  0.0105
  319MPD2    C5 4848   0.751   0.899  16.559 -0.1811 -0.3766 -0.5651
  319MPD2     H 4849   0.440   0.715  16.696  0.2171  0.3296  2.0874
  319MPD2    H1 4850   0.688   0.854  16.366  0.0746 -1.8245 -0.0645
  319MPD2    H2 4851   0.789   0.943  16.762  1.2482 -0.1040 -0.2607
  319MPD2    H3 4852   0.836   0.958  16.526 -0.7998  1.1393  0.5771
  319MPD2     N 4853   0.475   0.712  16.416  0.2759  0.9210 -0.0224
  319MPD2    H5 4854   0.496   0.737  16.320 -1.1170  2.1011 -0.0229
  319MPD2    N1 4855   0.554   0.841  16.871 -0.1798 -0.4851 -0.0237
  319MPD2    H7 4856   0.481   0.776  16.898 -1.7458  1.1200 -0.3334
  320TMC3    C1 4857   0.294   0.607  16.322  0.1816  0.1098 -0.3708
  320TMC3    C2 4858   0.255   0.712  16.247 -0.8678 -0.2650  0.0384
  320TMC3    C3 4859   0.157   0.690  16.149 -0.3442  0.3503  0.3613
  320TMC3    C4 4860   0.248   0.480  16.311  0.7407  0.2133  0.2570
  320TMC3    C5 4861   0.147   0.462  16.215 -0.3427  0.4087 -0.3481
  320TMC3    C6 4862   0.098   0.564  16.135  0.1165 -0.0041  0.3932
  320TMC3     C 4863   0.365   0.636  16.445 -0.4137 -0.0269  0.5923
  320TMC3     O 4864   0.318   0.589  16.547 -0.5050 -0.2824 -0.0701
  320TMC3     H 4865   0.275   0.813  16.280 -2.5510 -0.0539  0.4127
  320TMC3    H1 4866   0.275   0.404  16.382 -0.5584 -0.5288 -0.0508
  320TMC3    H2 4867   0.011   0.555  16.071 -0.4306  0.3341  1.0971
  320TMC3    C7 4868   0.132   0.330  16.155 -0.3273 -0.6667  0.0513
  320TMC3    C8 4869   0.115   0.805  16.075  0.3393  0.9981 -0.0452
  320TMC3    O1 4870   0.082   0.325  16.044  0.1233  0.1292  0.2552
  320TMC3    O2 4871   0.121   0.919  16.123  0.5911  0.1475  0.0142
  321TMC3    C1 4872   0.524   0.936  17.083 -0.1138  0.1771 -0.1543
  321TMC3    C2 4873   0.489   0.820  17.139  0.5820 -0.3292  0.1581
  321TMC3    C3 4874   0.415   0.823  17.252 -1.4832  0.0806 -0.2885
  321TMC3    C4 4875   0.515   1.048  17.154  0.3577  0.1993 -0.3617
  321TMC3    C5 4876   0.462   1.049  17.279  0.0202  0.4893  0.1095
  321TMC3    C6 4877   0.391   0.936  17.322  0.1534 -0.4181 -0.4579
  321TMC3     C 4878   0.594   0.942  16.953 -0.0981  0.5474  1.0793
  321TMC3     O 4879   0.665   1.036  16.926 -0.0925 -0.2018 -0.3816
  321TMC3     H 4880   0.531   0.726  17.104 -0.1431 -0.8582  0.7131
  321TMC3    H1 4881   0.565   1.138  17.120  0.9392 -0.4545 -1.2325
  321TMC3    H2 4882   0.340   0.934  17.418  0.9565 -3.1578 -0.0892
  321TMC3    C7 4883   0.573   1.081  17.372 -0.2829  0.3128  0.4236
  321TMC3    C8 4884   0.439   0.707  17.337  0.7311  0.4171  0.6746
  321TMC3    O1 4885   0.579   1.004  17.467 -0.4616  0.0746  0.2241
  321TMC3    O2 4886   0.445   0.594  17.291 -0.0214 -0.1481  0.5267
  322MPD2     C 4887   4.536   1.709  12.864  0.1990  0.6398 -0.2410
  322MPD2    C1 4888   4.474   1.771  12.968  0.2235  0.3320 -0.2695
  322MPD2    C2 4889   4.429   1.687  13.070 -0.6346 -0.4415  0.0357
  322MPD2    C3 4890   4.439   1.551  13.072  0.0388 -0.1898 -0.3423
  322MPD2    C4 4891   4.515   1.490  12.971 -0.2046 -0.4638  0.0602
  322MPD2    C5 4892   4.553   1.571  12.869 -0.0086  0.4533 -0.2483
  322MPD2     H 4893   4.369   1.724  13.152  1.0830  1.5141  0.4192
  322MPD2    H1 4894   4.536   1.386  12.949 -2.2374 -0.6233 -1.1584
  322MPD2    H2 4895   4.592   1.763  12.788 -0.0999  0.4126 -0.6190
  322MPD2    H3 4896   4.616   1.523  12.795 -0.4068 -0.4648  0.0081
  322MPD2     N 4897   4.385   1.484  13.189 -0.2890 -0.2096  0.3914
  322MPD2    H5 4898   4.339   1.545  13.255  1.9881  0.4516  1.3716
  322MPD2    N1 4899   4.458   1.910  12.967 -0.0796  0.1903 -0.1862
  322MPD2    H7 4900   4.477   1.955  12.878 -0.3279  0.5080 -0.0786
  323TMC3    C1 4901   4.388   2.122  13.034 -0.4253  0.6720  0.6100
  323TMC3    C2 4902   4.507   2.181  12.997  0.1668 -0.5297  0.1900
  323TMC3    C3 4903   4.537   2.307  13.033  0.3960 -0.9285 -0.1296
  323TMC3    C4 4904   4.314   2.186  13.130  0.1620  0.1392  0.3307
  323TMC3    C5 4905   4.354   2.307  13.177  0.6043  0.4405  0.7541
  323TMC3    C6 4906   4.467   2.369  13.130 -0.1243  0.0324 -0.0062
  323TMC3     C 4907   4.390   1.984  13.062 -0.3470  0.2601 -0.1660
  323TMC3     O 4908   4.341   1.952  13.170  0.2994 -0.0948  0.2143
  323TMC3     H 4909   4.559   2.140  12.912  1.8901 -1.6986  1.7922
  323TMC3    H1 4910   4.216   2.148  13.156  0.9525 -2.2548 -0.2037
  323TMC3    H2 4911   4.503   2.468  13.153 -0.6249  0.7290 -2.2526
  323TMC3    C7 4912   4.324   2.318  13.317  0.1523 -0.3818  0.0397
  323TMC3    C8 4913   4.668   2.361  13.019  0.7005 -0.4278 -0.3729
  323TMC3    O1 4914   4.244   2.239  13.362  0.3088  0.3992  0.2157
  323TMC3    O2 4915   4.711   2.426  13.112 -0.3260 -0.2704 -0.2674
  324MPD2     C 4916   1.525   3.160  14.663  0.1774  0.2738 -0.5728
  324MPD2    C1 4917   1.468   3.286  14.684 -0.0181  0.3791 -0.1355
  324MPD2    C2 4918   1.340   3.309  14.640  0.1006  0.2031 -0.0633
  324MPD2    C3 4919   1.273   3.208  14.568 -0.3276  0.1508 -0.4822
  324MPD2    C4 4920   1.329   3.082  14.545 -0.1207  0.1666  0.5324
  324MPD2    C5 4921   1.455   3.066  14.596 -0.2212  0.3457 -0.0367
  324MPD2     H 4922   1.298   3.409  14.645  0.4573  0.3774 -0.5911
  324MPD2    H1 4923   1.278   3.014  14.478 -0.8739  0.7242  0.5494
  324MPD2    H2 4924   1.623   3.131  14.698  0.0336  0.1830 -0.2513
  324MPD2    H3 4925   1.507   2.973  14.579  0.7174  0.8192  0.2375
  324MPD2     N 4926   1.150   3.232  14.507 -0.3752 -0.3688  0.0550
  324MPD2    H5 4927   1.110   3.173  14.435  0.4180 -1.2780  0.3619
  324MPD2    N1 4928   1.542   3.401  14.728  0.1328  0.0290 -1.0176
  324MPD2    H7 4929   1.494   3.488  14.751  1.1984  0.3990 -0.1761
  325TMC3    C1 4930   0.945   3.345  14.461 -0.4677  0.8897 -0.0513
  325TMC3    C2 4931   0.941   3.278  14.338  0.5081 -0.2968  0.1168
  325TMC3    C3 4932   0.821   3.249  14.284 -0.4952 -0.3712 -0.8149
  325TMC3    C4 4933   0.829   3.396  14.520 -0.3711 -0.5234 -0.5593
  325TMC3    C5 4934   0.713   3.363  14.460  0.1060 -0.4750  0.7823
  325TMC3    C6 4935   0.707   3.298  14.339 -0.4136 -0.0860  0.1402
  325TMC3     C 4936   1.071   3.341  14.537 -0.2885  0.6967 -0.2051
  325TMC3     O 4937   1.076   3.420  14.631 -0.2942 -0.0868  0.0150
  325TMC3     H 4938   1.035   3.267  14.285  0.2743 -1.1241 -0.1430
  325TMC3    H1 4939   0.846   3.441  14.617  2.5685 -0.7138 -1.0051
  325TMC3    H2 4940   0.607   3.288  14.298  0.4208 -0.9276 -1.7128
  325TMC3    C7 4941   0.588   3.364  14.539 -0.0420 -0.2569  0.5840
  325TMC3    C8 4942   0.819   3.178  14.156  0.0191 -0.8757  0.9144
  325TMC3    O1 4943   0.487   3.318  14.483  0.2608 -0.7503 -0.7152
  325TMC3    O2 4944   0.934   3.163  14.111  1.1787  0.0814 -0.2274
  326MPD2     C 4945   1.782   0.766  11.579 -0.3708 -0.2880 -0.5949
  326MPD2    C1 4946   1.862   0.746  11.466  0.2903 -0.9591 -0.1254
  326MPD2    C2 4947   1.997   0.790  11.469 -0.2879  0.6349  0.6184
  326MPD2    C3 4948   2.044   0.866  11.571 -0.0549  0.2893 -0.6484
  326MPD2    C4 4949   1.965   0.884  11.675 -0.9528  0.2444  0.5733
  326MPD2    C5 4950   1.837   0.827  11.685  1.0037 -0.4905  0.0938
  326MPD2     H 4951   2.052   0.768  11.379  0.9098  4.9731  0.2830
  326MPD2    H1 4952   1.994   0.944  11.760  2.6743  1.6410 -1.6535
  326MPD2    H2 4953   1.680   0.731  11.590  0.1607 -1.4981  0.4080
  326MPD2    H3 4954   1.772   0.844  11.770 -0.0841 -3.1766 -0.1876
  326MPD2     N 4955   2.177   0.910  11.566 -0.1545 -0.0096 -0.2612
  326MPD2    H5 4956   2.213   0.953  11.651 -1.5371 -0.2285  0.4372
  326MPD2    N1 4957   1.816   0.680  11.351  0.2430 -1.0050 -0.2528
  326MPD2    H7 4958   1.872   0.676  11.266 -0.0403 -0.7114 -0.4520
  327TMC3    C1 4959   1.702   0.511  11.240 -0.1667 -0.4743 -0.3558
  327TMC3    C2 4960   1.620   0.518  11.130 -0.1067 -0.2355 -0.1770
  327TMC3    C3 4961   1.656   0.445  11.024  0.4175 -0.1564 -0.6231
  327TMC3    C4 4962   1.823   0.440  11.243  0.7486 -0.3487 -0.4550
  327TMC3    C5 4963   1.861   0.372  11.127  0.9479 -0.2672  0.4174
  327TMC3    C6 4964   1.774   0.379  11.020  0.3838  0.3478 -0.1115
  327TMC3     C 4965   1.694   0.615  11.339 -0.8915 -0.0236 -0.6454
  327TMC3     O 4966   1.584   0.655  11.382 -0.4292  0.6988 -0.0255
  327TMC3     H 4967   1.526   0.571  11.138 -0.0298 -0.3754  1.7381
  327TMC3    H1 4968   1.885   0.441  11.332 -1.7969  1.7652  1.2926
  327TMC3    H2 4969   1.798   0.328  10.928  0.9931 -0.9253  0.7538
  327TMC3    C7 4970   1.983   0.300  11.112  0.1273  0.0137 -0.0392
  327TMC3    C8 4971   1.570   0.471  10.912 -0.3479 -0.6999 -0.5317
  327TMC3    O1 4972   1.995   0.227  11.014  0.1813 -0.0442 -0.1316
  327TMC3    O2 4973   1.461   0.525  10.926 -0.0004 -0.0122  0.0266
  328MPD2     C 4974   0.542   0.044  17.579  0.3282 -1.0587  0.4210
  328MPD2    C1 4975   0.421   4.715  17.581 -0.0077 -0.1679  0.6915
  328MPD2    C2 4976   0.355   4.688  17.463 -0.1460  0.2556  0.4870
  328MPD2    C3 4977   0.400   4.718  17.338 -0.1402 -0.5377 -0.3025
  328MPD2    C4 4978   0.507   0.066  17.338 -0.7889  0.7492  0.4433
  328MPD2    C5 4979   0.586   0.090  17.448  0.5313 -0.0834 -0.4321
  328MPD2     H 4980   0.261   4.635  17.464 -0.2221  0.3624 -1.6279
  328MPD2    H1 4981   0.546   0.091  17.241 -0.1726  0.5942  0.6504
  328MPD2    H2 4982   0.589   0.063  17.675  1.0613  2.0543 -0.5407
  328MPD2    H3 4983   0.683   0.137  17.432 -0.8197  2.4532 -1.0161
  328MPD2     N 4984   0.341   4.671  17.215 -0.3380 -0.1089 -0.2469
  328MPD2    H5 4985   0.377   4.708  17.128  0.3842 -1.1961 -0.4115
  328MPD2    N1 4986   0.358   4.646  17.691  0.1663 -0.6402 -0.2016
  328MPD2    H7 4987   0.270   4.597  17.673 -1.1596  0.9489  1.8927
  329TMC3    C1 4988   0.340   4.546   0.155 -0.3598  0.4796 -0.0970
  329TMC3    C2 4989   0.297   4.600   0.277  0.4172  0.9872 -0.5525
  329TMC3    C3 4990   0.176   4.560   0.327 -0.4004 -0.2697 -0.1077
  329TMC3    C4 4991   0.262   4.450   0.095  0.4867 -0.3184  0.2730
  329TMC3    C5 4992   0.149   4.403   0.158  0.0716  0.0821 -0.6062
  329TMC3    C6 4993   0.103   4.461   0.272  0.4322  0.4344  0.1289
  329TMC3     C 4994   0.414   4.634   0.067  0.3686  0.0515 -0.0093
  329TMC3     O 4995   0.517   4.689   0.109  0.5049  0.0091 -0.4700
  329TMC3     H 4996   0.351   4.685   0.316  1.0995  0.6349 -0.7389
  329TMC3    H1 4997   0.311   4.391   0.019 -0.4055  1.2389 -1.5088
  329TMC3    H2 4998   0.026   4.415   0.333 -0.3012  0.9885 -0.3838
  329TMC3    C7 4999   0.080   4.291   0.099  0.2649 -0.1591  0.6571
  329TMC3    C8 5000   0.117   4.632   0.437 -0.2339  0.5382  0.1945
  329TMC3    O1 5001   0.141   4.201   0.044 -0.2328 -0.4695 -0.6060
  329TMC3    O2 5002   0.192   4.701   0.500  0.1059  0.4926 -0.5055
  330TMC3    C1 5003   2.324   3.992  10.534 -0.3848  0.0003  0.6164
  330TMC3    C2 5004   2.203   3.965  10.476  0.2931 -0.0681  0.0248
  330TMC3    C3 5005   2.124   3.862  10.523  0.4808  0.7819  0.3266
  330TMC3    C4 5006   2.367   3.900  10.632  0.2032  0.1159 -0.2311
  330TMC3    C5 5007   2.287   3.794  10.673  0.7083  0.1459  0.7461
  330TMC3    C6 5008   2.162   3.780  10.619 -0.6427  0.3115  0.2561
  330TMC3     C 5009   2.433   4.069  10.467 -0.0986 -0.0788 -1.1161
  330TMC3     O 5010   2.533   4.086  10.535  0.0081 -0.0156 -0.4718
  330TMC3     H 5011   2.160   4.041  10.411 -0.6372 -0.5770  0.0489
  330TMC3    H1 5012   2.467   3.914  10.672 -0.0298 -0.6575  0.6124
  330TMC3    H2 5013   2.092   3.702  10.650  0.2457 -0.4222  0.4026
  330TMC3    C7 5014   2.332   3.707  10.777  0.3474 -0.5006  0.1640
  330TMC3    C8 5015   2.056   3.794  10.412  0.4512 -0.1140  0.0820
  330TMC3    O1 5016   2.254   3.614  10.798  0.2579  0.6223 -0.1347
  330TMC3    O2 5017   2.061   3.853  10.307 -0.2932 -0.3441  0.5502
  331MPD2     C 5018   1.551   3.528  12.870 -0.3421 -0.0971 -1.3972
  331MPD2    C1 5019   1.432   3.559  12.811 -0.2515  0.1797  0.1918
  331MPD2    C2 5020   1.337   3.467  12.800  0.1907  0.0319 -0.1353
  331MPD2    C3 5021   1.360   3.333  12.840  0.1213 -0.5225 -0.0576
  331MPD2    C4 5022   1.482   3.297  12.887 -0.0049 -0.1726 -0.2881
  331MPD2    C5 5023   1.579   3.398  12.910  0.6693  0.0610  0.8323
  331MPD2     H 5024   1.252   3.485  12.737  0.0956  0.1753  0.0338
  331MPD2    H1 5025   1.511   3.195  12.909  0.6542  0.4911  1.9484
  331MPD2    H2 5026   1.634   3.597  12.867  0.8689 -1.5273 -1.0173
  331MPD2    H3 5027   1.677   3.373  12.948  1.0959  0.7743  0.2031
  331MPD2     N 5028   1.262   3.235  12.812  0.2671 -0.1453 -0.2765
  331MPD2    H5 5029   1.183   3.278  12.766  0.4352 -0.5351 -0.9327
  331MPD2    N1 5030   1.414   3.676  12.740  0.0724  0.3782  0.1614
  331MPD2    H7 5031   1.316   3.696  12.722 -0.5061  0.7870  3.7622
  332TMC3    C1 5032   1.165   3.029  12.750 -0.2894 -0.5389  0.4917
  332TMC3    C2 5033   1.100   3.092  12.646 -0.1836 -0.6217  0.4130
  332TMC3    C3 5034   1.004   3.030  12.571 -0.8998  0.4056 -0.4710
  332TMC3    C4 5035   1.139   2.893  12.769 -0.3592 -0.2277 -0.4085
  332TMC3    C5 5036   1.043   2.837  12.688  0.0237 -0.1638  0.2141
  332TMC3    C6 5037   0.980   2.900  12.592  0.0072 -0.6428 -0.6605
  332TMC3     C 5038   1.272   3.096  12.826 -0.6191  0.0403  0.5524
  332TMC3     O 5039   1.352   3.024  12.881 -0.2101 -0.1535 -0.7540
  332TMC3     H 5040   1.124   3.195  12.623 -2.8085 -0.3420 -1.0590
  332TMC3    H1 5041   1.167   2.842  12.861 -2.5663 -0.5586  0.0925
  332TMC3    H2 5042   0.921   2.839  12.525 -0.4641 -0.5350 -0.3447
  332TMC3    C7 5043   1.065   2.696  12.665  0.2026 -0.0933  0.9727
  332TMC3    C8 5044   0.957   3.099  12.459 -0.0303  0.3901 -0.2690
  332TMC3    O1 5045   0.978   2.630  12.610  0.8920  0.5104  0.3611
  332TMC3    O2 5046   1.039   3.175  12.405  0.0317  0.1044  1.1811
  333MPD2     C 5047   0.409   3.826  10.934 -0.5681  0.0734  0.4424
  333MPD2    C1 5048   0.488   3.727  10.879 -0.0323  0.0438  0.5540
  333MPD2    C2 5049   0.494   3.598  10.938 -0.2437 -0.1539  0.3880
  333MPD2    C3 5050   0.426   3.570  11.058  0.5885 -0.4261  0.3936
  333MPD2    C4 5051   0.340   3.670  11.106  0.3122  0.1533  0.4802
  333MPD2    C5 5052   0.335   3.790  11.043 -0.3464  0.3037  0.1543
  333MPD2     H 5053   0.558   3.519  10.903 -0.5530  1.1876 -3.1666
  333MPD2    H1 5054   0.275   3.654  11.192  0.9052 -0.1602  0.8718
  333MPD2    H2 5055   0.402   3.926  10.895 -1.7062 -0.6239 -1.1405
  333MPD2    H3 5056   0.281   3.873  11.089 -1.1847  1.6348 -3.2474
  333MPD2     N 5057   0.440   3.436  11.108 -0.4802  0.1347  0.3666
  333MPD2    H5 5058   0.507   3.371  11.069 -1.0587  0.1302 -0.6160
  333MPD2    N1 5059   0.551   3.756  10.762  0.4445 -0.5135 -0.0157
  333MPD2    H7 5060   0.542   3.853  10.734 -0.5367 -0.6361 -0.1123
  334TMC3    C1 5061   0.724   3.760  10.603  0.6051 -0.4983  0.7569
  334TMC3    C2 5062   0.825   3.686  10.543 -0.1811  0.1278  0.6308
  334TMC3    C3 5063   0.941   3.752  10.495 -0.4749  0.1933  0.1602
  334TMC3    C4 5064   0.734   3.895  10.617 -0.6325 -0.6384  0.3248
  334TMC3    C5 5065   0.850   3.955  10.573 -0.0563  0.1954  0.0044
  334TMC3    C6 5066   0.949   3.884  10.510  0.3660  0.4991  0.3055
  334TMC3     C 5067   0.643   3.680  10.694  0.0077 -0.3411 -0.1089
  334TMC3     O 5068   0.673   3.562  10.700 -0.2672 -0.5214 -0.1565
  334TMC3     H 5069   0.816   3.578  10.537 -0.2213  0.2295 -1.1790
  334TMC3    H1 5070   0.655   3.947  10.670 -1.4016 -1.9980  0.5073
  334TMC3    H2 5071   1.035   3.943  10.480 -0.5042  1.5609 -0.1204
  334TMC3    C7 5072   0.896   4.077  10.635  0.2489 -0.3074  0.8374
  334TMC3    C8 5073   1.068   3.679  10.483 -0.1365 -0.4611  0.9881
  334TMC3    O1 5074   1.020   4.086  10.649 -0.0058  0.5153  0.0921
  334TMC3    O2 5075   1.071   3.565  10.432  0.0376  0.1507 -0.8776
  335TMC3    C1 5076   0.681   4.403  17.612  0.5145  0.4743  0.3731
  335TMC3    C2 5077   0.609   4.431  17.497 -0.4205  0.6364 -0.7472
  335TMC3    C3 5078   0.685   4.472  17.389 -0.5716  0.0561 -0.4356
  335TMC3    C4 5079   0.816   4.426  17.620  0.1992 -0.5178 -0.2568
  335TMC3    C5 5080   0.887   4.475  17.512  0.1867  0.6799 -0.3944
  335TMC3    C6 5081   0.816   4.495  17.401  0.5709 -0.0425  1.0936
  335TMC3     C 5082   0.610   4.328  17.717  0.6910 -0.6930 -0.9187
  335TMC3     O 5083   0.519   4.259  17.681  0.2266 -0.1524 -0.1242
  335TMC3     H 5084   0.502   4.417  17.508 -0.3428  1.0255  0.5279
  335TMC3    H1 5085   0.870   4.393  17.709  0.5852 -2.0523 -1.0584
  335TMC3    H2 5086   0.873   4.514  17.311 -1.9437  1.0048 -0.2723
  335TMC3    C7 5087   1.034   4.483  17.509 -0.0661  0.4225 -0.1850
  335TMC3    C8 5088   0.638   4.433  17.257  0.1500 -0.0866  0.7029
  335TMC3    O1 5089   1.079   4.506  17.402  0.8673 -0.6124  0.0941
  335TMC3    O2 5090   0.707   4.457  17.157 -0.2703 -0.5505 -0.2872
  336MPD2     C 5091   0.244   2.378  15.766  0.2682  0.6556  0.1861
  336MPD2    C1 5092   0.182   2.282  15.685 -0.2259 -0.8683  0.1282
  336MPD2    C2 5093   0.190   2.146  15.701  0.3637 -0.0528 -0.0869
  336MPD2    C3 5094   0.273   2.097  15.799 -0.3058 -0.6067 -0.5730
  336MPD2    C4 5095   0.330   2.188  15.887  0.0928  0.0821 -0.5735
  336MPD2    C5 5096   0.320   2.323  15.866 -0.0177  0.1843 -0.5920
  336MPD2     H 5097   0.147   2.069  15.636 -0.8000 -0.1773  0.8249
  336MPD2    H1 5098   0.397   2.164  15.969 -2.8467 -1.7994  1.2637
  336MPD2    H2 5099   0.235   2.486  15.758  0.8998  0.7535  0.7358
  336MPD2    H3 5100   0.366   2.395  15.933 -2.0022 -0.0013  0.9838
  336MPD2     N 5101   0.317   1.962  15.805  0.1865  0.6808 -0.4933
  336MPD2    H5 5102   0.395   1.941  15.866 -0.3402 -1.5068 -0.5737
  336MPD2    N1 5103   0.095   2.337  15.583 -0.6184  0.5998  0.4381
  336MPD2    H7 5104   0.110   2.436  15.565  1.1949  0.3428  0.5470
  337TMC3    C1 5105   4.677   2.353  15.408  0.7096 -0.0086  0.3901
  337TMC3    C2 5106   4.556   2.311  15.359 -0.2670  0.1545  0.2906
  337TMC3    C3 5107   4.501   2.380  15.258  0.3786 -0.5475 -0.1413
  337TMC3    C4 5108   0.007   2.464  15.363  1.0990  0.4113 -0.5147
  337TMC3    C5 5109   4.689   2.531  15.257  0.9273 -0.5538 -0.2264
  337TMC3    C6 5110   4.569   2.486  15.205 -0.9227 -0.3754  0.8729
  337TMC3     C 5111   4.725   2.274  15.520  0.4230  0.5423  0.5888
  337TMC3     O 5112   4.685   2.159  15.532 -0.1367 -0.8361 -0.8956
  337TMC3     H 5113   4.501   2.225  15.395 -0.7378  0.3628  0.0734
  337TMC3    H1 5114   0.094   2.509  15.410  1.0273  0.0499 -0.0379
  337TMC3    H2 5115   4.524   2.545  15.126 -0.2518  2.3085  2.5105
  337TMC3    C7 5116   4.728   2.671  15.260  0.0321  0.9779  0.2176
  337TMC3    C8 5117   4.357   2.366  15.245 -0.6410 -0.5926 -0.5703
  337TMC3    O1 5118   0.082   2.706  15.332 -0.4905 -0.0470  0.8519
  337TMC3    O2 5119   4.284   2.324  15.332 -0.3052 -0.3926 -0.7019
  338MPD2     C 5120   0.609   2.084   0.906 -0.3675  0.1726  0.1967
  338MPD2    C1 5121   0.568   2.022   0.790 -0.4535  0.1972 -0.5285
  338MPD2    C2 5122   0.436   2.027   0.766 -0.2472  0.0890 -0.7292
  338MPD2    C3 5123   0.345   2.086   0.853  0.2881  0.2328  0.5550
  338MPD2    C4 5124   0.387   2.156   0.964 -0.3640 -0.5429 -0.1210
  338MPD2    C5 5125   0.523   2.148   0.990  0.4165 -0.9252 -0.3305
  338MPD2     H 5126   0.402   1.981   0.673 -1.2100 -0.7383  0.0269
  338MPD2    H1 5127   0.326   2.215   1.031  1.1248  1.3698 -0.4495
  338MPD2    H2 5128   0.713   2.073   0.937 -0.7992 -1.3469  1.1095
  338MPD2    H3 5129   0.560   2.193   1.082 -0.1993  0.3351 -0.7100
  338MPD2     N 5130   0.204   2.082   0.822 -0.2942 -0.5554 -0.1640
  338MPD2    H5 5131   0.176   2.056   0.728  1.4237  2.4511 -1.5105
  338MPD2    N1 5132   0.648   1.962   0.691 -0.4348  0.0630 -1.1320
  338MPD2    H7 5133   0.593   1.910   0.623 -1.2324  0.6986 -0.9710
  339TMC3    C1 5134   4.707   2.074   0.853  0.1126 -0.7768 -0.2202
  339TMC3    C2 5135   4.615   1.993   0.914 -0.0628 -0.3701 -0.3385
  339TMC3    C3 5136   4.544   1.902   0.848  0.3090  0.4267  0.7510
  339TMC3    C4 5137   4.710   2.080   0.718  0.4575 -0.1949  0.1764
  339TMC3    C5 5138   4.637   1.990   0.645 -0.2816 -0.0609 -0.2620
  339TMC3    C6 5139   4.558   1.894   0.709  0.0962 -0.8302 -0.2353
  339TMC3     C 5140   0.101   2.094   0.912  0.3043 -0.0267 -0.6901
  339TMC3     O 5141   0.104   2.108   1.034  0.1700  0.1196  0.2668
  339TMC3     H 5142   4.633   1.982   1.020 -0.0639 -0.1979 -0.3209
  339TMC3    H1 5143   0.028   2.157   0.666 -0.2532  1.2702  1.5788
  339TMC3    H2 5144   4.496   1.823   0.655 -0.0158 -0.4402 -0.6181
  339TMC3    C7 5145   4.605   2.035   0.507  0.0124  0.2351  0.0263
  339TMC3    C8 5146   4.472   1.792   0.914  0.2582  0.5643  0.4331
  339TMC3    O1 5147   4.565   2.155   0.500 -0.7679 -0.0896  0.2368
  339TMC3    O2 5148   4.426   1.704   0.845  0.3398  0.3316 -0.1190
  340MPD2     C 5149   0.358   4.118  10.085 -0.3946  0.0686 -0.0013
  340MPD2    C1 5150   0.491   4.095  10.063 -0.4917 -0.8007  0.3294
  340MPD2    C2 5151   0.586   4.174  10.135  0.8362 -0.7758 -0.2875
  340MPD2    C3 5152   0.546   4.269  10.225 -0.6642 -0.1142 -0.0963
  340MPD2    C4 5153   0.412   4.296  10.230 -0.3897  0.5225 -0.3583
  340MPD2    C5 5154   0.320   4.225  10.164 -0.4527 -0.3178  0.9163
  340MPD2     H 5155   0.690   4.143  10.142  1.0731 -0.0442 -0.5816
  340MPD2    H1 5156   0.391   4.376  10.300  3.1222 -0.9447  2.4003
  340MPD2    H2 5157   0.283   4.064  10.028  0.1291 -0.0788 -0.5603
  340MPD2    H3 5158   0.220   4.265  10.165 -0.8659 -1.3646  2.7513
  340MPD2     N 5159   0.629   4.344  10.311  0.1049  0.0161 -0.2955
  340MPD2    H5 5160   0.584   4.427  10.348 -0.5477  0.8646 -2.9978
  340MPD2    N1 5161   0.525   3.978   9.987  1.0896  0.6150 -0.2803
  340MPD2    H7 5162   0.443   3.930   9.952 -0.7473  2.0101  2.1251
  341TMC3    C1 5163   0.643   3.837   9.857 -0.2205  0.0607 -0.4048
  341TMC3    C2 5164   0.548   3.743   9.879 -0.3756 -1.0990  0.3332
  341TMC3    C3 5165   0.553   3.623   9.816  0.3064  0.5327 -0.3754
  341TMC3    C4 5166   0.751   3.807   9.784  0.1337  0.1360  0.2825
  341TMC3    C5 5167   0.763   3.683   9.723  0.5258  0.5992  0.7825
  341TMC3    C6 5168   0.667   3.590   9.743 -0.0313  0.1581 -0.0042
  341TMC3     C 5169   0.646   3.957   9.935  1.2953 -0.4862  0.8317
  341TMC3     O 5170   0.748   4.022   9.956 -0.0177  0.1038  0.0575
  341TMC3     H 5171   0.469   3.761   9.951 -0.6382 -1.5156  0.1501
  341TMC3    H1 5172   0.832   3.878   9.769 -1.4172  1.5627 -1.3514
  341TMC3    H2 5173   0.684   3.490   9.707 -2.7481 -0.7015  1.1100
  341TMC3    C7 5174   0.896   3.666   9.661  0.1542 -0.1986 -0.3783
  341TMC3    C8 5175   0.448   3.522   9.850  0.0391 -0.1214 -0.2261
  341TMC3    O1 5176   0.971   3.759   9.679  0.0014  0.3001  0.3101
  341TMC3    O2 5177   0.387   3.543   9.956  0.2866  0.1129 -0.3864
  342MPD2     C 5178   3.501   2.512  17.614  0.4106 -0.0240  0.2331
  342MPD2    C1 5179   3.529   2.530  17.482  0.6379 -0.0085 -0.6077
  342MPD2    C2 5180   3.515   2.657  17.424 -1.0521 -0.3733  0.3318
  342MPD2    C3 5181   3.495   2.760  17.503  0.4436 -0.0641 -0.2600
  342MPD2    C4 5182   3.463   2.746  17.636  0.2924 -0.6654  1.0229
  342MPD2    C5 5183   3.466   2.625  17.691  0.5090 -0.3007  0.4193
  342MPD2     H 5184   3.519   2.666  17.316  1.4169 -0.4906  0.4156
  342MPD2    H1 5185   3.433   2.830  17.697  0.8124  0.3931 -0.1760
  342MPD2    H2 5186   3.508   2.414  17.660  1.2345  0.2819  0.7545
  342MPD2    H3 5187   3.429   2.620   0.044  1.0731  0.8718  0.6822
  342MPD2     N 5188   3.505   2.899  17.465 -0.2531 -0.3242 -0.3206
  342MPD2    H5 5189   3.503   2.969  17.538  0.4951 -0.1348 -0.4809
  342MPD2    N1 5190   3.568   2.423  17.389 -0.2162  0.8928  0.3349
  342MPD2    H7 5191   3.610   2.445  17.300 -2.0703  0.6693 -0.5983
  343TMC3    C1 5192   3.605   2.195  17.323 -0.3386  0.1859  0.2020
  343TMC3    C2 5193   3.688   2.215  17.220  0.0089 -0.1756 -0.1250
  343TMC3    C3 5194   3.709   2.119  17.127 -0.5373 -0.5927 -0.8342
  343TMC3    C4 5195   3.558   2.069  17.348 -0.2909  0.2973  0.2005
  343TMC3    C5 5196   3.582   1.970  17.253  0.1373 -0.4542 -0.4079
  343TMC3    C6 5197   3.654   1.996  17.139 -0.7420 -0.1293 -0.0798
  343TMC3     C 5198   3.565   2.290  17.429 -0.4274 -0.6034  0.6437
  343TMC3     O 5199   3.515   2.248  17.536 -0.1620  0.0413  0.7299
  343TMC3     H 5200   3.743   2.308  17.209 -0.2846  0.2131  1.7169
  343TMC3    H1 5201   3.482   2.058  17.425  0.5938  0.7802  1.1563
  343TMC3    H2 5202   3.652   1.926  17.055  1.8028  0.9441 -1.0063
  343TMC3    C7 5203   3.525   1.842  17.262  0.4824  0.6652 -0.1997
  343TMC3    C8 5204   3.818   2.150  17.033  0.2671 -0.2618  0.0617
  343TMC3    O1 5205   3.501   1.774  17.158  0.0588  0.8322 -0.3604
  343TMC3    O2 5206   3.852   2.267  17.017 -0.2309  0.1565 -0.1453
  344MPD2     C 5207   3.325   2.839  11.115 -0.0055  0.5271  0.0416
  344MPD2    C1 5208   3.405   2.737  11.161 -0.0849  0.2980  0.2123
  344MPD2    C2 5209   3.540   2.760  11.177 -0.2236 -0.5287 -0.4385
  344MPD2    C3 5210   3.599   2.876  11.129 -0.1544  0.3818 -0.2722
  344MPD2    C4 5211   3.520   2.976  11.092  0.2849  0.1666  0.2096
  344MPD2    C5 5212   3.385   2.960  11.092  0.1892  0.5624 -0.7447
  344MPD2     H 5213   3.592   2.675  11.219  1.3074 -0.5139 -2.3008
  344MPD2    H1 5214   3.566   3.066  11.051 -1.9613  0.9248 -0.6761
  344MPD2    H2 5215   3.217   2.830  11.107  0.0236 -0.3875  0.7860
  344MPD2    H3 5216   3.332   3.044  11.047 -0.3604  2.0808  2.7133
  344MPD2     N 5217   3.738   2.905  11.132 -0.1634  0.6323  0.0246
  344MPD2    H5 5218   3.765   2.999  11.108  2.0371  0.2840  1.0964
  344MPD2    N1 5219   3.362   2.608  11.193  0.1345 -0.3973 -0.5618
  344MPD2    H7 5220   3.427   2.538  11.227 -0.1169  0.1909  1.1241
  345TMC3    C1 5221   3.964   2.883  11.155  1.4129  0.4071  0.0198
  345TMC3    C2 5222   3.974   2.974  11.255  0.0442  0.0522 -0.7733
  345TMC3    C3 5223   4.055   3.083  11.232 -0.3734  0.4035 -0.4382
  345TMC3    C4 5224   4.038   2.883  11.042 -0.2313  0.0336  1.1021
  345TMC3    C5 5225   4.124   2.983  11.025 -0.0112 -0.4983  1.0544
  345TMC3    C6 5226   4.132   3.087  11.113  0.4819 -0.4575 -0.2195
  345TMC3     C 5227   3.843   2.814  11.156 -0.4760  0.4080 -0.5393
  345TMC3     O 5228   3.833   2.695  11.189  0.4617 -0.6219 -0.8837
  345TMC3     H 5229   3.907   2.959  11.338  0.5728  0.2147 -0.3212
  345TMC3    H1 5230   4.040   2.801  10.971  5.3993  1.7282 -0.7025
  345TMC3    H2 5231   4.189   3.177  11.090  1.1045 -0.7017  0.3789
  345TMC3    C7 5232   4.184   3.007  10.896  0.3383  0.6950  0.6602
  345TMC3    C8 5233   3.990   3.213  11.259  0.5220  0.4228  0.5433
  345TMC3    O1 5234   4.260   3.104  10.889 -0.0562 -0.1518  0.1161
  345TMC3    O2 5235   4.006   3.294  11.169 -0.2217 -0.3538 -0.5096
  346MPD2     C 5236   4.463   4.031  14.630  0.2991 -0.3593 -0.0492
  346MPD2    C1 5237   4.573   4.025  14.552 -0.4621  0.6402 -0.3006
  346MPD2    C2 5238   4.690   4.078  14.599  0.6849  0.1491  0.0352
  346MPD2    C3 5239   4.704   4.128  14.723 -0.8524 -0.0089 -0.2620
  346MPD2    C4 5240   4.591   4.138  14.802  0.2105  0.6029 -0.3021
  346MPD2    C5 5241   4.470   4.093  14.755 -0.1950 -0.2752  0.4482
  346MPD2     H 5242   0.041   4.088  14.537  0.6297 -0.0022 -0.0706
  346MPD2    H1 5243   4.594   4.166  14.907  0.2252  0.5912 -0.2995
  346MPD2    H2 5244   4.371   3.975  14.615 -1.1232  1.6679  1.0363
  346MPD2    H3 5245   4.382   4.082  14.817  0.3300  0.4906  1.3178
  346MPD2     N 5246   0.103   4.164  14.767  0.5357 -0.1914  0.0278
  346MPD2    H5 5247   0.175   4.162  14.696  0.3869  0.5944 -0.1403
  346MPD2    N1 5248   4.574   3.959  14.427 -0.2782  0.3680  0.1369
  346MPD2    H7 5249   4.661   3.956  14.374  0.1388 -0.4341  0.8544
  347TMC3    C1 5250   0.283   4.196  14.909  0.0122  0.3653 -0.6975
  347TMC3    C2 5251   0.338   4.084  14.863 -0.1386  0.3770  0.0158
  347TMC3    C3 5252   0.446   4.044  14.938  0.3842 -0.2613 -0.2806
  347TMC3    C4 5253   0.336   4.277  15.009  0.1426  0.2723  0.2730
  347TMC3    C5 5254   0.450   4.233  15.066  0.8710  0.1743 -0.4928
  347TMC3    C6 5255   0.512   4.115  15.032  0.0131 -0.0972  0.5327
  347TMC3     C 5256   0.141   4.213  14.890 -0.2221  0.3301  0.7731
  347TMC3     O 5257   0.069   4.241  14.981 -0.1851  0.2920 -0.7350
  347TMC3     H 5258   0.289   4.017  14.793 -2.7100  1.4195  0.8269
  347TMC3    H1 5259   0.279   4.364  15.037 -1.8974 -1.3475  1.1791
  347TMC3    H2 5260   0.605   4.073  15.069  0.1351 -1.7677 -1.6954
  347TMC3    C7 5261   0.500   4.316  15.174 -0.2732  0.3477  0.0884
  347TMC3    C8 5262   0.486   3.908  14.918 -0.2824 -0.0539 -0.4334
  347TMC3    O1 5263   0.431   4.414  15.203 -0.3392  0.9414  0.3989
  347TMC3    O2 5264   0.605   3.884  14.917  0.3650  0.0898  0.0101
  348MPD2     C 5265   3.378   4.373  12.081  0.1973  0.2646  0.2435
  348MPD2    C1 5266   3.313   4.321  11.968  0.1655 -0.2753  0.2854
  348MPD2    C2 5267   3.286   4.397  11.863 -0.1264  0.0567 -0.0481
  348MPD2    C3 5268   3.311   4.532  11.860 -0.6556  0.7437 -0.0011
  348MPD2    C4 5269   3.381   4.586  11.968 -0.4118 -0.2129  0.4564
  348MPD2    C5 5270   3.411   4.509  12.074 -0.4874 -0.9931  0.1566
  348MPD2     H 5271   3.236   4.344  11.783 -1.6943  1.1726  0.1966
  348MPD2    H1 5272   3.425   4.685  11.968  0.4430 -0.5959 -1.6405
  348MPD2    H2 5273   3.405   4.327  12.175  2.4479  0.3309 -0.3560
  348MPD2    H3 5274   3.465   4.558  12.155 -0.7555  0.4970 -0.5525
  348MPD2     N 5275   3.264   4.609  11.753  0.0289  0.0260 -0.4832
  348MPD2    H5 5276   3.223   4.550  11.681 -1.2054  0.4562 -0.1320
  348MPD2    N1 5277   3.264   4.189  11.965 -0.2629 -0.7469  0.3271
  348MPD2    H7 5278   3.218   4.159  11.879  1.0752 -0.2016 -0.5822
  349TMC3    C1 5279   3.263   3.956  12.017 -0.5782 -0.3466  0.1122
  349TMC3    C2 5280   3.350   3.853  12.051  0.5100  0.3881 -0.2829
  349TMC3    C3 5281   3.303   3.725  12.020  0.3241 -0.3354  0.5389
  349TMC3    C4 5282   3.153   3.935  11.940  0.3718 -0.5491  0.0815
  349TMC3    C5 5283   3.121   3.805  11.903  0.6080  0.0641  0.2045
  349TMC3    C6 5284   3.192   3.697  11.949  0.1030  0.4950 -0.0164
  349TMC3     C 5285   3.289   4.091  12.060  0.3263 -0.1666 -0.3245
  349TMC3     O 5286   3.346   4.097  12.166  0.4587  0.7736 -0.8916
  349TMC3     H 5287   3.435   3.867  12.117 -1.3242  0.7022  2.0417
  349TMC3    H1 5288   3.074   4.009  11.934 -0.6578 -1.5878  0.9116
  349TMC3    H2 5289   3.148   3.601  11.925 -0.1402  0.5644  0.1479
  349TMC3    C7 5290   3.015   3.776  11.809 -0.8062  0.8958  0.5305
  349TMC3    C8 5291   3.389   3.617  12.058 -0.3199 -0.0612 -0.2161
  349TMC3    O1 5292   2.986   3.656  11.791 -0.4890  0.4230 -0.1402
  349TMC3    O2 5293   3.482   3.632  12.134 -0.0162  0.7189  0.1018
  350MPD2     C 5294   1.526   1.863  10.910 -0.1566 -0.0733 -0.1916
  350MPD2    C1 5295   1.458   1.760  10.977  0.1628  0.6810 -0.0967
  350MPD2    C2 5296   1.388   1.787  11.090 -0.4930  0.0146 -0.2083
  350MPD2    C3 5297   1.376   1.913  11.142 -0.1188 -0.2465  0.5898
  350MPD2    C4 5298   1.438   2.014  11.068 -0.6301  0.0883 -1.1010
  350MPD2    C5 5299   1.504   1.988  10.954  0.1403  0.5129 -0.5321
  350MPD2     H 5300   1.345   1.703  11.143 -0.5449  0.2204  0.0778
  350MPD2    H1 5301   1.432   2.118  11.100  3.4993 -0.0200  0.0398
  350MPD2    H2 5302   1.579   1.857  10.815  0.2654 -0.0087  0.0395
  350MPD2    H3 5303   1.537   2.075  10.898  3.2203  0.4462  1.1545
  350MPD2     N 5304   1.307   1.937  11.265  0.7638 -0.6988 -0.2877
  350MPD2    H5 5305   1.281   1.861  11.326  1.4084 -0.5324  0.1876
  350MPD2    N1 5306   1.450   1.629  10.925  0.1040 -0.3679 -0.0955
  350MPD2    H7 5307   1.401   1.557  10.977  2.7283 -2.5046 -0.6205
  351TMC3    C1 5308   1.477   1.444  10.798 -0.5293  0.9128 -0.0147
  351TMC3    C2 5309   1.573   1.361  10.755 -0.1229 -0.3141 -0.5818
  351TMC3    C3 5310   1.545   1.223  10.760  0.3689 -0.0702 -0.1892
  351TMC3    C4 5311   1.356   1.399  10.843 -0.2824 -0.3141 -0.0324
  351TMC3    C5 5312   1.339   1.264  10.854 -0.5089  0.5124  0.2326
  351TMC3    C6 5313   1.430   1.173  10.815 -0.3755 -0.3065 -0.0484
  351TMC3     C 5314   1.511   1.580  10.814  0.3595 -0.3099  0.5600
  351TMC3     O 5315   1.573   1.633  10.726  0.2401 -0.2787 -0.1067
  351TMC3     H 5316   1.674   1.397  10.743 -0.4485  1.3567  1.7327
  351TMC3    H1 5317   1.273   1.462  10.872  1.9039  2.1272  0.8854
  351TMC3    H2 5318   1.407   1.067  10.819  1.2738 -0.5946  1.3126
  351TMC3    C7 5319   1.205   1.221  10.893 -0.2210 -0.1056 -0.0316
  351TMC3    C8 5320   1.650   1.128  10.730 -0.0338 -0.0223  0.6315
  351TMC3    O1 5321   1.195   1.104  10.926  0.0489 -0.5541 -0.1555
  351TMC3    O2 5322   1.752   1.176  10.680 -0.6844 -0.0913 -0.4211
  352MPD2     C 5323   0.546   3.588   0.785 -0.2562 -0.3173 -0.1297
  352MPD2    C1 5324   0.447   3.543   0.877  0.7516 -0.2651 -0.0182
  352MPD2    C2 5325   0.481   3.446   0.967 -0.0342 -0.3864  0.1249
  352MPD2    C3 5326   0.614   3.414   0.983 -0.5697 -0.2481  0.6849
  352MPD2    C4 5327   0.710   3.460   0.897  0.4150 -0.0577  0.0643
  352MPD2    C5 5328   0.676   3.549   0.804 -0.2419  0.7098 -0.3366
  352MPD2     H 5329   0.415   3.405   1.043 -1.7357  1.0591 -0.5486
  352MPD2    H1 5330   0.816   3.437   0.902  1.0912  3.2106  0.6123
  352MPD2    H2 5331   0.512   3.660   0.711 -1.0361  1.0778  1.6033
  352MPD2    H3 5332   0.753   3.592   0.740  1.0050 -2.1363 -0.7540
  352MPD2     N 5333   0.660   3.301   1.060  0.2070  0.1235 -0.0777
  352MPD2    H5 5334   0.756   3.270   1.049 -0.4223 -1.6422 -0.6521
  352MPD2    N1 5335   0.319   3.597   0.867  0.0283 -0.4587  0.1535
  352MPD2    H7 5336   0.305   3.668   0.796  0.5175  0.0063  0.5277
  353TMC3    C1 5337   0.643   3.110   1.201  1.1319 -0.5754  0.3766
  353TMC3    C2 5338   0.772   3.105   1.235  0.0626  0.6498 -0.1508
  353TMC3    C3 5339   0.823   2.984   1.274 -0.0701  0.1218 -0.4607
  353TMC3    C4 5340   0.566   3.000   1.217  0.0891 -0.8080  0.8013
  353TMC3    C5 5341   0.620   2.884   1.265 -0.7084 -0.1427  0.7794
  353TMC3    C6 5342   0.744   2.873   1.309  0.1283  0.6248 -0.0197
  353TMC3     C 5343   0.577   3.224   1.143  0.4117 -1.0000 -0.3204
  353TMC3     O 5344   0.454   3.233   1.154  0.5466 -0.0553 -0.1928
  353TMC3     H 5345   0.846   3.181   1.209  0.1786  0.2679 -0.9432
  353TMC3    H1 5346   0.460   2.988   1.200 -0.0522 -0.8601  1.7288
  353TMC3    H2 5347   0.786   2.784   1.354 -1.6270 -0.0052  0.3761
  353TMC3    C7 5348   0.544   2.763   1.266  0.0862 -0.1769 -0.0980
  353TMC3    C8 5349   0.962   2.953   1.245  0.1054 -0.1525  0.4622
  353TMC3    O1 5350   0.561   2.686   1.359 -0.2955  0.3908 -0.1131
  353TMC3    O2 5351   1.038   3.048   1.253  0.0723 -0.2142 -0.0521
  354TMC3    C1 5352   2.111   0.039  13.736  0.6414 -0.4069  0.1892
  354TMC3    C2 5353   2.137   0.170  13.728 -0.2636 -0.2343 -0.0833
  354TMC3    C3 5354   2.064   0.247  13.636  0.2179 -0.0453 -0.5446
  354TMC3    C4 5355   2.029   4.718  13.639  0.4750 -0.1365 -0.4586
  354TMC3    C5 5356   1.951   0.058  13.554 -0.2004 -0.8113 -0.3747
  354TMC3    C6 5357   1.967   0.193  13.558  0.0412 -1.2076  0.3333
  354TMC3     C 5358   2.122   4.715  13.871  0.3961 -0.2825  0.3505
  354TMC3     O 5359   2.100   4.590  13.871 -0.1229 -0.0493 -0.5720
  354TMC3     H 5360   2.219   0.206  13.790  0.0184  3.5311 -2.6468
  354TMC3    H1 5361   2.002   4.614  13.650  0.9730 -0.0060  1.9538
  354TMC3    H2 5362   1.909   0.261  13.496  2.9307  0.7255 -0.2698
  354TMC3    C7 5363   1.934   4.731  13.423 -0.0290 -0.0186 -0.7129
  354TMC3    C8 5364   2.115   0.387  13.598 -0.5875  0.1754  0.6525
  354TMC3    O1 5365   1.915   4.607  13.414  0.2495 -0.1625  0.4242
  354TMC3    O2 5366   2.040   0.458  13.534 -0.2943  0.3441 -0.2738
  355MPD2     C 5367   2.385   1.371  12.284  0.4369  0.5105 -1.0393
  355MPD2    C1 5368   2.422   1.501  12.283  0.1845  0.8160  0.2184
  355MPD2    C2 5369   2.532   1.539  12.353 -0.5958  0.5246  0.2659
  355MPD2    C3 5370   2.611   1.458  12.428 -0.3988 -0.3413  0.4698
  355MPD2    C4 5371   2.567   1.326  12.443  0.0217 -0.1167 -0.6503
  355MPD2    C5 5372   2.458   1.289  12.372  0.4108 -0.2543  0.3342
  355MPD2     H 5373   2.561   1.642  12.338  0.8608  0.2398  1.1504
  355MPD2    H1 5374   2.618   1.251  12.503 -1.1288 -0.1989  0.2228
  355MPD2    H2 5375   2.312   1.328  12.216  0.2655  0.3775 -0.7681
  355MPD2    H3 5376   2.424   1.186  12.379  0.9004 -0.3946  0.7199
  355MPD2     N 5377   2.733   1.496  12.483  0.8818  0.2019 -0.4886
  355MPD2    H5 5378   2.749   1.596  12.473 -1.3590  0.6325  0.3124
  355MPD2    N1 5379   2.351   1.597  12.208 -0.4550  0.1625 -0.3677
  355MPD2    H7 5380   2.270   1.560  12.160 -0.8668 -1.4437  1.5431
  356TMC3    C1 5381   2.957   1.481  12.543 -0.1447 -0.7166 -0.7697
  356TMC3    C2 5382   3.020   1.487  12.420  0.4161 -0.1216  0.2594
  356TMC3    C3 5383   3.076   1.607  12.385 -0.1125  0.0381 -0.2416
  356TMC3    C4 5384   2.940   1.587  12.625 -0.0802  0.5810 -0.4158
  356TMC3    C5 5385   2.986   1.707  12.584  0.2773  0.0449 -0.6575
  356TMC3    C6 5386   3.060   1.723  12.466  0.2917  0.8103 -0.3437
  356TMC3     C 5387   2.834   1.412  12.525 -0.0037 -0.1945  0.5886
  356TMC3     O 5388   2.836   1.291  12.520 -0.4836 -0.0932  0.1201
  356TMC3     H 5389   3.015   1.399  12.356  1.2212  1.8028 -2.4367
  356TMC3    H1 5390   2.892   1.571  12.721 -1.0985 -0.6640 -1.1391
  356TMC3    H2 5391   3.116   1.812  12.442 -2.3042  3.2512  2.6806
  356TMC3    C7 5392   2.954   1.817  12.670  0.1199 -0.6394  0.6561
  356TMC3    C8 5393   3.140   1.607  12.257 -0.0818 -1.2354 -0.0935
  356TMC3    O1 5394   2.845   1.816  12.729  0.0583  0.1987  0.0524
  356TMC3    O2 5395   3.167   1.490  12.222  0.4087 -0.3452 -0.6256
  357MPD2     C 5396   1.606   0.431   0.868 -0.5270 -1.2933 -0.1582
  357MPD2    C1 5397   1.692   0.337   0.927 -0.8205 -0.4029 -0.0308
  357MPD2    C2 5398   1.660   0.278   1.051  0.3385 -0.7980  0.7179
  357MPD2    C3 5399   1.532   0.295   1.101  0.1213  0.4040  0.3305
  357MPD2    C4 5400   1.442   0.380   1.037 -0.6754 -0.2623 -0.3388
  357MPD2    C5 5401   1.480   0.455   0.929  0.1926  0.7661  0.6581
  357MPD2     H 5402   1.730   0.211   1.099 -0.0931 -2.3446 -0.8108
  357MPD2    H1 5403   1.337   0.381   1.063  0.1840 -0.5373  3.0799
  357MPD2    H2 5404   1.626   0.474   0.770  0.7163  0.2605  0.7783
  357MPD2    H3 5405   1.411   0.524   0.881 -0.5639 -2.1499 -2.5311
  357MPD2     N 5406   1.486   0.226   1.217  0.2198  0.0636  0.0265
  357MPD2    H5 5407   1.401   0.265   1.256  0.0914 -1.3398  1.1418
  357MPD2    N1 5408   1.819   0.314   0.857  0.1606  0.1806  0.1340
  357MPD2    H7 5409   1.828   0.367   0.771  2.6281  0.2950  0.4533
  358TMC3    C1 5410   2.025   0.220   0.817  0.0942 -0.0402  0.1921
  358TMC3    C2 5411   1.991   0.186   0.691  0.0817 -0.2204 -0.8682
  358TMC3    C3 5412   2.059   0.085   0.623 -0.2574  0.1140 -0.2058
  358TMC3    C4 5413   2.128   0.158   0.876  0.4318 -0.1790 -0.3089
  358TMC3    C5 5414   2.210   0.073   0.802  0.5839 -0.2720  0.2475
  358TMC3    C6 5415   2.172   0.031   0.676  0.3405 -0.4037 -0.1488
  358TMC3     C 5416   1.921   0.235   0.911 -0.6758 -1.0311  0.6278
  358TMC3     O 5417   1.933   0.177   1.019 -0.1137  0.2457  0.0659
  358TMC3     H 5418   1.894   0.214   0.652 -0.3569  0.5397  0.7717
  358TMC3    H1 5419   2.160   0.191   0.974 -1.1638 -1.3565  0.6157
  358TMC3    H2 5420   2.241   4.714   0.614 -0.6776 -1.6825 -0.1428
  358TMC3    C7 5421   2.305   4.720   0.870 -0.0955  0.2835  0.4233
  358TMC3    C8 5422   2.011   0.047   0.493 -0.5160  0.5895 -0.1859
  358TMC3    O1 5423   2.358   4.632   0.803  0.2311  0.7265  0.1281
  358TMC3    O2 5424   1.935   0.122   0.436  0.1280 -0.0233 -0.5769
  359MPD2     C 5425   2.914   4.574  13.075  0.6419 -0.3832  0.5000
  359MPD2    C1 5426   2.922   4.596  12.936 -0.6516 -0.2366  0.4233
  359MPD2    C2 5427   2.922   4.494  12.843  0.6132  0.3632 -0.6961
  359MPD2    C3 5428   2.916   4.365  12.885  0.4359 -0.6075  0.0737
  359MPD2    C4 5429   2.915   4.337  13.024 -0.7229  0.7370  0.0537
  359MPD2    C5 5430   2.918   4.441  13.117 -0.4673 -0.4368  0.4327
  359MPD2     H 5431   2.912   4.519  12.738 -1.2651  0.1195 -0.5795
  359MPD2    H1 5432   2.918   4.238  13.067 -2.5591  0.0337 -1.4240
  359MPD2    H2 5433   2.912   4.653  13.148 -2.3379 -1.7692  1.9212
  359MPD2    H3 5434   2.931   4.413  13.221  2.0307  1.4086  0.6238
  359MPD2     N 5435   2.923   4.253  12.794 -0.3339  0.0450  0.0588
  359MPD2    H5 5436   2.938   4.158  12.826 -0.1765  0.2449  0.5764
  359MPD2    N1 5437   2.947   4.731  12.896  0.4496 -0.2912  0.0167
  359MPD2    H7 5438   2.946   0.003  12.795 -0.0309 -1.5392 -0.1012
  360TMC3    C1 5439   3.028   0.216  12.880  0.6491  0.3109 -0.1101
  360TMC3    C2 5440   3.156   0.261  12.901  0.0246 -0.3529 -0.3828
  360TMC3    C3 5441   3.230   0.292  12.789  0.1897  0.7394  0.4509
  360TMC3    C4 5442   2.971   0.218  12.757  0.8395 -0.6974 -0.4390
  360TMC3    C5 5443   3.048   0.256  12.647  0.0127 -0.0110  0.2226
  360TMC3    C6 5444   3.178   0.298  12.664 -0.2823 -0.2505  0.6019
  360TMC3     C 5445   2.995   0.103  12.964  0.1531 -0.4364  0.1321
  360TMC3     O 5446   3.029   0.101  13.084  0.0418  0.3854  0.3859
  360TMC3     H 5447   3.200   0.238  12.998  1.1476 -1.2401 -1.1015
  360TMC3    H1 5448   2.872   0.173  12.750  1.0100 -1.1574  0.1277
  360TMC3    H2 5449   3.233   0.320  12.573 -2.1612 -1.1314 -0.7427
  360TMC3    C7 5450   2.980   0.251  12.519 -0.2190 -0.3377 -0.0865
  360TMC3    C8 5451   3.378   0.276  12.797 -0.3467  0.4421  0.1970
  360TMC3    O1 5452   2.859   0.279  12.512 -0.0877 -0.5106  0.0940
  360TMC3    O2 5453   3.430   0.246  12.903 -0.0737  0.3346  0.4051
  361MPD2     C 5454   4.665   3.114  16.862  0.0236 -0.4712 -0.2422
  361MPD2    C1 5455   4.558   3.044  16.930  0.4005 -0.1476  0.3368
  361MPD2    C2 5456   4.587   2.972  17.048  0.2388 -0.4853 -0.3205
  361MPD2    C3 5457   4.716   2.971  17.102  0.0400  1.4658 -0.2678
  361MPD2    C4 5458   0.078   3.037  17.035  0.4080  0.4383 -0.4039
  361MPD2    C5 5459   0.050   3.106  16.918 -0.4685  0.6286  0.3224
  361MPD2     H 5460   4.509   2.916  17.098  0.3059 -0.7739 -0.5421
  361MPD2    H1 5461   0.183   3.031  17.058  0.5296 -2.7468 -1.8081
  361MPD2    H2 5462   4.657   3.160  16.765  1.3022 -1.6421 -0.8966
  361MPD2    H3 5463   0.133   3.148  16.862  0.7246 -1.5093  0.4775
  361MPD2     N 5464   0.015   2.896  17.215  0.1973  0.3038  0.0078
  361MPD2    H5 5465   0.114   2.890  17.236 -0.0845  0.9681  1.5451
  361MPD2    N1 5466   4.425   3.047  16.872  0.1128 -0.0440 -0.5235
  361MPD2    H7 5467   4.403   3.109  16.794  0.6643 -1.1118 -1.5171
  362TMC3    C1 5468   4.200   3.038  16.859 -0.4274  0.7840  0.2061
  362TMC3    C2 5469   4.094   3.056  16.941  0.2237  0.0106  0.2347
  362TMC3    C3 5470   3.997   3.134  16.889 -0.2531 -0.3505 -0.2635
  362TMC3    C4 5471   4.212   3.085  16.726 -0.0373 -0.1631 -0.1365
  362TMC3    C5 5472   4.108   3.149  16.677  0.1337 -0.1600  0.0354
  362TMC3    C6 5473   3.999   3.174  16.758 -0.8077 -0.2663 -0.5384
  362TMC3     C 5474   4.320   2.986  16.925 -0.0705  0.3877 -0.3817
  362TMC3     O 5475   4.305   2.901  17.014  0.1176  0.1660 -0.7296
  362TMC3     H 5476   4.099   3.041  17.048  0.9623 -1.9667 -0.0768
  362TMC3    H1 5477   4.294   3.054  16.664  0.5739 -0.2691  0.7194
  362TMC3    H2 5478   3.916   3.233  16.720 -0.1317  1.8107  1.2145
  362TMC3    C7 5479   4.112   3.210  16.545 -0.6220  0.2544 -0.5679
  362TMC3    C8 5480   3.876   3.148  16.961 -0.4205  0.1451 -0.0773
  362TMC3    O1 5481   4.217   3.275  16.520 -0.1095 -0.0606 -0.3009
  362TMC3    O2 5482   3.821   3.050  16.997 -0.0759  0.4385  0.1663
  363TMC3    C1 5483   2.988   1.412  10.315 -0.1476 -0.4096  0.5515
  363TMC3    C2 5484   2.984   1.301  10.390  0.7207 -0.8071  0.5892
  363TMC3    C3 5485   2.860   1.261  10.430 -0.5838  0.3534 -0.2466
  363TMC3    C4 5486   2.877   1.489  10.296  0.0599 -0.0808 -0.1593
  363TMC3    C5 5487   2.756   1.449  10.333  0.1162  0.1564  0.2137
  363TMC3    C6 5488   2.748   1.337  10.407  0.0345 -0.2739 -0.2431
  363TMC3     C 5489   3.117   1.479  10.315 -0.0310 -0.8126  0.4219
  363TMC3     O 5490   3.135   1.558  10.225 -0.1280 -0.4333 -0.4457
  363TMC3     H 5491   3.072   1.239  10.401  0.2950 -1.3975  0.6858
  363TMC3    H1 5492   2.884   1.572  10.227 -2.3400  0.7372  0.5833
  363TMC3    H2 5493   2.650   1.295  10.428 -0.6545  2.1366  1.3973
  363TMC3    C7 5494   2.635   1.522  10.312  0.4061 -0.5764  0.0086
  363TMC3    C8 5495   2.851   1.123  10.478  0.1917 -0.3260 -0.2624
  363TMC3    O1 5496   2.544   1.505  10.394  0.2894 -0.0481 -0.2937
  363TMC3    O2 5497   2.732   1.087  10.493  0.5752  0.3071 -0.1336
  364MPD2     C 5498   1.491   0.589  10.419  0.4402  0.3295  0.2832
  364MPD2    C1 5499   1.448   0.649  10.535  0.0125 -0.1106  0.2258
  364MPD2    C2 5500   1.494   0.612  10.661 -0.3581 -0.2663 -0.0255
  364MPD2    C3 5501   1.578   0.499  10.664  0.1455 -0.0363 -0.4606
  364MPD2    C4 5502   1.622   0.442  10.550  0.0778  0.3186  0.2429
  364MPD2    C5 5503   1.577   0.484  10.426 -0.0717  0.2424  0.6524
  364MPD2     H 5504   1.452   0.649  10.754 -2.0519  1.3330 -1.4302
  364MPD2    H1 5505   1.695   0.363  10.555  0.9304  1.0132 -1.2238
  364MPD2    H2 5506   1.465   0.629  10.322  2.2465 -1.1500 -0.8000
  364MPD2    H3 5507   1.595   0.429  10.335  1.5493 -0.3877  1.3410
  364MPD2     N 5508   1.624   0.441  10.787  0.0208  0.2490 -0.2180
  364MPD2    H5 5509   1.712   0.392  10.787  0.1448  0.4714 -0.7092
  364MPD2    N1 5510   1.356   0.753  10.521 -0.8154 -0.6631 -0.3195
  364MPD2    H7 5511   1.303   0.763  10.435 -1.5070  0.5778  0.2624
  365TMC3    C1 5512   1.196   0.905  10.585  0.3474  0.1749  0.1617
  365TMC3    C2 5513   1.181   0.936  10.444  0.1842 -0.8944 -0.3288
  365TMC3    C3 5514   1.050   0.953  10.401 -0.3775 -0.1809 -0.4614
  365TMC3    C4 5515   1.093   0.901  10.671 -0.4374  0.2251 -0.6514
  365TMC3    C5 5516   0.960   0.928  10.623 -0.2991 -0.4746  0.4052
  365TMC3    C6 5517   0.938   0.942  10.489 -0.6478 -0.6812 -0.2638
  365TMC3     C 5518   1.312   0.834  10.626  0.0670  0.3139 -0.0023
  365TMC3     O 5519   1.345   0.856  10.744  0.9607  0.9171  0.0867
  365TMC3     H 5520   1.260   0.942  10.371  0.5502  0.3177  0.1755
  365TMC3    H1 5521   1.106   0.894  10.778 -0.7491  1.2795 -0.5421
  365TMC3    H2 5522   0.836   0.957  10.454 -0.6071  0.4171  0.0971
  365TMC3    C7 5523   0.844   0.864  10.693 -0.4669 -0.2070  0.2893
  365TMC3    C8 5524   1.026   0.991  10.261  0.4836  0.2035 -1.0979
  365TMC3    O1 5525   0.730   0.890  10.656 -0.1078  0.0268 -0.2745
  365TMC3    O2 5526   0.925   1.057  10.240 -0.1982  0.4026  0.0464
  366MPD2     C 5527   4.251   1.701  15.292 -0.5233  0.3559  0.1707
  366MPD2    C1 5528   4.307   1.722  15.168 -0.6396  0.6846  0.3219
  366MPD2    C2 5529   4.295   1.631  15.068 -0.5181 -0.6944 -0.0606
  366MPD2    C3 5530   4.230   1.510  15.100 -0.4811 -0.7697 -0.2106
  366MPD2    C4 5531   4.163   1.495  15.221  0.1156  0.0338 -0.2487
  366MPD2    C5 5532   4.168   1.595  15.311  0.0181  0.4413 -0.2732
  366MPD2     H 5533   4.355   1.639  14.978 -0.5011  2.5885  0.2422
  366MPD2    H1 5534   4.113   1.402  15.243 -1.5928  1.2885  1.1373
  366MPD2    H2 5535   4.255   1.772  15.374  0.6711 -1.3181  1.5568
  366MPD2    H3 5536   4.124   1.581  15.409 -0.0748  0.7074 -0.2773
  366MPD2     N 5537   4.250   1.408  15.008  0.7350  0.8873 -0.1348
  366MPD2    H5 5538   4.290   1.429  14.917  1.3242 -0.4466 -0.1764
  366MPD2    N1 5539   4.390   1.839  15.138  0.2623  0.3542 -0.0011
  366MPD2    H7 5540   4.425   1.843  15.043  0.9012  1.4287  0.2795
  367TMC3    C1 5541   4.537   2.012  15.171  0.3208  0.5998  0.1535
  367TMC3    C2 5542   4.659   2.022  15.226  0.0559 -0.7022  0.2703
  367TMC3    C3 5543   0.021   2.082  15.158  0.2773 -0.3931 -0.3362
  367TMC3    C4 5544   4.508   2.068  15.047  0.3238  0.7331 -0.2389
  367TMC3    C5 5545   4.616   2.125  14.981 -0.4816  0.4145 -0.3170
  367TMC3    C6 5546   0.003   2.138  15.034  0.6039  0.1308  1.0121
  367TMC3     C 5547   4.446   1.923  15.237 -0.2657  0.2645  0.2042
  367TMC3     O 5548   4.447   1.899  15.353 -0.4343 -0.0337 -0.3573
  367TMC3     H 5549   4.686   1.995  15.327  4.1428  0.4547 -0.4987
  367TMC3    H1 5550   4.404   2.072  15.017  0.6905  0.2803 -1.5852
  367TMC3    H2 5551   0.089   2.155  14.970 -0.7892 -0.4065 -1.0259
  367TMC3    C7 5552   4.588   2.202  14.866  0.5503  0.4597  0.3467
  367TMC3    C8 5553   0.152   2.078  15.228 -0.0787 -0.7035  0.1490
  367TMC3    O1 5554   4.474   2.249  14.865  0.0041  0.5251 -0.6574
  367TMC3    O2 5555   0.174   1.980  15.295  0.0529 -0.3739 -0.7947
  368MPD2     C 5556   1.586   3.644  13.409  0.3218 -0.4279  0.2352
  368MPD2    C1 5557   1.588   3.730  13.298  0.5612 -1.0516  0.7210
  368MPD2    C2 5558   1.675   3.709  13.194 -0.0663  0.2662 -0.3956
  368MPD2    C3 5559   1.756   3.595  13.190 -0.1787 -0.1835  0.0338
  368MPD2    C4 5560   1.765   3.516  13.304 -0.6602 -0.0256 -0.3648
  368MPD2    C5 5561   1.670   3.534  13.407  0.6270  0.2291 -0.0700
  368MPD2     H 5562   1.670   3.765  13.101  1.4107  2.6081  0.9131
  368MPD2    H1 5563   1.815   3.420  13.302  1.3565  1.0121  0.8340
  368MPD2    H2 5564   1.539   3.667  13.504 -1.5725  1.0940 -1.0671
  368MPD2    H3 5565   1.671   3.457  13.483  3.2618 -0.6663 -1.0248
  368MPD2     N 5566   1.841   3.562  13.075  0.0174  0.4239 -0.3644
  368MPD2    H5 5567   1.876   3.467  13.077  3.2456  1.5602 -1.2105
  368MPD2    N1 5568   1.498   3.842  13.302  0.8226 -0.2433 -0.5641
  368MPD2    H7 5569   1.435   3.856  13.380 -2.1808 -0.7005 -2.8772
  369TMC3    C1 5570   1.378   4.037  13.217  0.6367  0.3927 -0.2856
  369TMC3    C2 5571   1.388   4.121  13.108  0.6743 -0.3727  0.2529
  369TMC3    C3 5572   1.281   4.126  13.014 -0.3307 -0.7563 -0.1527
  369TMC3    C4 5573   1.260   3.977  13.245  0.0715  0.5337  0.5145
  369TMC3    C5 5574   1.161   3.977  13.150  0.1071  0.5538  0.2741
  369TMC3    C6 5575   1.171   4.043  13.026  0.4944 -0.0609 -1.0574
  369TMC3     C 5576   1.488   3.939  13.208  0.1328  0.1895  0.8384
  369TMC3     O 5577   1.573   3.977  13.128  0.5183  0.0531 -0.1583
  369TMC3     H 5578   1.482   4.172  13.090  0.0673  0.6848  0.0702
  369TMC3    H1 5579   1.253   3.912  13.332 -0.8959 -0.4188 -0.2814
  369TMC3    H2 5580   1.087   4.046  12.957 -1.3334 -0.9641  1.1245
  369TMC3    C7 5581   1.080   3.860  13.161 -0.0755 -0.2593  0.2911
  369TMC3    C8 5582   1.295   4.204  12.892  0.1815 -0.3674 -0.6207
  369TMC3    O1 5583   1.047   3.822  13.274  0.0878 -0.1377  0.1686
  369TMC3    O2 5584   1.192   4.234  12.831  0.1168  0.0647  0.2527
  370TMC3    C1 5585   0.967   4.077  16.252 -0.5410 -0.2359 -0.2460
  370TMC3    C2 5586   0.883   4.016  16.339  0.5819  0.0470 -0.0404
  370TMC3    C3 5587   0.803   3.914  16.287  0.2768  0.0011 -0.7017
  370TMC3    C4 5588   0.978   4.044  16.124  0.0749 -0.2289  0.1053
  370TMC3    C5 5589   0.915   3.928  16.081  0.1202  0.4951 -0.2525
  370TMC3    C6 5590   0.823   3.867  16.161 -0.8521  0.8633  0.5567
  370TMC3     C 5591   1.057   4.173  16.315  1.2258 -0.1081 -0.3883
  370TMC3     O 5592   1.061   4.159  16.434  0.4822 -0.2314 -0.0401
  370TMC3     H 5593   0.875   4.055  16.439  0.5225  1.7146 -0.7066
  370TMC3    H1 5594   1.054   4.095  16.066 -1.0034  0.8589 -0.3535
  370TMC3    H2 5595   0.769   3.779  16.127  0.0918  0.4555  0.1244
  370TMC3    C7 5596   0.986   3.872  15.963  0.3295  0.2743  0.8208
  370TMC3    C8 5597   0.702   3.843  16.377 -0.0652 -1.1492 -0.3516
  370TMC3    O1 5598   1.013   3.948  15.868 -0.2052 -0.0364  0.0269
  370TMC3    O2 5599   0.652   3.737  16.340  0.0576  0.6652 -0.2240
  371TMC3    C1 5600   2.181   2.202  15.603 -0.4276  0.3311 -0.4783
  371TMC3    C2 5601   2.050   2.182  15.646 -0.9717 -0.2322  0.2590
  371TMC3    C3 5602   1.981   2.287  15.689 -0.7819 -0.5076 -0.0797
  371TMC3    C4 5603   2.247   2.318  15.618 -0.9576 -0.2928  0.3698
  371TMC3    C5 5604   2.174   2.421  15.677  0.3435 -0.1022  0.3963
  371TMC3    C6 5605   2.039   2.410  15.700 -0.2397 -0.5706  0.1795
  371TMC3     C 5606   2.253   2.089  15.557  0.2667  0.4249  0.3677
  371TMC3     O 5607   2.343   2.118  15.477  0.2368 -0.3165 -0.8491
  371TMC3     H 5608   1.996   2.089  15.637 -0.2863 -0.3545 -2.6843
  371TMC3    H1 5609   2.345   2.334  15.575 -1.0397 -0.3525  0.1620
  371TMC3    H2 5610   1.991   2.487  15.759 -0.3606  0.2742 -1.0027
  371TMC3    C7 5611   2.224   2.557  15.679 -1.0543 -0.4231  0.1946
  371TMC3    C8 5612   1.854   2.261  15.749 -0.2248 -0.1438  0.4708
  371TMC3    O1 5613   2.150   2.651  15.705  0.2431 -0.2755  0.1643
  371TMC3    O2 5614   1.833   2.154  15.797 -0.3036  0.0486  0.2774
  372MPD2     C 5615   2.085   3.923  13.240 -0.2422  0.0491  0.6337
  372MPD2    C1 5616   2.158   3.849  13.330 -0.5141 -0.6117 -0.0574
  372MPD2    C2 5617   2.099   3.810  13.447  0.4189  0.0906 -0.2426
  372MPD2    C3 5618   1.964   3.827  13.472  0.5352  0.0195 -0.4689
  372MPD2    C4 5619   1.888   3.904  13.389  0.3235 -0.2790  0.2318
  372MPD2    C5 5620   1.948   3.948  13.264 -0.1373  0.1065  0.6218
  372MPD2     H 5621   2.166   3.763  13.518  1.5009 -0.5377 -1.6625
  372MPD2    H1 5622   1.782   3.921  13.406  0.5582  2.7215 -1.2581
  372MPD2    H2 5623   2.131   3.972  13.155 -0.5368  2.2863  1.7664
  372MPD2    H3 5624   1.888   4.008  13.198 -0.0339  0.1456  0.5638
  372MPD2     N 5625   1.908   3.770  13.591 -1.1135 -0.3747 -0.1545
  372MPD2    H5 5626   1.970   3.717  13.652 -1.5239  2.3399  2.6016
  372MPD2    N1 5627   2.297   3.832  13.323 -0.1047 -0.0018  0.2622
  372MPD2    H7 5628   2.344   3.784  13.398 -1.1885  1.0754  1.6256
  373TMC3    C1 5629   1.762   3.678  13.735 -0.1672  0.5897  0.9012
  373TMC3    C2 5630   1.663   3.697  13.826 -0.0148 -0.6105  0.2094
  373TMC3    C3 5631   1.633   3.600  13.920 -0.0249  0.3621 -0.2755
  373TMC3    C4 5632   1.817   3.555  13.725 -0.1157 -1.1514  0.4161
  373TMC3    C5 5633   1.777   3.455  13.814 -0.0231  0.1995 -0.0433
  373TMC3    C6 5634   1.690   3.480  13.918  0.0000 -0.3948 -0.5738
  373TMC3     C 5635   1.785   3.780  13.640  0.6214 -0.8954  0.0775
  373TMC3     O 5636   1.685   3.837  13.603  0.5124  0.1060 -0.4514
  373TMC3     H 5637   1.604   3.787  13.824  0.8349 -0.0031  2.9056
  373TMC3    H1 5638   1.887   3.536  13.645  0.3520  0.6222  0.4103
  373TMC3    H2 5639   1.659   3.394  13.976 -1.8136  0.3945 -0.3719
  373TMC3    C7 5640   1.869   3.342  13.826 -0.5915 -0.5023 -1.1279
  373TMC3    C8 5641   1.508   3.621  13.988  0.2049 -0.1346 -0.1551
  373TMC3    O1 5642   1.956   3.324  13.748  0.0535 -0.1156 -0.2502
  373TMC3    O2 5643   1.444   3.714  13.943  0.0144  0.3621  0.2472
  374TMC3    C1 5644   1.664   4.018  10.235  0.4675  0.2595  0.3180
  374TMC3    C2 5645   1.771   4.100  10.212 -0.2953  0.2046  0.3014
  374TMC3    C3 5646   1.866   4.044  10.130  0.6306 -0.0840 -0.3071
  374TMC3    C4 5647   1.637   3.905  10.166 -0.3173  0.5197  0.4305
  374TMC3    C5 5648   1.730   3.857  10.085  0.2788 -0.2615 -0.4776
  374TMC3    C6 5649   1.849   3.924  10.064  0.2391 -0.1590  0.8998
  374TMC3     C 5650   1.567   4.053  10.335  0.2219  0.2406  0.0053
  374TMC3     O 5651   1.451   4.016  10.328 -0.6646  0.4785 -0.0754
  374TMC3     H 5652   1.781   4.196  10.260 -0.8136 -0.1082  1.0380
  374TMC3    H1 5653   1.536   3.866  10.167 -0.2457  0.2176 -2.6252
  374TMC3    H2 5654   1.912   3.905   9.977 -2.5188 -3.7185 -0.2660
  374TMC3    C7 5655   1.697   3.739  10.002 -0.3345 -0.1257 -0.2699
  374TMC3    C8 5656   1.961   4.144  10.086 -0.2863 -0.1988  0.3199
  374TMC3    O1 5657   1.588   3.685  10.022  0.0383 -0.1609  0.0327
  374TMC3    O2 5658   2.004   4.126   9.974 -0.4818  0.4466  0.2728
  375MPD2     C 5659   2.380   4.201  17.252 -0.0376 -0.2080  0.4328
  375MPD2    C1 5660   2.283   4.137  17.174 -0.9632 -0.0583  0.3825
  375MPD2    C2 5661   2.329   4.048  17.079 -0.0633  0.1749 -0.8836
  375MPD2    C3 5662   2.460   4.008  17.073 -0.0554  0.7126  0.0170
  375MPD2    C4 5663   2.552   4.067  17.159  0.7658 -0.1404  0.3792
  375MPD2    C5 5664   2.512   4.162  17.250  0.2007 -0.3185  0.1562
  375MPD2     H 5665   2.252   4.012  17.011 -1.3140  1.5571 -0.2133
  375MPD2    H1 5666   2.658   4.041  17.157  0.0817 -2.9838  2.8232
  375MPD2    H2 5667   2.357   4.265  17.336  0.3581  0.5831 -0.0603
  375MPD2    H3 5668   2.576   4.201  17.329  2.4586 -1.5546 -1.0596
  375MPD2     N 5669   2.512   3.937  16.965 -0.1955  0.3177 -0.8887
  375MPD2    H5 5670   2.611   3.948  16.945 -0.1654  0.3864 -0.7014
  375MPD2    N1 5671   2.146   4.173  17.169 -0.2449 -0.3118 -0.1029
  375MPD2    H7 5672   2.082   4.123  17.108  0.5325 -0.0011 -1.1649
  376TMC3    C1 5673   2.518   3.813  16.767 -0.4690  0.3525  0.0792
  376TMC3    C2 5674   2.630   3.744  16.801  0.0343  0.5333 -0.0618
  376TMC3    C3 5675   2.714   3.699  16.703 -0.6392 -0.0975 -0.4098
  376TMC3    C4 5676   2.483   3.843  16.637 -0.2120 -0.0131 -0.2347
  376TMC3    C5 5677   2.573   3.798  16.542  0.4013  0.4196 -0.1103
  376TMC3    C6 5678   2.679   3.724  16.576  0.1562 -1.2113 -0.1326
  376TMC3     C 5679   2.437   3.864  16.876  0.9992  0.2256  0.2216
  376TMC3     O 5680   2.319   3.857  16.850 -0.3430  0.3382  0.2611
  376TMC3     H 5681   2.672   3.750  16.901  0.6411 -0.5809 -0.2476
  376TMC3    H1 5682   2.387   3.882  16.607  0.5162  0.9166 -1.3579
  376TMC3    H2 5683   2.744   3.687  16.498  0.8667  0.2958 -0.2587
  376TMC3    C7 5684   2.564   3.832  16.396 -0.2717 -0.2209  0.0028
  376TMC3    C8 5685   2.854   3.709  16.727 -0.5295  0.4171 -0.4682
  376TMC3    O1 5686   2.609   3.753  16.313  0.0667 -0.3343 -0.3227
  376TMC3    O2 5687   2.892   3.639  16.819 -0.5199 -0.0270 -0.1556
  377MPD2     C 5688   0.931   4.279  13.053  0.0058  0.0140  0.1847
  377MPD2    C1 5689   0.866   4.197  12.965  0.4431  0.9636 -0.1575
  377MPD2    C2 5690   0.813   4.080  13.008  0.3281  0.1710 -0.0215
  377MPD2    C3 5691   0.815   4.047  13.143 -0.7831 -0.2031  0.4603
  377MPD2    C4 5692   0.874   4.132  13.230  0.5873  0.1525 -0.2587
  377MPD2    C5 5693   0.936   4.244  13.184  0.5074  0.1158  0.1513
  377MPD2     H 5694   0.760   4.012  12.942  1.5579  0.3539 -1.1768
  377MPD2    H1 5695   0.885   4.115  13.337 -0.1630 -0.9440 -0.3492
  377MPD2    H2 5696   0.969   4.371  13.012 -0.7046  0.2105 -0.0222
  377MPD2    H3 5697   0.973   4.309  13.261 -2.4044  1.7413  0.1813
  377MPD2     N 5698   0.760   3.928  13.191  0.3109 -0.1912 -0.4827
  377MPD2    H5 5699   0.778   3.890  13.283  0.1435  3.3837  1.0209
  377MPD2    N1 5700   0.874   4.225  12.829  0.4435 -0.5001 -0.9300
  377MPD2    H7 5701   0.954   4.273  12.790 -0.0478 -1.6376 -3.3304
  378TMC3    C1 5702   0.722   4.264  12.393  0.1359  0.6602  0.3681
  378TMC3    C2 5703   0.691   4.238  12.523  0.0738  0.1660 -0.5442
  378TMC3    C3 5704   0.796   4.233  12.612  1.3078 -0.2196  0.3317
  378TMC3    C4 5705   0.848   4.297  12.344  0.3032 -0.2673 -0.4761
  378TMC3    C5 5706   0.950   4.290  12.442 -0.7208  0.2886  0.0785
  378TMC3    C6 5707   0.928   4.264  12.579 -0.0643  0.1747  0.1724
  378TMC3     C 5708   0.616   4.305  12.305 -0.1086  0.0160  0.2056
  378TMC3     O 5709   0.510   4.338  12.361  0.1375 -0.1942  0.0976
  378TMC3     H 5710   0.590   4.231  12.562  0.4062  1.4599  0.5242
  378TMC3    H1 5711   0.869   4.321  12.240 -0.0907  3.2657  0.2575
  378TMC3    H2 5712   1.010   4.243  12.646 -0.4470  0.7890  0.8313
  378TMC3    C7 5713   1.091   4.293  12.395  0.1021  0.2029  0.7093
  378TMC3    C8 5714   0.775   4.191  12.748 -0.5307 -0.3071  0.3904
  378TMC3    O1 5715   1.174   4.352  12.469 -0.0554  0.3141 -0.0426
  378TMC3    O2 5716   0.657   4.164  12.782 -0.0638  0.2279  0.0933
  379MPD2     C 5717   0.721   1.955  16.337 -1.0500  0.0731  0.3368
  379MPD2    C1 5718   0.817   1.905  16.250  0.3800  0.2174  0.9202
  379MPD2    C2 5719   0.939   1.862  16.296 -0.5174 -0.9286 -0.3743
  379MPD2    C3 5720   0.971   1.871  16.430 -0.1442 -0.2070 -0.3531
  379MPD2    C4 5721   0.874   1.915  16.521 -0.1750  0.1345  0.3803
  379MPD2    C5 5722   0.753   1.961  16.473 -0.0343 -0.5367  0.8474
  379MPD2     H 5723   1.008   1.818  16.225  1.3729  1.2062  0.1230
  379MPD2    H1 5724   0.899   1.931  16.625  0.3919  1.1115  0.0926
  379MPD2    H2 5725   0.638   2.011  16.297 -0.3222  0.1476 -1.0726
  379MPD2    H3 5726   0.693   2.012  16.547  0.1093  1.1640 -0.1990
  379MPD2     N 5727   1.090   1.830  16.493 -0.3538 -0.0986 -0.8607
  379MPD2    H5 5728   1.098   1.828  16.595 -1.2903  0.0456 -0.7873
  379MPD2    N1 5729   0.782   1.897  16.117 -0.4725  0.2368  0.8323
  379MPD2    H7 5730   0.693   1.938  16.090 -0.3475  0.1413  0.2630
  380TMC3    C1 5731   0.777   1.851  15.891  0.9389 -0.0175  0.3250
  380TMC3    C2 5732   0.768   1.736  15.825 -0.2004 -0.3202  0.1752
  380TMC3    C3 5733   0.691   1.741  15.711 -0.2955  0.4233 -0.3895
  380TMC3    C4 5734   0.726   1.980  15.853  0.1145 -0.4831  0.6749
  380TMC3    C5 5735   0.650   1.977  15.740 -0.2053  0.2876 -0.6722
  380TMC3    C6 5736   0.628   1.857  15.668 -0.9559  0.0146  1.0982
  380TMC3     C 5737   0.846   1.831  16.016  0.0077 -0.5197 -0.0772
  380TMC3     O 5738   0.939   1.754  16.020 -0.0351 -0.1490  0.4274
  380TMC3     H 5739   0.808   1.648  15.873 -1.7615 -2.0187 -1.6131
  380TMC3    H1 5740   0.741   2.069  15.914 -0.9985  0.0365  0.1831
  380TMC3    H2 5741   0.582   1.859  15.570  0.7281  0.2494  0.3062
  380TMC3    C7 5742   0.612   2.104  15.682 -0.3320 -0.2825 -0.5381
  380TMC3    C8 5743   0.686   1.626  15.624 -0.0026  0.5219  0.3202
  380TMC3    O1 5744   0.649   2.206  15.739 -0.2238 -0.2136 -0.2432
  380TMC3    O2 5745   0.586   1.610  15.552 -0.3574  0.1600  0.0422
  381TMC3    C1 5746   0.666   3.130  16.100  0.5366 -0.0990 -0.7760
  381TMC3    C2 5747   0.746   3.242  16.108 -0.2823  0.2377 -0.9756
  381TMC3    C3 5748   0.740   3.314  16.225 -0.2244  0.5737 -0.6158
  381TMC3    C4 5749   0.578   3.094  16.200  0.1496  0.3660  0.6724
  381TMC3    C5 5750   0.576   3.164  16.313  0.3802 -0.0259 -0.4539
  381TMC3    C6 5751   0.660   3.274  16.325  0.0452 -0.3035  0.0694
  381TMC3     C 5752   0.655   3.048  15.984 -0.2611  1.2247 -0.1929
  381TMC3     O 5753   0.561   2.976  15.984  0.6740  0.3569  0.5663
  381TMC3     H 5754   0.800   3.279  16.022 -0.4514  4.7155  0.8447
  381TMC3    H1 5755   0.518   3.004  16.190 -0.0349  0.3422  1.9480
  381TMC3    H2 5756   0.664   3.326  16.420  2.1207  0.5279 -0.4665
  381TMC3    C7 5757   0.496   3.116  16.424  0.2299 -0.8890  0.6176
  381TMC3    C8 5758   0.838   3.420  16.230  0.6088 -0.2963  1.0348
  381TMC3    O1 5759   0.472   3.001  16.417 -0.1264 -0.3749  0.2447
  381TMC3    O2 5760   0.884   3.454  16.120  0.4202 -0.5693  0.2753
  382MPD2     C 5761   0.224   0.950  16.757 -0.3692 -0.2991 -0.1709
  382MPD2    C1 5762   0.210   1.010  16.880 -0.5134 -0.6865 -1.1286
  382MPD2    C2 5763   0.171   0.935  16.987 -0.0013  0.7207  0.2877
  382MPD2    C3 5764   0.155   0.796  16.977 -0.4928  0.6935 -0.8324
  382MPD2    C4 5765   0.166   0.742  16.851 -0.7918 -0.1377 -0.1582
  382MPD2    C5 5766   0.200   0.815  16.743  0.9083 -0.1695  0.3553
  382MPD2     H 5767   0.151   0.970  17.088  0.9153  3.1019 -0.3569
  382MPD2    H1 5768   0.176   0.635  16.838 -1.3248 -0.4527  2.0015
  382MPD2    H2 5769   0.244   1.007  16.667 -2.2553 -0.5665 -0.7677
  382MPD2    H3 5770   0.223   0.780  16.643 -1.3764 -0.5877 -0.0206
  382MPD2     N 5771   0.118   0.706  17.083 -1.0366 -0.3112  0.0728
  382MPD2    H5 5772   0.130   0.607  17.066 -0.6413 -0.1872 -0.3689
  382MPD2    N1 5773   0.231   1.151  16.897 -0.0122 -0.0270 -0.2973
  382MPD2    H7 5774   0.227   1.181  16.994  0.4152  1.0110 -0.5972
  383TMC3    C1 5775   0.039   0.635  17.297  0.0892  0.5989 -0.1049
  383TMC3    C2 5776   0.001   0.516  17.252  0.1336 -0.2683  0.0326
  383TMC3    C3 5777   4.711   0.411  17.337 -0.4179 -0.3320 -0.1585
  383TMC3    C4 5778   0.062   0.655  17.431  0.4033 -0.2496  0.0744
  383TMC3    C5 5779   0.041   0.549  17.516 -0.2127 -0.2101  0.5199
  383TMC3    C6 5780   4.729   0.430  17.470  0.2798  1.1818  0.1461
  383TMC3     C 5781   0.070   0.744  17.209  0.0417  0.8545 -0.6997
  383TMC3     O 5782   0.046   0.856  17.258  0.2434  0.0985  0.2524
  383TMC3     H 5783   4.710   0.502  17.148 -1.5397 -0.1101  0.4761
  383TMC3    H1 5784   0.103   0.747  17.472 -1.3322  0.1461  0.9336
  383TMC3    H2 5785   4.702   0.352  17.540 -0.9204 -0.0297 -1.6683
  383TMC3    C7 5786   0.058   0.572  17.660 -0.4281  0.0116  0.3403
  383TMC3    C8 5787   4.650   0.284  17.295  0.7590 -0.5695 -0.1699
  383TMC3    O1 5788   0.114   0.676  17.692  0.5346 -0.2285 -0.3091
  383TMC3    O2 5789   4.661   0.192  17.369  0.0718  0.5653  0.1703
  384MPD2     C 5790   1.390   1.858  12.096  0.1646  0.2044 -0.1375
  384MPD2    C1 5791   1.424   1.790  12.210  0.0639  0.4824  0.1383
  384MPD2    C2 5792   1.410   1.657  12.209  0.6086  0.0356 -0.6131
  384MPD2    C3 5793   1.380   1.585  12.087 -0.0503  0.3573 -0.0052
  384MPD2    C4 5794   1.338   1.656  11.971  0.3836 -0.1834 -0.5394
  384MPD2    C5 5795   1.349   1.797  11.977  1.1348  0.1281  0.2839
  384MPD2     H 5796   1.425   1.596  12.298 -0.1935 -0.6598 -0.9580
  384MPD2    H1 5797   1.303   1.610  11.879 -0.1457  1.8243 -1.3360
  384MPD2    H2 5798   1.400   1.966  12.089  0.2951  0.1921 -0.1446
  384MPD2    H3 5799   1.318   1.862  11.895  0.1043 -3.8902 -2.4933
  384MPD2     N 5800   1.384   1.454  12.104 -0.5167 -0.3196 -0.2594
  384MPD2    H5 5801   1.413   1.418  12.194 -0.4124  0.6230  0.0896
  384MPD2    N1 5802   1.442   1.861  12.332  0.2881 -0.0255 -0.1386
  384MPD2    H7 5803   1.419   1.960  12.334  0.0784 -0.0751 -0.0960
  385TMC3    C1 5804   1.356   1.224  12.050 -0.0404 -0.3698 -0.0672
  385TMC3    C2 5805   1.240   1.155  12.082 -0.2280 -0.8619 -0.3856
  385TMC3    C3 5806   1.240   1.073  12.190 -1.1882  0.1441 -0.0755
  385TMC3    C4 5807   1.458   1.217  12.144  0.6638  0.4964 -0.4145
  385TMC3    C5 5808   1.455   1.133  12.254  0.0365 -0.6226  0.0786
  385TMC3    C6 5809   1.343   1.060  12.277 -0.0122  0.0284 -0.1484
  385TMC3     C 5810   1.338   1.363  12.008  0.4014 -0.3222 -0.8198
  385TMC3     O 5811   1.292   1.382  11.896  0.3762 -0.1338  0.1251
  385TMC3     H 5812   1.155   1.150  12.015  0.3373  0.3992 -1.2207
  385TMC3    H1 5813   1.550   1.269  12.121  1.1652 -1.1784 -2.2504
  385TMC3    H2 5814   1.335   0.981  12.351 -0.5763  1.1233  0.9561
  385TMC3    C7 5815   1.497   1.214  12.370 -1.0671  0.9280  0.5007
  385TMC3    C8 5816   1.138   0.973  12.208 -0.6398  0.2449 -0.2112
  385TMC3    O1 5817   1.528   1.331  12.337 -0.6087  0.4915 -0.3398
  385TMC3    O2 5818   1.121   0.933  12.324  0.3046  0.2669 -0.3842
  386TMC3    C1 5819   2.155   4.126  11.768  0.0531 -0.0202 -1.8097
  386TMC3    C2 5820   2.171   4.128  11.634  0.1150  0.2437 -0.9423
  386TMC3    C3 5821   2.065   4.128  11.556  0.6613 -0.4458  0.8318
  386TMC3    C4 5822   2.036   4.159  11.823  0.2830  0.4766 -0.2539
  386TMC3    C5 5823   1.933   4.185  11.736 -0.0713  0.1771  0.7274
  386TMC3    C6 5824   1.945   4.174  11.602 -0.0702  0.5130  0.6291
  386TMC3     C 5825   2.227   4.023  11.843  0.2854 -0.8399 -0.1114
  386TMC3     O 5826   2.155   3.950  11.907 -0.9552 -0.4073  0.3356
  386TMC3     H 5827   2.264   4.089  11.594  0.2158 -0.1996 -0.2760
  386TMC3    H1 5828   2.015   4.148  11.929 -0.4613 -0.1899 -0.4687
  386TMC3    H2 5829   1.876   4.217  11.530  1.7278  1.1273 -0.7298
  386TMC3    C7 5830   1.807   4.216  11.787 -0.4387  0.4180 -0.1661
  386TMC3    C8 5831   2.082   4.154  11.415  0.5414 -0.2735  0.6252
  386TMC3    O1 5832   1.794   4.236  11.910  0.4702 -0.3928  0.0031
  386TMC3    O2 5833   2.073   4.266  11.369  0.1195  0.6015 -0.4488
  387MPD2     C 5834   4.697   4.112  10.082 -0.0885 -0.0488 -0.1568
  387MPD2    C1 5835   4.581   4.136  10.154  0.0826  0.4162  1.1818
  387MPD2    C2 5836   4.491   4.040  10.183 -0.5354 -0.3294  0.2403
  387MPD2    C3 5837   4.514   3.912  10.132 -0.2466  0.2968  0.0603
  387MPD2    C4 5838   4.632   3.882  10.060  0.8347 -0.3332  1.5433
  387MPD2    C5 5839   4.719   3.981  10.038 -0.4250  0.0381 -0.4858
  387MPD2     H 5840   4.407   4.048  10.251  1.3078 -1.3750  2.6900
  387MPD2    H1 5841   4.643   3.787  10.008  0.3592 -0.4497  1.6546
  387MPD2    H2 5842   0.042   4.182  10.087 -2.3815  2.8110 -2.7986
  387MPD2    H3 5843   0.075   3.954   9.990  0.3325  0.7978  0.5590
  387MPD2     N 5844   4.416   3.818  10.163 -0.0523 -0.4102  0.2650
  387MPD2    H5 5845   4.339   3.846  10.222 -0.7323  0.6734 -1.1495
  387MPD2    N1 5846   4.559   4.253  10.226 -0.9605 -0.4279  0.0353
  387MPD2    H7 5847   4.483   4.253  10.293  0.4596  0.6238  1.6315
  388TMC3    C1 5848   4.611   4.443  10.359  0.9779  0.1037 -0.6891
  388TMC3    C2 5849   4.611   4.578  10.358  0.5114 -0.3717 -0.2684
  388TMC3    C3 5850   4.562   4.645  10.462 -0.5975 -0.5317  0.0697
  388TMC3    C4 5851   4.559   4.377  10.464 -0.1979 -0.0473  0.1665
  388TMC3    C5 5852   4.497   4.446  10.566  0.1186  0.0482  0.0166
  388TMC3    C6 5853   4.499   4.577  10.571  0.3501  0.6582 -0.6271
  388TMC3     C 5854   4.630   4.373  10.227 -0.5627  0.6472 -0.6266
  388TMC3     O 5855   4.701   4.425  10.146  0.1264 -0.9213 -0.3657
  388TMC3     H 5856   4.667   4.625  10.279  0.3887  0.2327  0.0029
  388TMC3    H1 5857   4.556   4.269  10.463 -3.1310  0.0183 -2.0686
  388TMC3    H2 5858   4.464   4.630  10.659 -1.2609 -2.0822  0.3820
  388TMC3    C7 5859   4.410   4.377  10.659  0.4392 -0.0024  0.4427
  388TMC3    C8 5860   4.556   0.053  10.438 -0.7362 -0.5960  0.0556
  388TMC3    O1 5861   4.391   4.421  10.768 -0.0019 -0.0248  0.4578
  388TMC3    O2 5862   4.629   0.102  10.351  0.0058 -0.4624 -0.0895
  389MPD2     C 5863   2.643   3.039  10.828  0.3383 -0.2048  0.8158
  389MPD2    C1 5864   2.553   2.956  10.763 -0.6255  0.6343 -0.2629
  389MPD2    C2 5865   2.514   2.835  10.833 -0.7200  0.3745 -0.6156
  389MPD2    C3 5866   2.561   2.821  10.963 -0.6302 -0.5858 -1.0329
  389MPD2    C4 5867   2.654   2.911  11.020  1.2324  0.0588 -0.0524
  389MPD2    C5 5868   2.689   3.020  10.956  0.6504  0.6848  0.1551
  389MPD2     H 5869   2.466   2.763  10.768 -1.8530 -1.1505  1.9007
  389MPD2    H1 5870   2.701   2.884  11.114  2.4530 -1.8314 -1.2114
  389MPD2    H2 5871   2.684   3.126  10.777 -1.8862  0.0158 -0.5895
  389MPD2    H3 5872   2.759   3.087  11.003  1.1033  1.3007 -1.3933
  389MPD2     N 5873   2.528   2.708  11.041 -0.3792 -0.2372  0.2913
  389MPD2    H5 5874   2.572   2.695  11.132  2.1772  0.1941 -0.8857
  389MPD2    N1 5875   2.533   2.973  10.625 -0.2979 -0.6425  0.2103
  389MPD2    H7 5876   2.587   3.048  10.583 -2.6235  0.7715 -0.2859
  390TMC3    C1 5877   2.407   2.524  11.114 -0.0659  0.1335  0.2595
  390TMC3    C2 5878   2.451   2.554  11.237 -0.1882 -0.4011 -0.3805
  390TMC3    C3 5879   2.436   2.448  11.328 -0.5929 -0.6657 -0.6692
  390TMC3    C4 5880   2.356   2.398  11.077 -0.8546  0.0742  0.1920
  390TMC3    C5 5881   2.361   2.295  11.162 -0.1620 -0.0588  0.3441
  390TMC3    C6 5882   2.387   2.322  11.296  0.3240 -0.4019 -0.5321
  390TMC3     C 5883   2.431   2.622  11.007 -0.1976 -0.2591 -0.5707
  390TMC3     O 5884   2.378   2.596  10.901  0.1521  0.4719 -0.3929
  390TMC3     H 5885   2.516   2.637  11.263 -0.0795 -0.7257  0.3794
  390TMC3    H1 5886   2.341   2.381  10.970 -1.9371 -2.5569  0.7528
  390TMC3    H2 5887   2.388   2.236  11.363  1.3896 -0.3251 -0.4537
  390TMC3    C7 5888   2.296   2.169  11.122 -0.0398 -0.2948 -0.6232
  390TMC3    C8 5889   2.461   2.480  11.466  0.0686  0.3768  0.1140
  390TMC3    O1 5890   2.326   2.127  11.012  0.1190 -0.4169  0.8756
  390TMC3    O2 5891   2.502   2.590  11.493  0.0938 -0.1389  0.6404
  391MPD2     C 5892   2.898   4.378  11.338  0.6869  0.6775  0.1381
  391MPD2    C1 5893   2.904   4.512  11.303 -0.7669  0.2004  0.6120
  391MPD2    C2 5894   2.825   4.541  11.192  0.6353  0.3071  1.0164
  391MPD2    C3 5895   2.774   4.443  11.109 -0.3800 -0.6299 -0.5509
  391MPD2    C4 5896   2.791   4.310  11.135 -0.5997 -0.4683 -0.1723
  391MPD2    C5 5897   2.845   4.282  11.257  0.5419  0.7191  0.2563
  391MPD2     H 5898   2.826   4.643  11.156  1.2100 -0.0948 -0.0955
  391MPD2    H1 5899   2.751   4.233  11.070  0.0570 -2.0473  1.2960
  391MPD2    H2 5900   2.949   4.335  11.423 -1.1335  2.2806  2.0325
  391MPD2    H3 5901   2.853   4.179  11.289 -0.4628 -0.0357 -1.8994
  391MPD2     N 5902   2.703   4.486  10.996  0.1512  0.0651 -0.7997
  391MPD2    H5 5903   2.722   4.582  10.972 -0.9691  1.0656  2.4209
  391MPD2    N1 5904   2.980   4.602  11.386  0.0998 -0.2107 -0.3895
  391MPD2    H7 5905   3.024   4.573  11.473  0.5589  1.2029 -0.1598
  392TMC3    C1 5906   2.576   4.477  10.798  0.2134  0.0367 -0.0947
  392TMC3    C2 5907   2.487   4.408  10.718  0.9858 -0.2741  0.1959
  392TMC3    C3 5908   2.489   4.442  10.585 -0.1887 -0.5715  0.3526
  392TMC3    C4 5909   2.656   4.578  10.748  0.5526  0.2149  0.1158
  392TMC3    C5 5910   2.657   4.601  10.614 -0.3968  0.4879 -0.3771
  392TMC3    C6 5911   2.579   4.528  10.527 -1.0597  0.7715 -0.4393
  392TMC3     C 5912   2.628   4.406  10.910  0.5543 -0.3250 -0.6555
  392TMC3     O 5913   2.595   4.288  10.911  0.4232  0.0347  0.1278
  392TMC3     H 5914   2.417   4.338  10.763  0.1820  0.3173 -0.1363
  392TMC3    H1 5915   2.732   4.621  10.813 -0.0696 -0.8637  1.5533
  392TMC3    H2 5916   2.592   4.527  10.419  0.4590  0.3134 -0.2494
  392TMC3    C7 5917   2.774   4.673  10.569  0.2558  0.2883 -0.0926
  392TMC3    C8 5918   2.373   4.412  10.513 -0.4567 -0.0751 -0.6839
  392TMC3    O1 5919   2.823   0.009  10.650 -0.0245  0.0180  0.0832
  392TMC3    O2 5920   2.298   4.332  10.559 -0.0887 -0.9322  0.0918
  393TMC3    C1 5921   0.396   1.882  11.052  0.1851  0.4098 -0.0177
  393TMC3    C2 5922   0.294   1.820  10.978 -0.8412  0.9117  0.6554
  393TMC3    C3 5923   0.238   1.712  11.036  0.0060 -0.0178  0.6396
  393TMC3    C4 5924   0.434   1.833  11.174  0.1395  0.2336 -0.3063
  393TMC3    C5 5925   0.374   1.721  11.225  0.0439 -0.7332 -0.1339
  393TMC3    C6 5926   0.269   1.665  11.162 -0.7785 -0.1833  0.3160
  393TMC3     C 5927   0.443   2.013  11.007  0.1159 -0.3292 -0.2046
  393TMC3     O 5928   0.410   2.055  10.898 -0.2940  0.0074 -0.4379
  393TMC3     H 5929   0.275   1.838  10.873 -0.5982 -0.6187  0.3437
  393TMC3    H1 5930   0.525   1.877  11.214 -0.0205  0.4856 -0.2213
  393TMC3    H2 5931   0.213   1.590  11.216 -0.5472 -1.1196 -0.7352
  393TMC3    C7 5932   0.420   1.658  11.344 -0.0834  0.1875  1.1572
  393TMC3    C8 5933   0.112   1.659  10.979  0.1044  0.7297 -0.3988
  393TMC3    O1 5934   0.341   1.676  11.436  0.4461 -0.4832 -0.0704
  393TMC3    O2 5935   0.063   1.568  11.041 -0.1459  0.1431  0.5606
  394TMC3    C1 5936   2.442   2.957  10.409  0.8858  0.3042 -0.1740
  394TMC3    C2 5937   2.397   2.857  10.333  0.0286 -0.5268  0.3743
  394TMC3    C3 5938   2.405   2.879  10.197 -0.0565 -0.7999  0.3385
  394TMC3    C4 5939   2.483   3.080  10.366  0.0664 -0.1837  0.2605
  394TMC3    C5 5940   2.470   3.103  10.233 -0.5076 -0.0493  0.9843
  394TMC3    C6 5941   2.423   3.003  10.147  0.6994  0.6132  0.3722
  394TMC3     C 5942   2.441   2.912  10.547 -0.1397  0.2870 -0.5019
  394TMC3     O 5943   2.364   2.820  10.572  0.1673  0.2465  0.6624
  394TMC3     H 5944   2.386   2.757  10.373 -4.4161 -1.0877 -2.2361
  394TMC3    H1 5945   2.501   3.157  10.441  0.7999  1.2784 -1.4161
  394TMC3    H2 5946   2.419   3.026  10.041 -0.8020 -0.4224  0.1979
  394TMC3    C7 5947   2.500   3.237  10.177 -0.9181  0.0425 -0.5463
  394TMC3    C8 5948   2.367   2.767  10.117  0.0652 -0.1736 -0.4635
  394TMC3    O1 5949   2.605   3.292  10.208  0.2170  0.2952 -0.5495
  394TMC3    O2 5950   2.329   2.788  10.005 -0.3264  0.3636 -0.0912
  395TMC3    C1 5951   3.272   3.996  14.776  0.6285  0.4714  0.3719
  395TMC3    C2 5952   3.205   3.942  14.668 -0.0787 -0.0886 -0.0451
  395TMC3    C3 5953   3.239   4.010  14.547 -0.7197  0.0556  0.3913
  395TMC3    C4 5954   3.362   4.102  14.779  0.1997 -0.1599  0.5973
  395TMC3    C5 5955   3.397   4.156  14.660  0.7895 -0.8193 -0.2955
  395TMC3    C6 5956   3.333   4.112  14.541 -0.0384  0.0051 -0.0125
  395TMC3     C 5957   3.249   3.950  14.913 -0.7015  0.6369  0.2487
  395TMC3     O 5958   3.261   4.037  15.000 -0.0187 -0.0741  0.3406
  395TMC3     H 5959   3.151   3.850  14.687 -2.0424  1.1235  0.2323
  395TMC3    H1 5960   3.405   4.145  14.869  1.6604 -2.0025  0.7930
  395TMC3    H2 5961   3.344   4.164  14.447 -0.8876 -0.0198 -0.1248
  395TMC3    C7 5962   3.513   4.249  14.659  0.6030  0.5158  0.1645
  395TMC3    C8 5963   3.165   3.973  14.423  0.6570  0.2416 -0.5800
  395TMC3    O1 5964   3.539   4.302  14.761  0.1607 -0.2967  0.1728
  395TMC3    O2 5965   3.215   4.008  14.316  0.5664 -0.5439  0.0343
  396MPD2     C 5966   2.576   0.377  16.796 -0.2514  0.5183  0.4127
  396MPD2    C1 5967   2.680   0.416  16.876  0.0466 -0.2434 -0.5087
  396MPD2    C2 5968   2.754   0.527  16.837 -0.0996  0.4932 -0.2970
  396MPD2    C3 5969   2.723   0.597  16.720  0.4356 -0.4526  0.2623
  396MPD2    C4 5970   2.615   0.555  16.651 -0.6727  0.5212 -0.2266
  396MPD2    C5 5971   2.544   0.444  16.680  0.6827  0.0885  0.2909
  396MPD2     H 5972   2.845   0.554  16.889 -0.7758 -1.3546  1.8365
  396MPD2    H1 5973   2.588   0.614  16.565 -0.1788  3.7496  1.8306
  396MPD2    H2 5974   2.519   0.287  16.816 -0.2911  0.2555 -0.9371
  396MPD2    H3 5975   2.462   0.405  16.622 -0.3099 -1.5898  2.8256
  396MPD2     N 5976   2.798   0.710  16.678  0.0845  0.5068 -0.1944
  396MPD2    H5 5977   2.879   0.738  16.733  0.9227  0.7427 -1.5306
  396MPD2    N1 5978   2.699   0.337  16.997  0.1785  0.1051 -1.0190
  396MPD2    H7 5979   2.628   0.269  17.026 -0.4904  0.9065 -0.7713
  397TMC3    C1 5980   2.811   0.281  17.205  0.3980 -0.4989 -0.1733
  397TMC3    C2 5981   2.928   0.214  17.222 -0.3171  0.3647 -0.2563
  397TMC3    C3 5982   2.928   0.083  17.251  0.3228 -0.2119 -0.2337
  397TMC3    C4 5983   2.694   0.220  17.226  0.3955 -0.4028 -0.0246
  397TMC3    C5 5984   2.700   0.090  17.270 -0.3392 -0.2159 -0.1610
  397TMC3    C6 5985   2.812   0.013  17.280 -0.0795  0.1898  0.2547
  397TMC3     C 5986   2.803   0.360  17.082 -0.4367 -0.2332 -0.1328
  397TMC3     O 5987   2.904   0.428  17.063  0.0150 -0.2687  0.1050
  397TMC3     H 5988   3.021   0.250  17.180  1.2160 -1.1195  1.8048
  397TMC3    H1 5989   2.602   0.277  17.230  0.4687 -0.2741 -0.2038
  397TMC3    H2 5990   2.811   4.646  17.308 -0.5209 -1.0136 -4.3193
  397TMC3    C7 5991   2.582   0.028  17.326 -0.1904 -0.1036  0.2461
  397TMC3    C8 5992   3.048   0.007  17.219 -0.9388 -0.3981 -0.2635
  397TMC3    O1 5993   2.478   0.071  17.294 -0.4460 -0.5546 -0.0072
  397TMC3    O2 5994   3.028   4.622  17.191  0.1521 -0.0479 -0.2976
  398MPD2     C 5995   1.044   1.868   0.021  0.3945  0.6553 -0.4067
  398MPD2    C1 5996   1.102   1.768   0.094  0.1277 -0.1142  0.1511
  398MPD2    C2 5997   1.226   1.804   0.154  0.3237  0.0064  0.0317
  398MPD2    C3 5998   1.296   1.917   0.135  0.7482  0.7606  0.7977
  398MPD2    C4 5999   1.239   2.011   0.053  0.4176 -0.4999  0.0985
  398MPD2    C5 6000   1.106   1.988   0.001  0.5559  0.1027  0.4701
  398MPD2     H 6001   1.267   1.717   0.204 -0.6207 -0.5909 -0.2224
  398MPD2    H1 6002   1.289   2.107   0.042  1.0921 -0.4745  3.5718
  398MPD2    H2 6003   0.945   1.858  17.727  0.7736 -1.3028 -0.8258
  398MPD2    H3 6004   1.056   2.070  17.699 -0.4274 -0.8660 -0.1287
  398MPD2     N 6005   1.412   1.930   0.210  0.3201  0.2271 -0.0908
  398MPD2    H5 6006   1.436   1.853   0.271 -1.3006  0.6249  1.0514
  398MPD2    N1 6007   1.045   1.643   0.125  0.6943 -0.0893  0.0637
  398MPD2    H7 6008   1.099   1.603   0.201 -0.5390 -1.0057  0.4474
  399TMC3    C1 6009   0.938   1.437   0.093  0.2438  0.0716  0.1571
  399TMC3    C2 6010   1.042   1.377   0.164  0.0103 -0.0371 -0.0892
  399TMC3    C3 6011   1.042   1.249   0.195 -0.1100  0.5630 -0.1129
  399TMC3    C4 6012   0.835   1.362   0.052 -0.4496 -1.0072  1.0956
  399TMC3    C5 6013   0.829   1.231   0.099 -0.8409  0.8066 -0.3980
  399TMC3    C6 6014   0.936   1.173   0.162  0.0181 -0.2164 -0.5773
  399TMC3     C 6015   0.947   1.578   0.057  0.4323 -0.4341  0.5354
  399TMC3     O 6016   0.885   1.614  17.703  0.0822 -0.0944 -0.2557
  399TMC3     H 6017   1.135   1.429   0.188 -0.2707  1.4651 -2.2620
  399TMC3    H1 6018   0.752   1.410   0.001  0.0465 -0.4469  0.8282
  399TMC3    H2 6019   0.922   1.070   0.194  1.1716 -0.5951 -1.2713
  399TMC3    C7 6020   0.730   1.133   0.057 -0.6776  0.6172 -0.0758
  399TMC3    C8 6021   1.175   1.189   0.219 -0.8979 -0.2819  0.1224
  399TMC3    O1 6022   0.772   1.016   0.040  0.6917  0.3565  0.3150
  399TMC3    O2 6023   1.274   1.262   0.211  0.0798 -0.1039 -0.1721
  400TMC3    C1 6024   0.186   4.568  17.061  0.4349  0.3705 -0.1164
  400TMC3    C2 6025   0.115   4.453  17.030 -0.1793 -0.7331  0.0796
  400TMC3    C3 6026   4.735   4.468  16.960 -0.2425 -0.0969 -0.4390
  400TMC3    C4 6027   0.148   4.685  17.013 -0.2754 -0.6870 -0.5208
  400TMC3    C5 6028   0.030   4.689  16.948 -0.3255 -0.2331  0.6145
  400TMC3    C6 6029   4.698   4.583  16.902  0.3229 -0.0259 -0.0850
  400TMC3     C 6030   0.255   4.566  17.194  0.0191  0.1066 -0.5322
  400TMC3     O 6031   0.229   4.483  17.279  0.4677  0.6232 -0.1093
  400TMC3     H 6032   0.147   4.354  17.058 -5.2666 -2.4250 -0.0972
  400TMC3    H1 6033   0.195   0.033  17.060  0.2224  0.0949 -2.4706
  400TMC3    H2 6034   4.597   4.590  16.866  0.1470 -1.6775  0.0813
  400TMC3    C7 6035   0.004   0.084  16.889 -0.0579  0.0432 -0.5806
  400TMC3    C8 6036   4.666   4.343  16.940 -0.2558 -0.6949 -0.5793
  400TMC3    O1 6037   0.075   0.184  16.920 -0.0491  0.1739  0.2702
  400TMC3    O2 6038   4.686   4.259  17.024  0.0443 -0.4028 -0.0116
  401MPD2     C 6039   3.335   3.139   0.178 -0.3495  0.2883  0.1948
  401MPD2    C1 6040   3.380   3.085   0.298 -0.5195  0.4516  0.4694
  401MPD2    C2 6041   3.339   2.962   0.338  0.3607 -0.8307  0.5426
  401MPD2    C3 6042   3.241   2.893   0.271 -0.7443 -0.4780 -0.5728
  401MPD2    C4 6043   3.191   2.948   0.153  0.1270  0.2788  0.3749
  401MPD2    C5 6044   3.237   3.066   0.113 -0.4303  0.0658 -0.5562
  401MPD2     H 6045   3.371   2.928   0.436 -1.3742 -0.9254  1.0661
  401MPD2    H1 6046   3.108   2.898   0.104 -1.1469  1.6817  1.0862
  401MPD2    H2 6047   3.377   3.227   0.130 -1.4408  1.2773  1.0606
  401MPD2    H3 6048   3.209   3.098   0.013 -2.7840  0.9646  0.3926
  401MPD2     N 6049   3.197   2.777   0.334  0.2005  0.0376 -1.0703
  401MPD2    H5 6050   3.241   2.758   0.424 -1.5085  0.0675 -0.2247
  401MPD2    N1 6051   3.488   3.150   0.373 -0.1364 -0.8701 -0.3234
  401MPD2    H7 6052   3.508   3.116   0.466 -0.2832  0.9861  0.3791
  402TMC3    C1 6053   3.082   2.578   0.380 -0.3052  0.2140  0.3219
  402TMC3    C2 6054   3.090   2.607   0.519 -0.1481 -0.7508  1.3314
  402TMC3    C3 6055   3.061   2.508   0.603  0.0277  0.6344 -0.7917
  402TMC3    C4 6056   3.022   2.464   0.330 -0.3341 -0.0883 -0.6701
  402TMC3    C5 6057   2.989   2.367   0.422  0.1032 -0.3919  0.3634
  402TMC3    C6 6058   3.013   2.385   0.560  0.0866 -0.6026  0.4702
  402TMC3     C 6059   3.117   2.677   0.286  0.4738 -0.3926 -0.7384
  402TMC3     O 6060   3.065   2.671   0.176 -0.5724  0.2018  0.3662
  402TMC3     H 6061   3.137   2.698   0.557 -2.0449 -0.7044  3.5709
  402TMC3    H1 6062   2.999   2.455   0.225  0.8163 -0.6805 -0.8607
  402TMC3    H2 6063   2.972   2.309   0.625  1.5559 -1.0729  0.8478
  402TMC3    C7 6064   3.047   2.243   0.379  0.8127 -0.3310 -0.2354
  402TMC3    C8 6065   3.069   2.515   0.751 -0.4085 -0.1165  0.2362
  402TMC3    O1 6066   3.034   2.209   0.263  0.2531  0.4645  0.7352
  402TMC3    O2 6067   3.087   2.407   0.800  0.1815  0.1810  0.1116
  403MPD2     C 6068   0.965   1.624  13.214  0.6090  0.0206 -0.7710
  403MPD2    C1 6069   1.004   1.514  13.282  0.1379  0.4012 -0.0455
  403MPD2    C2 6070   1.086   1.535  13.391 -0.2850 -0.6778 -0.6283
  403MPD2    C3 6071   1.117   1.663  13.438 -0.1985  0.0941  0.7761
  403MPD2    C4 6072   1.078   1.772  13.364  0.8599  0.0412 -0.8122
  403MPD2    C5 6073   0.997   1.747  13.256 -0.1191  0.3213 -0.5926
  403MPD2     H 6074   1.126   1.448  13.443  2.6657 -0.0029 -1.7684
  403MPD2    H1 6075   1.103   1.872  13.399 -1.6237  1.2738 -2.6163
  403MPD2    H2 6076   0.890   1.603  13.138 -0.2379  1.4276 -0.3151
  403MPD2    H3 6077   0.957   1.829  13.198 -0.9216  0.4318  0.1204
  403MPD2     N 6078   1.198   1.685  13.551 -0.1130 -0.3366 -0.0088
  403MPD2    H5 6079   1.235   1.779  13.564  0.0573 -0.6461  1.8003
  403MPD2    N1 6080   0.952   1.389  13.243 -0.7919  0.4279 -0.0510
  403MPD2    H7 6081   0.888   1.391  13.165 -0.5704  3.0986 -0.1611
  404TMC3    C1 6082   0.871   1.169  13.279 -0.1982 -0.4376  0.3592
  404TMC3    C2 6083   0.848   1.082  13.376 -0.7220  0.5229  0.0017
  404TMC3    C3 6084   0.875   0.953  13.351 -0.0354 -0.1125 -1.0928
  404TMC3    C4 6085   0.887   1.134  13.151 -0.2159  0.6286  0.0197
  404TMC3    C5 6086   0.897   0.999  13.119  0.2790  0.3352 -0.5972
  404TMC3    C6 6087   0.896   0.908  13.221  0.4131  0.8247 -0.2001
  404TMC3     C 6088   0.965   1.273  13.327 -0.2039 -0.0884  0.0343
  404TMC3     O 6089   1.036   1.247  13.426 -0.5188  0.1028 -0.3739
  404TMC3     H 6090   0.840   1.112  13.480  1.3264  1.2386 -0.0465
  404TMC3    H1 6091   0.891   1.208  13.072 -1.3804 -2.2284 -2.6796
  404TMC3    H2 6092   0.931   0.808  13.199  0.0380  1.2301 -2.6173
  404TMC3    C7 6093   0.920   0.959  12.987  0.4631  0.4981  0.1271
  404TMC3    C8 6094   0.927   0.870  13.457 -0.8911 -0.0422 -0.2366
  404TMC3    O1 6095   0.938   1.050  12.906 -0.3254  0.5820 -0.0611
  404TMC3    O2 6096   1.006   0.784  13.424 -0.5890  0.4030 -0.3050
  405MPD2     C 6097   1.378   1.513  14.806  0.1243  0.6119  0.2002
  405MPD2    C1 6098   1.247   1.538  14.754 -0.0477  0.2597  0.5966
  405MPD2    C2 6099   1.196   1.668  14.770 -0.0135 -0.4455 -0.1206
  405MPD2    C3 6100   1.265   1.762  14.839 -0.9524 -1.0469 -0.7250
  405MPD2    C4 6101   1.392   1.734  14.890  0.3055 -0.2087 -0.0392
  405MPD2    C5 6102   1.447   1.605  14.874  0.2274  0.1377  0.2585
  405MPD2     H 6103   1.093   1.699  14.752 -1.1652 -4.1436  0.0389
  405MPD2    H1 6104   1.438   1.810  14.953 -0.7051  0.8774 -0.5881
  405MPD2    H2 6105   1.427   1.417  14.791 -0.1559  0.5662 -0.4269
  405MPD2    H3 6106   1.539   1.572  14.920 -0.2061  0.0740  1.0807
  405MPD2     N 6107   1.217   1.893  14.848  0.0036  0.4344 -0.1989
  405MPD2    H5 6108   1.142   1.899  14.780  0.8528 -2.8350 -1.4185
  405MPD2    N1 6109   1.179   1.441  14.674 -0.0898 -0.1392  0.4192
  405MPD2    H7 6110   1.201   1.343  14.682  0.5509  0.1197  1.8019
  406TMC3    C1 6111   1.194   2.326  14.767 -0.6499 -0.6745  0.0411
  406TMC3    C2 6112   1.075   2.295  14.713  0.2176  0.2435 -0.8622
  406TMC3    C3 6113   1.016   2.173  14.738  0.6975  0.0855  0.0182
  406TMC3    C4 6114   1.251   2.239  14.852 -0.2523  0.0752 -0.1393
  406TMC3    C5 6115   1.183   2.124  14.882 -0.2277  0.5336 -0.0093
  406TMC3    C6 6116   1.060   2.092  14.833  0.0023 -0.6748 -0.0192
  406TMC3     C 6117   1.265   2.433  14.709  0.0141 -0.6050  0.2507
  406TMC3     O 6118   1.340   2.490  14.789 -0.6760 -0.1462  0.2218
  406TMC3     H 6119   1.018   2.362  14.649 -2.0643  1.6976  2.7050
  406TMC3    H1 6120   1.340   2.268  14.906 -2.9834  1.5257  3.5301
  406TMC3    H2 6121   1.004   2.001  14.853 -0.4856 -0.2735  0.4763
  406TMC3    C7 6122   1.263   2.009  14.908 -0.0681  0.0601 -0.9961
  406TMC3    C8 6123   0.885   2.146  14.674  0.1403 -0.5329 -0.0890
  406TMC3    O1 6124   1.355   2.023  14.984  0.3143 -0.0634 -0.1615
  406TMC3    O2 6125   0.811   2.241  14.649 -0.2501  0.8612 -0.5753
  407MPD2     C 6126   4.014   3.669  10.020  0.0042 -1.1423  0.2245
  407MPD2    C1 6127   4.005   3.802   9.993  0.4284  0.6080  0.5118
  407MPD2    C2 6128   3.897   3.869  10.049  0.3222  0.1126 -1.2863
  407MPD2    C3 6129   3.816   3.813  10.149  1.2906  0.1781 -0.6822
  407MPD2    C4 6130   3.844   3.683  10.180 -0.5911  0.7484  0.3254
  407MPD2    C5 6131   3.941   3.609  10.118 -0.3199 -0.4955 -0.2556
  407MPD2     H 6132   3.873   3.968  10.010  0.1124 -0.5487 -2.8454
  407MPD2    H1 6133   3.784   3.635  10.256 -2.0569  1.1159 -0.6084
  407MPD2    H2 6134   4.084   3.611   9.961  1.9595 -1.2593  2.6720
  407MPD2    H3 6135   3.958   3.505  10.142 -1.4810 -0.0644  2.4559
  407MPD2     N 6136   3.730   3.890  10.233  0.3076  0.3961  0.6579
  407MPD2    H5 6137   3.689   3.840  10.312  0.6827  0.1691  0.7090
  407MPD2    N1 6138   4.090   3.876   9.905  0.2871  0.3631  0.0002
  407MPD2    H7 6139   4.054   3.963   9.866  0.9835  0.8761  0.5173
  408TMC3    C1 6140   4.294   3.949   9.842  0.1647  0.2062 -0.1576
  408TMC3    C2 6141   4.412   3.934   9.768  0.2492  0.6224  0.3370
  408TMC3    C3 6142   4.498   4.044   9.749  0.2881  0.5444 -0.4302
  408TMC3    C4 6143   4.274   4.066   9.906 -0.5667  0.1210 -0.5781
  408TMC3    C5 6144   4.353   4.175   9.875  0.0848  0.0029  0.1907
  408TMC3    C6 6145   4.455   4.169   9.784 -0.0220 -0.1737 -0.2091
  408TMC3     C 6146   4.214   3.839   9.869 -0.2943 -0.1314  0.2979
  408TMC3     O 6147   4.269   3.731   9.882  0.5179  0.1434 -0.3125
  408TMC3     H 6148   4.430   3.836   9.725 -0.8230  0.8333 -0.6131
  408TMC3    H1 6149   4.187   4.082   9.970 -1.0514 -1.3500 -0.8651
  408TMC3    H2 6150   4.526   4.251   9.783  1.0742 -1.1241 -0.1626
  408TMC3    C7 6151   4.320   4.298   9.938 -0.2645 -0.6331 -0.7351
  408TMC3    C8 6152   4.626   4.019   9.689 -0.4067  0.5821  0.1722
  408TMC3    O1 6153   4.253   4.288  10.042  0.3682 -0.4135 -0.4341
  408TMC3    O2 6154   4.643   3.910   9.640  0.6382 -0.0155  0.1828
  409MPD2     C 6155   3.606   4.242  16.576 -0.1085  0.5283 -0.5180
  409MPD2    C1 6156   3.660   4.290  16.688 -0.0470  0.4412  0.1976
  409MPD2    C2 6157   3.710   4.419  16.693  0.1344 -0.4453 -0.0165
  409MPD2    C3 6158   3.728   4.491  16.576  0.1347  0.7383  0.0607
  409MPD2    C4 6159   3.691   4.432  16.457 -0.1733 -0.3673  0.4046
  409MPD2    C5 6160   3.624   4.310  16.462  0.3915  0.0164 -0.2312
  409MPD2     H 6161   3.725   4.444  16.798  1.2170  1.4989 -0.6230
  409MPD2    H1 6162   3.707   4.484  16.363 -2.6928 -0.5307 -0.1228
  409MPD2    H2 6163   3.564   4.142  16.576  2.1817 -0.4248 -0.4588
  409MPD2    H3 6164   3.590   4.264  16.370  1.3920  0.9842 -1.0692
  409MPD2     N 6165   3.792   4.610  16.581 -0.2249  0.7115  0.3138
  409MPD2    H5 6166   3.793   4.657  16.491 -0.2020  0.2297  0.0655
  409MPD2    N1 6167   3.649   4.219  16.811  0.3140 -0.5064  0.1137
  409MPD2    H7 6168   3.706   4.263  16.883  1.1522 -0.3741 -0.6245
  410TMC3    C1 6169   3.936   0.045  16.664 -0.1036  0.7156 -1.3888
  410TMC3    C2 6170   3.998   0.100  16.771 -0.6874  0.1983 -0.3406
  410TMC3    C3 6171   4.089   0.198  16.745 -0.4609  0.5732  0.0249
  410TMC3    C4 6172   3.959   0.083  16.535 -0.5559 -0.3042 -0.2027
  410TMC3    C5 6173   4.044   0.191  16.515  0.5521  0.4252 -0.4597
  410TMC3    C6 6174   4.116   0.245  16.619  0.5937 -0.4426 -0.2340
  410TMC3     C 6175   3.856   4.666  16.695 -0.6595  0.4150  0.1905
  410TMC3     O 6176   3.866   4.628  16.812  0.0229  0.0423  0.2883
  410TMC3     H 6177   3.973   0.064  16.870 -0.9563 -1.8250 -1.1531
  410TMC3    H1 6178   3.901   0.056  16.447  0.7927 -0.4889 -1.0433
  410TMC3    H2 6179   4.192   0.319  16.596  0.0748 -0.5443 -2.2370
  410TMC3    C7 6180   4.029   0.275  16.398  0.2797  0.3838 -0.0939
  410TMC3    C8 6181   4.187   0.228  16.848  0.5411 -0.4045 -0.3701
  410TMC3    O1 6182   4.131   0.338  16.369 -0.3871  0.5724 -0.2719
  410TMC3    O2 6183   4.233   0.340  16.857  0.1784  0.4470  0.1962
  411MPD2     C 6184   3.823   0.328  14.345 -0.4319  0.2689 -0.0220
  411MPD2    C1 6185   3.774   0.344  14.476 -0.1196  0.9318 -0.6259
  411MPD2    C2 6186   3.684   0.249  14.531  0.0954  0.2142  0.1734
  411MPD2    C3 6187   3.647   0.136  14.454  0.6912  0.2162  0.2704
  411MPD2    C4 6188   3.709   0.117  14.330  0.2640 -0.0067  0.2386
  411MPD2    C5 6189   3.788   0.214  14.273  1.1342 -0.3823 -0.5172
  411MPD2     H 6190   3.634   0.268  14.625  0.8227  4.4745 -0.2751
  411MPD2    H1 6191   3.686   0.029  14.272 -1.6094  0.1841  0.6793
  411MPD2    H2 6192   3.880   0.408  14.299 -1.7569  2.0047  1.3654
  411MPD2    H3 6193   3.820   0.202  14.170  2.6172  0.1911 -0.1283
  411MPD2     N 6194   3.550   0.047  14.492  0.1820 -0.4935 -0.4555
  411MPD2    H5 6195   3.546   4.698  14.440  0.3784  0.6124 -2.3063
  411MPD2    N1 6196   3.800   0.467  14.534  0.3494 -0.5317 -0.1971
  411MPD2    H7 6197   3.844   0.541  14.482 -0.3843  0.7974  1.0789
  412TMC3    C1 6198   3.351   4.697  14.607  0.2903 -0.1792 -0.2461
  412TMC3    C2 6199   3.245   4.736  14.682  0.1388 -0.9358  0.3994
  412TMC3    C3 6200   3.140   4.652  14.697  0.9640  0.2087 -0.0173
  412TMC3    C4 6201   3.355   4.579  14.540 -0.6064  0.4275 -0.1068
  412TMC3    C5 6202   3.251   4.492  14.558  0.0030  0.6821 -0.1420
  412TMC3    C6 6203   3.147   4.522  14.648  0.1500 -0.4077 -0.0881
  412TMC3     C 6204   3.463   0.060  14.598 -0.5221 -0.2359 -0.3524
  412TMC3     O 6205   3.476   0.137  14.694  0.5749 -0.8091 -0.1851
  412TMC3     H 6206   3.238   0.096  14.729  1.9651  0.6378 -2.6061
  412TMC3    H1 6207   3.435   4.544  14.476  0.2498  1.5041  0.3926
  412TMC3    H2 6208   3.059   4.460  14.662 -0.8050  0.7336 -1.0262
  412TMC3    C7 6209   3.230   4.398  14.450  0.1287  0.5193 -0.0466
  412TMC3    C8 6210   3.019   4.717  14.664 -0.0889  0.1050 -0.1315
  412TMC3    O1 6211   3.303   4.391  14.354  0.0586 -0.5724  0.2113
  412TMC3    O2 6212   3.031   0.085  14.609  0.5442  0.0567  0.1504
  413MPD2     C 6213   0.843   3.369  15.335  0.4687 -0.4386  0.2555
  413MPD2    C1 6214   0.770   3.277  15.269 -0.4669  0.4116 -0.7015
  413MPD2    C2 6215   0.828   3.153  15.241 -0.1331  0.7294 -0.1466
  413MPD2    C3 6216   0.961   3.126  15.266 -0.1457  0.3043 -0.1283
  413MPD2    C4 6217   1.035   3.223  15.337  0.2423  0.1577 -0.7270
  413MPD2    C5 6218   0.971   3.341  15.377 -0.1328  0.1251  0.0754
  413MPD2     H 6219   0.775   3.081  15.179  0.9610 -1.1102  1.0570
  413MPD2    H1 6220   1.139   3.206  15.362  0.2146  0.2532 -0.5459
  413MPD2    H2 6221   0.813   3.473  15.346 -0.8036 -0.6956 -0.8831
  413MPD2    H3 6222   1.036   3.423  15.406 -0.2976  0.5522 -0.7637
  413MPD2     N 6223   1.030   3.007  15.239  0.1049 -0.3027 -0.2511
  413MPD2    H5 6224   1.129   3.012  15.259 -0.2073 -0.9220  1.4538
  413MPD2    N1 6225   0.647   3.323  15.220  0.1387  0.0080  1.5110
  413MPD2    H7 6226   0.629   3.422  15.229 -2.6853 -0.5421  1.9333
  414TMC3    C1 6227   1.081   2.787  15.173 -0.1341 -0.1705  0.7173
  414TMC3    C2 6228   1.057   2.656  15.195  0.0822 -0.3162 -0.1507
  414TMC3    C3 6229   1.142   2.567  15.137 -0.3395  0.1076 -0.5103
  414TMC3    C4 6230   1.188   2.839  15.105  0.2920  0.1192  0.3364
  414TMC3    C5 6231   1.266   2.743  15.043 -0.1871  0.5331  0.3918
  414TMC3    C6 6232   1.237   2.606  15.049 -0.1734  0.9291 -0.1892
  414TMC3     C 6233   0.976   2.886  15.202  0.5106 -0.1072 -0.0688
  414TMC3     O 6234   0.862   2.850  15.202 -0.5309 -0.0851 -0.0015
  414TMC3     H 6235   0.965   2.610  15.229 -0.1128  0.1899  0.0071
  414TMC3    H1 6236   1.213   2.944  15.103 -0.7389  0.3715  0.6963
  414TMC3    H2 6237   1.308   2.535  15.009  0.7492  1.2460  0.8909
  414TMC3    C7 6238   1.391   2.788  14.983 -0.0631 -0.7074  0.2937
  414TMC3    C8 6239   1.156   2.443  15.197 -0.3620  0.1102  0.3615
  414TMC3    O1 6240   1.411   2.908  14.992 -0.9579 -0.0515  0.0998
  414TMC3    O2 6241   1.197   2.361  15.120 -0.6557 -0.2232 -0.5770
  415TMC3    C1 6242   0.375   1.065  11.018 -0.4965  0.2478 -0.1645
  415TMC3    C2 6243   0.344   1.195  10.973 -0.2524 -0.0687 -0.0122
  415TMC3    C3 6244   0.322   1.208  10.835  0.1075 -0.2250 -0.6892
  415TMC3    C4 6245   0.380   0.959  10.933 -0.3323  0.1705  0.5952
  415TMC3    C5 6246   0.336   0.977  10.801 -0.7008 -0.4510  0.1512
  415TMC3    C6 6247   0.311   1.102  10.751  0.2327 -0.2324 -0.3487
  415TMC3     C 6248   0.399   1.044  11.157 -0.4283  0.0465  0.1576
  415TMC3     O 6249   0.423   0.927  11.187  0.1195  0.1702  0.2945
  415TMC3     H 6250   0.344   1.282  11.038 -1.6773 -0.3894  0.4056
  415TMC3    H1 6251   0.398   0.862  10.977  1.6906  0.2036 -0.1714
  415TMC3    H2 6252   0.296   1.117  10.645 -0.4497  1.7522  0.0217
  415TMC3    C7 6253   0.364   0.865  10.709  0.6128  0.2701  0.7526
  415TMC3    C8 6254   0.336   1.338  10.763  0.7719  0.1963  0.1403
  415TMC3    O1 6255   0.396   0.898  10.597  0.1404 -0.3669  0.0241
  415TMC3    O2 6256   0.286   1.340  10.651  0.5180  0.0065  0.3586
  416MPD2     C 6257   2.477   0.910  12.396 -0.3659 -0.7039 -0.2595
  416MPD2    C1 6258   2.385   0.891  12.297 -0.1687 -0.4300 -0.4331
  416MPD2    C2 6259   2.430   0.811  12.196 -0.2011  0.6057 -0.2739
  416MPD2    C3 6260   2.554   0.757  12.191 -0.5761 -0.6159 -0.4391
  416MPD2    C4 6261   2.639   0.773  12.301  0.4578  0.1864 -0.6046
  416MPD2    C5 6262   2.595   0.851  12.402  0.6318  0.4913  0.6529
  416MPD2     H 6263   2.359   0.802  12.115  0.2549  0.1799 -0.6301
  416MPD2    H1 6264   2.741   0.736  12.300 -0.1510 -1.4948 -2.1490
  416MPD2    H2 6265   2.460   0.983  12.474  0.7312 -2.2048  1.3945
  416MPD2    H3 6266   2.661   0.867  12.486  0.0996  2.1576  0.7497
  416MPD2     N 6267   2.601   0.681  12.083 -0.4981  0.0149  0.2825
  416MPD2    H5 6268   2.694   0.642  12.092  0.0822  1.7164  1.6453
  416MPD2    N1 6269   2.255   0.944  12.312  0.3964 -0.2423  0.2570
  416MPD2    H7 6270   2.227   0.984  12.401  3.2365 -0.1791  1.1190
  417TMC3    C1 6271   2.040   0.995  12.242  0.0850  0.3301 -0.0449
  417TMC3    C2 6272   1.997   0.946  12.366  0.0574  0.3330 -0.9831
  417TMC3    C3 6273   1.864   0.921  12.377 -0.2831 -0.4214  0.2479
  417TMC3    C4 6274   1.955   1.003  12.138 -0.2998  0.8483 -0.2683
  417TMC3    C5 6275   1.829   0.953  12.151 -0.7481  0.3384  0.1488
  417TMC3    C6 6276   1.778   0.923  12.274 -0.3318  0.3655 -0.2558
  417TMC3     C 6277   2.172   0.966  12.204 -1.4980 -0.1687 -0.3697
  417TMC3     O 6278   2.206   0.955  12.087  0.1379 -0.0344  0.0107
  417TMC3     H 6279   2.056   0.917  12.453 -1.4700  1.3287  0.3799
  417TMC3    H1 6280   1.994   1.032  12.041  0.9087  2.2380  0.6320
  417TMC3    H2 6281   1.672   0.911  12.293 -0.3305 -1.1953 -1.2327
  417TMC3    C7 6282   1.739   0.975  12.037  0.6306  1.0501 -0.7878
  417TMC3    C8 6283   1.824   0.906  12.510  0.2592  0.0748 -0.0162
  417TMC3    O1 6284   1.777   1.059  11.961 -0.0560  0.3714  0.5863
  417TMC3    O2 6285   1.731   0.972  12.560 -0.3933  0.0201 -0.8657
  418TMC3    C1 6286   1.852   2.010   0.260 -0.5543  0.2906 -0.2421
  418TMC3    C2 6287   1.732   2.039   0.204  0.0409  0.4148  0.5047
  418TMC3    C3 6288   1.619   2.008   0.270 -0.2133 -0.1736 -0.4794
  418TMC3    C4 6289   1.854   1.946   0.377  0.3976 -0.1576  0.5185
  418TMC3    C5 6290   1.736   1.906   0.434 -0.5087  0.3932  0.1694
  418TMC3    C6 6291   1.611   1.934   0.382  0.5096  0.2328  0.9601
  418TMC3     C 6292   1.961   2.001   0.172  0.2459  0.2681 -0.6578
  418TMC3     O 6293   2.072   2.025   0.216  0.0367 -0.3373 -0.0349
  418TMC3     H 6294   1.724   2.093   0.110 -1.7402  0.0860  0.4723
  418TMC3    H1 6295   1.953   1.920   0.413  0.0100  0.1223  1.7593
  418TMC3    H2 6296   1.523   1.903   0.436 -0.4072  1.5762  0.2444
  418TMC3    C7 6297   1.741   1.788   0.514  0.6198 -0.2710 -0.4632
  418TMC3    C8 6298   1.501   2.031   0.192  0.0389 -0.4104  1.1699
  418TMC3    O1 6299   1.644   1.714   0.516  0.4420  0.1466 -0.1428
  418TMC3    O2 6300   1.511   2.129   0.121  0.2518 -0.5495 -0.1702
  419MPD2     C 6301   4.701   4.657  12.642 -0.6392 -0.3471  0.0366
  419MPD2    C1 6302   4.641   0.035  12.606 -0.1359 -0.2396  0.1277
  419MPD2    C2 6303   4.663   0.145  12.686 -0.2321  0.1545 -0.2200
  419MPD2    C3 6304   0.016   0.149  12.789 -0.0334 -0.4726  0.1984
  419MPD2    C4 6305   0.085   0.030  12.812  0.4242 -0.0904  0.1786
  419MPD2    C5 6306   0.053   4.654  12.747  0.1760  0.7984 -0.1935
  419MPD2     H 6307   4.617   0.242  12.665  0.8876  0.8853  0.7300
  419MPD2    H1 6308   0.147   0.024  12.901  1.7394  0.0443 -0.7321
  419MPD2    H2 6309   4.682   4.565  12.590  0.3287 -0.4116 -0.2105
  419MPD2    H3 6310   0.109   4.567  12.777  1.8117  1.2398 -2.0038
  419MPD2     N 6311   0.030   0.263  12.872  0.5343  0.1013  0.5221
  419MPD2    H5 6312   4.693   0.332  12.872 -0.3639 -0.8681 -2.3089
  419MPD2    N1 6313   4.534   0.032  12.511 -0.1280  0.0233  0.5658
  419MPD2    H7 6314   4.470   0.110  12.520 -0.1551 -0.1280  1.7353
  420TMC3    C1 6315   0.089   0.401  13.034 -1.0235  0.2138 -0.1682
  420TMC3    C2 6316   0.013   0.503  12.971  1.0714 -0.7504  0.1106
  420TMC3    C3 6317   4.700   0.603  13.053  0.5012  0.6111  0.4989
  420TMC3    C4 6318   0.118   0.406  13.163  0.3919  0.1605  0.0516
  420TMC3    C5 6319   0.065   0.500  13.240 -0.4075  0.3654  0.0724
  420TMC3    C6 6320   4.726   0.601  13.187 -0.1137 -0.2284  0.0989
  420TMC3     C 6321   0.130   0.289  12.957  0.4267  0.2228 -0.5791
  420TMC3     O 6322   0.231   0.224  12.988  0.2655  0.1833 -0.1258
  420TMC3     H 6323   0.005   0.517  12.864 -1.0254  1.5732  0.5603
  420TMC3    H1 6324   0.180   0.334  13.214  1.6378 -0.9077 -2.9315
  420TMC3    H2 6325   4.701   0.682  13.255  1.3004 -0.1203  0.4829
  420TMC3    C7 6326   0.091   0.498  13.383 -0.5103 -0.5160  0.1781
  420TMC3    C8 6327   4.627   0.719  12.999 -0.0549 -0.2773  0.1065
  420TMC3    O1 6328   0.176   0.414  13.419 -0.0589  0.5857  0.3359
  420TMC3    O2 6329   4.562   0.785  13.078  0.1138 -0.0615 -0.2683
  421TMC3    C1 6330   1.309   1.648  13.752  0.7318 -0.9762 -0.6798
  421TMC3    C2 6331   1.366   1.772  13.749  0.8596  0.4828  0.3001
  421TMC3    C3 6332   1.452   1.807  13.851 -0.0628  0.8085 -0.4787
  421TMC3    C4 6333   1.351   1.557  13.846 -0.8235 -0.0868  0.6898
  421TMC3    C5 6334   1.458   1.589  13.926 -0.8515 -0.2239  0.0240
  421TMC3    C6 6335   1.494   1.717  13.942 -0.0755 -0.9588  0.5865
  421TMC3     C 6336   1.228   1.592  13.644  0.0593  0.5491 -0.1785
  421TMC3     O 6337   1.206   1.471  13.658 -0.3066  0.4497 -0.2218
  421TMC3     H 6338   1.345   1.839  13.666  1.4452  0.4123  0.0925
  421TMC3    H1 6339   1.305   1.459  13.851  2.4839 -1.6445  0.5545
  421TMC3    H2 6340   1.562   1.743  14.023 -0.3932  0.3595  0.4241
  421TMC3    C7 6341   1.557   1.497  13.958 -0.8113 -0.6748 -0.0604
  421TMC3    C8 6342   1.488   1.941  13.866  0.6914  0.0128 -0.6143
  421TMC3    O1 6343   1.658   1.541  14.001  0.5889 -0.0979  0.1731
  421TMC3    O2 6344   1.535   1.976  13.972  0.4467 -0.1865  0.5541
  422TMC3    C1 6345   3.944   3.482  12.513 -0.1848 -0.4648  0.1889
  422TMC3    C2 6346   3.959   3.507  12.648 -1.2016  0.0729 -0.1986
  422TMC3    C3 6347   3.857   3.451  12.728 -0.0047  0.6085 -1.0721
  422TMC3    C4 6348   3.843   3.410  12.453 -0.5428 -0.0587  0.3746
  422TMC3    C5 6349   3.752   3.357  12.543 -0.7987  0.1513 -0.8530
  422TMC3    C6 6350   3.759   3.374  12.679  0.1070  0.6984 -0.5402
  422TMC3     C 6351   4.047   3.543  12.426 -0.4739 -0.0146  0.1152
  422TMC3     O 6352   4.127   3.617  12.477 -0.3375 -0.1111 -0.6419
  422TMC3     H 6353   4.048   3.553  12.689 -0.8264 -0.4165 -0.4677
  422TMC3    H1 6354   3.845   3.371  12.352 -0.3747  0.5148  0.1571
  422TMC3    H2 6355   3.696   3.313  12.744 -0.2428 -1.0667 -2.5325
  422TMC3    C7 6356   3.628   3.317  12.488 -0.2023 -0.2118  0.1603
  422TMC3    C8 6357   3.867   3.471  12.879 -0.0648 -0.1531  0.3334
  422TMC3    O1 6358   3.618   3.312  12.368 -0.1539 -0.1634  0.8218
  422TMC3    O2 6359   3.958   3.536  12.923  0.0765 -0.0767  0.6900
  423MPD2     C 6360   4.654   3.951   0.377  0.0916  0.0905  0.5589
  423MPD2    C1 6361   0.005   3.856   0.421 -0.3172 -0.2922  0.0457
  423MPD2    C2 6362   0.093   3.792   0.329  0.3630 -0.5511 -0.9445
  423MPD2    C3 6363   0.080   3.810   0.195 -0.1649 -0.4860  0.8417
  423MPD2    C4 6364   4.730   3.899   0.144  0.0282  0.4706 -0.0618
  423MPD2    C5 6365   4.649   3.969   0.236 -0.5579 -0.4277  0.4370
  423MPD2     H 6366   0.168   3.720   0.361 -1.3791 -1.6495  0.6866
  423MPD2    H1 6367   4.715   3.904   0.037 -0.2875  1.1942  0.0168
  423MPD2    H2 6368   4.581   4.001   0.439 -1.3376  1.6153 -2.3887
  423MPD2    H3 6369   4.577   4.042   0.201  0.2776 -0.0491 -0.4688
  423MPD2     N 6370   0.172   3.752   0.108  0.2619 -0.4716 -0.8253
  423MPD2    H5 6371   0.185   3.800   0.020 -1.6339 -0.1609 -0.9338
  423MPD2    N1 6372   0.005   3.804   0.553  0.6938  0.1441  0.2804
  423MPD2    H7 6373   0.056   3.716   0.562 -1.2799 -1.1391 -1.0449
  424TMC3    C1 6374   4.706   3.807   0.787  0.4725 -0.6951 -0.2734
  424TMC3    C2 6375   0.067   3.709   0.803 -0.5952 -0.4915  0.3117
  424TMC3    C3 6376   0.109   3.675   0.931 -0.2654  0.0899  0.2474
  424TMC3    C4 6377   4.644   3.858   0.897  0.6458 -0.5822  0.0861
  424TMC3    C5 6378   4.687   3.817   1.023 -0.4616 -0.7416 -0.4068
  424TMC3    C6 6379   0.053   3.728   1.043 -0.4955 -0.5102  0.1036
  424TMC3     C 6380   4.685   3.868   0.660 -0.6453 -0.4401  0.1520
  424TMC3     O 6381   4.639   3.979   0.663  0.4348  0.3781  0.0108
  424TMC3     H 6382   0.123   3.680   0.714 -1.5652 -0.6225 -0.2615
  424TMC3    H1 6383   4.565   3.932   0.884  0.9229  0.0826  2.1807
  424TMC3    H2 6384   0.099   3.702   1.138 -1.3404 -1.9125  0.1329
  424TMC3    C7 6385   4.629   3.852   1.150  0.6728  0.4195 -0.4115
  424TMC3    C8 6386   0.216   3.576   0.957  0.7369  1.3472  0.2097
  424TMC3    O1 6387   4.670   3.795   1.250 -0.9688 -0.0393 -0.2329
  424TMC3    O2 6388   0.201   3.511   1.062  0.0656 -0.1691  0.1447
  425MPD2     C 6389   4.348   3.038  17.305 -0.0833  0.1719 -0.1113
  425MPD2    C1 6390   4.248   2.939  17.317 -0.4173 -0.2920 -0.2756
  425MPD2    C2 6391   4.120   2.976  17.324 -0.4113  0.4895 -0.2229
  425MPD2    C3 6392   4.082   3.111  17.321  0.0268 -0.2514 -0.3288
  425MPD2    C4 6393   4.178   3.208  17.300 -0.0234 -1.1935 -0.5053
  425MPD2    C5 6394   4.312   3.172  17.303 -0.2723 -0.6484 -0.0465
  425MPD2     H 6395   4.042   2.903  17.346  0.6468 -0.9844 -1.4052
  425MPD2    H1 6396   4.152   3.313  17.303  0.8805 -1.0711  2.6818
  425MPD2    H2 6397   4.452   3.011  17.294 -0.7354 -2.6472  0.6871
  425MPD2    H3 6398   4.383   3.255  17.298 -0.4999 -0.3751  1.1195
  425MPD2     N 6399   3.942   3.128  17.330  0.1843 -0.4725 -0.6113
  425MPD2    H5 6400   3.896   3.038  17.330 -0.4405 -0.1506  1.0949
  425MPD2    N1 6401   4.290   2.804  17.314 -0.2839  0.4795  0.3282
  425MPD2    H7 6402   4.384   2.783  17.283 -0.6979  0.6667 -1.0980
  426TMC3    C1 6403   4.245   2.569  17.288  0.5399  0.2393  0.3513
  426TMC3    C2 6404   4.309   2.573  17.167  0.7099  0.3821 -0.4972
  426TMC3    C3 6405   4.316   2.455  17.099 -0.5470 -0.1592 -0.1335
  426TMC3    C4 6406   4.161   2.461  17.322  0.3410  0.2183 -0.0563
  426TMC3    C5 6407   4.164   2.353  17.249 -0.1879  0.7034  0.0413
  426TMC3    C6 6408   4.244   2.346  17.135  0.2109  0.8662 -0.3122
  426TMC3     C 6409   4.197   2.696  17.320 -0.0225  0.5839 -0.1014
  426TMC3     O 6410   4.084   2.694  17.361 -0.0182  0.0372  0.9109
  426TMC3     H 6411   4.367   2.660  17.138 -0.7182  0.9398 -1.6819
  426TMC3    H1 6412   4.094   2.466  17.407  0.9581 -0.9736  0.5093
  426TMC3    H2 6413   4.246   2.257  17.073  0.0517  0.6247  0.0278
  426TMC3    C7 6414   4.090   2.228  17.286  0.0336  0.2228 -0.3384
  426TMC3    C8 6415   4.335   2.452  16.957  0.0834 -0.0803 -0.2030
  426TMC3    O1 6416   4.116   2.126  17.225  0.5039  0.5464 -0.0128
  426TMC3    O2 6417   4.315   2.351  16.890 -0.5390  0.2843  0.2515
  427MPD2     C 6418   2.977   0.574  14.994 -0.0101  0.7651 -0.1377
  427MPD2    C1 6419   2.917   0.507  15.100 -0.0036 -0.8892  0.0082
  427MPD2    C2 6420   2.779   0.500  15.115 -0.3327  1.2485  0.1430
  427MPD2    C3 6421   2.695   0.573  15.023 -0.1212  0.2506  0.1023
  427MPD2    C4 6422   2.759   0.635  14.917 -0.0120  0.0194 -0.2712
  427MPD2    C5 6423   2.899   0.634  14.906 -0.2127  0.7378 -0.0137
  427MPD2     H 6424   2.741   0.437  15.195 -0.2707 -1.0640 -1.6422
  427MPD2    H1 6425   2.705   0.713  14.863  0.6284  1.1624  0.7405
  427MPD2    H2 6426   3.085   0.583  14.988 -0.0381  2.1610  1.4158
  427MPD2    H3 6427   2.941   0.690  14.824  2.5895  0.8413  1.4886
  427MPD2     N 6428   2.556   0.581  15.038  0.5735 -0.5321  0.0235
  427MPD2    H5 6429   2.498   0.635  14.975  1.6775 -2.4426 -2.6433
  427MPD2    N1 6430   2.986   0.441  15.205  0.0242  0.4034  0.3060
  427MPD2    H7 6431   2.930   0.416  15.285 -1.1999  0.0792 -0.6557
  428TMC3    C1 6432   3.168   0.351  15.323  0.1947 -0.3598  0.5351
  428TMC3    C2 6433   3.104   0.238  15.362 -0.1832  0.2248 -0.6891
  428TMC3    C3 6434   3.168   0.160  15.456 -0.0082 -0.2089 -0.9828
  428TMC3    C4 6435   3.303   0.367  15.348 -0.1063 -0.7291 -0.2613
  428TMC3    C5 6436   3.367   0.280  15.429 -0.7504 -1.1667 -0.9448
  428TMC3    C6 6437   3.297   0.177  15.491  0.7152  0.1199 -0.2653
  428TMC3     C 6438   3.121   0.417  15.203  0.4311  0.2312 -0.5571
  428TMC3     O 6439   3.208   0.435  15.117  0.1938 -0.3586 -0.0907
  428TMC3     H 6440   3.001   0.224  15.332 -0.6061 -1.0467  1.3754
  428TMC3    H1 6441   3.368   0.436  15.296 -0.3204 -0.6345 -0.4033
  428TMC3    H2 6442   3.351   0.115  15.561 -0.0712  1.3345  1.3934
  428TMC3    C7 6443   3.503   0.283  15.454 -0.9983 -0.5453 -0.1292
  428TMC3    C8 6444   3.103   0.034  15.490 -1.0558 -0.7977 -0.2527
  428TMC3    O1 6445   3.532   0.249  15.570  0.3451 -0.0136  0.1932
  428TMC3    O2 6446   3.168   4.687  15.550  0.0115  0.2147 -0.4960
  429MPD2     C 6447   4.412   0.472  17.656 -0.4310  1.0604 -0.0592
  429MPD2    C1 6448   4.376   0.398  17.544 -0.7011 -0.7305  0.7039
  429MPD2    C2 6449   4.339   0.466  17.429  0.0036 -0.5348 -0.0105
  429MPD2    C3 6450   4.340   0.606  17.419 -0.7582  0.1649  0.5832
  429MPD2    C4 6451   4.377   0.681  17.533 -0.1267  0.0364  0.1147
  429MPD2    C5 6452   4.414   0.614  17.645  0.4649  0.4999  0.2152
  429MPD2     H 6453   4.314   0.407  17.342 -0.5183  1.0149 -0.9041
  429MPD2    H1 6454   4.368   0.789  17.541  1.1015  0.1902 -0.5154
  429MPD2    H2 6455   4.428   0.417  17.748 -1.0621  2.3677  0.8181
  429MPD2    H3 6456   4.447   0.665  17.735 -0.9007 -1.1451  1.6398
  429MPD2     N 6457   4.324   0.670  17.295  0.3652 -0.5517  0.3379
  429MPD2    H5 6458   4.336   0.612  17.213 -1.0808  0.7028 -0.7581
  429MPD2    N1 6459   4.381   0.252  17.543 -0.0157 -0.1246  0.5358
  429MPD2    H7 6460   4.345   0.198  17.465 -0.3820  1.2797 -0.2749
  430TMC3    C1 6461   4.348   0.828  17.138 -0.1776  0.2345  0.2095
  430TMC3    C2 6462   4.240   0.883  17.069  0.3373  0.0259 -0.1000
  430TMC3    C3 6463   4.219   0.823  16.947 -0.5185 -0.7488  0.1163
  430TMC3    C4 6464   4.439   0.741  17.088  0.0022  0.0372  1.2320
  430TMC3    C5 6465   4.425   0.702  16.961  0.8697  0.8745  0.2634
  430TMC3    C6 6466   4.305   0.726  16.893 -0.0319  0.4432  0.5471
  430TMC3     C 6467   4.322   0.809  17.280 -0.1352  0.4862  0.6491
  430TMC3     O 6468   4.287   0.897  17.356  0.5443  0.6536 -0.1566
  430TMC3     H 6469   4.166   0.944  17.121  0.3611  0.6792 -0.8326
  430TMC3    H1 6470   4.513   0.692  17.150 -0.4814 -0.4727  1.4085
  430TMC3    H2 6471   4.279   0.687  16.795  1.5523 -0.3819  0.4472
  430TMC3    C7 6472   4.478   0.576  16.938 -0.2767  0.3308  0.3077
  430TMC3    C8 6473   4.100   0.852  16.867  0.3871  0.1032  0.1336
  430TMC3    O1 6474   4.494   0.506  17.036 -0.2910  0.2728 -0.4861
  430TMC3    O2 6475   4.062   0.762  16.794  0.2997  0.8039 -0.3082
  431MPD2     C 6476   4.596   0.558  12.525 -0.3282  0.5343  0.2296
  431MPD2    C1 6477   4.642   0.444  12.457 -0.8288  0.5773 -0.3501
  431MPD2    C2 6478   4.563   0.371  12.369 -0.0354 -0.3683 -0.2227
  431MPD2    C3 6479   4.430   0.415  12.352 -0.3144 -0.1215  0.0410
  431MPD2    C4 6480   4.382   0.522  12.428 -0.3641 -0.2375 -0.3794
  431MPD2    C5 6481   4.466   0.587  12.515  0.6895 -0.3205  0.3008
  431MPD2     H 6482   4.597   0.285  12.312  1.5224 -0.9042  1.5203
  431MPD2    H1 6483   4.280   0.557  12.439 -0.8142 -1.0066 -2.1086
  431MPD2    H2 6484   4.661   0.613  12.593  0.1947  1.9808 -1.4380
  431MPD2    H3 6485   4.432   0.664  12.584  1.0882  0.2160 -0.1041
  431MPD2     N 6486   4.341   0.356  12.269 -0.7673 -0.4760 -1.0294
  431MPD2    H5 6487   4.241   0.361  12.286 -0.5492 -0.1835  0.2188
  431MPD2    N1 6488   0.044   0.409  12.464 -0.1901 -0.4558 -0.2446
  431MPD2    H7 6489   0.081   0.344  12.396  1.0971 -0.0750  0.0958
  432TMC3    C1 6490   4.325   0.135  12.205  0.4089 -0.4076  0.5567
  432TMC3    C2 6491   4.339   0.067  12.091  0.9303  0.0918  1.0567
  432TMC3    C3 6492   4.363   4.672  12.098 -0.0533 -0.5966 -0.0894
  432TMC3    C4 6493   4.344   0.087  12.329 -0.3580  0.0197  0.0179
  432TMC3    C5 6494   4.389   4.692  12.335  0.5196  0.0454  0.3597
  432TMC3    C6 6495   4.381   4.615  12.228  0.1782  0.6604 -0.9155
  432TMC3     C 6496   4.372   0.268  12.172 -0.3133 -0.6409 -0.5979
  432TMC3     O 6497   4.479   0.255  12.119  0.0416  0.3208  0.0319
  432TMC3     H 6498   4.337   0.119  11.996 -0.6715 -1.1048  0.4362
  432TMC3    H1 6499   4.353   0.155  12.413 -0.4519  0.3592 -0.2485
  432TMC3    H2 6500   4.403   4.509  12.231  2.5513  1.1173 -2.4599
  432TMC3    C7 6501   4.506   4.665  12.418  0.6576  0.6688 -0.0231
  432TMC3    C8 6502   4.455   4.624  11.999 -0.3353 -0.4538 -0.3623
  432TMC3    O1 6503   4.576   4.569  12.393  0.2015 -0.4305  0.0096
  432TMC3    O2 6504   4.443   4.668  11.887 -0.2831  0.1195  0.1016
  433MPD2     C 6505   3.474   0.068  11.279  0.0605  0.2395 -0.4041
  433MPD2    C1 6506   3.435   4.693  11.353 -0.0786 -1.1083  0.0787
  433MPD2    C2 6507   3.484   4.669  11.480  0.5024  0.0641  0.2344
  433MPD2    C3 6508   3.568   0.022  11.538 -0.1631 -0.8341  0.2217
  433MPD2    C4 6509   3.597   0.136  11.471 -0.5903  0.3069  0.8188
  433MPD2    C5 6510   3.562   0.160  11.339 -0.5073 -0.7612  0.0491
  433MPD2     H 6511   3.452   4.582  11.537  1.1088 -1.0150 -1.0729
  433MPD2    H1 6512   3.662   0.213  11.512  0.9043 -0.8211  0.5495
  433MPD2    H2 6513   3.441   0.090  11.178 -0.3452  0.0789 -0.3066
  433MPD2    H3 6514   3.600   0.251  11.294 -2.8198 -0.5535 -1.4683
  433MPD2     N 6515   3.611   4.733  11.671  0.9348 -0.0400 -0.4039
  433MPD2    H5 6516   3.594   4.643  11.715  0.2683  0.7091  0.8710
  433MPD2    N1 6517   3.354   4.596  11.286  0.0696 -0.1227  0.1056
  433MPD2    H7 6518   3.328   4.623  11.192 -0.8991  2.1995  1.0346
  434TMC3    C1 6519   3.216   4.406  11.256  0.0833 -0.5304 -0.1861
  434TMC3    C2 6520   3.235   4.274  11.284  0.5075  0.6682  0.0592
  434TMC3    C3 6521   3.259   4.192  11.179 -0.0246  0.6169 -0.5626
  434TMC3    C4 6522   3.196   4.450  11.127  0.3001 -0.1362  0.8592
  434TMC3    C5 6523   3.196   4.353  11.031  0.1491 -0.2337  0.3066
  434TMC3    C6 6524   3.235   4.223  11.050 -0.4259  0.4427  0.1698
  434TMC3     C 6525   3.288   4.492  11.350  0.0976  0.3693  0.6817
  434TMC3     O 6526   3.283   4.455  11.467 -0.3071  0.1950 -0.1179
  434TMC3     H 6527   3.261   4.242  11.384 -0.1768  0.4833  0.1790
  434TMC3    H1 6528   3.155   4.548  11.106  0.7190  0.1363  1.3397
  434TMC3    H2 6529   3.232   4.146  10.974 -2.7299  0.4277  0.2897
  434TMC3    C7 6530   3.110   4.377  10.918  0.3131 -0.5370  0.3369
  434TMC3    C8 6531   3.347   4.083  11.203 -0.0027 -0.1957 -0.9286
  434TMC3    O1 6532   3.102   4.493  10.875  0.8060  0.0775  0.1886
  434TMC3    O2 6533   3.347   4.046  11.322  0.1120 -0.1777  0.0509
  435MPD2     C 6534   1.360   4.085  15.541  0.9143  0.2853  0.0622
  435MPD2    C1 6535   1.273   4.030  15.630 -0.6929 -0.1789 -0.0042
  435MPD2    C2 6536   1.321   3.956  15.731  0.7596  0.2204  0.3316
  435MPD2    C3 6537   1.454   3.928  15.750 -0.4520 -0.0878 -0.6474
  435MPD2    C4 6538   1.540   3.963  15.648  0.2970  0.5287 -0.0108
  435MPD2    C5 6539   1.494   4.047  15.556  0.0220 -0.1640  0.2158
  435MPD2     H 6540   1.258   3.915  15.809  0.2296 -3.3208 -1.9423
  435MPD2    H1 6541   1.647   3.947  15.653  0.4450  0.7189 -2.6247
  435MPD2    H2 6542   1.340   4.152  15.459  1.8539  1.0580  0.4644
  435MPD2    H3 6543   1.558   4.073  15.472 -0.3160 -0.8333 -0.2500
  435MPD2     N 6544   1.490   3.853  15.860 -0.5094  0.2027  0.8512
  435MPD2    H5 6545   1.417   3.824  15.924 -1.3688 -1.9470 -1.0894
  435MPD2    N1 6546   1.137   4.064  15.629 -0.3389 -0.1470 -0.3592
  435MPD2    H7 6547   1.087   4.040  15.714 -3.1507 -0.1152 -2.0091
  436TMC3    C1 6548   0.762   4.125  15.711  0.4346 -0.0243  0.1585
  436TMC3    C2 6549   0.865   4.175  15.630  0.9316  0.0597 -0.1078
  436TMC3    C3 6550   0.925   4.087  15.544  0.0460  0.0640 -0.4632
  436TMC3    C4 6551   0.694   4.010  15.674  0.6063 -0.1516 -0.1634
  436TMC3    C5 6552   0.758   3.929  15.580  0.5340 -0.0864  0.8743
  436TMC3    C6 6553   0.873   3.966  15.511 -0.3323  0.1301 -0.3596
  436TMC3     C 6554   0.725   4.203  15.827  0.9603 -0.4753 -0.8921
  436TMC3     O 6555   0.765   4.321  15.837  0.0200 -0.4491 -0.1739
  436TMC3     H 6556   0.899   4.277  15.643 -1.5961  0.7670  0.9372
  436TMC3    H1 6557   0.612   3.966  15.730  1.0198  0.5038  0.9516
  436TMC3    H2 6558   0.921   3.914  15.429  0.7960 -3.2984  2.4669
  436TMC3    C7 6559   0.727   3.783  15.560 -0.2061  0.2970 -0.0652
  436TMC3    C8 6560   1.061   4.099  15.520 -0.4039  0.3267  0.5127
  436TMC3    O1 6561   0.814   3.702  15.522  0.0982  0.1776 -0.0114
  436TMC3    O2 6562   1.095   4.109  15.402  0.3943 -0.0145  0.4463
  437TMC3    C1 6563   4.470   1.284  12.224 -0.4334  0.4056  0.0080
  437TMC3    C2 6564   4.357   1.273  12.152  0.1596 -0.7150  0.1671
  437TMC3    C3 6565   4.313   1.392  12.102  0.4174 -0.2380  0.3226
  437TMC3    C4 6566   4.525   1.398  12.269 -0.1183  0.2480 -0.1888
  437TMC3    C5 6567   4.466   1.514  12.228 -0.4400 -0.0674 -0.0294
  437TMC3    C6 6568   4.356   1.514  12.145 -0.5990 -1.2165  0.1194
  437TMC3     C 6569   4.519   1.155  12.270  0.7154 -0.2990  0.1309
  437TMC3     O 6570   4.433   1.071  12.297  0.2487  0.4429  0.1945
  437TMC3     H 6571   4.340   1.182  12.095  1.1028  0.1916 -1.5519
  437TMC3    H1 6572   4.604   1.391  12.343 -2.3038  0.2402  2.1490
  437TMC3    H2 6573   4.334   1.609  12.099  0.7462  0.2373  2.5098
  437TMC3    C7 6574   4.537   1.640  12.250  0.0068 -0.5489  0.2714
  437TMC3    C8 6575   4.247   1.391  11.966 -0.1502 -0.2859  0.4700
  437TMC3    O1 6576   4.486   1.738  12.195 -0.2159  1.0793 -0.5550
  437TMC3    O2 6577   4.216   1.281  11.927  0.1331  0.4070  0.5911
  438MPD2     C 6578   2.170   2.224  16.687 -0.2250 -0.1589 -0.1384
  438MPD2    C1 6579   2.151   2.084  16.717  0.2738 -0.2237 -0.1579
  438MPD2    C2 6580   2.072   2.052  16.830  0.6309 -0.3161  0.2490
  438MPD2    C3 6581   2.025   2.150  16.908  0.5303 -0.2804 -0.8292
  438MPD2    C4 6582   2.050   2.285  16.882  0.5879  0.3216  0.5309
  438MPD2    C5 6583   2.122   2.322  16.770 -0.0809  0.0584  0.3318
  438MPD2     H 6584   2.049   1.949  16.853  0.6439 -0.4429 -0.3074
  438MPD2    H1 6585   2.027   2.369  16.946 -1.1246  0.2481  0.0111
  438MPD2    H2 6586   2.216   2.262  16.597  0.8742 -0.4222  0.3186
  438MPD2    H3 6587   2.143   2.427  16.753  2.4156 -0.1649  2.0392
  438MPD2     N 6588   1.953   2.121  17.022 -0.8455  0.3072 -0.2281
  438MPD2    H5 6589   1.939   2.201  17.083 -0.5210  0.2444 -0.0762
  438MPD2    N1 6590   2.206   1.974  16.650 -0.3596  0.0317 -0.2926
  438MPD2    H7 6591   2.201   1.881  16.691  1.1107 -0.0238 -0.2368
  439TMC3    C1 6592   2.328   1.864  16.474 -0.0878  0.3845 -0.2182
  439TMC3    C2 6593   2.358   1.864  16.339 -0.5497  0.6714 -0.0038
  439TMC3    C3 6594   2.393   1.740  16.285  0.8380  0.2913 -0.2706
  439TMC3    C4 6595   2.375   1.764  16.562  0.1075 -0.3270 -0.4790
  439TMC3    C5 6596   2.417   1.646  16.498 -0.4435 -1.0525 -0.4558
  439TMC3    C6 6597   2.410   1.627  16.360 -0.2792  0.0356 -0.3012
  439TMC3     C 6598   2.267   1.986  16.525 -0.2786  0.1144  0.2625
  439TMC3     O 6599   2.270   2.087  16.461 -0.4568  0.4581 -0.2045
  439TMC3     H 6600   2.301   1.939  16.285  0.4098  0.5737 -1.1530
  439TMC3    H1 6601   2.388   1.774  16.669 -2.5813  1.7156 -0.3597
  439TMC3    H2 6602   2.464   1.540  16.324  0.3932 -0.2375  1.3446
  439TMC3    C7 6603   2.475   1.553  16.583  0.8066  0.6517 -0.1296
  439TMC3    C8 6604   2.418   1.713  16.142  0.2837 -0.2244 -0.4045
  439TMC3    O1 6605   2.526   1.593  16.685  0.4020 -0.6891  0.5387
  439TMC3    O2 6606   2.393   1.602  16.099 -0.1956  0.3563 -0.1427
  440MPD2     C 6607   0.665   1.784  14.863 -0.0739  0.2678 -0.3319
  440MPD2    C1 6608   0.736   1.875  14.946  0.2444  0.2430  0.0857
  440MPD2    C2 6609   0.849   1.833  15.010 -0.3157  0.3042 -0.1128
  440MPD2    C3 6610   0.903   1.707  14.988  0.0742  0.8642 -0.0711
  440MPD2    C4 6611   0.836   1.620  14.910  0.3334 -0.3554  0.2690
  440MPD2    C5 6612   0.717   1.653  14.852 -0.3172 -0.0335  0.5126
  440MPD2     H 6613   0.877   1.908  15.082 -1.6622  0.4043  0.3083
  440MPD2    H1 6614   0.887   1.530  14.878 -1.0760 -0.4165 -1.7614
  440MPD2    H2 6615   0.576   1.806  14.805  0.6670 -0.6802 -1.8208
  440MPD2    H3 6616   0.667   1.579  14.790 -0.8832  0.1197  0.7899
  440MPD2     N 6617   1.014   1.658  15.057 -0.2280 -0.9349 -0.0157
  440MPD2    H5 6618   1.034   1.558  15.050  1.1711 -0.5487 -1.5361
  440MPD2    N1 6619   0.705   2.013  14.955 -0.5748 -0.1903 -0.2996
  440MPD2    H7 6620   0.775   2.070  15.001 -0.6817  0.6414 -1.1631
  441TMC3    C1 6621   1.221   1.663  15.184 -0.5461 -0.3087 -0.2191
  441TMC3    C2 6622   1.315   1.755  15.232 -0.8227 -0.2153  0.6666
  441TMC3    C3 6623   1.364   1.754  15.357  0.8005  0.4420  0.1305
  441TMC3    C4 6624   1.191   1.560  15.273  0.1667  0.1354 -0.3591
  441TMC3    C5 6625   1.263   1.543  15.391  0.4296  0.1070 -0.1492
  441TMC3    C6 6626   1.358   1.638  15.431 -0.5210 -0.2256 -0.1830
  441TMC3     C 6627   1.107   1.731  15.127 -0.2041  0.2921 -0.8812
  441TMC3     O 6628   1.091   1.853  15.154 -0.2122  0.3141 -0.1784
  441TMC3     H 6629   1.323   1.849  15.179  2.1866 -0.7609  0.1615
  441TMC3    H1 6630   1.137   1.479  15.226  0.6479  0.0168 -0.7042
  441TMC3    H2 6631   1.391   1.623  15.533  1.6638  0.1614 -0.8497
  441TMC3    C7 6632   1.289   1.404  15.420 -0.3223  0.4050  0.6046
  441TMC3    C8 6633   1.346   1.867  15.442 -0.7511  0.0531 -0.2798
  441TMC3    O1 6634   1.406   1.366  15.421 -0.6254  0.2920  0.3029
  441TMC3    O2 6635   1.376   1.853  15.560  0.0282  0.1618 -0.5003
  442MPD2     C 6636   3.918   2.827  16.360  0.5421 -0.1351  0.0912
  442MPD2    C1 6637   3.836   2.749  16.439 -0.4371 -0.6825  0.4365
  442MPD2    C2 6638   3.819   2.618  16.398 -0.0362 -0.4420  0.8148
  442MPD2    C3 6639   3.890   2.565  16.292  0.3312 -0.0980  0.1224
  442MPD2    C4 6640   3.970   2.649  16.219  0.0368 -0.4732  0.0136
  442MPD2    C5 6641   3.990   2.775  16.262  0.0869  0.2245  0.2912
  442MPD2     H 6642   3.738   2.565  16.447 -0.3086 -1.6781 -0.9574
  442MPD2    H1 6643   4.017   2.613  16.128  0.0292  0.9892 -0.5791
  442MPD2    H2 6644   3.938   2.932  16.377 -0.5842 -0.0811  1.0651
  442MPD2    H3 6645   4.050   2.843  16.203  0.9951  0.0857  1.0658
  442MPD2     N 6646   3.877   2.432  16.238  0.3573 -0.1304  0.2539
  442MPD2    H5 6647   3.931   2.423  16.152 -0.3003 -2.4011  0.0771
  442MPD2    N1 6648   3.761   2.794  16.555  0.1940 -0.5108  0.1516
  442MPD2    H7 6649   3.697   2.727  16.596 -0.6288  0.4858  0.4950
  443TMC3    C1 6650   3.655   2.945  16.694  0.3144  0.7131  0.0705
  443TMC3    C2 6651   3.590   3.062  16.667  0.0292 -0.0445 -0.2808
  443TMC3    C3 6652   3.468   3.073  16.713  0.4033 -0.2621 -1.0857
  443TMC3    C4 6653   3.621   2.853  16.789 -0.0471 -0.0129  0.4606
  443TMC3    C5 6654   3.502   2.883  16.851 -0.1933  0.3093  0.3731
  443TMC3    C6 6655   3.426   2.991  16.812  0.2782 -0.5840 -0.7210
  443TMC3     C 6656   3.760   2.922  16.603 -0.2018  0.7904  0.3835
  443TMC3     O 6657   3.818   3.019  16.560 -0.3773 -0.1894  0.2167
  443TMC3     H 6658   3.631   3.147  16.614  1.4584 -0.8199 -0.3986
  443TMC3    H1 6659   3.678   2.764  16.812  0.6092  0.4646  0.6896
  443TMC3    H2 6660   3.321   2.987  16.840  0.1685 -0.7968 -1.1624
  443TMC3    C7 6661   3.447   2.773  16.925  0.4914 -0.0190  0.5183
  443TMC3    C8 6662   3.377   3.061  16.599  0.5427  0.1693 -0.3360
  443TMC3    O1 6663   3.497   2.660  16.911  0.0760 -0.1465 -0.2583
  443TMC3    O2 6664   3.319   2.955  16.602  0.4698  0.3098  0.8915
  444MPD2     C 6665   4.031   2.152  16.821 -0.3375 -0.5114 -0.8685
  444MPD2    C1 6666   3.964   2.041  16.866  0.2656 -0.0671  0.1163
  444MPD2    C2 6667   4.008   1.921  16.816 -0.3303 -0.1013 -0.4115
  444MPD2    C3 6668   4.103   1.914  16.716 -0.3585  0.7962 -0.1327
  444MPD2    C4 6669   4.146   2.033  16.659  0.0775 -0.0542 -0.0085
  444MPD2    C5 6670   4.120   2.151  16.721  0.1383 -1.2390 -0.0679
  444MPD2     H 6671   3.987   1.828  16.867  0.3660 -1.0027 -1.7488
  444MPD2    H1 6672   4.219   2.042  16.579 -0.6613 -0.6345 -0.7526
  444MPD2    H2 6673   4.026   2.246  16.873 -1.1748 -0.5402 -0.8973
  444MPD2    H3 6674   4.174   2.241  16.693  0.5701 -1.4435  0.1005
  444MPD2     N 6675   4.161   1.792  16.678 -0.1494 -0.3523 -0.3131
  444MPD2    H5 6676   4.111   1.714  16.722 -2.4358  1.1922 -0.1878
  444MPD2    N1 6677   3.867   2.040  16.973 -0.6684  0.1153 -0.5582
  444MPD2    H7 6678   3.832   1.948  16.997 -0.9739  0.3040 -0.2734
  445TMC3    C1 6679   4.316   1.646  16.573  0.5131  0.5594  0.0889
  445TMC3    C2 6680   4.210   1.575  16.520 -0.2089  0.6313 -0.0588
  445TMC3    C3 6681   4.247   1.468  16.448 -0.3903  0.2579  0.2208
  445TMC3    C4 6682   4.444   1.618  16.569 -0.4216  0.7066 -0.5614
  445TMC3    C5 6683   4.478   1.494  16.513 -0.0508 -0.8452  0.5487
  445TMC3    C6 6684   4.383   1.428  16.444  0.4268 -0.0175  0.6236
  445TMC3     C 6685   4.287   1.781  16.616 -0.7211 -0.6354 -0.1653
  445TMC3     O 6686   4.371   1.865  16.591  0.0923  0.4679  0.2598
  445TMC3     H 6687   4.107   1.606  16.534 -1.0109 -1.3472 -1.6099
  445TMC3    H1 6688   4.524   1.671  16.620 -0.4435  1.9395 -1.8230
  445TMC3    H2 6689   4.407   1.342  16.382 -1.2032 -0.2008  0.2453
  445TMC3    C7 6690   4.619   1.482  16.458 -1.0502 -1.0375  0.8086
  445TMC3    C8 6691   4.143   1.392  16.372  0.1996 -0.0394 -0.3910
  445TMC3    O1 6692   4.633   1.389  16.377  0.3228  0.5332  0.2214
  445TMC3    O2 6693   4.149   1.267  16.359 -0.5187 -0.1591  0.5711
  446MPD2     C 6694   3.289   3.651  11.562 -0.1957 -1.0177 -0.1988
  446MPD2    C1 6695   3.202   3.743  11.511  0.1196  0.0521  0.3577
  446MPD2    C2 6696   3.232   3.879  11.529 -0.1137  0.0261  0.6191
  446MPD2    C3 6697   3.356   3.904  11.591  0.1786 -1.2410  0.1466
  446MPD2    C4 6698   3.435   3.804  11.645  0.4604 -0.3656 -0.2447
  446MPD2    C5 6699   3.398   3.674  11.638  0.5839 -0.4753 -0.0619
  446MPD2     H 6700   3.180   3.959  11.478 -1.2294 -2.1953 -1.7653
  446MPD2    H1 6701   3.534   3.827  11.682  0.3973  0.6762 -0.7264
  446MPD2    H2 6702   3.265   3.546  11.553  0.1363 -0.9883 -1.3842
  446MPD2    H3 6703   3.458   3.590  11.669 -0.5850 -0.9310  0.9469
  446MPD2     N 6704   3.401   4.040  11.592 -0.3575 -0.0151  0.1987
  446MPD2    H5 6705   3.372   4.096  11.513  1.2692  1.9224  0.9692
  446MPD2    N1 6706   3.083   3.710  11.453 -0.1460 -0.0689  0.1163
  446MPD2    H7 6707   3.018   3.782  11.424  0.9302  1.2166  0.8789
  447TMC3    C1 6708   3.561   4.214  11.616 -0.5083 -0.5238 -0.4337
  447TMC3    C2 6709   3.545   4.258  11.482  0.0652  0.7182  0.1585
  447TMC3    C3 6710   3.650   4.330  11.430 -0.4849 -0.0978 -0.1505
  447TMC3    C4 6711   3.678   4.249  11.677  0.9846  0.0969 -0.1402
  447TMC3    C5 6712   3.773   4.321  11.620  0.1791 -0.1567  0.4179
  447TMC3    C6 6713   3.759   4.366  11.498 -0.4464  0.2950  0.2990
  447TMC3     C 6714   3.498   4.094  11.669  0.2237 -0.7129  0.4907
  447TMC3     O 6715   3.521   4.069  11.788 -0.1490  0.3441  0.3190
  447TMC3     H 6716   3.473   4.213  11.415  0.9809 -2.0465  0.9914
  447TMC3    H1 6717   3.676   4.223  11.782  3.0955  0.5083  0.0048
  447TMC3    H2 6718   3.833   4.433  11.454 -0.2654  0.1294  0.3499
  447TMC3    C7 6719   3.902   4.247  11.626 -0.0374  0.6999 -0.2755
  447TMC3    C8 6720   3.667   4.315  11.289  0.4421  0.1384  0.1220
  447TMC3    O1 6721   3.963   4.220  11.522 -0.2186 -0.0881  0.1873
  447TMC3    O2 6722   3.573   4.340  11.220  0.2789 -0.1232  0.4314
  448TMC3    C1 6723   2.215   3.323  17.152  0.7164  0.0068  0.1063
  448TMC3    C2 6724   2.201   3.219  17.069  0.2129  0.3438  0.4037
  448TMC3    C3 6725   2.283   3.111  17.091 -0.3739 -0.4410 -0.4218
  448TMC3    C4 6726   2.300   3.322  17.253  0.8026  0.4103 -0.1240
  448TMC3    C5 6727   2.372   3.215  17.284  0.2988 -0.4454  0.4710
  448TMC3    C6 6728   2.356   3.103  17.208 -0.5338 -0.0072  0.1607
  448TMC3     C 6729   2.132   3.443  17.141  0.1900 -0.4959 -0.5629
  448TMC3     O 6730   2.152   3.529  17.228  0.4027  0.1037 -0.0496
  448TMC3     H 6731   2.115   3.211  17.003 -0.0826  5.3317  0.1864
  448TMC3    H1 6732   2.309   3.404  17.324  0.8821  0.9347 -0.7368
  448TMC3    H2 6733   2.431   3.028  17.230 -1.5967 -1.8861 -2.6004
  448TMC3    C7 6734   2.411   3.196  17.417 -0.8141 -0.6349  0.8164
  448TMC3    C8 6735   2.288   2.990  17.015  0.2561  0.3244 -0.3427
  448TMC3    O1 6736   2.467   3.287  17.475 -0.0510  0.0227  0.4341
  448TMC3    O2 6737   2.327   2.885  17.068  0.6667 -0.5179 -0.4758
  449MPD2     C 6738   3.363   2.122  13.784  0.0135  0.0061  0.3781
  449MPD2    C1 6739   3.231   2.111  13.797 -0.2296 -0.1455  0.3043
  449MPD2    C2 6740   3.167   1.996  13.828  0.1611 -0.1989 -0.2812
  449MPD2    C3 6741   3.236   1.877  13.834  0.0433  0.0285 -0.2590
  449MPD2    C4 6742   3.371   1.884  13.815 -0.7243  0.3468  0.7227
  449MPD2    C5 6743   3.429   2.008  13.796 -0.0924 -0.1763 -0.5836
  449MPD2     H 6744   3.061   1.993  13.852  0.7986  1.7734  2.7424
  449MPD2    H1 6745   3.440   1.801  13.818 -0.3145  0.6783  0.3788
  449MPD2    H2 6746   3.405   2.215  13.747 -1.3754  1.6246  2.9487
  449MPD2    H3 6747   3.535   2.019  13.775  0.0760  1.5567  1.2389
  449MPD2     N 6748   3.164   1.763  13.858 -0.2314 -0.1421  0.2845
  449MPD2    H5 6749   3.063   1.771  13.861 -0.2930 -1.6374  2.1521
  449MPD2    N1 6750   3.145   2.228  13.791  0.1653 -0.2583 -0.2755
  449MPD2    H7 6751   3.049   2.213  13.821  0.1713 -0.4735 -0.3632
  450TMC3    C1 6752   3.058   2.439  13.747 -0.2376  0.0750  0.4269
  450TMC3    C2 6753   3.019   2.480  13.623  0.6847 -0.2214 -0.5585
  450TMC3    C3 6754   2.882   2.481  13.598  0.2872 -0.4648 -0.2770
  450TMC3    C4 6755   2.967   2.396  13.835  0.0692 -0.2979  0.0728
  450TMC3    C5 6756   2.835   2.382  13.806 -0.4811 -0.4078 -0.0308
  450TMC3    C6 6757   2.790   2.423  13.684  0.4824  0.5028  0.1869
  450TMC3     C 6758   3.175   2.356  13.738 -0.2363 -0.5431  0.3759
  450TMC3     O 6759   3.280   2.399  13.694  0.0052 -0.0819  0.3237
  450TMC3     H 6760   3.099   2.515  13.558  0.4888 -0.3630 -0.8727
  450TMC3    H1 6761   3.002   2.367  13.934 -0.1907  0.7884  0.4845
  450TMC3    H2 6762   2.694   2.388  13.649 -1.1310  3.1372  1.9331
  450TMC3    C7 6763   2.796   2.251  13.841  0.3124  0.3523 -0.0069
  450TMC3    C8 6764   2.843   2.489  13.458 -0.0494 -0.4442 -0.0960
  450TMC3    O1 6765   2.895   2.180  13.861 -0.1765  0.5821  0.0570
  450TMC3    O2 6766   2.723   2.503  13.436  0.0316  0.6347 -0.2958
  451MPD2     C 6767   4.018   0.231   1.201 -0.0755 -0.3732 -0.0010
  451MPD2    C1 6768   4.104   0.278   1.103  0.1972 -0.3734  0.0675
  451MPD2    C2 6769   4.228   0.227   1.099  0.0342  0.0218  0.2666
  451MPD2    C3 6770   4.265   0.118   1.175  0.2411 -0.4832  0.6003
  451MPD2    C4 6771   4.171   0.061   1.260 -0.4411  0.8535 -0.5061
  451MPD2    C5 6772   4.056   0.124   1.283 -0.1922 -0.0382  0.2070
  451MPD2     H 6773   4.294   0.267   1.023 -1.1724 -1.4599 -1.5372
  451MPD2    H1 6774   4.191   4.715   1.326 -1.3868  0.7817 -0.3155
  451MPD2    H2 6775   3.921   0.279   1.211 -1.1841 -2.1356 -2.3737
  451MPD2    H3 6776   3.981   0.085   1.352  0.9079 -1.4043  0.6079
  451MPD2     N 6777   4.397   0.065   1.158  0.6115  0.2993  0.0462
  451MPD2    H5 6778   4.411   4.706   1.187 -0.6576  0.5194  1.3551
  451MPD2    N1 6779   4.063   0.399   1.037 -0.1557 -0.4124  0.2724
  451MPD2    H7 6780   3.972   0.436   1.063  0.7742  2.2394 -0.2615
  452TMC3    C1 6781   4.600   0.014   1.050 -0.2457  0.1463 -0.0648
  452TMC3    C2 6782   4.553   4.638   0.987  0.2083  0.2729  0.7508
  452TMC3    C3 6783   4.649   4.563   0.920  0.0205  0.1410 -0.1258
  452TMC3    C4 6784   4.727   0.058   1.030 -0.4728 -0.3009 -0.2251
  452TMC3    C5 6785   0.076   4.734   0.944 -0.1808  0.0120  0.7616
  452TMC3    C6 6786   0.039   4.610   0.897 -0.9781  0.1651  0.1282
  452TMC3     C 6787   4.505   0.113   1.092 -0.0314  1.1098 -0.3408
  452TMC3     O 6788   4.531   0.232   1.066 -0.2549 -0.0481  0.1974
  452TMC3     H 6789   4.456   4.606   1.020  0.6541 -0.4852  1.3249
  452TMC3    H1 6790   0.007   0.156   1.074 -0.5983 -0.7437  0.8219
  452TMC3    H2 6791   0.100   4.560   0.823  0.3812  0.5731  0.9599
  452TMC3    C7 6792   0.185   0.067   0.884  0.4635  0.4043  0.6377
  452TMC3    C8 6793   4.605   4.463   0.822 -0.9845  0.5973  0.3940
  452TMC3    O1 6794   0.252   0.019   0.791 -0.9227 -0.3557  0.0224
  452TMC3    O2 6795   4.684   4.381   0.777 -0.0188 -0.3270 -0.1818
  453TMC3    C1 6796   0.858   2.927  11.918  0.3127 -0.1264 -0.0249
  453TMC3    C2 6797   0.775   2.858  12.000  0.6445  0.4031  0.0671
  453TMC3    C3 6798   0.710   2.740  11.955 -0.0055 -0.3762  0.3777
  453TMC3    C4 6799   0.875   2.889  11.786  0.2809  0.2931 -0.2245
  453TMC3    C5 6800   0.821   2.772  11.743  0.1838 -0.7071  0.6538
  453TMC3    C6 6801   0.744   2.688  11.829  0.7642 -0.7161  0.1969
  453TMC3     C 6802   0.978   2.947  11.993  0.8067 -0.0289  0.1063
  453TMC3     O 6803   1.056   3.030  11.952 -0.0397 -0.0420  0.2599
  453TMC3     H 6804   0.745   2.903  12.094 -2.9135  2.1381 -1.8828
  453TMC3    H1 6805   0.937   2.959  11.731  3.3215 -2.0673  0.2114
  453TMC3    H2 6806   0.702   2.593  11.799  0.1870 -0.2027 -0.6183
  453TMC3    C7 6807   0.785   2.761  11.607  0.0848 -0.8122  0.7006
  453TMC3    C8 6808   0.648   2.661  12.060 -0.2925 -0.5368  0.1728
  453TMC3    O1 6809   0.698   2.676  11.581  0.4419 -0.2091 -0.2022
  453TMC3    O2 6810   0.578   2.710  12.150  0.1625  0.5739 -1.0074
  454MPD2     C 6811   0.124   1.872  16.111 -0.5652 -0.7217  0.2351
  454MPD2    C1 6812   0.035   1.898  16.006 -0.2266  0.6226  0.1277
  454MPD2    C2 6813   4.722   2.026  15.987  0.2407 -0.1267 -0.0511
  454MPD2    C3 6814   4.734   2.120  16.087  0.2100  0.2527 -0.1592
  454MPD2    C4 6815   0.081   2.090  16.192  0.3280 -0.0926 -0.0807
  454MPD2    C5 6816   0.136   1.964  16.206 -0.3707  0.0853  0.6344
  454MPD2     H 6817   4.665   2.048  15.898  0.7259  1.0122 -0.0733
  454MPD2    H1 6818   0.107   2.166  16.264  0.2170  0.5287 -0.6999
  454MPD2    H2 6819   0.172   1.776  16.130 -1.1492 -0.9146  0.7230
  454MPD2    H3 6820   0.212   1.946  16.281  0.7306  1.3099 -0.1744
  454MPD2     N 6821   4.654   2.235  16.104  0.1129 -0.4671 -0.0294
  454MPD2    H5 6822   4.650   2.270  16.199  0.6362  0.4996 -0.3510
  454MPD2    N1 6823   4.737   1.805  15.910 -0.7922  0.5723  0.2769
  454MPD2    H7 6824   4.685   1.844  15.832 -0.4691  2.0222  0.7874
  455TMC3    C1 6825   4.438   2.312  16.064  0.5408 -0.1906  0.5309
  455TMC3    C2 6826   4.435   2.370  16.188 -0.3883  0.3394 -0.8493
  455TMC3    C3 6827   4.330   2.354  16.275  0.2307 -0.1915 -0.4275
  455TMC3    C4 6828   4.332   2.228  16.031  0.2688 -0.1161 -0.3243
  455TMC3    C5 6829   4.236   2.198  16.126  0.6708 -0.7347  0.3294
  455TMC3    C6 6830   4.226   2.266  16.247  0.5482 -0.1728  0.0168
  455TMC3     C 6831   4.567   2.281  16.007  0.8059 -0.1634 -0.1807
  455TMC3     O 6832   4.563   2.258  15.887 -0.5641  0.2776 -0.4483
  455TMC3     H 6833   4.520   2.432  16.212 -1.0071 -0.1899  2.6106
  455TMC3    H1 6834   4.346   2.169  15.941 -0.5849  0.3024 -0.7323
  455TMC3    H2 6835   4.136   2.256  16.307 -1.4966  0.8787 -2.8977
  455TMC3    C7 6836   4.217   2.054  16.145 -0.5432 -0.2086  0.0465
  455TMC3    C8 6837   4.332   2.413  16.405 -0.1130 -0.2937 -0.1513
  455TMC3    O1 6838   4.104   2.021  16.170  0.3554  0.1491  0.3462
  455TMC3    O2 6839   4.254   2.376  16.493  0.2544 -0.0130  0.6431
  456MPD2     C 6840   2.795   1.894  16.112  0.4329 -0.0465 -0.2808
  456MPD2    C1 6841   2.768   1.808  16.212  0.4669 -0.1910  0.5256
  456MPD2    C2 6842   2.712   1.861  16.332  0.2998 -0.2463 -0.5529
  456MPD2    C3 6843   2.701   2.000  16.347 -0.0041 -0.2934 -0.2401
  456MPD2    C4 6844   2.745   2.086  16.252 -0.4467 -0.4197  0.5606
  456MPD2    C5 6845   2.792   2.033  16.130 -0.0873 -0.0459 -0.1348
  456MPD2     H 6846   2.671   1.791  16.404 -0.7685  0.7285 -0.2321
  456MPD2    H1 6847   2.741   2.194  16.259  1.4995 -0.3912  1.2395
  456MPD2    H2 6848   2.816   1.856  16.013 -0.5449 -0.7073 -0.2301
  456MPD2    H3 6849   2.811   2.098  16.045  0.8349  0.0207  0.1202
  456MPD2     N 6850   2.647   2.050  16.468  0.8889 -0.7841 -0.5897
  456MPD2    H5 6851   2.650   1.984  16.544  3.2232  1.8350  1.5899
  456MPD2    N1 6852   2.772   1.673  16.181  0.4044  0.4753  1.0016
  456MPD2    H7 6853   2.801   1.656  16.085  1.0724  0.5168  1.1978
  457TMC3    C1 6854   2.577   2.209  16.624 -0.4719 -0.2855  0.5390
  457TMC3    C2 6855   2.500   2.327  16.639 -0.3266  0.1471  0.5016
  457TMC3    C3 6856   2.502   2.392  16.756 -0.4788 -0.3584 -0.5744
  457TMC3    C4 6857   2.640   2.157  16.733  0.1579  0.3361  0.2801
  457TMC3    C5 6858   2.626   2.221  16.854 -0.1251  0.0278  0.0743
  457TMC3    C6 6859   2.547   2.334  16.866 -0.0543 -0.2444 -0.8381
  457TMC3     C 6860   2.627   2.182  16.492 -0.3279  0.8776 -0.2965
  457TMC3     O 6861   2.623   2.271  16.411  0.3669  0.0689  0.5333
  457TMC3     H 6862   2.484   2.378  16.545 -0.8776 -1.5394 -0.3310
  457TMC3    H1 6863   2.712   2.076  16.731 -0.0948  0.0978  0.7150
  457TMC3    H2 6864   2.520   2.370  16.964  0.0094  1.0154 -1.2884
  457TMC3    C7 6865   2.702   2.176  16.966 -0.5150  0.1364  0.1928
  457TMC3    C8 6866   2.436   2.519  16.779 -0.1536 -0.2338 -0.1743
  457TMC3    O1 6867   2.735   2.058  16.982  0.2628 -0.2333  0.1894
  457TMC3    O2 6868   2.458   2.561  16.895 -0.1479 -0.5987  0.0456
  458MPD2     C 6869   0.122   1.927  12.515  0.3218  0.3380 -0.2475
  458MPD2    C1 6870   0.126   1.801  12.572 -0.4769 -0.6540 -0.8083
  458MPD2    C2 6871   0.050   1.704  12.514  0.7430 -0.0029 -0.0314
  458MPD2    C3 6872   4.704   1.733  12.404  0.4708  0.6359  0.3612
  458MPD2    C4 6873   4.700   1.858  12.355  0.0347 -0.6294  0.0529
  458MPD2    C5 6874   0.032   1.959  12.417  0.5761 -0.1909 -0.8068
  458MPD2     H 6875   0.061   1.599  12.538  0.8906  0.0550  0.1534
  458MPD2    H1 6876   4.630   1.887  12.277  2.9607  1.8897 -1.6423
  458MPD2    H2 6877   0.202   1.996  12.539  1.6636 -0.3224 -2.8187
  458MPD2    H3 6878   0.031   2.056  12.369 -1.4529 -0.5606 -1.4868
  458MPD2     N 6879   4.641   1.621  12.342  0.0181 -1.0016  0.4478
  458MPD2    H5 6880   4.663   1.532  12.385 -0.1904 -1.0267  0.5015
  458MPD2    N1 6881   0.223   1.781  12.672 -0.0053 -0.0401 -0.0113
  458MPD2    H7 6882   0.280   1.862  12.696 -1.0432  0.9791 -0.9816
  459TMC3    C1 6883   0.351   1.675  12.831 -0.7384 -0.3716  0.5504
  459TMC3    C2 6884   0.460   1.754  12.821  1.1233 -0.5638  0.4360
  459TMC3    C3 6885   0.521   1.793  12.938  0.2590 -0.0381  0.2254
  459TMC3    C4 6886   0.313   1.626  12.955  0.6217  1.1124  0.1296
  459TMC3    C5 6887   0.388   1.659  13.065 -0.5757 -0.7908  0.3200
  459TMC3    C6 6888   0.486   1.754  13.060  0.0895  0.4331 -0.0749
  459TMC3     C 6889   0.242   1.663  12.736  0.0069 -0.4684  0.0250
  459TMC3     O 6890   0.169   1.566  12.746 -0.1771  0.5633  0.3561
  459TMC3     H 6891   0.473   1.801  12.724  0.1560 -0.0992  0.5433
  459TMC3    H1 6892   0.220   1.569  12.960  0.3312  1.6793  1.2351
  459TMC3    H2 6893   0.537   1.790  13.149 -0.2484  0.6587  0.0272
  459TMC3    C7 6894   0.396   1.555  13.166  1.1162 -0.3057  0.1956
  459TMC3    C8 6895   0.645   1.862  12.916  0.4286 -0.7802  0.1123
  459TMC3    O1 6896   0.317   1.463  13.150 -0.5050 -0.0308  0.7784
  459TMC3    O2 6897   0.696   1.839  12.806 -0.1262 -0.4287  0.1639
  460MPD2     C 6898   3.927   4.125  11.137  0.9744  0.2140  0.0369
  460MPD2    C1 6899   3.826   4.213  11.135 -0.0872 -0.5292  0.1785
  460MPD2    C2 6900   3.769   4.249  11.015 -0.6340 -0.2940 -0.0656
  460MPD2    C3 6901   3.807   4.188  10.896 -0.6559  0.0750  0.2410
  460MPD2    C4 6902   3.916   4.102  10.905 -0.1572 -0.2197 -0.1731
  460MPD2    C5 6903   3.976   4.076  11.021 -0.2095 -0.0173 -0.0758
  460MPD2     H 6904   3.690   4.323  11.018  0.3785  0.7966 -0.2205
  460MPD2    H1 6905   3.957   4.055  10.816  0.4014  3.4455 -1.8706
  460MPD2    H2 6906   3.974   4.106  11.233  1.7458  1.3378 -0.1209
  460MPD2    H3 6907   4.066   4.016  11.019  0.3626  0.8788 -1.0187
  460MPD2     N 6908   3.734   4.208  10.776  0.9977 -0.1467 -0.7743
  460MPD2    H5 6909   3.658   4.276  10.779  1.7606  0.6475  0.7108
  460MPD2    N1 6910   3.785   4.258  11.262  0.2685  0.6610  0.7624
  460MPD2    H7 6911   3.836   4.227  11.344  1.7755 -1.0987 -0.8239
  461TMC3    C1 6912   3.655   4.142  10.547  0.2840  0.5684  0.1058
  461TMC3    C2 6913   3.660   4.046  10.449  0.0450 -0.0760  0.3131
  461TMC3    C3 6914   3.627   4.082  10.320  0.0700  0.0728  0.3948
  461TMC3    C4 6915   3.618   4.270  10.519  0.2742  0.1336 -0.0561
  461TMC3    C5 6916   3.566   4.290  10.393 -0.5588 -0.0564 -0.9044
  461TMC3    C6 6917   3.573   4.202  10.291  0.0490  0.0791  0.7850
  461TMC3     C 6918   3.736   4.123  10.666 -0.0017  0.5731  0.1684
  461TMC3     O 6919   3.803   4.018  10.662  0.0101 -0.6471  0.5132
  461TMC3     H 6920   3.711   3.952  10.468  0.7686 -0.0299 -1.3947
  461TMC3    H1 6921   3.617   4.348  10.594  3.3614  0.0527  0.0646
  461TMC3    H2 6922   3.515   4.212  10.199 -0.3564 -1.9752  0.8171
  461TMC3    C7 6923   3.575   4.428  10.343  0.0311 -0.3718 -0.6914
  461TMC3    C8 6924   3.698   4.025  10.211 -0.3850 -0.0015 -0.6684
  461TMC3    O1 6925   3.542   4.515  10.421 -0.2128  0.2253  0.1871
  461TMC3    O2 6926   3.723   4.099  10.114  0.2443 -0.3668  0.9554
  462TMC3    C1 6927   3.995   0.416   0.302 -0.1716 -0.1140  0.2400
  462TMC3    C2 6928   4.048   0.350   0.408  0.3075 -0.0540 -0.1938
  462TMC3    C3 6929   4.128   0.244   0.393  0.3351 -0.2582  0.3067
  462TMC3    C4 6930   4.031   0.382   0.172 -0.4569 -0.3570 -0.1910
  462TMC3    C5 6931   4.119   0.275   0.157  0.4176 -0.3360  0.2162
  462TMC3    C6 6932   4.164   0.210   0.257  0.0986 -0.5237 -0.9536
  462TMC3     C 6933   3.941   0.548   0.329 -0.4194  0.0720  0.0850
  462TMC3     O 6934   3.910   0.566   0.446  0.3953 -0.0575  0.3339
  462TMC3     H 6935   4.023   0.385   0.508  0.6690  1.3589 -0.5976
  462TMC3    H1 6936   3.991   0.434   0.086  3.2459  2.4411 -0.1973
  462TMC3    H2 6937   4.253   0.154   0.232  1.0705  0.7742 -0.3508
  462TMC3    C7 6938   4.109   0.192   0.040 -0.0567 -0.2445  0.1662
  462TMC3    C8 6939   4.216   0.216   0.499  0.1751  0.0388  0.4338
  462TMC3    O1 6940   4.160   0.084   0.055 -0.2471  0.1045  0.1720
  462TMC3    O2 6941   4.229   0.304   0.586 -0.0338 -0.2496  0.4765
  463MPD2     C 6942   0.715   3.455   1.475 -0.0786 -0.3672 -0.0694
  463MPD2    C1 6943   0.598   3.457   1.408 -0.1355 -0.0755  0.4817
  463MPD2    C2 6944   0.568   3.545   1.316 -0.0961  0.2652 -0.0626
  463MPD2    C3 6945   0.660   3.642   1.269 -0.5476  0.3220 -1.0682
  463MPD2    C4 6946   0.785   3.633   1.323  0.2288 -0.2742  0.1197
  463MPD2    C5 6947   0.813   3.538   1.427 -0.2554  0.3831 -0.1132
  463MPD2     H 6948   0.470   3.546   1.270 -0.5195 -0.4219  0.8295
  463MPD2    H1 6949   0.855   3.709   1.290  0.7762 -0.5776  0.5884
  463MPD2    H2 6950   0.740   3.390   1.559  3.0733 -0.6896 -1.2474
  463MPD2    H3 6951   0.907   3.542   1.482 -1.6153 -0.1060  2.2564
  463MPD2     N 6952   0.620   3.733   1.171  0.1615  0.4559  0.4049
  463MPD2    H5 6953   0.692   3.785   1.122  0.7052  1.0720  1.8378
  463MPD2    N1 6954   0.487   3.366   1.442 -0.5101 -0.4832 -1.0529
  463MPD2    H7 6955   0.394   3.392   1.411 -0.6143 -2.1685 -2.1247
  464TMC3    C1 6956   0.384   3.175   1.531 -0.1623  0.1894  0.5438
  464TMC3    C2 6957   0.269   3.253   1.545  0.5477  0.2919  0.6045
  464TMC3    C3 6958   0.147   3.195   1.554  0.3097 -0.1461  0.0390
  464TMC3    C4 6959   0.378   3.036   1.527  0.0167  0.5474 -0.5122
  464TMC3    C5 6960   0.248   2.986   1.533 -0.5769 -1.0579  1.1069
  464TMC3    C6 6961   0.129   3.059   1.534 -0.7807 -0.0320 -0.2624
  464TMC3     C 6962   0.508   3.243   1.493 -0.7076  0.3180  0.3809
  464TMC3     O 6963   0.610   3.180   1.509  0.2833  0.7237  0.1206
  464TMC3     H 6964   0.277   3.359   1.566 -2.4801  0.2584  1.9158
  464TMC3    H1 6965   0.465   2.972   1.539 -0.4068 -0.2897 -1.8519
  464TMC3    H2 6966   0.032   3.010   1.540 -0.3634 -0.5050  2.3002
  464TMC3    C7 6967   0.252   2.843   1.554  0.6261  0.2744 -0.5882
  464TMC3    C8 6968   0.034   3.280   1.578 -0.5835  0.2836  0.5985
  464TMC3    O1 6969   0.347   2.799   1.613 -0.1545 -0.7166  0.2569
  464TMC3    O2 6970   0.031   3.395   1.532  0.4114  0.0371  0.3213
  465MPD2     C 6971   1.385   1.980  16.063 -0.9475  0.0743  0.7168
  465MPD2    C1 6972   1.354   2.046  16.180 -0.0523  0.0937 -0.0630
  465MPD2    C2 6973   1.240   2.125  16.174 -0.1784  0.3601 -0.1345
  465MPD2    C3 6974   1.165   2.141  16.060 -0.3233  0.7212  0.4770
  465MPD2    C4 6975   1.189   2.069  15.947  1.0788 -0.0149 -0.5968
  465MPD2    C5 6976   1.311   1.999  15.947 -1.2220  0.1512 -0.8078
  465MPD2     H 6977   1.213   2.177  16.265 -2.3123  0.2471 -0.7113
  465MPD2    H1 6978   1.155   2.086  15.846  0.0343  0.5354 -0.1546
  465MPD2    H2 6979   1.480   1.931  16.046 -0.8701  0.3649  0.2939
  465MPD2    H3 6980   1.354   1.962  15.855  0.3994 -2.6226  1.0973
  465MPD2     N 6981   1.053   2.233  16.051 -0.2829 -0.3308  0.1190
  465MPD2    H5 6982   1.023   2.283  16.135  0.0882  1.5875 -0.8828
  465MPD2    N1 6983   1.432   2.035  16.298 -0.3805 -0.1128 -0.4934
  465MPD2    H7 6984   1.394   2.093  16.372 -0.6088 -0.5172 -0.2936
  466TMC3    C1 6985   0.700   2.467  16.107  0.1441  0.0212  0.9770
  466TMC3    C2 6986   0.739   2.596  16.087  0.0407  0.5236  0.2793
  466TMC3    C3 6987   0.859   2.612  16.027  0.9581  0.4882  0.7891
  466TMC3    C4 6988   0.771   2.359  16.059 -0.4427 -0.1037 -0.3192
  466TMC3    C5 6989   0.881   2.378  15.985  0.6062  0.1899  0.0030
  466TMC3    C6 6990   0.927   2.504  15.966  0.3630 -0.2443  0.1642
  466TMC3     C 6991   0.601   2.438  16.215 -0.0890  0.0573 -0.3584
  466TMC3     O 6992   0.610   2.340  16.290  0.0859 -0.3197  0.4860
  466TMC3     H 6993   0.686   2.676  16.137  0.8742  0.8979  0.5608
  466TMC3    H1 6994   0.750   2.256  16.086  2.1143 -1.1273 -2.2074
  466TMC3    H2 6995   1.017   2.527  15.911  0.1182  0.5906  0.1190
  466TMC3    C7 6996   0.977   2.275  15.944 -0.2431  0.4203 -0.3137
  466TMC3    C8 6997   0.932   2.731  16.046 -0.8484 -0.3131  0.3781
  466TMC3    O1 6998   0.961   2.216  15.838 -0.0980  0.1625 -0.3954
  466TMC3    O2 6999   1.038   2.750  15.992  0.0249  0.3486  0.3146
  467TMC3    C1 7000   2.387   0.716  13.918 -0.3379  0.1978 -0.1692
  467TMC3    C2 7001   2.347   0.843  13.892 -0.4654  0.0245  0.1431
  467TMC3    C3 7002   2.216   0.852  13.855 -0.5305 -0.7308  1.5460
  467TMC3    C4 7003   2.303   0.605  13.908 -0.2933 -0.3572  0.4134
  467TMC3    C5 7004   2.176   0.621  13.865  0.4660  0.6454 -0.0387
  467TMC3    C6 7005   2.134   0.750  13.849  0.1957 -0.1535  0.1928
  467TMC3     C 7006   2.521   0.698  13.953 -0.6229 -0.4161 -0.2075
  467TMC3     O 7007   2.580   0.797  13.993 -0.2929 -0.3926 -0.7310
  467TMC3     H 7008   2.423   0.920  13.883 -0.7526  0.1425 -1.4450
  467TMC3    H1 7009   2.334   0.508  13.942 -0.3817 -0.6841 -0.4299
  467TMC3    H2 7010   2.029   0.776  13.838  0.5758  1.4391  0.4018
  467TMC3    C7 7011   2.079   0.518  13.906 -0.4849  1.0150 -0.4021
  467TMC3    C8 7012   2.186   0.972  13.783 -0.3853  0.0787 -0.5963
  467TMC3    O1 7013   2.131   0.422  13.960 -0.0016  0.4480 -0.6044
  467TMC3    O2 7014   2.270   1.060  13.800  0.4457 -0.4417  0.0066
  468MPD2     C 7015   0.826   4.476  10.939  0.8373  0.4533  0.6008
  468MPD2    C1 7016   0.936   4.392  10.925  0.4028  0.7653 -0.0007
  468MPD2    C2 7017   0.918   4.279  10.852 -0.3284 -0.1588 -0.0789
  468MPD2    C3 7018   0.802   4.256  10.781  0.0410  0.3899 -0.1438
  468MPD2    C4 7019   0.697   4.349  10.798 -0.1603 -0.2643  0.6798
  468MPD2    C5 7020   0.707   4.450  10.884  0.4188 -1.0056 -0.6565
  468MPD2     H 7021   1.001   4.210  10.845  0.0908  0.2973  0.3653
  468MPD2    H1 7022   0.603   4.338  10.744 -0.2992 -2.4022  1.3696
  468MPD2    H2 7023   0.823   4.558  11.009 -2.6253  1.0623 -0.2675
  468MPD2    H3 7024   0.626   4.521  10.896  0.4675 -1.0698  0.0978
  468MPD2     N 7025   0.791   4.152  10.688 -0.1790  0.3928 -0.7907
  468MPD2    H5 7026   0.698   4.132  10.654  0.0296 -0.6936 -0.7217
  468MPD2    N1 7027   1.062   4.416  10.981 -0.3642  0.3639  0.3453
  468MPD2    H7 7028   1.134   4.351  10.952  0.3383  0.1410  2.6174
  469TMC3    C1 7029   1.224   4.501  11.139  0.3259  0.2391  0.7037
  469TMC3    C2 7030   1.315   4.409  11.104  0.4174  0.2022  0.3034
  469TMC3    C3 7031   1.419   4.381  11.187 -0.1412 -0.7865 -0.1098
  469TMC3    C4 7032   1.247   4.580  11.253  0.3547  0.0009  0.2295
  469TMC3    C5 7033   1.354   4.556  11.331 -0.2143  0.4142 -0.6232
  469TMC3    C6 7034   1.445   4.455  11.302  0.2405  0.6002 -0.1003
  469TMC3     C 7035   1.097   4.518  11.068 -0.0411 -0.8494 -0.4384
  469TMC3     O 7036   1.039   4.620  11.093  0.4442 -0.0398 -0.2036
  469TMC3     H 7037   1.312   4.353  11.011 -0.1919  2.5526 -1.0910
  469TMC3    H1 7038   1.169   4.652  11.274 -0.2380 -0.7297  0.5401
  469TMC3    H2 7039   1.527   4.427  11.367  0.7395  0.1857 -0.9055
  469TMC3    C7 7040   1.365   4.637  11.455 -0.0975  0.4041 -0.0572
  469TMC3    C8 7041   1.482   4.252  11.174  0.3781 -0.0368 -0.8857
  469TMC3    O1 7042   1.270   4.707  11.483 -0.1197 -0.0580  0.0234
  469TMC3    O2 7043   1.407   4.166  11.136  0.3030  0.2920 -0.4063
  470TMC3    C1 7044   3.273   0.166   0.660 -0.4651  0.0352  0.1232
  470TMC3    C2 7045   3.159   0.213   0.713  0.4447  0.7751  0.3794
  470TMC3    C3 7046   3.155   0.189   0.848  0.0214  0.0169  0.2826
  470TMC3    C4 7047   3.376   0.104   0.726  0.2512 -0.0957  0.4004
  470TMC3    C5 7048   3.353   0.073   0.861  0.2543  0.4820  1.0577
  470TMC3    C6 7049   3.240   0.117   0.924  0.6629 -0.5051  0.1733
  470TMC3     C 7050   3.308   0.193   0.521  0.2991 -0.0731  0.4104
  470TMC3     O 7051   3.423   0.184   0.483  0.3822 -0.3970 -0.4509
  470TMC3     H 7052   3.097   0.288   0.665 -0.0404 -0.3754 -0.8094
  470TMC3    H1 7053   3.467   0.072   0.677 -0.4050 -1.7201  0.2514
  470TMC3    H2 7054   3.225   0.100   1.030  2.1611 -2.8721  0.0147
  470TMC3    C7 7055   3.480   0.047   0.930 -0.4491  0.1056  0.0959
  470TMC3    C8 7056   3.073   0.273   0.936  0.5845  0.0758 -0.5075
  470TMC3    O1 7057   3.586   0.076   0.879  0.1928  0.2564  0.3985
  470TMC3    O2 7058   3.101   0.271   1.059 -0.7347 -0.3214 -0.6903
  471MPD2     C 7059   3.649   1.108  16.808 -0.6013 -0.1447 -0.0889
  471MPD2    C1 7060   3.690   0.977  16.769  0.2937  0.2983  0.0059
  471MPD2    C2 7061   3.820   0.941  16.792  0.2003 -0.5063 -0.1505
  471MPD2    C3 7062   3.907   1.014  16.869 -0.3199  0.1607 -0.3840
  471MPD2    C4 7063   3.860   1.142  16.910  0.5794 -0.2790  0.2083
  471MPD2    C5 7064   3.736   1.190  16.878 -0.0313 -0.5103  0.3678
  471MPD2     H 7065   3.845   0.839  16.764 -0.5852 -0.6935 -0.1652
  471MPD2    H1 7066   3.925   1.200  16.975  1.3215 -2.3811  1.3437
  471MPD2    H2 7067   3.552   1.151  16.785  0.7987  2.5353 -0.9405
  471MPD2    H3 7068   3.711   1.289  16.914 -0.9744 -0.7449  0.3497
  471MPD2     N 7069   4.036   0.969  16.908  0.2881  0.2646 -0.6216
  471MPD2    H5 7070   4.080   1.035  16.972 -0.2222  0.1335 -0.1339
  471MPD2    N1 7071   3.607   0.883  16.699  0.7699 -0.4444 -0.2100
  471MPD2    H7 7072   3.655   0.813  16.644 -1.2529 -0.3022 -2.1362
  472TMC3    C1 7073   3.397   0.788  16.623 -0.6071 -0.1737  0.1664
  472TMC3    C2 7074   3.263   0.742  16.656 -0.0484  0.3759 -0.5790
  472TMC3    C3 7075   3.196   0.657  16.574  0.5239 -0.0955  0.5964
  472TMC3    C4 7076   3.447   0.750  16.503 -0.1011  0.1327  0.4401
  472TMC3    C5 7077   3.380   0.661  16.421  0.2244  0.5202  0.1408
  472TMC3    C6 7078   3.253   0.617  16.463 -0.4856 -0.3780 -0.4424
  472TMC3     C 7079   3.465   0.891  16.703  0.8355 -0.3775 -0.6889
  472TMC3     O 7080   3.393   0.945  16.789 -0.5500  0.2028 -0.2213
  472TMC3     H 7081   3.222   0.766  16.753  0.0522  2.1956 -0.9733
  472TMC3    H1 7082   3.544   0.790  16.477 -0.8362  2.0293  0.6354
  472TMC3    H2 7083   3.208   0.541  16.400 -0.9019  0.0122 -0.6100
  472TMC3    C7 7084   3.457   0.569  16.339  0.0514 -0.2342 -0.2221
  472TMC3    C8 7085   3.122   0.552  16.650 -0.1300 -0.0048 -0.4233
  472TMC3    O1 7086   3.433   0.450  16.356  0.3679 -0.0864  0.3503
  472TMC3    O2 7087   3.072   0.581  16.758  0.1976  0.3311 -0.3441
  473MPD2     C 7088   4.340   2.759  13.767 -0.1748 -0.1895 -0.5904
  473MPD2    C1 7089   4.236   2.839  13.730  0.7513 -0.0334 -0.0212
  473MPD2    C2 7090   4.189   2.934  13.814  0.2903 -0.9204 -0.1780
  473MPD2    C3 7091   4.229   2.941  13.945  0.5630  0.1477  0.1411
  473MPD2    C4 7092   4.325   2.853  13.991 -0.3296 -0.0959 -0.0150
  473MPD2    C5 7093   4.386   2.769  13.895 -0.5212 -0.8176  0.0765
  473MPD2     H 7094   4.118   3.004  13.772  2.0591 -0.3797 -2.2946
  473MPD2    H1 7095   4.361   2.845  14.092  1.5813 -0.3766 -0.7279
  473MPD2    H2 7096   4.379   2.679  13.705  4.5342  1.9678 -0.4343
  473MPD2    H3 7097   4.462   2.698  13.925  0.4514  0.1542 -0.0815
  473MPD2     N 7098   4.195   3.039  14.041  0.4406  0.5613 -0.5003
  473MPD2    H5 7099   4.230   3.026  14.135 -3.2436  2.2341  1.1310
  473MPD2    N1 7100   4.178   2.837  13.603 -0.2273  0.3277  0.4424
  473MPD2    H7 7101   4.100   2.901  13.591 -0.5664  0.0373  1.1004
  474TMC3    C1 7102   4.112   3.264  14.104 -0.0625  0.2120  0.0802
  474TMC3    C2 7103   4.028   3.353  14.050 -0.0033  0.3134  0.1639
  474TMC3    C3 7104   4.053   3.485  14.056  0.0404  0.3633  0.3192
  474TMC3    C4 7105   4.216   3.309  14.171 -0.2858 -0.8624 -0.5750
  474TMC3    C5 7106   4.232   3.443  14.196 -0.1631  0.0605  0.0821
  474TMC3    C6 7107   4.157   3.538  14.132 -0.2613  0.5884  0.4234
  474TMC3     C 7108   4.135   3.157  14.003 -1.0880 -0.8155 -0.1062
  474TMC3     O 7109   4.092   3.185  13.891 -0.7499 -0.5028 -0.0824
  474TMC3     H 7110   3.936   3.316  14.008 -0.4974  1.8620 -0.0991
  474TMC3    H1 7111   4.289   3.244  14.218  1.1823  0.3926 -1.1180
  474TMC3    H2 7112   4.177   3.642  14.153 -0.4145  1.0698 -1.8426
  474TMC3    C7 7113   4.353   3.474  14.260  0.4305  0.3192 -0.2153
  474TMC3    C8 7114   3.968   3.565  13.966 -0.9804  0.2726 -0.4155
  474TMC3    O1 7115   4.449   3.475  14.190  0.9563 -0.1845 -0.0057
  474TMC3    O2 7116   3.880   3.505  13.906  0.2094 -0.5490  0.0271
  475MPD2     C 7117   0.780   1.669  11.684 -0.1729  0.3979  0.1426
  475MPD2    C1 7118   0.838   1.718  11.567  0.4611 -0.8508  0.8299
  475MPD2    C2 7119   0.765   1.714  11.452  0.0423 -1.1102 -0.7063
  475MPD2    C3 7120   0.636   1.657  11.456 -0.2844  0.7350  0.2889
  475MPD2    C4 7121   0.597   1.584  11.566  0.2728 -0.4035  0.6187
  475MPD2    C5 7122   0.667   1.589  11.681  0.2238 -0.6904  0.3665
  475MPD2     H 7123   0.803   1.765  11.364  0.7925 -1.8352 -0.8056
  475MPD2    H1 7124   0.498   1.543  11.581 -0.1115  0.3959  0.2683
  475MPD2    H2 7125   0.828   1.684  11.780 -1.3368  2.2370  0.4399
  475MPD2    H3 7126   0.629   1.539  11.769 -1.7325 -1.0742 -0.6887
  475MPD2     N 7127   0.558   1.668  11.345  0.2965  0.5286  0.6547
  475MPD2    H5 7128   0.601   1.689  11.255  1.3238 -0.8385  0.8350
  475MPD2    N1 7129   0.951   1.804  11.569 -0.3983  0.5286 -0.0286
  475MPD2    H7 7130   0.976   1.842  11.478 -0.1002 -2.7595 -1.3230
  476TMC3    C1 7131   1.138   1.935  11.638 -0.2064 -0.2629 -0.0531
  476TMC3    C2 7132   1.178   1.942  11.508  0.6042 -0.1612 -0.7827
  476TMC3    C3 7133   1.266   2.043  11.473  0.0616 -0.5502 -0.1914
  476TMC3    C4 7134   1.179   2.028  11.726 -0.1314  1.0504 -0.4714
  476TMC3    C5 7135   1.269   2.121  11.685  0.2217 -0.4284 -0.0534
  476TMC3    C6 7136   1.308   2.138  11.556 -0.2868  0.3828  0.3516
  476TMC3     C 7137   1.039   1.834  11.674  0.2034  0.3729  0.1355
  476TMC3     O 7138   1.038   1.795  11.791  0.5449  0.1307  0.0136
  476TMC3     H 7139   1.148   1.871  11.433  0.3258  0.5553 -1.3512
  476TMC3    H1 7140   1.150   2.028  11.831  0.2957 -0.0154 -0.3554
  476TMC3    H2 7141   1.394   2.201  11.532 -0.1405 -0.2829 -0.8657
  476TMC3    C7 7142   1.321   2.219  11.778  0.0515 -0.0016  0.1283
  476TMC3    C8 7143   1.319   2.049  11.341 -0.4693  0.3608 -0.2802
  476TMC3    O1 7144   1.336   2.169  11.888 -0.3300  0.2020 -0.6730
  476TMC3    O2 7145   1.376   2.150  11.313  0.7510 -0.3328  0.0390
  477MPD2     C 7146   4.148   3.382  11.496 -0.0888  0.5892  0.3798
  477MPD2    C1 7147   4.078   3.386  11.615 -0.1920 -0.1929 -1.0193
  477MPD2    C2 7148   4.122   3.315  11.725 -0.2598  0.3524  0.3445
  477MPD2    C3 7149   4.242   3.242  11.720 -0.5999  0.1498  0.1907
  477MPD2    C4 7150   4.311   3.235  11.599  1.5034  0.0382 -0.1768
  477MPD2    C5 7151   4.265   3.313  11.491  0.4857 -0.3046 -0.2645
  477MPD2     H 7152   4.062   3.290  11.812 -2.7283  1.3528 -1.0860
  477MPD2    H1 7153   4.397   3.170  11.587  1.5348  0.1377 -0.5054
  477MPD2    H2 7154   4.131   3.437  11.404 -0.7480 -2.3907 -1.2816
  477MPD2    H3 7155   4.313   3.315  11.394 -0.3915 -2.9699 -0.7584
  477MPD2     N 7156   4.276   3.168  11.838  0.1208 -0.5608  0.6917
  477MPD2    H5 7157   4.210   3.165  11.916 -2.1918  0.2553 -1.2324
  477MPD2    N1 7158   3.957   3.456  11.620  0.3082 -0.0333  0.9114
  477MPD2    H7 7159   3.942   3.517  11.541 -1.2198 -0.1115  1.1405
  478TMC3    C1 7160   3.780   3.570  11.704  0.2274  0.5389 -0.2202
  478TMC3    C2 7161   3.756   3.628  11.828 -1.1107  0.4128  0.1644
  478TMC3    C3 7162   3.757   3.766  11.838  0.5893 -1.1628  0.5710
  478TMC3    C4 7163   3.803   3.654  11.596 -0.3480  0.2029 -0.0853
  478TMC3    C5 7164   3.801   3.791  11.609  0.6949 -0.1561  0.9480
  478TMC3    C6 7165   3.775   3.847  11.729 -0.3169  0.8134 -0.6049
  478TMC3     C 7166   3.858   3.451  11.714  0.1155 -0.4964  0.8154
  478TMC3     O 7167   3.851   3.386  11.818  0.9244 -0.2080  0.3614
  478TMC3     H 7168   3.732   3.566  11.913  1.0980 -1.4550 -0.5747
  478TMC3    H1 7169   3.787   3.617  11.496  2.1670 -1.4406  0.1255
  478TMC3    H2 7170   3.792   3.953  11.742  0.5392  0.6218 -0.0958
  478TMC3    C7 7171   3.772   3.874  11.493  0.2973 -0.7088 -0.8296
  478TMC3    C8 7172   3.756   3.822  11.974 -0.0435  0.5217 -0.4398
  478TMC3    O1 7173   3.726   3.986  11.518  0.1069  0.4201  0.1920
  478TMC3    O2 7174   3.786   3.743  12.066  0.5164  0.3511 -0.0230
  479MPD2     C 7175   3.757   0.458  15.254 -0.8521  0.2021  0.0226
  479MPD2    C1 7176   3.702   0.405  15.369 -0.2992  0.0855 -0.1457
  479MPD2    C2 7177   3.765   0.425  15.492 -0.3182 -0.3216  0.0641
  479MPD2    C3 7178   3.874   0.510  15.498  0.0763  0.1487  0.5186
  479MPD2    C4 7179   3.933   0.544  15.386 -0.1887 -0.4508 -0.1987
  479MPD2    C5 7180   3.877   0.523  15.268 -0.0709 -0.3028 -0.1718
  479MPD2     H 7181   3.722   0.379  15.581  3.2321 -4.5553 -0.4224
  479MPD2    H1 7182   4.031   0.589  15.382 -0.9741  1.2259 -0.8191
  479MPD2    H2 7183   3.714   0.442  15.156 -0.3692  3.7510 -0.7833
  479MPD2    H3 7184   3.923   0.563  15.179  2.5148 -0.7841  0.9650
  479MPD2     N 7185   3.936   0.553  15.613 -0.4759  0.4453 -0.0758
  479MPD2    H5 7186   4.027   0.593  15.592 -1.0641  3.2362  2.7486
  479MPD2    N1 7187   3.577   0.342  15.357  0.4479  0.2735 -0.3975
  479MPD2    H7 7188   3.533   0.361  15.268 -0.4605 -1.2687 -0.2750
  480TMC3    C1 7189   3.587   0.405  15.875  0.4006  1.3064  0.9600
  480TMC3    C2 7190   3.492   0.478  15.806  0.3809 -0.1229  0.2232
  480TMC3    C3 7191   3.534   0.567  15.712 -0.0073 -0.1185  0.0737
  480TMC3    C4 7192   3.719   0.439  15.869  0.2523  0.0319 -0.4180
  480TMC3    C5 7193   3.756   0.539  15.783 -0.4319 -0.2098 -0.1611
  480TMC3    C6 7194   3.662   0.605  15.701  0.4945 -0.1218 -0.3142
  480TMC3     C 7195   3.546   0.294  15.958  0.4149  0.6815  0.1735
  480TMC3     O 7196   3.625   0.203  15.977 -0.1043  0.4175  0.3177
  480TMC3     H 7197   3.390   0.444  15.800  0.2002  0.8372 -2.2928
  480TMC3    H1 7198   3.799   0.396  15.929 -0.0857 -0.0794 -0.0497
  480TMC3    H2 7199   3.703   0.686  15.642 -1.8918  0.1763 -1.5380
  480TMC3    C7 7200   3.895   0.548  15.748  0.3714 -1.0479 -0.2215
  480TMC3    C8 7201   3.433   0.596  15.609 -0.5611 -0.8313 -0.6688
  480TMC3    O1 7202   3.980   0.547  15.837  0.1231  0.0086  1.0238
  480TMC3    O2 7203   3.317   0.569  15.637  0.0984 -0.4376 -0.2605
  481MPD2     C 7204   0.546   0.160  14.385  0.2909  0.6706 -0.0152
  481MPD2    C1 7205   0.431   0.089  14.408  0.1972 -0.5651 -0.7409
  481MPD2    C2 7206   0.415   0.041  14.539 -0.1493 -0.4038 -0.0992
  481MPD2    C3 7207   0.508   0.058  14.636  0.0539  0.6405  0.1888
  481MPD2    C4 7208   0.626   0.123  14.609 -0.2036  0.1308  0.2743
  481MPD2    C5 7209   0.639   0.176  14.481 -0.0123 -0.0795  0.6537
  481MPD2     H 7210   0.322   4.729  14.563 -1.1417  1.8777  0.7978
  481MPD2    H1 7211   0.705   0.129  14.683 -0.4776  0.7621  0.5145
  481MPD2    H2 7212   0.563   0.210  14.290  0.1510  0.3282 -0.2199
  481MPD2    H3 7213   0.736   0.222  14.460 -0.8678  2.0678  1.4239
  481MPD2     N 7214   0.466   0.022  14.769  0.1687  0.4458 -0.1593
  481MPD2    H5 7215   0.512   0.075  14.843  0.1226 -2.8277  2.2329
  481MPD2    N1 7216   0.337   0.069  14.302 -0.2714 -0.1633  0.1164
  481MPD2    H7 7217   0.360   0.114  14.214  0.6175 -1.9125 -0.5624
  482TMC3    C1 7218   0.132   0.038  14.202  0.1651  0.3455 -0.7276
  482TMC3    C2 7219   0.065   4.656  14.171  0.5081  0.1408  0.6049
  482TMC3    C3 7220   4.731   4.665  14.055 -0.2172  0.4588 -0.7159
  482TMC3    C4 7221   0.119   0.152  14.136  0.4222 -0.4696 -0.0333
  482TMC3    C5 7222   0.042   0.158  14.028  0.3832 -0.0009  0.5646
  482TMC3    C6 7223   4.719   0.045  13.980  0.5140 -1.2625 -0.7597
  482TMC3     C 7224   0.208   0.026  14.321 -0.2013 -0.0183 -0.2470
  482TMC3     O 7225   0.165   4.681  14.401  0.2680  0.2214  0.1813
  482TMC3     H 7226   0.055   4.571  14.238  1.1727 -0.5671 -0.1837
  482TMC3    H1 7227   0.162   0.242  14.178 -2.1499  0.3350  0.8603
  482TMC3    H2 7228   4.651   0.057  13.895  1.3515 -2.7129 -1.6394
  482TMC3    C7 7229   4.725   0.279  13.990 -0.1446  0.0387 -0.4845
  482TMC3    C8 7230   4.662   4.538  14.024  0.0645  0.0326  0.8784
  482TMC3    O1 7231   4.687   0.353  14.079  0.3079  0.4358 -0.0123
  482TMC3    O2 7232   4.717   4.436  14.062 -0.3693 -0.3542  0.0932
  483TMC3    C1 7233   3.660   3.317   0.416  0.1875  0.4598 -0.0610
  483TMC3    C2 7234   3.721   3.428   0.372 -0.1639 -0.4730  0.5056
  483TMC3    C3 7235   3.793   3.504   0.454 -0.1301  0.0252 -0.3808
  483TMC3    C4 7236   3.662   3.275   0.550 -0.0452 -0.3975  0.1637
  483TMC3    C5 7237   3.747   3.347   0.625 -0.0661  0.0623  0.5090
  483TMC3    C6 7238   3.809   3.464   0.584 -0.2518 -0.3693 -0.5162
  483TMC3     C 7239   3.571   3.253   0.324  0.2859 -0.1800 -0.2365
  483TMC3     O 7240   3.571   3.301   0.212 -0.3395  0.1851  0.3607
  483TMC3     H 7241   3.701   3.461   0.271  0.4715  0.4912  0.6989
  483TMC3    H1 7242   3.604   3.190   0.582 -2.2683  0.5474 -1.4032
  483TMC3    H2 7243   3.866   3.524   0.654 -0.6550  0.9340 -1.3126
  483TMC3    C7 7244   3.750   3.308   0.766 -0.6630  1.0812  0.3444
  483TMC3    C8 7245   3.847   3.620   0.396 -0.4837 -0.5606 -0.1979
  483TMC3    O1 7246   3.671   3.217   0.803 -0.1185  0.5684  0.5920
  483TMC3    O2 7247   3.848   3.623   0.273  0.0434  0.0476 -0.1456
  484MPD2     C 7248   0.843   2.079  13.132  0.5520 -0.4610 -0.5745
  484MPD2    C1 7249   0.818   1.993  13.023 -1.3887  0.5660 -0.2211
  484MPD2    C2 7250   0.921   1.971  12.941 -0.0410  0.5803  0.5591
  484MPD2    C3 7251   1.048   2.021  12.969  0.1061  0.6005  0.3715
  484MPD2    C4 7252   1.073   2.106  13.080 -0.2616 -0.3540  0.4159
  484MPD2    C5 7253   0.969   2.132  13.153 -0.3371  0.1709 -0.1119
  484MPD2     H 7254   0.920   1.895  12.863  3.2733 -0.7682  1.8211
  484MPD2    H1 7255   1.168   2.153  13.103  0.7645 -2.1632 -0.1458
  484MPD2    H2 7256   0.769   2.091  13.210 -0.1617 -1.0808 -1.1499
  484MPD2    H3 7257   0.983   2.213  13.223  0.4307 -1.1669  1.2831
  484MPD2     N 7258   1.164   1.986  12.896 -0.1916 -0.2681  0.4639
  484MPD2    H5 7259   1.250   2.018  12.940 -0.1427  2.5388 -1.7118
  484MPD2    N1 7260   0.686   1.941  13.019 -0.3400  0.4030  0.0038
  484MPD2    H7 7261   0.617   1.968  13.087  1.5338 -2.2736  2.9637
  485TMC3    C1 7262   1.311   1.901  12.728  0.7283  0.2295 -0.5979
  485TMC3    C2 7263   1.393   1.842  12.825 -0.4806  0.4135 -0.3742
  485TMC3    C3 7264   1.521   1.805  12.786  0.5929  0.1374  0.1694
  485TMC3    C4 7265   1.359   1.925  12.599  0.1364 -0.0271 -0.1285
  485TMC3    C5 7266   1.485   1.886  12.566 -0.4763  0.0322 -0.2651
  485TMC3    C6 7267   1.568   1.829  12.661 -0.1899 -0.5339  0.2274
  485TMC3     C 7268   1.172   1.926  12.766  0.2901  0.2939  0.3684
  485TMC3     O 7269   1.088   1.908  12.679 -0.3155  0.5535 -0.3300
  485TMC3     H 7270   1.355   1.786  12.910 -2.0651  0.9332 -0.7402
  485TMC3    H1 7271   1.283   1.961  12.532 -0.2325  1.8120  1.2763
  485TMC3    H2 7272   1.673   1.816  12.633  0.3313  0.7396  1.5830
  485TMC3    C7 7273   1.489   1.801  12.448  0.3751  0.0773  0.1213
  485TMC3    C8 7274   1.540   1.666  12.831  0.6797 -0.0988 -0.3020
  485TMC3    O1 7275   1.534   1.689  12.463 -0.4932 -0.0480  0.2039
  485TMC3    O2 7276   1.553   1.650  12.948 -0.0696  0.0034 -0.2233
  486MPD2     C 7277   2.792   0.916  13.091  0.5245  0.2928 -0.2181
  486MPD2    C1 7278   2.656   0.932  13.121  0.0974  0.1535 -0.1487
  486MPD2    C2 7279   2.587   1.043  13.077  0.9492  0.0088  0.4668
  486MPD2    C3 7280   2.647   1.144  13.002 -0.0989 -0.4807  0.4790
  486MPD2    C4 7281   2.785   1.134  12.987  0.3776  0.2591  0.0228
  486MPD2    C5 7282   2.853   1.020  13.033  0.5512 -0.2021 -0.4171
  486MPD2     H 7283   2.482   1.051  13.104  0.4913 -2.2086 -0.6544
  486MPD2    H1 7284   2.838   1.202  12.920  1.0749 -1.8731 -1.6273
  486MPD2    H2 7285   2.845   0.829  13.127  0.8139 -0.2221 -1.9048
  486MPD2    H3 7286   2.959   1.015  13.012  0.7527  2.7688 -0.0999
  486MPD2     N 7287   2.573   1.252  12.955 -0.1658 -0.5159 -0.2111
  486MPD2    H5 7288   2.477   1.260  12.986  0.1411  1.7726  0.1225
  486MPD2    N1 7289   2.597   0.818  13.154 -0.2533  0.1519 -0.6602
  486MPD2    H7 7290   2.656   0.737  13.170 -0.7304  0.3503  2.0359
  487TMC3    C1 7291   2.428   0.655  13.158  0.1405 -0.2129  0.5358
  487TMC3    C2 7292   2.333   0.612  13.069  0.1194 -0.3706  0.2589
  487TMC3    C3 7293   2.335   0.483  13.022 -0.1899 -0.6835 -0.5557
  487TMC3    C4 7294   2.523   0.566  13.200 -0.1661  0.1733 -0.2140
  487TMC3    C5 7295   2.522   0.441  13.160 -0.2580 -0.6712 -0.2897
  487TMC3    C6 7296   2.427   0.392  13.072 -0.0571  0.7872  0.8901
  487TMC3     C 7297   2.460   0.796  13.150 -0.4535 -0.1262 -0.1695
  487TMC3     O 7298   2.370   0.871  13.116 -0.3592  0.0482  0.1127
  487TMC3     H 7299   2.266   0.680  13.018 -0.6358  0.4051  2.2980
  487TMC3    H1 7300   2.600   0.591  13.273  0.0032  1.6714 -0.9114
  487TMC3    H2 7301   2.423   0.293  13.030 -2.4609  0.8506  0.9449
  487TMC3    C7 7302   2.557   0.341  13.262  0.0033 -0.1500 -0.5343
  487TMC3    C8 7303   2.203   0.419  13.038  0.3044  0.1686 -0.9033
  487TMC3    O1 7304   2.657   0.354  13.330  0.6231  0.1309 -0.1203
  487TMC3    O2 7305   2.134   0.472  13.123  0.0005 -0.1860 -0.2134
  488MPD2     C 7306   3.290   1.990  16.321  0.3737  0.9702  0.0302
  488MPD2    C1 7307   3.340   2.098  16.384 -0.1312 -0.7332  0.0558
  488MPD2    C2 7308   3.364   2.089  16.522 -0.4464 -0.3189 -0.3250
  488MPD2    C3 7309   3.310   1.990  16.598  0.4694 -0.2146  0.4458
  488MPD2    C4 7310   3.247   1.887  16.537  0.0987  0.3422  0.1400
  488MPD2    C5 7311   3.251   1.883  16.401 -0.3272  0.2132  0.4588
  488MPD2     H 7312   3.406   2.181  16.562 -1.3433 -1.0634  2.3517
  488MPD2    H1 7313   3.211   1.797  16.587 -0.7024 -0.1273 -1.2628
  488MPD2    H2 7314   3.268   1.993  16.214  1.0569 -0.1401 -0.1417
  488MPD2    H3 7315   3.221   1.792  16.352  0.2326  1.2493 -1.7908
  488MPD2     N 7316   3.318   1.993  16.738  0.5104 -0.2862 -0.1436
  488MPD2    H5 7317   3.381   2.068  16.768  1.4875 -1.0610 -0.2585
  488MPD2    N1 7318   3.370   2.216  16.304 -0.4088 -0.0953 -0.3034
  488MPD2    H7 7319   3.397   2.298  16.357 -0.8816  0.2215 -0.5516
  489TMC3    C1 7320   3.264   1.961  16.972 -0.0245 -0.3182  0.5367
  489TMC3    C2 7321   3.326   2.076  17.006  0.2624 -0.3840 -0.2687
  489TMC3    C3 7322   3.279   2.148  17.108 -0.5863 -0.5078  0.2461
  489TMC3    C4 7323   3.180   1.901  17.062  0.1268  0.1302 -0.4388
  489TMC3    C5 7324   3.149   1.971  17.181  0.1655  0.3684 -0.9180
  489TMC3    C6 7325   3.196   2.098  17.204 -0.6944 -0.2160 -0.2870
  489TMC3     C 7326   3.259   1.911  16.828  0.9144  0.0905 -0.0702
  489TMC3     O 7327   3.174   1.827  16.805 -0.2570  0.5800  0.2923
  489TMC3     H 7328   3.415   2.103  16.950 -0.4911  3.7802  0.5724
  489TMC3    H1 7329   3.143   1.801  17.045 -0.5053  0.2991 -0.0660
  489TMC3    H2 7330   3.193   2.143  17.303  1.3566  0.8537 -0.7144
  489TMC3    C7 7331   3.146   1.884  17.301 -0.4085  0.0046 -0.4257
  489TMC3    C8 7332   3.323   2.282  17.120 -0.5523  0.0421 -0.1330
  489TMC3    O1 7333   3.210   1.910  17.402 -0.3533  0.2145 -0.1565
  489TMC3    O2 7334   3.414   2.316  17.047 -0.4711  0.2167  0.5967
  490MPD2     C 7335   4.139   1.228  17.262 -0.2965 -0.5062  0.5022
  490MPD2    C1 7336   4.039   1.313  17.305 -0.1500  0.7885  0.9584
  490MPD2    C2 7337   4.071   1.434  17.363 -0.0381 -0.0984 -0.1756
  490MPD2    C3 7338   4.205   1.474  17.374 -0.0514 -0.1171 -0.3338
  490MPD2    C4 7339   4.302   1.388  17.319 -0.7839  1.0912  0.0758
  490MPD2    C5 7340   4.267   1.267  17.273  0.1744 -0.3320  1.1129
  490MPD2     H 7341   3.989   1.491  17.405 -0.7023 -0.0065 -1.5988
  490MPD2    H1 7342   4.409   1.400  17.326 -0.5970 -0.4923 -0.1692
  490MPD2    H2 7343   4.126   1.124  17.231  1.6308 -0.2236 -1.2737
  490MPD2    H3 7344   4.335   1.189  17.242 -0.7504 -0.7793  0.2122
  490MPD2     N 7345   4.230   1.601  17.410  0.2342 -0.2114  0.1027
  490MPD2    H5 7346   4.325   1.629  17.388  0.5661 -0.5616  1.1160
  490MPD2    N1 7347   3.905   1.269  17.313 -0.1442 -0.3628 -0.0205
  490MPD2    H7 7348   3.833   1.327  17.355 -0.6783 -1.8566  1.1310
  491TMC3    C1 7349   3.730   1.111  17.302 -0.0863  0.5201  0.3160
  491TMC3    C2 7350   3.696   0.994  17.364  0.2539 -0.3391 -0.3674
  491TMC3    C3 7351   3.563   0.964  17.373  0.1759  0.3071  0.3310
  491TMC3    C4 7352   3.638   1.190  17.232 -0.3823  0.1662 -0.3422
  491TMC3    C5 7353   3.508   1.160  17.245  0.6778  0.9047 -0.3416
  491TMC3    C6 7354   3.474   1.052  17.315  0.0874 -0.7749 -0.3304
  491TMC3     C 7355   3.867   1.139  17.276  0.5248  0.5934  0.2764
  491TMC3     O 7356   3.931   1.034  17.262  0.2548  0.3299 -0.0245
  491TMC3     H 7357   3.770   0.922  17.399  1.4631  0.9357 -0.3281
  491TMC3    H1 7358   3.677   1.268  17.167 -1.0118  1.8731  1.3394
  491TMC3    H2 7359   3.370   1.047  17.347 -0.2437  0.1339 -1.2943
  491TMC3    C7 7360   3.414   1.194  17.133 -0.6886 -0.2480  0.6028
  491TMC3    C8 7361   3.528   0.897  17.502 -0.1722  0.0522  0.1170
  491TMC3    O1 7362   3.323   1.115  17.129 -0.0425 -0.4599 -0.2124
  491TMC3    O2 7363   3.427   0.932  17.561  0.4302  0.1919  0.3592
  492MPD2     C 7364   3.594   2.336  11.650  0.4120 -0.2583  0.0555
  492MPD2    C1 7365   3.501   2.248  11.614  0.3335 -0.4825  0.8903
  492MPD2    C2 7366   3.487   2.136  11.695  0.1694  0.8579  0.4205
  492MPD2    C3 7367   3.559   2.125  11.816  0.3148 -0.1944  0.0576
  492MPD2    C4 7368   3.646   2.225  11.854 -0.6233  0.2590 -0.0019
  492MPD2    C5 7369   3.676   2.325  11.759 -0.1798  0.2508  0.0304
  492MPD2     H 7370   3.413   2.061  11.671  0.5736  0.1701  1.3264
  492MPD2    H1 7371   3.696   2.226  11.951  0.3171  0.0830 -0.4892
  492MPD2    H2 7372   3.603   2.424  11.589 -1.3176  0.9123  1.4934
  492MPD2    H3 7373   3.748   2.400  11.788  0.5004 -1.0057  1.5975
  492MPD2     N 7374   3.552   2.016  11.903 -0.2654 -0.2556  0.0711
  492MPD2    H5 7375   3.609   2.025  11.986 -0.2398 -0.2252  0.0502
  492MPD2    N1 7376   3.433   2.265  11.497  0.4983  0.1287 -0.0602
  492MPD2    H7 7377   3.467   2.329  11.427 -0.7610  0.8521 -0.0148
  493TMC3    C1 7378   3.302   2.224  11.320 -0.1809 -0.4308  1.0375
  493TMC3    C2 7379   3.307   2.362  11.295  0.6110 -0.3351  0.3353
  493TMC3    C3 7380   3.230   2.417  11.198 -0.5866  0.6036  0.6675
  493TMC3    C4 7381   3.208   2.141  11.254  0.0965  0.4823 -0.3234
  493TMC3    C5 7382   3.127   2.201  11.158  0.0685 -0.1909 -0.2311
  493TMC3    C6 7383   3.141   2.338  11.123  0.0690  0.3498 -0.0514
  493TMC3     C 7384   3.333   2.183  11.449  0.2234  0.2449 -0.1593
  493TMC3     O 7385   3.281   2.079  11.495  0.0914  0.0666  0.3704
  493TMC3     H 7386   3.353   2.431  11.365 -1.0194  0.0175  1.0638
  493TMC3    H1 7387   3.200   2.034  11.273 -0.5397  0.4080 -1.0181
  493TMC3    H2 7388   3.079   2.387  11.048 -0.6583  1.4396  1.2553
  493TMC3    C7 7389   3.048   2.122  11.068  0.0735  0.3276  0.1183
  493TMC3    C8 7390   3.235   2.561  11.168 -0.0098 -0.0292  0.3905
  493TMC3    O1 7391   3.011   2.175  10.963  0.3383  0.1242  0.2116
  493TMC3    O2 7392   3.149   2.608  11.098 -0.4184  0.0809  0.5130
  494TMC3    C1 7393   4.533   3.485   0.503  0.4473 -0.2944  0.0797
  494TMC3    C2 7394   4.559   3.354   0.522 -0.1731  0.3911  0.1182
  494TMC3    C3 7395   4.600   3.269   0.422 -0.0490 -0.1148  0.1744
  494TMC3    C4 7396   4.566   3.546   0.381 -0.0681 -0.0895  0.2693
  494TMC3    C5 7397   4.602   3.458   0.282  0.3193 -0.6363 -0.3495
  494TMC3    C6 7398   4.616   3.325   0.298  0.5583 -0.5318 -0.2093
  494TMC3     C 7399   4.477   3.557   0.612 -0.6647 -0.0934  0.4472
  494TMC3     O 7400   4.492   3.517   0.727  0.4067  0.4629  0.2166
  494TMC3     H 7401   4.535   3.309   0.618 -0.2082 -3.0322 -1.4910
  494TMC3    H1 7402   4.556   3.651   0.357 -1.2588 -0.1243  0.6114
  494TMC3    H2 7403   4.660   3.259   0.224  0.7450 -1.0151  0.3284
  494TMC3    C7 7404   4.625   3.507   0.149 -0.0188 -0.1213 -1.2984
  494TMC3    C8 7405   4.581   3.128   0.433  0.1702  0.1272 -0.5826
  494TMC3    O1 7406   4.686   3.437   0.069  0.2044  0.7319  0.3222
  494TMC3    O2 7407   4.596   3.074   0.539  1.0018  0.4642  0.8998
  495TMC3    C1 7408   3.753   0.644  14.678  0.0173  0.0791 -0.2442
  495TMC3    C2 7409   3.665   0.702  14.588  0.3858 -0.0483  0.1874
  495TMC3    C3 7410   3.558   0.770  14.634  1.0165 -0.4432  0.5455
  495TMC3    C4 7411   3.731   0.659  14.810  0.2957 -0.2040 -0.1166
  495TMC3    C5 7412   3.630   0.735  14.852 -0.9668  0.1707  0.4806
  495TMC3    C6 7413   3.536   0.790  14.768 -0.3225  0.4148  0.1664
  495TMC3     C 7414   3.758   0.500  14.661  0.0108  0.0648 -0.2334
  495TMC3     O 7415   3.726   0.429  14.756 -0.0480 -0.1030  0.1914
  495TMC3     H 7416   3.684   0.725  14.483  0.1250 -0.6211  0.0151
  495TMC3    H1 7417   3.807   0.630  14.882  0.5527 -3.8873 -1.8929
  495TMC3    H2 7418   3.454   0.852  14.802  1.5127  2.3253  1.1430
  495TMC3    C7 7419   3.614   0.742  14.998 -0.1400  0.4185  0.8522
  495TMC3    C8 7420   3.444   0.719  14.574  0.4210  0.4955  0.9918
  495TMC3    O1 7421   3.713   0.714  15.066  0.5877  0.1773  0.2715
  495TMC3    O2 7422   3.336   0.776  14.589 -0.2021 -0.3158 -0.2761
  496MPD2     C 7423   1.153   1.102  15.633  0.8327  0.0742  0.4131
  496MPD2    C1 7424   1.115   0.971  15.617 -0.1174  0.0247  0.2290
  496MPD2    C2 7425   1.016   0.920  15.702  0.4019 -0.2887  0.4459
  496MPD2    C3 7426   0.957   1.006  15.796 -0.1231  0.4967 -0.1766
  496MPD2    C4 7427   0.983   1.138  15.795  0.7972  1.3219 -0.1712
  496MPD2    C5 7428   1.084   1.184  15.723  0.1311  0.4912 -0.1848
  496MPD2     H 7429   0.990   0.815  15.697 -3.7780  0.7311  0.7645
  496MPD2    H1 7430   0.934   1.208  15.861 -0.7735  0.7750 -0.7552
  496MPD2    H2 7431   1.236   1.140  15.574  1.6002  0.4638  1.7495
  496MPD2    H3 7432   1.111   1.289  15.731 -0.6310  0.5755  1.2724
  496MPD2     N 7433   0.841   0.955  15.872 -0.3479  0.0061  0.3490
  496MPD2    H5 7434   0.781   1.027  15.910 -3.1991 -2.3855  0.3921
  496MPD2    N1 7435   1.173   0.883  15.522 -0.1338  0.5413 -0.1219
  496MPD2    H7 7436   1.144   0.786  15.520 -0.2947  0.6174 -1.0374
  497TMC3    C1 7437   0.697   0.781  15.944 -0.7767  0.2600 -0.4166
  497TMC3    C2 7438   0.604   0.829  15.860  0.5519 -0.1535 -0.5879
  497TMC3    C3 7439   0.492   0.762  15.831 -0.3009  0.3848 -0.3558
  497TMC3    C4 7440   0.691   0.661  16.003  1.1947  0.1096  0.8805
  497TMC3    C5 7441   0.577   0.588  15.968 -0.3164  0.1481  0.8619
  497TMC3    C6 7442   0.480   0.635  15.885  0.4612  0.5903  0.1038
  497TMC3     C 7443   0.833   0.822  15.911  1.0436 -0.5717  0.0110
  497TMC3     O 7444   0.922   0.740  15.911 -0.1258 -0.1279  0.0104
  497TMC3     H 7445   0.603   0.930  15.821  0.8370  1.1482  2.7244
  497TMC3    H1 7446   0.778   0.634  16.061  1.1550 -1.9545 -0.0285
  497TMC3    H2 7447   0.390   0.575  15.873  0.7471 -0.0614  1.1706
  497TMC3    C7 7448   0.534   0.476  16.043 -0.7327 -0.3511 -0.4519
  497TMC3    C8 7449   0.436   0.788  15.703  0.1986  0.5428 -0.3742
  497TMC3    O1 7450   0.447   0.401  15.999 -0.1599 -0.5347  0.8069
  497TMC3    O2 7451   0.483   0.883  15.641 -0.3692 -0.2879 -0.3232
  498MPD2     C 7452   0.544   1.791  10.673  0.3429 -0.2611 -0.6166
  498MPD2    C1 7453   0.601   1.738  10.788 -0.3840 -0.1589 -0.2166
  498MPD2    C2 7454   0.555   1.625  10.843  0.4056 -0.2974 -0.5591
  498MPD2    C3 7455   0.449   1.555  10.779 -0.3115 -0.6787  0.0312
  498MPD2    C4 7456   0.399   1.606  10.658  0.0121  0.1471 -0.1247
  498MPD2    C5 7457   0.443   1.726  10.612 -0.2641  0.4733  0.0819
  498MPD2     H 7458   0.586   1.595  10.942 -0.3571  1.3991  0.1887
  498MPD2    H1 7459   0.319   1.560  10.602 -0.2361 -1.7210  1.7566
  498MPD2    H2 7460   0.581   1.885  10.634 -1.8688  1.0426  0.4191
  498MPD2    H3 7461   0.413   1.769  10.517 -0.2631 -0.0665 -0.1633
  498MPD2     N 7462   0.415   1.429  10.830 -0.3864  0.5434  0.5419
  498MPD2    H5 7463   0.458   1.390  10.913  1.0782 -0.5423 -0.7353
  498MPD2    N1 7464   0.701   1.813  10.853  0.1759  0.6562 -0.4856
  498MPD2    H7 7465   0.729   1.893  10.798  0.5387  0.5129 -0.5106
  499TMC3    C1 7466   0.839   1.891  11.018 -0.1265  0.1547 -0.7834
  499TMC3    C2 7467   0.834   1.955  11.144  0.1215 -0.1551  0.1219
  499TMC3    C3 7468   0.940   2.041  11.169 -0.1823  0.0295 -0.0136
  499TMC3    C4 7469   0.936   1.916  10.923 -0.7438  0.1136  0.2696
  499TMC3    C5 7470   1.040   2.002  10.956  0.6017  0.7540  0.0887
  499TMC3    C6 7471   1.048   2.059  11.081 -0.6541 -0.3783 -0.1098
  499TMC3     C 7472   0.745   1.795  10.988  0.5290 -0.0105 -0.4648
  499TMC3     O 7473   0.680   1.749  11.079 -0.0156  0.7114 -0.6223
  499TMC3     H 7474   0.750   1.953  11.212  0.0081 -0.8612 -0.0396
  499TMC3    H1 7475   0.946   1.865  10.828  2.5079 -1.8571  1.6520
  499TMC3    H2 7476   1.142   2.101  11.114 -0.7283 -0.9079  0.7715
  499TMC3    C7 7477   1.143   2.008  10.860 -0.3337 -0.3388  0.0247
  499TMC3    C8 7478   0.944   2.110  11.295 -0.1362 -0.0853  0.7297
  499TMC3    O1 7479   1.155   1.920  10.772 -0.3339 -0.8379 -0.1221
  499TMC3    O2 7480   0.871   2.061  11.379  0.0572  0.7932 -0.3015
  500MPD2     C 7481   2.395   3.415  10.595 -0.1575 -0.1169 -0.4568
  500MPD2    C1 7482   2.351   3.433  10.467  0.2932 -0.1708 -0.4290
  500MPD2    C2 7483   2.265   3.332  10.414  0.3062 -0.4817 -0.0779
  500MPD2    C3 7484   2.229   3.222  10.487  0.6567 -0.1842  1.1317
  500MPD2    C4 7485   2.284   3.204  10.612 -0.0624  0.0111  0.0540
  500MPD2    C5 7486   2.365   3.301  10.664 -1.1827  0.3458  0.4652
  500MPD2     H 7487   2.222   3.347  10.315  4.0409 -1.0772 -1.7947
  500MPD2    H1 7488   2.255   3.120  10.674  0.8619  0.8862  1.6640
  500MPD2    H2 7489   2.448   3.496  10.645 -0.3044 -0.8260  0.8423
  500MPD2    H3 7490   2.401   3.303  10.766  2.5142 -0.6849 -0.7966
  500MPD2     N 7491   2.131   3.132  10.447  0.0014  0.2369  0.4756
  500MPD2    H5 7492   2.106   3.062  10.517 -3.4512 -0.8288 -1.8335
  500MPD2    N1 7493   2.371   3.546  10.384 -0.1661 -0.2388  0.4350
  500MPD2    H7 7494   2.321   3.548  10.296  0.0452 -0.7904  0.3072
  501TMC3    C1 7495   2.590   3.635  10.461  0.0659  0.3764 -0.5181
  501TMC3    C2 7496   2.650   3.744  10.516  0.7970  0.0097 -0.5847
  501TMC3    C3 7497   2.761   3.725  10.599  0.6922  0.6074  0.8978
  501TMC3    C4 7498   2.643   3.512  10.478  0.7075 -0.2400 -0.1409
  501TMC3    C5 7499   2.746   3.495  10.567  0.2967  0.3770 -0.4638
  501TMC3    C6 7500   2.808   3.605  10.630 -0.8075 -0.2500  0.0457
  501TMC3     C 7501   2.456   3.651  10.411  0.4697  0.2238 -0.5336
  501TMC3     O 7502   2.444   3.757  10.353 -0.0691 -0.0253  0.3952
  501TMC3     H 7503   2.616   3.845  10.495  1.0675  0.1838 -0.1953
  501TMC3    H1 7504   2.609   3.425  10.422 -0.2921 -0.2010  0.4039
  501TMC3    H2 7505   2.901   3.602  10.685 -0.5502  0.1557 -0.3627
  501TMC3    C7 7506   2.780   3.364  10.600  0.5926 -0.6478  0.0329
  501TMC3    C8 7507   2.839   3.842  10.644  0.2551  0.4845 -0.0745
  501TMC3    O1 7508   2.746   3.266  10.536  0.3546 -0.3924  0.0353
  501TMC3    O2 7509   2.911   3.827  10.743 -0.0965 -0.2408  0.1536
  502TMC3    C1 7510   2.843   1.488  14.593  0.4927  0.4573  0.0112
  502TMC3    C2 7511   2.795   1.618  14.578 -0.3087  0.5034 -0.0723
  502TMC3    C3 7512   2.670   1.644  14.631 -0.5678  0.0908  0.1634
  502TMC3    C4 7513   2.769   1.385  14.649  0.1841  0.4599  0.1890
  502TMC3    C5 7514   2.656   1.424  14.714  0.1117 -0.5220 -0.6647
  502TMC3    C6 7515   2.610   1.550  14.708 -0.5171  0.1625  0.4197
  502TMC3     C 7516   2.974   1.493  14.669 -0.0113  0.4594 -0.0859
  502TMC3     O 7517   3.044   1.591  14.646 -0.5443 -0.1022 -0.0351
  502TMC3     H 7518   2.863   1.687  14.529 -0.0118  0.7975  0.7620
  502TMC3    H1 7519   2.807   1.284  14.657 -0.7727  0.2445  1.9425
  502TMC3    H2 7520   2.523   1.581  14.766 -0.1132  0.6815  0.7462
  502TMC3    C7 7521   2.619   1.336  14.832 -0.6075  0.6676  0.2415
  502TMC3    C8 7522   2.635   1.784  14.656 -0.1073 -0.3949 -0.3033
  502TMC3    O1 7523   2.711   1.269  14.877  0.5250 -0.1385 -0.0385
  502TMC3    O2 7524   2.554   1.815  14.747 -0.2513 -0.1545 -0.0917
  503MPD2     C 7525   0.056   2.237  16.969 -0.1312  0.5270 -0.4739
  503MPD2    C1 7526   0.120   2.247  17.089  0.1712 -0.4095 -0.7107
  503MPD2    C2 7527   0.198   2.139  17.127  0.6449 -0.0786  0.6982
  503MPD2    C3 7528   0.223   2.035  17.041  0.0066 -0.3431  0.1056
  503MPD2    C4 7529   0.160   2.018  16.922 -0.5587  0.2344 -0.7218
  503MPD2    C5 7530   0.075   2.120  16.892 -0.5203  0.3038 -0.1673
  503MPD2     H 7531   0.248   2.141  17.223  2.8375  1.8117 -0.4955
  503MPD2    H1 7532   0.178   1.943  16.846  2.1570  2.3605 -2.1877
  503MPD2    H2 7533   4.716   2.305  16.935 -1.0337  0.2716  1.0877
  503MPD2    H3 7534   0.020   2.126  16.799 -3.0599 -1.4494  1.2101
  503MPD2     N 7535   0.310   1.936  17.092 -0.6448  0.1528  0.8617
  503MPD2    H5 7536   0.354   1.969  17.177  0.8639  0.1258  0.0951
  503MPD2    N1 7537   0.099   2.359  17.177  0.0452 -0.0199  0.2536
  503MPD2    H7 7538   0.043   2.434  17.138 -2.2711 -1.7287  0.2916
  504TMC3    C1 7539   0.442   1.746  17.124 -0.5884 -0.1125 -0.3892
  504TMC3    C2 7540   0.411   1.728  17.258  0.0238 -0.3519  0.2676
  504TMC3    C3 7541   0.517   1.694  17.342  0.2104 -0.3067 -0.0107
  504TMC3    C4 7542   0.575   1.729  17.084 -0.4247 -0.8981 -0.5076
  504TMC3    C5 7543   0.669   1.683  17.170 -0.5027  0.1169  0.4772
  504TMC3    C6 7544   0.641   1.652  17.301 -0.0883 -0.0893 -0.0143
  504TMC3     C 7545   0.356   1.822  17.040  0.3915  0.3332 -0.2576
  504TMC3     O 7546   0.346   1.772  16.930 -1.1965 -0.0374 -0.0966
  504TMC3     H 7547   0.311   1.747  17.293  0.0535 -0.8721  0.6301
  504TMC3    H1 7548   0.592   1.755  16.980  0.6222 -0.5080 -0.2316
  504TMC3    H2 7549   0.714   1.614  17.372 -2.0881 -1.1936  1.4293
  504TMC3    C7 7550   0.792   1.648  17.118  0.3617  0.6227 -0.4742
  504TMC3    C8 7551   0.456   1.629  17.456 -0.4337 -0.0189 -1.0851
  504TMC3    O1 7552   0.794   1.648  16.998  0.0955  0.0150  0.5697
  504TMC3    O2 7553   0.345   1.575  17.441  0.1456  0.5925 -0.1023
  505MPD2     C 7554   4.563   0.350  11.197  1.0033  0.1707 -0.6890
  505MPD2    C1 7555   4.679   0.286  11.242  0.2686  0.5546 -0.3053
  505MPD2    C2 7556   4.725   0.326  11.368  0.1502  0.3362 -0.0007
  505MPD2    C3 7557   4.659   0.421  11.444 -0.6906 -0.4568  1.0231
  505MPD2    C4 7558   4.540   0.480  11.399  0.1981 -0.5870  0.0617
  505MPD2    C5 7559   4.496   0.439  11.276 -0.2491  0.1152  0.5385
  505MPD2     H 7560   0.085   0.291  11.401  0.1434  2.1559  1.9552
  505MPD2    H1 7561   4.487   0.561  11.449 -1.8642 -0.8094 -1.7607
  505MPD2    H2 7562   4.521   0.324  11.100 -1.7736  0.7057  0.3893
  505MPD2    H3 7563   4.398   0.476  11.251  0.0861  0.3455 -0.4404
  505MPD2     N 7564   4.715   0.471  11.565 -1.1063  0.2594  1.0695
  505MPD2    H5 7565   4.679   0.560  11.600 -0.6666  1.4644 -1.5060
  505MPD2    N1 7566   0.008   0.187  11.163  0.0734  0.5823 -0.3342
  505MPD2    H7 7567   4.718   0.184  11.065  0.7063  1.1979 -0.5336
  506TMC3    C1 7568   0.173   0.015  11.112 -0.2003  0.3967 -0.5624
  506TMC3    C2 7569   0.225   0.092  11.011  0.0115  0.4801  0.1542
  506TMC3    C3 7570   0.358   0.078  10.975  0.1768 -0.1072  0.4740
  506TMC3    C4 7571   0.262   4.668  11.180 -0.0946 -0.5622 -0.1027
  506TMC3    C5 7572   0.389   4.640  11.136  1.0376 -0.1896  0.1156
  506TMC3    C6 7573   0.433   4.714  11.024 -0.5419  1.0386  0.2025
  506TMC3     C 7574   0.100   0.095  11.210  0.6492  0.2150  0.0107
  506TMC3     O 7575   0.112   0.069  11.329 -0.1572  0.6946 -0.1517
  506TMC3     H 7576   0.162   0.170  10.970  2.7561  1.1609 -2.7609
  506TMC3    H1 7577   0.221   4.609  11.262 -0.2255  0.1842  0.3678
  506TMC3    H2 7578   0.539   4.698  11.012 -0.9682 -1.8273  0.0616
  506TMC3    C7 7579   0.484   4.650  11.243 -0.4487 -0.7126 -0.7801
  506TMC3    C8 7580   0.421   0.157  10.872 -0.5770  0.9626  0.0871
  506TMC3    O1 7581   0.597   4.606  11.229  0.1475  0.0490 -0.0251
  506TMC3    O2 7582   0.520   0.123  10.810  0.5849  0.0506  0.1048
  507TMC3    C1 7583   0.821   1.263  14.684 -0.2641  0.3553  0.4262
  507TMC3    C2 7584   0.721   1.295  14.594 -0.3638  0.5330 -0.3770
  507TMC3    C3 7585   0.761   1.374  14.481  0.2304  1.0877 -1.1113
  507TMC3    C4 7586   0.945   1.298  14.666  0.4357  0.1718  0.0615
  507TMC3    C5 7587   0.990   1.362  14.551  0.5811 -0.4038  0.3657
  507TMC3    C6 7588   0.896   1.404  14.457  0.4999 -0.2118  0.2424
  507TMC3     C 7589   0.788   1.187  14.803  0.3664  0.1631 -0.6133
  507TMC3     O 7590   0.868   1.115  14.855 -0.1553  0.3594 -0.2964
  507TMC3     H 7591   0.614   1.286  14.613 -0.4299  1.1829 -0.4368
  507TMC3    H1 7592   1.024   1.280  14.737  0.6182  0.8838  0.0362
  507TMC3    H2 7593   0.918   1.461  14.368  3.8832 -1.4456  0.2777
  507TMC3    C7 7594   1.079   1.481  14.583 -0.4359  0.4688  0.5701
  507TMC3    C8 7595   0.682   1.489  14.453 -0.4818  0.6950 -0.3330
  507TMC3    O1 7596   1.045   1.593  14.542 -0.6768 -0.5068 -0.0351
  507TMC3    O2 7597   0.563   1.494  14.440  0.5778 -0.3105 -0.2532
  508MPD2     C 7598   2.504   3.933  16.119 -0.7926  0.3888  0.0669
  508MPD2    C1 7599   2.506   4.011  16.235 -0.4364  0.1300 -0.5707
  508MPD2    C2 7600   2.492   4.148  16.219 -0.2196 -0.1932  0.3762
  508MPD2    C3 7601   2.462   4.205  16.096  0.2588 -0.5140 -0.6412
  508MPD2    C4 7602   2.463   4.127  15.983 -0.2406 -0.1526  0.1670
  508MPD2    C5 7603   2.485   3.993  15.995 -0.2363  0.5005  0.6389
  508MPD2     H 7604   2.502   4.215  16.304 -0.2555 -3.0315  2.5957
  508MPD2    H1 7605   2.451   4.160  15.880  1.2013  2.4730  0.8515
  508MPD2    H2 7606   2.523   3.827  16.120 -2.1093  0.1478 -0.3535
  508MPD2    H3 7607   2.479   3.928  15.908  2.7467  0.0949  0.7424
  508MPD2     N 7608   2.436   4.348  16.099 -0.7019  0.1236 -0.0074
  508MPD2    H5 7609   2.450   4.387  16.192 -1.5211  1.1377 -0.3125
  508MPD2    N1 7610   2.525   3.962  16.368  0.1754  0.4399  0.2305
  508MPD2    H7 7611   2.519   4.031  16.442  1.6637  1.8821 -0.9825
  509TMC3    C1 7612   2.338   0.042  15.942  0.7528 -0.0292  0.1266
  509TMC3    C2 7613   2.400   0.101  16.047  0.0851 -0.2352 -0.3972
  509TMC3    C3 7614   2.467   0.018  16.131 -0.3086  0.1527 -0.2577
  509TMC3    C4 7615   2.333   4.645  15.923 -0.1196  0.1186  0.5332
  509TMC3    C5 7616   2.385   4.564  16.022  0.1585 -0.3528 -0.0589
  509TMC3    C6 7617   2.447   4.619  16.132 -0.0912 -0.1773 -0.9041
  509TMC3     C 7618   2.278   0.121  15.836  0.0168 -0.2192  0.1447
  509TMC3     O 7619   2.276   0.073  15.720  0.6111  0.1713 -0.1772
  509TMC3     H 7620   2.402   0.210  16.053  0.6383 -0.1438 -2.0561
  509TMC3    H1 7621   2.302   4.609  15.826  0.9682  1.7024 -0.3983
  509TMC3    H2 7622   2.493   4.569  16.216 -2.8978  1.3601  1.5438
  509TMC3    C7 7623   2.395   4.421  15.991 -0.1029 -0.2220 -0.3319
  509TMC3    C8 7624   2.547   0.080  16.230 -0.0322 -0.1308  0.1194
  509TMC3    O1 7625   2.352   4.381  15.882  0.1889  0.0864  0.2356
  509TMC3    O2 7626   2.558   0.030  16.343  0.2212 -0.1129  0.1545
  510MPD2     C 7627   0.199   1.084  14.676  0.1403  0.0578 -0.2600
  510MPD2    C1 7628   0.266   0.975  14.729 -0.8068 -0.1344 -0.7401
  510MPD2    C2 7629   0.399   0.950  14.692  0.5603 -0.2399 -0.2452
  510MPD2    C3 7630   0.460   1.035  14.602 -0.1569 -0.5538 -0.0354
  510MPD2    C4 7631   0.390   1.144  14.550 -0.0630 -0.2881 -0.5290
  510MPD2    C5 7632   0.260   1.154  14.581 -0.3510 -0.0152  0.0886
  510MPD2     H 7633   0.451   0.863  14.731 -1.4243  0.5705  4.2478
  510MPD2    H1 7634   0.439   1.215  14.484 -0.6273 -0.3289 -0.9979
  510MPD2    H2 7635   0.095   1.106  14.697  0.7206  2.8993 -0.2247
  510MPD2    H3 7636   0.191   1.224  14.534 -0.4469 -1.5036 -1.9940
  510MPD2     N 7637   0.597   1.008  14.567 -0.1450 -0.2657 -0.1728
  510MPD2    H5 7638   0.644   0.934  14.619  1.2226  2.0132  1.8244
  510MPD2    N1 7639   0.194   0.891  14.816  0.5270 -0.4315  0.2249
  510MPD2    H7 7640   0.229   0.801  14.848  0.7100 -0.3915  0.1369
  511TMC3    C1 7641   0.017   0.811  14.958  0.3121  0.8617 -1.1530
  511TMC3    C2 7642   4.667   0.864  15.052 -0.5086  0.1428 -0.1013
  511TMC3    C3 7643   4.566   0.771  15.081  0.2352 -0.1239  0.6267
  511TMC3    C4 7644   0.022   0.686  14.908  0.3225  0.3395  0.0594
  511TMC3    C5 7645   4.661   0.604  14.944 -0.8041 -0.1360 -0.0446
  511TMC3    C6 7646   4.560   0.650  15.025  0.1745  0.4560  0.5429
  511TMC3     C 7647   0.079   0.919  14.883 -0.6345  0.1770 -0.4272
  511TMC3     O 7648   0.024   1.030  14.907 -0.1759  0.1358  0.4105
  511TMC3     H 7649   4.675   0.964  15.093 -1.2367  1.2187 -2.5839
  511TMC3    H1 7650   0.100   0.654  14.840  0.1595  0.2386 -0.0784
  511TMC3    H2 7651   4.471   0.588  15.034 -1.2101  2.5178  0.9126
  511TMC3    C7 7652   4.625   0.491  14.860  0.6584  0.1753 -0.6964
  511TMC3    C8 7653   4.482   0.824  15.179 -0.5738 -0.1249 -0.2173
  511TMC3    O1 7654   4.656   0.499  14.741  0.0035  0.3923  0.2815
  511TMC3    O2 7655   4.482   0.946  15.197 -0.2261 -0.1482  0.5954
  512TMC3    C1 7656   3.581   0.277  13.594  0.0201  0.3654 -0.0013
  512TMC3    C2 7657   3.681   0.369  13.589 -0.8528  0.3162  0.5013
  512TMC3    C3 7658   3.808   0.319  13.597  0.0187 -0.0680 -0.0745
  512TMC3    C4 7659   3.588   0.142  13.596  0.3180 -0.1689 -0.4308
  512TMC3    C5 7660   3.721   0.095  13.606  0.1259  0.0168  0.0123
  512TMC3    C6 7661   3.829   0.184  13.612  0.2777 -0.2909 -0.9739
  512TMC3     C 7662   3.446   0.340  13.621 -0.0591 -0.7172  0.3910
  512TMC3     O 7663   3.444   0.454  13.665 -0.1890  0.0531 -0.0402
  512TMC3     H 7664   3.661   0.475  13.593  0.0990  0.5419 -0.8577
  512TMC3    H1 7665   3.494   0.089  13.591  0.2724 -0.6254  4.8912
  512TMC3    H2 7666   3.935   0.158  13.620  0.8627  1.8042 -2.0757
  512TMC3    C7 7667   3.737   4.689  13.591 -0.4122 -0.8635  0.0699
  512TMC3    C8 7668   3.929   0.397  13.593 -0.2247 -0.4431  0.5560
  512TMC3    O1 7669   3.835   4.646  13.642  0.4811 -0.0351 -0.2242
  512TMC3    O2 7670   4.038   0.345  13.611 -0.4442 -0.5985 -0.0742
  513MPD2     C 7671   0.926   0.371  12.977  0.1343 -0.3917 -0.5262
  513MPD2    C1 7672   0.874   0.372  13.105  0.0382 -1.3669  0.5654
  513MPD2    C2 7673   0.954   0.400  13.211 -0.2004  0.2601 -0.3997
  513MPD2    C3 7674   1.085   0.442  13.189  0.5144  0.0428 -0.0898
  513MPD2    C4 7675   1.128   0.447  13.059  0.4401 -0.4435 -0.0287
  513MPD2    C5 7676   1.050   0.404  12.956  0.3168  0.2763  0.2901
  513MPD2     H 7677   0.918   0.412  13.313 -1.3336  0.1451 -0.7873
  513MPD2    H1 7678   1.227   0.483  13.035  1.1931 -0.0147  3.6954
  513MPD2    H2 7679   0.864   0.335  12.895 -0.5995  1.4410 -0.7587
  513MPD2    H3 7680   1.084   0.389  12.854  0.1614 -0.8553  0.4154
  513MPD2     N 7681   1.163   0.480  13.308  0.6748  0.0783  0.1207
  513MPD2    H5 7682   1.118   0.464  13.397 -0.5276  0.9090 -0.3373
  513MPD2    N1 7683   0.736   0.337  13.112  0.2947  0.1510 -0.1220
  513MPD2    H7 7684   0.701   0.285  13.032  1.4316 -2.2186  0.9018
  514TMC3    C1 7685   0.544   0.257  13.221 -0.6472  0.2948  0.5716
  514TMC3    C2 7686   0.541   0.137  13.156  0.4907  0.0513 -0.2539
  514TMC3    C3 7687   0.459   0.043  13.198  0.1265  0.5033  0.2100
  514TMC3    C4 7688   0.478   0.276  13.337 -0.0757  0.3689 -0.0624
  514TMC3    C5 7689   0.416   0.168  13.391 -0.3536 -0.2427 -0.4356
  514TMC3    C6 7690   0.397   0.046  13.326  0.3979 -0.2346 -0.3145
  514TMC3     C 7691   0.671   0.318  13.229 -0.0117 -0.0816  0.4695
  514TMC3     O 7692   0.695   0.374  13.338 -0.2225  0.1083  0.0872
  514TMC3     H 7693   0.609   0.126  13.073 -0.1971  0.4516 -0.8685
  514TMC3    H1 7694   0.481   0.371  13.389 -0.2773  0.0647  0.5063
  514TMC3    H2 7695   0.348   4.696  13.367 -0.9072  1.4488  1.7479
  514TMC3    C7 7696   0.469   0.136  13.526  0.0864  0.0397  0.1030
  514TMC3    C8 7697   0.426   4.667  13.110  0.1973  0.3503 -0.0223
  514TMC3    O1 7698   0.423   0.042  13.592  0.0153  0.5324 -0.2414
  514TMC3    O2 7699   0.384   4.570  13.172  0.1649 -0.2845 -0.8736
  515MPD2     C 7700   3.862   1.956  14.007  0.1380  0.3785  0.1222
  515MPD2    C1 7701   3.785   1.997  14.107  0.6650  0.3781 -0.3450
  515MPD2    C2 7702   3.825   2.111  14.180  0.1818  0.0403 -0.0066
  515MPD2    C3 7703   3.929   2.193  14.132 -0.2556  1.1132  0.1693
  515MPD2    C4 7704   3.986   2.166  14.011  0.7006 -0.2066 -0.0289
  515MPD2    C5 7705   3.955   2.045  13.950  0.0742  0.4712  0.1776
  515MPD2     H 7706   3.770   2.132  14.271 -0.3044  2.3562 -0.8325
  515MPD2    H1 7707   4.071   2.228  13.983  0.8516 -1.0335 -1.3780
  515MPD2    H2 7708   3.842   1.862  13.956  2.1633  0.5975 -1.0384
  515MPD2    H3 7709   3.996   2.025  13.852  2.3202  1.5551  0.9150
  515MPD2     N 7710   3.978   2.309  14.210 -0.1962  0.3376 -0.0835
  515MPD2    H5 7711   4.048   2.373  14.176 -1.7034  1.1917 -1.6139
  515MPD2    N1 7712   3.681   1.905  14.153  0.0807 -0.0541  0.6648
  515MPD2    H7 7713   3.617   1.947  14.220 -1.1751 -1.3748  0.2876
  516TMC3    C1 7714   3.516   1.733  14.157  0.2803 -0.2647  0.2555
  516TMC3    C2 7715   3.410   1.817  14.134  0.0498 -0.4384 -0.0082
  516TMC3    C3 7716   3.295   1.778  14.183  0.1390 -0.7709  0.7361
  516TMC3    C4 7717   3.513   1.606  14.220 -0.3887 -0.2889 -0.1356
  516TMC3    C5 7718   3.389   1.570  14.261 -0.1307  0.0277 -0.4613
  516TMC3    C6 7719   3.278   1.650  14.239  0.2919  0.1626 -0.0712
  516TMC3     C 7720   3.655   1.771  14.120  0.1962 -0.7325  1.1114
  516TMC3     O 7721   3.723   1.693  14.054 -0.2104 -0.3846 -0.6973
  516TMC3     H 7722   3.421   1.907  14.074  0.2126 -0.0220  0.6333
  516TMC3    H1 7723   3.601   1.545  14.235 -0.0450  0.0590 -0.7358
  516TMC3    H2 7724   3.189   1.613  14.288 -0.4341 -1.3512 -2.5031
  516TMC3    C7 7725   3.395   1.495  14.391  1.0629  0.3287 -0.2603
  516TMC3    C8 7726   3.188   1.873  14.194  0.2813  0.2625 -0.3015
  516TMC3    O1 7727   3.501   1.499  14.451  0.2121  0.2250 -0.3682
  516TMC3    O2 7728   3.077   1.829  14.214 -0.0515  0.5395  0.3601
  517MPD2     C 7729   3.284   3.669  17.401 -0.3641 -0.5907 -0.4080
  517MPD2    C1 7730   3.418   3.649  17.441 -0.5536 -0.3736 -0.4766
  517MPD2    C2 7731   3.492   3.763  17.451 -0.1344 -0.0839  0.3742
  517MPD2    C3 7732   3.437   3.889  17.447 -0.2139  0.7608 -0.3146
  517MPD2    C4 7733   3.303   3.895  17.425  0.4517 -0.0140 -0.1607
  517MPD2    C5 7734   3.230   3.790  17.403 -0.4794  0.2079 -0.1199
  517MPD2     H 7735   3.597   3.754  17.475 -0.5065  1.7255  2.6552
  517MPD2    H1 7736   3.247   3.986  17.409  0.0721  0.2602  2.6397
  517MPD2    H2 7737   3.220   3.583  17.384  0.4942 -0.7077 -3.0737
  517MPD2    H3 7738   3.129   3.806  17.365 -0.1171  1.5142 -0.5218
  517MPD2     N 7739   3.503   4.009  17.467 -0.1291  0.8239 -0.4949
  517MPD2    H5 7740   3.445   4.092  17.475 -0.2506  0.7188 -0.3014
  517MPD2    N1 7741   3.490   3.530  17.454  0.0565 -0.4508  0.0806
  517MPD2    H7 7742   3.586   3.540  17.485  0.9673 -0.7987 -2.6486
  518TMC3    C1 7743   3.536   3.294  17.430 -0.2269 -0.8212 -0.0089
  518TMC3    C2 7744   3.481   3.170  17.411  0.3365 -0.7226  0.3996
  518TMC3    C3 7745   3.555   3.082  17.337  0.2271  0.0013  0.2575
  518TMC3    C4 7746   3.668   3.325  17.390  1.1669 -0.2759 -0.0409
  518TMC3    C5 7747   3.741   3.226  17.330 -0.1053  0.3760 -0.2917
  518TMC3    C6 7748   3.684   3.103  17.298 -0.1249  0.2604  0.0969
  518TMC3     C 7749   3.436   3.403  17.436  0.3736  0.5025 -0.1522
  518TMC3     O 7750   3.322   3.372  17.422 -0.4710  0.0003 -0.5798
  518TMC3     H 7751   3.375   3.151  17.417  0.3007  0.7182  4.0762
  518TMC3    H1 7752   3.712   3.422  17.408  1.0148 -0.3979  0.9770
  518TMC3    H2 7753   3.748   3.033  17.245 -0.0173  0.7609 -0.4441
  518TMC3    C7 7754   3.882   3.249  17.330 -0.2498 -0.1990 -0.5000
  518TMC3    C8 7755   3.527   2.939  17.337 -0.1238 -1.0689  0.2172
  518TMC3    O1 7756   3.926   3.354  17.362  0.1643  0.7245  0.5355
  518TMC3    O2 7757   3.572   2.867  17.248 -0.3771 -0.5507  0.3855
  519MPD2     C 7758   0.621   2.085  13.565  0.6160  0.6097  0.3261
  519MPD2    C1 7759   0.518   2.037  13.638  0.8554  0.8871  0.4964
  519MPD2    C2 7760   0.533   1.901  13.688  0.0540 -0.6204 -0.2918
  519MPD2    C3 7761   0.640   1.821  13.662  0.0083 -0.1704 -0.2546
  519MPD2    C4 7762   0.750   1.882  13.596 -0.2104  0.4026  0.2091
  519MPD2    C5 7763   0.732   2.006  13.540  0.6247 -0.0399  0.3147
  519MPD2     H 7764   0.450   1.862  13.747 -1.2272  1.7430 -0.5132
  519MPD2    H1 7765   0.835   1.821  13.570 -2.1063 -0.9272 -2.8378
  519MPD2    H2 7766   0.625   2.180  13.512  0.4660  1.5268  1.9439
  519MPD2    H3 7767   0.808   2.040  13.470  0.2669 -1.1195 -0.5803
  519MPD2     N 7768   0.648   1.694  13.709  0.0631  0.1214 -0.2262
  519MPD2    H5 7769   0.742   1.656  13.720  0.1578  0.5554  0.4474
  519MPD2    N1 7770   0.402   2.118  13.655 -0.3599  0.0938  0.4471
  519MPD2    H7 7771   0.389   2.195  13.590  2.2928 -1.3934 -1.8499
  520TMC3    C1 7772   0.578   1.494  13.812  0.5239 -0.5951  0.3100
  520TMC3    C2 7773   0.493   1.389  13.805 -0.1611  0.5299  0.1812
  520TMC3    C3 7774   0.508   1.281  13.886 -0.2370 -0.1854 -0.4570
  520TMC3    C4 7775   0.679   1.499  13.903 -0.6464  0.3535 -0.2847
  520TMC3    C5 7776   0.683   1.396  13.990  0.6157 -0.2883 -0.3797
  520TMC3    C6 7777   0.601   1.291  13.988 -0.2598 -0.1201 -0.2585
  520TMC3     C 7778   0.542   1.607  13.736  0.2711  1.4333  0.4080
  520TMC3     O 7779   0.426   1.618  13.701  0.0673 -0.4856  0.0952
  520TMC3     H 7780   0.423   1.384  13.723 -0.2617 -0.6053  0.3390
  520TMC3    H1 7781   0.750   1.580  13.901 -0.2854  0.0603  0.5014
  520TMC3    H2 7782   0.625   1.199  14.039  0.5070  0.3381  0.2038
  520TMC3    C7 7783   0.804   1.384  14.072  0.0108 -0.0929  0.5704
  520TMC3    C8 7784   0.423   1.162  13.876 -0.3511  0.1882 -0.5222
  520TMC3    O1 7785   0.829   1.274  14.121  0.5096 -0.1827 -0.1727
  520TMC3    O2 7786   0.465   1.055  13.920  0.1047 -0.4705  0.0946
  521MPD2     C 7787   1.281   4.482   0.037 -0.8115  0.1375  0.0786
  521MPD2    C1 7788   1.235   4.471  17.660  0.2423  0.7706 -0.6161
  521MPD2    C2 7789   1.326   4.461  17.554 -0.9100 -0.2556  0.4344
  521MPD2    C3 7790   1.463   4.462  17.576 -0.4441 -0.1164 -0.1576
  521MPD2    C4 7791   1.506   4.468  17.710 -0.0579 -0.6423 -0.2220
  521MPD2    C5 7792   1.419   4.479   0.062 -0.3301 -0.2745  0.5444
  521MPD2     H 7793   1.288   4.448  17.454  0.5024  2.4476 -0.4559
  521MPD2    H1 7794   1.610   4.453  17.734  0.5262  1.9930 -1.2111
  521MPD2    H2 7795   1.208   4.494   0.117 -1.0599  1.0113 -0.2880
  521MPD2    H3 7796   1.458   4.469   0.162  2.2632  1.5096 -0.2875
  521MPD2     N 7797   1.549   4.435  17.471  0.3068 -0.2421 -0.0875
  521MPD2    H5 7798   1.495   4.432  17.385 -0.6435 -1.1491  0.5315
  521MPD2    N1 7799   1.093   4.466  17.633  0.4306  0.6498 -0.3104
  521MPD2    H7 7800   1.035   4.456  17.716 -0.6460  1.1532 -1.0110
  522TMC3    C1 7801   1.748   4.377  17.347 -0.5351  0.3547 -0.5971
  522TMC3    C2 7802   1.885   4.341  17.351  0.1206 -0.1285  0.1115
  522TMC3    C3 7803   1.940   4.279  17.244  0.1249 -0.1710  0.3983
  522TMC3    C4 7804   1.677   4.347  17.239  0.3822 -1.0176 -0.6452
  522TMC3    C5 7805   1.740   4.287  17.129  0.0009  0.6832  0.4063
  522TMC3    C6 7806   1.869   4.247  17.132  0.6180  0.7065  0.8401
  522TMC3     C 7807   1.684   4.410  17.478  0.0993  1.0977 -0.4464
  522TMC3     O 7808   1.753   4.433  17.575  0.1474 -0.9523 -0.2096
  522TMC3     H 7809   1.933   4.338  17.448  0.3809 -2.1890 -0.0720
  522TMC3    H1 7810   1.570   4.357  17.248  0.5802 -0.2031  0.8044
  522TMC3    H2 7811   1.912   4.185  17.054  1.3823  0.6876  1.2698
  522TMC3    C7 7812   1.651   4.199  17.056  0.5091 -0.1845 -0.4599
  522TMC3    C8 7813   2.080   4.265  17.258 -0.0403  0.4646 -0.1515
  522TMC3    O1 7814   1.696   4.090  17.020  0.0495  0.1673  0.1873
  522TMC3    O2 7815   2.126   4.347  17.334  0.2798  0.2625  0.6320
  523MPD2     C 7816   3.821   4.523  10.086  0.1178 -0.6657 -0.1227
  523MPD2    C1 7817   3.716   4.545  10.171  0.0516 -0.2571 -0.1940
  523MPD2    C2 7818   3.671   4.675  10.200  0.3402 -0.3219  0.1211
  523MPD2    C3 7819   3.735   0.046  10.152  0.0030 -0.2609 -0.4543
  523MPD2    C4 7820   3.848   0.022  10.075  0.2122 -0.1025 -0.8634
  523MPD2    C5 7821   3.894   4.629  10.042 -0.7584  0.6589  0.6764
  523MPD2     H 7822   3.578   4.680  10.257 -0.1905 -2.7455 -0.5174
  523MPD2    H1 7823   3.906   0.102  10.028  1.1989 -0.6011 -0.4810
  523MPD2    H2 7824   3.852   4.420  10.074 -0.6074 -0.6580 -1.9846
  523MPD2    H3 7825   3.978   4.620   9.974 -0.7593 -0.2266  0.7902
  523MPD2     N 7826   3.691   0.177  10.171  0.2051  0.0225 -0.3315
  523MPD2    H5 7827   3.740   0.254  10.124 -1.8455  2.7307  1.9821
  523MPD2    N1 7828   3.655   4.432  10.226  0.2748 -0.3239  0.0191
  523MPD2    H7 7829   3.669   4.341  10.182 -0.0775 -0.3536 -0.0366
  524TMC3    C1 7830   3.542   0.349  10.247  0.6004 -0.3489  0.2429
  524TMC3    C2 7831   3.654   0.423  10.275 -0.0635 -0.4227 -0.0236
  524TMC3    C3 7832   3.633   0.542  10.335 -0.2310  0.3846  0.1862
  524TMC3    C4 7833   3.416   0.390  10.273 -0.2786 -0.3740  0.2319
  524TMC3    C5 7834   3.401   0.512  10.332  0.1802 -0.2636 -0.2786
  524TMC3    C6 7835   3.509   0.590  10.367 -0.0721  0.7758 -0.2327
  524TMC3     C 7836   3.569   0.208  10.223  0.6147 -0.1452  0.6163
  524TMC3     O 7837   3.477   0.136  10.258 -0.2930  0.0369 -0.1213
  524TMC3     H 7838   3.754   0.382  10.277  0.5903  1.2268  1.5501
  524TMC3    H1 7839   3.331   0.330  10.241 -0.8922 -0.4860  2.0504
  524TMC3    H2 7840   3.493   0.683  10.420  1.5841  1.5267 -1.0347
  524TMC3    C7 7841   3.261   0.548  10.376  0.2842  0.0594 -1.6925
  524TMC3    C8 7842   3.726   0.652  10.326  0.0509 -0.1172 -0.5378
  524TMC3    O1 7843   3.182   0.456  10.366  0.4427  0.2612  0.3635
  524TMC3    O2 7844   3.711   0.756  10.394 -0.7309  0.3150 -0.0980
  525MPD2     C 7845   1.561   1.500  14.530  0.1416  0.1622  0.7714
  525MPD2    C1 7846   1.680   1.531  14.586 -0.4468 -0.1011  0.9662
  525MPD2    C2 7847   1.724   1.666  14.607 -0.0352  0.6537 -0.5808
  525MPD2    C3 7848   1.632   1.768  14.583  0.2858 -0.2386  0.2423
  525MPD2    C4 7849   1.509   1.733  14.528 -0.2679 -0.2498  0.4087
  525MPD2    C5 7850   1.477   1.606  14.496  0.1807  0.9852 -0.1194
  525MPD2     H 7851   1.818   1.689  14.654 -0.1241 -0.4418  0.1206
  525MPD2    H1 7852   1.434   1.809  14.510 -1.2521 -1.0883  0.9192
  525MPD2    H2 7853   1.532   1.396  14.519 -0.0728  0.2738  0.2817
  525MPD2    H3 7854   1.377   1.579  14.463 -0.4380  0.4572  2.2039
  525MPD2     N 7855   1.651   1.905  14.621 -0.5318 -0.0147 -0.3040
  525MPD2    H5 7856   1.562   1.953  14.613 -1.4115 -1.4680  0.6695
  525MPD2    N1 7857   1.768   1.434  14.634 -0.7584  0.4576  0.0489
  525MPD2    H7 7858   1.845   1.467  14.691  0.1838  0.5208 -1.2805
  526TMC3    C1 7859   1.853   1.236  14.728 -0.0042 -0.4468 -0.1593
  526TMC3    C2 7860   1.831   1.136  14.816 -0.1793  0.9116  0.1526
  526TMC3    C3 7861   1.940   1.073  14.867 -0.4803 -0.3956 -0.5441
  526TMC3    C4 7862   1.977   1.274  14.691 -0.0620  0.3540 -0.0155
  526TMC3    C5 7863   2.080   1.191  14.733 -0.6103 -0.3790 -0.3998
  526TMC3    C6 7864   2.069   1.091  14.823 -0.0746 -0.5220 -0.2246
  526TMC3     C 7865   1.741   1.304  14.659  0.5159 -0.1606  0.1306
  526TMC3     O 7866   1.639   1.240  14.643  0.3012  0.3303  0.0798
  526TMC3     H 7867   1.728   1.115  14.842  0.0547  1.6836  1.6890
  526TMC3    H1 7868   1.983   1.344  14.609 -3.0517  0.9975  0.3465
  526TMC3    H2 7869   2.146   1.027  14.864  0.1174 -0.7369 -0.9263
  526TMC3    C7 7870   2.201   1.201  14.658 -0.7446  0.5949  0.6811
  526TMC3    C8 7871   1.933   1.043  15.013 -0.3844  0.5650 -0.4753
  526TMC3    O1 7872   2.229   1.306  14.605  0.4496  0.5237  0.2714
  526TMC3    O2 7873   2.039   1.059  15.073 -0.5507  0.1397  0.2234
  527MPD2     C 7874   4.303   4.028   1.495 -0.2578 -0.5152  0.4580
  527MPD2    C1 7875   4.247   4.053   1.372 -0.7027  0.3001 -0.2236
  527MPD2    C2 7876   4.320   4.022   1.260  0.1583 -0.3491  0.3602
  527MPD2    C3 7877   4.448   3.965   1.259  0.5169 -0.9569  0.0071
  527MPD2    C4 7878   4.504   3.964   1.382  0.1785  0.0113 -0.2082
  527MPD2    C5 7879   4.431   3.983   1.492  0.1359 -0.3308  0.6124
  527MPD2     H 7880   4.271   4.047   1.166  1.1780 -0.2240 -0.1418
  527MPD2    H1 7881   4.612   3.961   1.391  0.2578 -0.2784 -1.2413
  527MPD2    H2 7882   4.257   4.050   1.591  1.1328  0.5654  0.8797
  527MPD2    H3 7883   4.484   3.973   1.585  0.0594  0.2040  0.7118
  527MPD2     N 7884   4.514   3.923   1.140 -0.4856 -0.2511 -0.3150
  527MPD2    H5 7885   4.476   3.948   1.049  0.0607 -0.6231 -0.6503
  527MPD2    N1 7886   4.122   4.121   1.358 -0.4363  0.2081 -0.5919
  527MPD2    H7 7887   4.096   4.152   1.265 -0.4663 -1.1492 -1.0328
  528TMC3    C1 7888   3.917   4.213   1.425  0.1709 -0.2482 -0.3197
  528TMC3    C2 7889   3.883   4.251   1.300 -0.8444 -0.1753 -0.8248
  528TMC3    C3 7890   3.753   4.285   1.274  0.3588 -0.1995 -0.5866
  528TMC3    C4 7891   3.825   4.235   1.530  0.4510 -0.2209  0.3456
  528TMC3    C5 7892   3.701   4.287   1.497 -0.1588  0.1746  0.2432
  528TMC3    C6 7893   3.658   4.304   1.369 -0.0956  0.0238 -0.5889
  528TMC3     C 7894   4.052   4.168   1.461 -0.5249  0.6873 -0.1933
  528TMC3     O 7895   4.077   4.168   1.582 -0.1113 -0.5253 -0.2125
  528TMC3     H 7896   3.949   4.242   1.215  0.2636  2.6670 -0.2760
  528TMC3    H1 7897   3.847   4.217   1.634  0.7494  0.4593  0.3981
  528TMC3    H2 7898   3.562   4.350   1.351  0.6149  2.2417  1.2540
  528TMC3    C7 7899   3.603   4.306   1.596 -0.6949 -0.0676 -0.0368
  528TMC3    C8 7900   3.730   4.329   1.139 -0.4178 -0.0611 -0.7828
  528TMC3    O1 7901   3.492   4.310   1.549 -0.2256 -0.1497  0.4379
  528TMC3    O2 7902   3.820   4.371   1.073 -0.2823 -0.0604 -0.1221
  529MPD2     C 7903   1.499   2.162   0.627 -0.1428  0.8070  0.3664
  529MPD2    C1 7904   1.629   2.197   0.647 -0.4477  0.2724  0.1966
  529MPD2    C2 7905   1.698   2.277   0.551 -0.8449  0.4257  0.2695
  529MPD2    C3 7906   1.628   2.326   0.441  0.7542  0.0107  0.0492
  529MPD2    C4 7907   1.489   2.304   0.433 -0.5026 -0.0034 -0.4473
  529MPD2    C5 7908   1.432   2.225   0.524  0.5053 -0.0915  0.6487
  529MPD2     H 7909   1.806   2.292   0.553 -0.8221  0.2584  0.3411
  529MPD2    H1 7910   1.422   2.337   0.354  2.2802  3.4183 -1.3242
  529MPD2    H2 7911   1.440   2.103   0.697  0.0021 -1.7429 -1.6291
  529MPD2    H3 7912   1.325   2.211   0.516  0.4548  0.2304  0.7528
  529MPD2     N 7913   1.681   2.405   0.346 -0.1542 -0.0241  0.1695
  529MPD2    H5 7914   1.625   2.460   0.282 -1.7655 -2.3106 -0.3867
  529MPD2    N1 7915   1.711   2.132   0.736 -0.4956 -0.5339 -0.1820
  529MPD2    H7 7916   1.808   2.160   0.729 -1.3642  2.5824  0.3529
  530TMC3    C1 7917   1.784   1.994   0.919 -0.5118  1.2034 -0.3327
  530TMC3    C2 7918   1.892   2.079   0.939 -0.2912 -0.1294  0.4535
  530TMC3    C3 7919   1.990   2.026   1.017  0.0780 -0.2971  0.3827
  530TMC3    C4 7920   1.774   1.862   0.962  0.3045  0.1776 -0.3388
  530TMC3    C5 7921   1.887   1.816   1.029 -0.1771  0.0566  1.1967
  530TMC3    C6 7922   1.989   1.900   1.072  0.5303 -0.4626 -0.1521
  530TMC3     C 7923   1.680   2.033   0.828 -0.0060  0.0203 -0.0866
  530TMC3     O 7924   1.575   1.987   0.862  0.0712 -0.0710 -0.3368
  530TMC3     H 7925   1.885   2.183   0.912  0.3603 -0.4566 -0.9672
  530TMC3    H1 7926   1.688   1.806   0.930 -0.5618  0.5323  1.3645
  530TMC3    H2 7927   2.067   1.867   1.139  1.4797  1.8956 -0.1016
  530TMC3    C7 7928   1.881   1.688   1.102 -1.0797  0.4013 -0.3356
  530TMC3    C8 7929   2.082   2.122   1.069  0.0551  0.4333 -0.3153
  530TMC3    O1 7930   1.962   1.662   1.188  0.6485 -0.2210  0.3820
  530TMC3    O2 7931   2.041   2.235   1.087 -0.0794  0.8526  0.4278
  531MPD2     C 7932   0.877   0.162  13.853 -0.3302 -0.1694 -0.8778
  531MPD2    C1 7933   0.897   0.250  13.750 -0.3359 -0.6699  1.0687
  531MPD2    C2 7934   0.802   0.252  13.651 -0.1384  0.1230 -0.6493
  531MPD2    C3 7935   0.687   0.179  13.649  0.4479 -0.3031 -0.2516
  531MPD2    C4 7936   0.662   0.096  13.757  0.6505  0.0330  0.6252
  531MPD2    C5 7937   0.760   0.083  13.854  0.0826  0.4856 -0.0379
  531MPD2     H 7938   0.805   0.320  13.566  2.1413 -0.0093 -0.6644
  531MPD2    H1 7939   0.573   0.035  13.754 -0.0956  1.0428  2.1486
  531MPD2    H2 7940   0.959   0.141  13.921 -1.0182  0.2152  0.0789
  531MPD2    H3 7941   0.748   0.011  13.934 -0.0403 -0.6755 -1.1152
  531MPD2     N 7942   0.596   0.192  13.540  0.6948  0.3486 -0.1368
  531MPD2    H5 7943   0.616   0.267  13.475 -1.8814  1.9167  0.9202
  531MPD2    N1 7944   1.023   0.319  13.746 -0.1886 -0.9644  0.0055
  531MPD2    H7 7945   1.084   0.305  13.825  0.9783 -0.2199 -0.7705
  532TMC3    C1 7946   1.207   0.459  13.643 -0.1376  0.7587  0.1024
  532TMC3    C2 7947   1.232   0.542  13.536 -0.1598  0.3648 -0.5178
  532TMC3    C3 7948   1.337   0.523  13.446  0.3642  0.1255 -0.6098
  532TMC3    C4 7949   1.310   0.373  13.667  0.0257  0.2529 -0.1766
  532TMC3    C5 7950   1.422   0.367  13.586  0.5118  0.0747 -0.2188
  532TMC3    C6 7951   1.435   0.441  13.470  0.8427 -0.2618  0.6459
  532TMC3     C 7952   1.065   0.399  13.642 -0.2246 -0.4348  0.1166
  532TMC3     O 7953   1.009   0.430  13.537  0.3791  0.7215 -0.5684
  532TMC3     H 7954   1.153   0.612  13.515 -1.4953 -0.6583  1.0995
  532TMC3    H1 7955   1.307   0.311  13.756  2.0750  1.6423  0.8398
  532TMC3    H2 7956   1.514   0.432  13.396 -0.0246  1.3294 -0.4511
  532TMC3    C7 7957   1.536   0.297  13.632  0.4548  0.0138  0.1013
  532TMC3    C8 7958   1.291   0.513  13.306 -0.2652 -0.3801  0.3639
  532TMC3    O1 7959   1.644   0.336  13.593 -0.3214  0.4629  0.4073
  532TMC3    O2 7960   1.371   0.482  13.217 -0.1491 -0.0692 -0.1483
  533TMC3    C1 7961   1.730   2.091  14.735  0.0373 -0.6218  0.2156
  533TMC3    C2 7962   1.839   2.166  14.750  0.1063 -0.2423  0.1982
  533TMC3    C3 7963   1.839   2.252  14.865 -0.1867  0.2394  0.6186
  533TMC3    C4 7964   1.624   2.089  14.821 -0.3588 -0.2345 -0.0276
  533TMC3    C5 7965   1.627   2.168  14.935  0.1287  0.0854  0.6503
  533TMC3    C6 7966   1.733   2.254  14.951 -0.0187  0.1311  0.4075
  533TMC3     C 7967   1.762   1.961  14.670 -0.1187 -0.1042  0.5016
  533TMC3     O 7968   1.880   1.927  14.676 -0.2309  0.0817 -0.1130
  533TMC3     H 7969   1.921   2.147  14.681 -0.7614  1.1462 -1.1973
  533TMC3    H1 7970   1.539   2.021  14.813  0.0540 -0.6550 -0.8817
  533TMC3    H2 7971   1.741   2.319  15.037 -1.0403  0.6388  0.1150
  533TMC3    C7 7972   1.641   2.060  15.038  0.0461  0.0074  1.3383
  533TMC3    C8 7973   1.962   2.302  14.899  0.1073 -0.1582 -0.1823
  533TMC3    O1 7974   1.687   1.951  14.997  0.3134  0.6213  1.0953
  533TMC3    O2 7975   2.062   2.227  14.879 -0.5360 -0.4731  0.0258
  534MPD2     C 7976   0.159   2.557   1.595  0.6169  0.7343  0.8450
  534MPD2    C1 7977   0.089   2.656   1.529 -0.1851  0.2466 -0.8811
  534MPD2    C2 7978   4.707   2.624   1.470  0.0177 -0.1263  0.1522
  534MPD2    C3 7979   4.659   2.491   1.471  0.6496  0.3126 -0.4664
  534MPD2    C4 7980   4.736   2.390   1.535  0.2719  0.3821 -0.2226
  534MPD2    C5 7981   0.112   2.430   1.604 -1.0845  0.2229  0.0786
  534MPD2     H 7982   4.649   2.702   1.421  2.9318  2.1483  0.3194
  534MPD2    H1 7983   4.708   2.285   1.529  2.3304 -0.1108 -1.1376
  534MPD2    H2 7984   0.248   2.580   1.652  0.5577  1.8144  0.5083
  534MPD2    H3 7985   0.165   2.352   1.658 -0.6553  0.6765  0.3088
  534MPD2     N 7986   4.542   2.449   1.399 -0.3530 -0.1380  0.8807
  534MPD2    H5 7987   4.517   2.351   1.399  0.4100 -0.3423 -1.1071
  534MPD2    N1 7988   0.128   2.794   1.518  0.4720 -0.6023 -0.0983
  534MPD2    H7 7989   0.079   2.861   1.460  0.5250  0.2270  0.8258
  535TMC3    C1 7990   4.348   2.458   1.268  0.4241 -0.1538  0.6625
  535TMC3    C2 7991   4.279   2.360   1.337 -0.0777  0.0050  0.6203
  535TMC3    C3 7992   4.164   2.310   1.280  0.6381 -0.0859  0.1254
  535TMC3    C4 7993   4.300   2.520   1.157 -0.9235  0.2365 -0.5501
  535TMC3    C5 7994   4.191   2.462   1.092 -0.3943 -0.0704  0.5259
  535TMC3    C6 7995   4.128   2.355   1.155 -0.1988  0.1311 -0.2156
  535TMC3     C 7996   4.456   2.536   1.334  0.2256 -0.0037 -0.0086
  535TMC3     O 7997   4.453   2.660   1.323  0.2438  0.2509 -0.5843
  535TMC3     H 7998   4.308   2.319   1.433  1.3853  2.3768  1.1907
  535TMC3    H1 7999   4.363   2.592   1.105 -1.1364  1.1436  0.4630
  535TMC3    H2 8000   4.031   2.326   1.116  1.0315 -2.9456 -0.9499
  535TMC3    C7 8001   4.132   2.526   0.976  0.0688 -0.1238  0.6856
  535TMC3    C8 8002   4.052   2.289   1.366  0.5815  0.1088 -0.4570
  535TMC3    O1 8003   4.039   2.464   0.924  0.3913 -0.3170 -0.6144
  535TMC3    O2 8004   3.952   2.259   1.304 -0.0417 -0.3281  0.2340
  536MPD2     C 8005   3.349   1.145  16.037 -0.1065  0.5771 -0.1816
  536MPD2    C1 8006   3.220   1.105  16.059 -0.1913  0.2190  0.3964
  536MPD2    C2 8007   3.128   1.124  15.958 -1.0655  0.0132  0.1755
  536MPD2    C3 8008   3.163   1.175  15.836 -0.1082 -0.5847 -0.9432
  536MPD2    C4 8009   3.291   1.212  15.819 -0.1387  0.0998 -0.1734
  536MPD2    C5 8010   3.380   1.198  15.917  0.0545 -0.1608 -0.0810
  536MPD2     H 8011   3.026   1.103  15.985  0.0723 -4.3783  1.0710
  536MPD2    H1 8012   3.323   1.249  15.722  1.0400  0.2806  0.2789
  536MPD2    H2 8013   3.424   1.152  16.115  1.1216  0.2294 -1.3121
  536MPD2    H3 8014   3.479   1.239  15.904  0.6867 -2.4962 -2.5512
  536MPD2     N 8015   3.080   1.199  15.723 -0.0264  0.0154  0.3305
  536MPD2    H5 8016   3.115   1.247  15.641  2.6897  2.2300  2.7872
  536MPD2    N1 8017   3.186   1.069  16.194 -0.5226  0.3583 -0.4061
  536MPD2    H7 8018   3.250   1.086  16.271 -1.2682  1.4911 -0.0376
  537TMC3    C1 8019   3.049   0.963  16.360 -0.1703 -0.0731 -0.5229
  537TMC3    C2 8020   3.115   1.030  16.464 -0.8080  0.3668 -0.8979
  537TMC3    C3 8021   3.061   1.018  16.588  0.6826 -0.8094  0.2932
  537TMC3    C4 8022   2.947   0.884  16.387 -0.1251  0.1010  0.0733
  537TMC3    C5 8023   2.911   0.855  16.516 -0.1121 -0.4905 -0.6347
  537TMC3    C6 8024   2.972   0.915  16.618 -0.1634 -0.5757  0.4744
  537TMC3     C 8025   3.064   1.012  16.228  0.3696  0.3880 -0.3704
  537TMC3     O 8026   2.973   0.974  16.155 -0.0040 -0.1964  0.6943
  537TMC3     H 8027   3.200   1.090  16.432  0.8123 -0.4624  1.8993
  537TMC3    H1 8028   2.908   0.820  16.308  1.6557  1.2808 -1.7448
  537TMC3    H2 8029   2.924   0.917  16.716  0.2952 -1.2208  0.7104
  537TMC3    C7 8030   2.814   0.748  16.545 -0.3872 -0.0912 -0.4418
  537TMC3    C8 8031   3.113   1.091  16.700 -0.1210  0.4913 -0.0146
  537TMC3    O1 8032   2.751   0.702  16.450 -0.6066  0.4604  0.3785
  537TMC3    O2 8033   3.089   1.044  16.811 -0.0256  0.2927  0.4196
  538TMC3    C1 8034   4.191   4.459  11.286  0.3498  0.0894 -0.3919
  538TMC3    C2 8035   4.320   4.487  11.259 -0.1360  0.0405  0.1888
  538TMC3    C3 8036   4.349   4.529  11.130 -0.4271 -0.6435 -0.4372
  538TMC3    C4 8037   4.090   4.456  11.193 -0.1890  0.0020 -0.3202
  538TMC3    C5 8038   4.130   4.487  11.066 -0.2651  0.0236  0.8652
  538TMC3    C6 8039   4.253   4.542  11.030 -0.4966  0.4673  0.5044
  538TMC3     C 8040   4.150   4.500  11.416  0.3071  0.3780  0.0545
  538TMC3     O 8041   4.057   4.577  11.431 -0.0501  0.5448 -0.3395
  538TMC3     H 8042   4.400   4.478  11.332  2.2439  2.0357 -2.1945
  538TMC3    H1 8043   3.989   4.429  11.223 -0.2463 -0.2995 -0.7898
  538TMC3    H2 8044   4.279   4.567  10.928 -1.4462 -0.1888  0.1014
  538TMC3    C7 8045   4.027   4.519  10.973  0.1816  0.0603 -0.0245
  538TMC3    C8 8046   4.490   4.519  11.089  0.1991 -0.3388  0.1918
  538TMC3    O1 8047   3.928   4.577  11.002  0.1594  0.2639  0.3760
  538TMC3    O2 8048   4.560   4.438  11.143 -0.5669 -0.2416  0.0684
  539MPD2     C 8049   3.718   3.974  12.229  0.2731 -0.6000 -0.0808
  539MPD2    C1 8050   3.704   4.028  12.096  0.2751 -0.2646  0.2769
  539MPD2    C2 8051   3.693   4.164  12.072 -0.0145  0.1681  0.3689
  539MPD2    C3 8052   3.715   4.253  12.171 -0.5340  0.6425  1.0488
  539MPD2    C4 8053   3.729   4.203  12.304  0.2890  0.5217 -0.0390
  539MPD2    C5 8054   3.728   4.071  12.330  0.3484 -0.2633 -0.0827
  539MPD2     H 8055   3.669   4.200  11.973 -0.2007  1.6823  0.9620
  539MPD2    H1 8056   3.752   4.274  12.383  0.0747  0.9234 -0.3405
  539MPD2    H2 8057   3.721   3.870  12.257  1.0946 -1.2191 -2.5170
  539MPD2    H3 8058   3.740   4.039  12.433  0.8552  0.8252  0.2045
  539MPD2     N 8059   3.722   4.396  12.142  0.6505 -0.0138 -0.0408
  539MPD2    H5 8060   3.716   4.462  12.219 -3.6066  0.8385 -1.0746
  539MPD2    N1 8061   3.703   3.951  11.981  0.7052  0.2853 -0.4043
  539MPD2    H7 8062   3.680   4.000  11.896  0.8653 -0.8239 -1.0811
  540TMC3    C1 8063   3.728   4.582  12.009 -0.1458 -0.7480 -0.7532
  540TMC3    C2 8064   3.709   4.631  11.881  0.0852  0.2068 -0.7312
  540TMC3    C3 8065   3.684   0.028  11.881 -0.1168  0.3772  0.2348
  540TMC3    C4 8066   3.736   4.665  12.118  0.7110  0.5419  0.2484
  540TMC3    C5 8067   3.734   0.061  12.105  0.8674  0.0238 -0.0990
  540TMC3    C6 8068   3.700   0.112  11.983  0.2671 -0.4165  0.0182
  540TMC3     C 8069   3.740   4.443  12.018 -0.0710  0.4287 -0.8465
  540TMC3     O 8070   3.764   4.385  11.914  0.5140 -0.0799  0.3709
  540TMC3     H 8071   3.696   4.561  11.799  0.4771 -0.7122 -0.0072
  540TMC3    H1 8072   3.780   4.626  12.209 -0.0319  1.5408  1.0350
  540TMC3    H2 8073   3.677   0.217  11.975 -0.8809 -0.6387  0.4060
  540TMC3    C7 8074   3.696   0.143  12.223 -0.4869  0.6329 -0.6885
  540TMC3    C8 8075   3.668   0.084  11.754  0.4527  0.2821 -0.0140
  540TMC3    O1 8076   3.641   0.251  12.207  0.4456 -0.0201  0.1903
  540TMC3    O2 8077   3.690   0.206  11.739  0.1524  0.3637  0.7795
  541MPD2     C 8078   2.476   0.493  13.599 -0.0278  0.1598 -0.6090
  541MPD2    C1 8079   2.340   0.503  13.589 -0.7020  0.9855 -0.5937
  541MPD2    C2 8080   2.285   0.624  13.551  0.0546  0.3973 -0.2146
  541MPD2    C3 8081   2.361   0.733  13.499  0.0148 -0.6393  0.7218
  541MPD2    C4 8082   2.498   0.710  13.502  0.7593  0.7237 -0.0082
  541MPD2    C5 8083   2.552   0.593  13.558  0.1779  0.0281 -0.1309
  541MPD2     H 8084   2.178   0.640  13.555 -0.2873 -1.7572 -0.9057
  541MPD2    H1 8085   2.566   0.780  13.455  2.0455 -0.5686 -0.0981
  541MPD2    H2 8086   2.520   0.397  13.624 -4.5059 -1.3045  1.5304
  541MPD2    H3 8087   2.659   0.584  13.549  0.0086 -1.4473 -0.6952
  541MPD2     N 8088   2.310   0.845  13.434 -0.5124  0.6525 -0.1258
  541MPD2    H5 8089   2.377   0.904  13.384  0.2642 -0.9078 -0.9273
  541MPD2    N1 8090   2.254   0.389  13.624 -0.0965 -0.0760  0.1345
  541MPD2    H7 8091   2.288   0.312  13.681  1.9305 -0.3683 -1.4579
  542TMC3    C1 8092   2.142   0.978  13.329 -0.2170 -0.1009 -0.1103
  542TMC3    C2 8093   2.020   0.963  13.262  0.1342 -0.3003  0.0333
  542TMC3    C3 8094   1.989   1.055  13.165 -0.5859 -0.9279  0.8656
  542TMC3    C4 8095   2.231   1.075  13.290 -0.1306  0.1313  0.2066
  542TMC3    C5 8096   2.197   1.166  13.199 -0.1917 -0.0022 -0.1593
  542TMC3    C6 8097   2.075   1.163  13.138 -0.2205  0.2163  0.3334
  542TMC3     C 8098   2.179   0.867  13.418 -0.4211  0.3387  0.0447
  542TMC3     O 8099   2.079   0.804  13.453  0.2062 -0.2974  0.0778
  542TMC3     H 8100   1.958   0.880  13.294 -0.3582 -0.1903 -0.6378
  542TMC3    H1 8101   2.327   1.074  13.342  0.0941 -0.1489 -0.2126
  542TMC3    H2 8102   2.036   1.237  13.070 -0.8482  1.2732  1.8335
  542TMC3    C7 8103   2.277   1.280  13.181 -0.2067  0.1016 -0.5568
  542TMC3    C8 8104   1.918   1.011  13.049 -0.0504 -0.2238  0.4273
  542TMC3    O1 8105   2.369   1.285  13.258 -1.0379  0.4893 -0.6236
  542TMC3    O2 8106   1.880   1.090  12.962  0.0860  0.2491 -0.0502
  543TMC3    C1 8107   1.826   1.996  17.180  0.5845  0.0112  0.0430
  543TMC3    C2 8108   1.751   1.881  17.209  0.1204 -0.3076  0.0764
  543TMC3    C3 8109   1.736   1.850  17.334  0.2829 -0.7748 -0.8435
  543TMC3    C4 8110   1.868   2.081  17.278 -0.1996  0.6473 -0.3277
  543TMC3    C5 8111   1.834   2.053  17.410 -0.0915 -0.3703  0.5272
  543TMC3    C6 8112   1.768   1.939  17.436  0.1541 -0.1221 -0.4229
  543TMC3     C 8113   1.891   2.004  17.048  0.0345 -0.6096 -0.1363
  543TMC3     O 8114   1.862   1.912  16.971 -0.1947  0.3284  0.4946
  543TMC3     H 8115   1.711   1.817  17.132 -1.0216  1.2193 -0.6094
  543TMC3    H1 8116   1.936   2.165  17.262  2.1101 -1.0691  0.4250
  543TMC3    H2 8117   1.737   1.928  17.540 -0.1039 -1.0217 -0.5908
  543TMC3    C7 8118   1.872   2.144  17.516  0.5402  0.6267  0.1914
  543TMC3    C8 8119   1.703   1.714  17.371 -0.2425  0.0347  0.5597
  543TMC3    O1 8120   1.798   2.138  17.613  0.0158  0.2637  0.4110
  543TMC3    O2 8121   1.741   1.632  17.293 -0.4055 -0.5669  0.0419
  544MPD2     C 8122   1.419   1.381  17.627 -0.1504  0.4293  0.6229
  544MPD2    C1 8123   1.479   1.371  17.504  0.2692 -0.9092 -0.7091
  544MPD2    C2 8124   1.554   1.475  17.455 -0.4023  0.2884 -0.2311
  544MPD2    C3 8125   1.573   1.587  17.532 -0.2461 -0.3691  0.6032
  544MPD2    C4 8126   1.503   1.599  17.650  0.6490  0.9119 -0.7075
  544MPD2    C5 8127   1.431   1.496  17.702  0.5263 -0.6862  0.0758
  544MPD2     H 8128   1.597   1.458  17.357  2.1144  0.7349  0.8083
  544MPD2    H1 8129   1.504   1.689  17.710 -1.4312  1.2403 -1.1491
  544MPD2    H2 8130   1.346   1.310  17.665  0.8358 -0.3145  1.1029
  544MPD2    H3 8131   1.369   1.510   0.041 -0.8544 -0.4574 -0.9153
  544MPD2     N 8132   1.629   1.708  17.487 -0.1091  0.0490 -0.1006
  544MPD2    H5 8133   1.596   1.793  17.531  1.1776 -0.3855  1.7023
  544MPD2    N1 8134   1.446   1.260  17.422  0.1894  0.1286 -0.1743
  544MPD2    H7 8135   1.375   1.200  17.462  0.8101 -1.2041 -1.0755
  545TMC3    C1 8136   1.426   1.141  17.226  0.6228  0.9127 -0.1276
  545TMC3    C2 8137   1.365   1.212  17.128  0.0060  0.1612 -0.1029
  545TMC3    C3 8138   1.235   1.183  17.102 -0.1919  0.2560 -0.4137
  545TMC3    C4 8139   1.356   1.045  17.296  1.0174 -0.0908  0.3219
  545TMC3    C5 8140   1.220   1.020  17.272 -0.1583 -0.8941 -0.4214
  545TMC3    C6 8141   1.160   1.091  17.169 -0.3594 -0.9072 -0.2268
  545TMC3     C 8142   1.511   1.225  17.303 -0.1486  0.9235  0.5734
  545TMC3     O 8143   1.622   1.257  17.258  0.6435 -0.3404 -0.0466
  545TMC3     H 8144   1.418   1.297  17.086  1.5704 -2.1792 -2.9017
  545TMC3    H1 8145   1.404   0.991  17.376  1.1154  1.7649  1.5294
  545TMC3    H2 8146   1.056   1.075  17.141 -0.4769  1.2833 -1.0893
  545TMC3    C7 8147   1.151   0.898  17.310  0.4565 -0.3729  0.5685
  545TMC3    C8 8148   1.178   1.244  16.980 -0.2910 -0.4147  0.3710
  545TMC3    O1 8149   1.032   0.894  17.294  0.0562  0.0503 -0.1409
  545TMC3    O2 8150   1.058   1.235  16.967 -0.4803 -0.2812  0.1107
  546MPD2     C 8151   3.372   1.433  17.530 -1.1798  0.1113 -0.1758
  546MPD2    C1 8152   3.325   1.480  17.404 -0.1751  0.0013 -0.0555
  546MPD2    C2 8153   3.373   1.601  17.361 -0.5571 -0.3293  0.0432
  546MPD2    C3 8154   3.460   1.678  17.438  0.2461 -0.4977 -0.7749
  546MPD2    C4 8155   3.492   1.633  17.562  0.2590 -0.2292  0.3587
  546MPD2    C5 8156   3.451   1.511  17.607 -0.2222  0.3121 -0.0995
  546MPD2     H 8157   3.348   1.641  17.264 -0.7203  2.4116  1.2177
  546MPD2    H1 8158   3.562   1.695  17.618 -0.8572  1.8936 -0.6012
  546MPD2    H2 8159   3.340   1.337  17.568 -0.1012 -0.3125 -0.3448
  546MPD2    H3 8160   3.503   1.478  17.696  1.8382  0.0884 -1.3766
  546MPD2     N 8161   3.518   1.797  17.393  0.5459 -0.1013 -0.2485
  546MPD2    H5 8162   3.585   1.839  17.457  1.1124  0.6487 -1.3335
  546MPD2    N1 8163   3.233   1.395  17.332  0.3186 -0.0453 -0.4717
  546MPD2    H7 8164   3.207   1.308  17.377  0.9224  0.4928  0.9081
  547TMC3    C1 8165   3.086   1.311  17.171 -0.0484  0.4638 -0.6548
  547TMC3    C2 8166   3.032   1.340  17.049  0.2803 -0.1333 -0.2575
  547TMC3    C3 8167   2.925   1.259  17.013 -0.3806  0.0503 -0.2516
  547TMC3    C4 8168   3.035   1.217  17.259  0.2663  0.0563 -0.7073
  547TMC3    C5 8169   2.942   1.134  17.210  0.5596  0.1848 -0.1650
  547TMC3    C6 8170   2.883   1.153  17.091 -0.1062  0.5680 -0.2468
  547TMC3     C 8171   3.174   1.421  17.215 -0.5011  0.4201  0.1252
  547TMC3     O 8172   3.187   1.517  17.141 -0.0125  0.2800  0.4273
  547TMC3     H 8173   3.076   1.414  16.983 -0.0811  1.0587  0.8635
  547TMC3    H1 8174   3.073   1.198  17.359  1.0378  1.4367 -0.7382
  547TMC3    H2 8175   2.802   1.086  17.062  1.7343 -2.0755  0.6991
  547TMC3    C7 8176   2.881   1.043  17.310 -0.3862  0.0258 -0.1009
  547TMC3    C8 8177   2.848   1.294  16.897  0.3923 -0.3311  0.1892
  547TMC3    O1 8178   2.872   1.066  17.431 -0.0329  0.7190  0.1689
  547TMC3    O2 8179   2.847   1.408  16.863 -0.0040 -0.9028 -0.6730
  548MPD2     C 8180   2.761   2.775  12.066  0.4813 -0.5578 -0.6475
  548MPD2    C1 8181   2.756   2.672  12.157  0.8199  0.2675  0.0686
  548MPD2    C2 8182   2.866   2.589  12.155  0.3982  0.4823 -0.0314
  548MPD2    C3 8183   2.968   2.608  12.062  0.3087  0.2377 -0.2819
  548MPD2    C4 8184   2.965   2.705  11.967 -0.0369 -0.7022  0.1144
  548MPD2    C5 8185   2.853   2.780  11.966 -0.2676  0.2506  0.2020
  548MPD2     H 8186   2.878   2.507  12.225  1.3610 -1.4057 -2.3870
  548MPD2    H1 8187   3.045   2.717  11.896  0.1131  0.0626  0.4117
  548MPD2    H2 8188   2.676   2.839  12.046  1.6019  1.2938  0.5283
  548MPD2    H3 8189   2.832   2.851  11.887 -0.1869  0.2932  0.2186
  548MPD2     N 8190   3.078   2.518  12.088 -0.0905  0.3867  0.0644
  548MPD2    H5 8191   3.065   2.450  12.162  0.1791 -1.6157 -1.7352
  548MPD2    N1 8192   2.651   2.661  12.247  0.2575 -0.3009 -0.3724
  548MPD2    H7 8193   2.579   2.732  12.244  0.5411  0.0161  0.3834
  549TMC3    C1 8194   2.544   2.587  12.438 -0.4990 -0.4321 -0.1228
  549TMC3    C2 8195   2.490   2.712  12.456 -0.1523 -0.5265  1.2441
  549TMC3    C3 8196   2.418   2.732  12.576  0.1958 -0.2482  0.2501
  549TMC3    C4 8197   2.522   2.485  12.532 -0.2555 -0.0393  0.3599
  549TMC3    C5 8198   2.458   2.520  12.646 -0.0933  0.0529  0.1134
  549TMC3    C6 8199   2.405   2.640  12.677  0.5030  0.0007 -0.4938
  549TMC3     C 8200   2.638   2.557  12.337  0.7048  0.6522 -0.1751
  549TMC3     O 8201   2.697   2.453  12.345  0.1025 -0.1684  0.3978
  549TMC3     H 8202   2.486   2.793  12.385 -0.0710 -0.8309  0.8947
  549TMC3    H1 8203   2.544   2.382  12.507  0.9102  0.2449  0.1975
  549TMC3    H2 8204   2.374   2.661  12.779  1.6547  1.5128 -0.4625
  549TMC3    C7 8205   2.467   2.429  12.760 -0.7681  0.1859 -0.2800
  549TMC3    C8 8206   2.335   2.846  12.589  0.1606 -0.6313 -0.3190
  549TMC3    O1 8207   2.460   2.476  12.872 -0.2367  0.4430 -0.4065
  549TMC3    O2 8208   2.278   2.867  12.484 -0.2664  0.3896 -0.1986
  550TMC3    C1 8209   1.600   0.351  12.661  0.6075  0.3358  0.8097
  550TMC3    C2 8210   1.582   0.447  12.755  0.2304 -0.9430  0.0543
  550TMC3    C3 8211   1.461   0.522  12.743 -0.0732 -0.0756  0.2526
  550TMC3    C4 8212   1.518   0.327  12.559 -0.3920  0.3847  0.1075
  550TMC3    C5 8213   1.407   0.406  12.549 -0.2925 -0.0007  0.1148
  550TMC3    C6 8214   1.369   0.502  12.638 -0.4991 -0.0290 -0.6169
  550TMC3     C 8215   1.745   0.319  12.649 -0.2498 -0.0234  0.5403
  550TMC3     O 8216   1.806   0.313  12.751 -0.3311  0.5786 -0.4433
  550TMC3     H 8217   1.664   0.464  12.824  0.7142 -1.0753 -0.4806
  550TMC3    H1 8218   1.531   0.246  12.488 -0.2308  1.2089 -0.7844
  550TMC3    H2 8219   1.287   0.573  12.636 -1.4479 -1.0915  0.4658
  550TMC3    C7 8220   1.299   0.342  12.473  0.2354 -0.2011 -0.7522
  550TMC3    C8 8221   1.445   0.635  12.834 -0.5716 -0.4044  0.3879
  550TMC3    O1 8222   1.185   0.342  12.516 -0.0034  0.1461 -0.1618
  550TMC3    O2 8223   1.346   0.701  12.810 -0.1889 -0.1516  0.1018
  551TMC3    C1 8224   4.313   2.988  13.023 -0.1746 -0.1836  0.0859
  551TMC3    C2 8225   4.420   2.994  12.935  0.4235 -0.6282  0.3039
  551TMC3    C3 8226   4.548   3.020  12.981  0.1063  0.4331  0.3533
  551TMC3    C4 8227   4.331   3.008  13.160  0.1365 -0.2645 -0.6122
  551TMC3    C5 8228   4.466   3.021  13.194 -0.0467  0.2133 -0.1238
  551TMC3    C6 8229   4.573   3.022  13.111  0.6126  0.4790  0.2313
  551TMC3     C 8230   4.173   2.984  12.964  0.1903 -0.6108 -0.7662
  551TMC3     O 8231   4.160   2.957  12.848  0.1041  0.0878 -0.2871
  551TMC3     H 8232   4.403   3.012  12.829 -2.8130  0.6151  1.0465
  551TMC3    H1 8233   4.251   3.004  13.232  0.7404  1.1537  0.1396
  551TMC3    H2 8234   4.674   3.030  13.151  0.4681 -0.7495  0.8374
  551TMC3    C7 8235   4.489   3.070  13.330  0.5533  0.6672 -0.7740
  551TMC3    C8 8236   4.638   3.090  12.893  0.0474  0.0959  1.3200
  551TMC3    O1 8237   4.597   3.041  13.377 -0.1968 -0.2637  0.2181
  551TMC3    O2 8238   4.609   3.077  12.776  0.4912 -0.2235  0.1931
  552MPD2     C 8239   1.383   4.656  14.352  0.4860 -0.0433  0.3266
  552MPD2    C1 8240   1.330   4.609  14.471  0.0057 -0.4648 -0.2643
  552MPD2    C2 8241   1.406   4.557  14.573  0.3529  0.1816 -0.2049
  552MPD2    C3 8242   1.541   4.555  14.554 -0.5441 -0.1424  0.2348
  552MPD2    C4 8243   1.593   4.602  14.434  0.8202  0.1698  0.1950
  552MPD2    C5 8244   1.519   4.654  14.333 -0.2460  0.9184  0.6495
  552MPD2     H 8245   1.360   4.529  14.667  0.5765 -2.1928 -0.8072
  552MPD2    H1 8246   1.700   4.613  14.423  0.6423  1.3286 -0.3292
  552MPD2    H2 8247   1.319   4.706  14.281  0.4018  3.9468  3.2183
  552MPD2    H3 8248   1.574   4.715  14.262 -1.1201  0.5973 -0.3151
  552MPD2     N 8249   1.634   4.527  14.659 -0.2411  0.1438  0.0834
  552MPD2    H5 8250   1.732   4.536  14.636 -0.1561 -1.0953 -0.0285
  552MPD2    N1 8251   1.191   4.611  14.492  0.1534 -0.0581 -0.0396
  552MPD2    H7 8252   1.164   4.589  14.587  0.2997 -1.2865 -0.2793
  553TMC3    C1 8253   0.967   4.567  14.428 -0.7230  0.5340 -0.2044
  553TMC3    C2 8254   0.895   4.525  14.322  0.5305 -0.1656 -0.1910
  553TMC3    C3 8255   0.832   4.399  14.328 -0.0823 -0.2191 -0.3123
  553TMC3    C4 8256   0.966   4.487  14.543  0.4196  0.1769  0.0009
  553TMC3    C5 8257   0.899   4.371  14.553 -0.4469 -0.1374  0.1912
  553TMC3    C6 8258   0.837   4.323  14.441 -0.0736 -0.8170  0.0819
  553TMC3     C 8259   1.096   4.629  14.395 -0.3178 -0.5836 -0.0560
  553TMC3     O 8260   1.111   4.653  14.276 -0.0643  0.0866  0.1452
  553TMC3     H 8261   0.904   4.582  14.231  0.0683  1.2627  0.6507
  553TMC3    H1 8262   1.004   4.534  14.632 -2.2761  0.8799  0.7842
  553TMC3    H2 8263   0.809   4.219  14.450 -3.3507 -0.0356 -1.0412
  553TMC3    C7 8264   0.967   4.263  14.618  0.4880 -0.4119 -0.3597
  553TMC3    C8 8265   0.834   4.323  14.198  0.1379  0.6355 -0.2045
  553TMC3    O1 8266   0.906   4.172  14.678 -0.4571  0.5315  0.6340
  553TMC3    O2 8267   0.840   4.202  14.201  0.0495  0.7748 -0.1379
  554TMC3    C1 8268   3.227   0.069  11.624 -0.0140  0.5427 -0.3760
  554TMC3    C2 8269   3.119   0.017  11.567  0.7425 -0.1605  0.4272
  554TMC3    C3 8270   3.086   0.064  11.444 -0.2897  0.7597 -0.5312
  554TMC3    C4 8271   3.278   0.186  11.582  0.3301  0.3651 -0.4538
  554TMC3    C5 8272   3.221   0.245  11.473  0.3728  0.1955 -0.1535
  554TMC3    C6 8273   3.132   0.177  11.393 -0.2463  0.4748  0.5683
  554TMC3     C 8274   3.287   0.009  11.739  0.4095  0.3257 -0.4129
  554TMC3     O 8275   3.346   0.098  11.811 -0.1518 -0.1206 -0.6041
  554TMC3     H 8276   3.076   4.658  11.589  0.6420 -0.0468  0.7370
  554TMC3    H1 8277   3.368   0.229  11.625  1.5061 -0.3606 -2.2254
  554TMC3    H2 8278   3.094   0.217  11.300  0.3456 -0.5443 -0.1055
  554TMC3    C7 8279   3.271   0.375  11.439 -0.0078 -0.4118 -0.3343
  554TMC3    C8 8280   2.992   4.736  11.358 -0.5437  0.8447  0.2949
  554TMC3    O1 8281   3.335   0.438  11.525 -0.0931  0.4047 -0.0032
  554TMC3    O2 8282   2.944   0.065  11.267  0.2011  0.1008  0.0264
  555TMC3    C1 8283   2.289   3.457  15.733  0.9774 -0.0543  0.1621
  555TMC3    C2 8284   2.323   3.497  15.866 -0.3085  0.8971  0.4440
  555TMC3    C3 8285   2.343   3.396  15.961  0.8041  0.8745  0.6342
  555TMC3    C4 8286   2.256   3.331  15.698  0.2426  0.4618  0.2415
  555TMC3    C5 8287   2.284   3.234  15.794 -0.3143 -0.0293 -0.2081
  555TMC3    C6 8288   2.335   3.262  15.922  0.1484 -0.2084  0.0756
  555TMC3     C 8289   2.331   3.555  15.626  0.4795 -0.1865 -0.2847
  555TMC3     O 8290   2.402   3.646  15.668  0.1270  0.4237  0.1541
  555TMC3     H 8291   2.338   3.600  15.896 -0.1923  0.5516  1.5744
  555TMC3    H1 8292   2.216   3.292  15.604  3.1607 -0.1374 -0.7427
  555TMC3    H2 8293   2.352   3.177  15.988 -1.1339 -1.3548 -1.0708
  555TMC3    C7 8294   2.295   3.094  15.744 -0.4781 -0.1202 -0.1814
  555TMC3    C8 8295   2.367   3.432  16.097 -0.1405 -0.3859 -1.1088
  555TMC3    O1 8296   2.205   3.050  15.669 -0.1480  0.1949  0.4922
  555TMC3    O2 8297   2.312   3.533  16.137  0.1403  0.0656 -0.7176
  556MPD2     C 8298   0.001   1.128  11.014  0.2107  0.2781  0.0593
  556MPD2    C1 8299   0.006   1.006  11.081  0.2419 -0.9248 -0.5843
  556MPD2    C2 8300   0.000   0.891  11.012 -1.0661  0.2700  0.2533
  556MPD2    C3 8301   4.733   0.891  10.872 -1.1179  0.4378 -0.2368
  556MPD2    C4 8302   4.712   1.007  10.806 -0.5382 -0.3833  0.1771
  556MPD2    C5 8303   4.724   1.128  10.876 -0.0401 -0.4118 -0.2571
  556MPD2     H 8304   4.729   0.802  11.072 -0.2925  0.8239  1.1794
  556MPD2    H1 8305   4.694   1.009  10.699 -1.1512 -0.3627  0.2758
  556MPD2    H2 8306   0.007   1.225  11.062  1.8476  0.6311 -0.8446
  556MPD2    H3 8307   4.723   1.220  10.818  0.5427 -0.0137  0.3749
  556MPD2     N 8308   4.734   0.765  10.810  0.0527  0.2985 -0.4501
  556MPD2    H5 8309   4.732   0.680  10.865 -3.2499  0.3703 -0.4096
  556MPD2    N1 8310   0.025   0.993  11.223 -0.4980  0.2137 -0.2651
  556MPD2    H7 8311   0.028   0.898  11.258  0.3411  0.1749 -0.4564
  557TMC3    C1 8312   0.023   0.606  10.634 -0.0820  0.0705 -0.3968
  557TMC3    C2 8313   0.054   0.583  10.504  0.5145 -0.5757  0.5367
  557TMC3    C3 8314   0.081   0.457  10.454  0.2325 -0.6312  0.4161
  557TMC3    C4 8315   0.013   0.501  10.725  0.7336 -0.3187  0.4565
  557TMC3    C5 8316   0.048   0.375  10.670 -1.1197  0.1665  0.5900
  557TMC3    C6 8317   0.078   0.344  10.539  0.6351  0.2211 -0.6309
  557TMC3     C 8318   4.733   0.749  10.670 -0.6474 -0.5195 -0.6128
  557TMC3     O 8319   4.720   0.830  10.578  0.6655 -0.1892  0.4268
  557TMC3     H 8320   0.070   0.671  10.442  0.6027 -0.9842 -0.0210
  557TMC3    H1 8321   4.722   0.505  10.829 -2.4375  1.6153 -0.4967
  557TMC3    H2 8322   0.097   0.242  10.508  0.1374 -0.4639  1.3122
  557TMC3    C7 8323   0.012   0.261  10.756 -0.4797  0.2678 -0.3345
  557TMC3    C8 8324   0.144   0.455  10.327  0.4065 -0.5954 -0.1729
  557TMC3    O1 8325   4.713   0.274  10.872 -0.3870 -0.2659 -0.2607
  557TMC3    O2 8326   0.127   0.555  10.264  0.5541  0.0705  0.4142
  558TMC3    C1 8327   1.999   3.018  10.289  0.2534 -0.1176  0.2622
  558TMC3    C2 8328   1.914   2.986  10.388  0.1127 -0.9548 -0.6094
  558TMC3    C3 8329   1.805   2.901  10.363 -0.5903  0.1823 -0.2828
  558TMC3    C4 8330   1.983   2.960  10.161 -0.0959 -0.7364 -0.4346
  558TMC3    C5 8331   1.878   2.874  10.142 -0.0607  0.1472 -0.0725
  558TMC3    C6 8332   1.790   2.838  10.238  0.4975 -0.2345  0.3401
  558TMC3     C 8333   2.105   3.117  10.312 -0.4752  0.1023 -0.3253
  558TMC3     O 8334   2.154   3.160  10.211 -0.1637  0.4796  0.2080
  558TMC3     H 8335   1.907   3.045  10.478  1.3384 -0.6533 -0.7127
  558TMC3    H1 8336   2.047   2.979  10.076 -2.5154  0.0010 -2.0861
  558TMC3    H2 8337   1.699   2.784  10.213  0.4583 -0.9300  1.9420
  558TMC3    C7 8338   1.904   2.785  10.031  0.0583 -0.1992 -0.1379
  558TMC3    C8 8339   1.710   2.870  10.465 -0.8210  0.1599  0.4291
  558TMC3    O1 8340   1.941   2.826   9.922 -0.5984  0.3740  0.1812
  558TMC3    O2 8341   1.595   2.849  10.431  0.2275  0.2728  0.7273
  559MPD2     C 8342   2.329   4.214  11.168 -0.2874 -0.5007  0.3362
  559MPD2    C1 8343   2.289   4.098  11.111 -0.0893 -0.1032  0.2141
  559MPD2    C2 8344   2.358   3.979  11.117 -0.2922  0.6135  0.0642
  559MPD2    C3 8345   2.486   3.983  11.174  0.7182 -0.0915  0.1494
  559MPD2    C4 8346   2.535   4.103  11.221  0.1622 -0.1551 -1.1766
  559MPD2    C5 8347   2.456   4.220  11.224 -0.8000  0.6188  0.3163
  559MPD2     H 8348   2.327   3.884  11.074 -1.1472  0.2637  1.4484
  559MPD2    H1 8349   2.634   4.112  11.266  0.0777  1.3967 -1.2752
  559MPD2    H2 8350   2.273   4.307  11.169  1.4889  0.5573  1.5196
  559MPD2    H3 8351   2.500   4.311  11.266 -0.8523  0.9510 -0.3442
  559MPD2     N 8352   2.559   3.860  11.173  0.0440 -0.6280  0.0212
  559MPD2    H5 8353   2.508   3.776  11.148  0.3337 -0.3371 -1.5467
  559MPD2    N1 8354   2.162   4.112  11.042  0.0675 -0.0992  0.3240
  559MPD2    H7 8355   2.118   4.203  11.043  2.0926  0.8825  2.9778
  560TMC3    C1 8356   2.724   3.723  11.279  0.4246  0.0232 -0.3887
  560TMC3    C2 8357   2.625   3.636  11.310  0.5416  0.1044  0.0675
  560TMC3    C3 8358   2.670   3.522  11.371 -0.0944 -0.2006  0.0913
  560TMC3    C4 8359   2.859   3.706  11.315  0.2725 -0.5998  0.0178
  560TMC3    C5 8360   2.895   3.594  11.391 -0.1812 -0.0081  0.4317
  560TMC3    C6 8361   2.799   3.500  11.418 -0.1269 -0.7166 -0.3564
  560TMC3     C 8362   2.687   3.853  11.224  0.2852 -0.2165  0.3549
  560TMC3     O 8363   2.772   3.943  11.226  0.0904  0.1868  0.2950
  560TMC3     H 8364   2.526   3.637  11.266  0.8278 -1.1179 -0.6177
  560TMC3    H1 8365   2.932   3.781  11.286 -2.4817  2.3410  0.5832
  560TMC3    H2 8366   2.829   3.426  11.491 -0.7857  0.6935  1.3344
  560TMC3    C7 8367   3.028   3.589  11.448  0.0565 -0.5282 -0.6742
  560TMC3    C8 8368   2.569   3.417  11.398 -0.1089 -0.3537  0.3381
  560TMC3    O1 8369   3.065   3.478  11.486  0.2274  0.3786 -0.0302
  560TMC3    O2 8370   2.452   3.443  11.379  0.4071  0.2638  0.1584
  561TMC3    C1 8371   0.485   3.043  11.185 -0.0663 -0.1316  0.6581
  561TMC3    C2 8372   0.499   2.998  11.311 -0.5036 -0.1480 -0.1525
  561TMC3    C3 8373   0.474   3.096  11.411  0.0186  0.9487  0.0725
  561TMC3    C4 8374   0.440   3.174  11.148 -0.2842  0.1736 -0.3916
  561TMC3    C5 8375   0.421   3.255  11.256 -0.0657  0.2858 -0.9043
  561TMC3    C6 8376   0.440   3.222  11.386  0.8060 -0.8367  0.3071
  561TMC3     C 8377   0.437   2.936  11.098  0.0055 -0.3285  0.8021
  561TMC3     O 8378   0.396   2.830  11.145 -0.1623 -0.0780 -0.0516
  561TMC3     H 8379   0.542   2.900  11.324  0.2126  0.2468  0.4386
  561TMC3    H1 8380   0.399   3.201  11.051  1.3351 -0.7273 -1.3331
  561TMC3    H2 8381   0.439   3.300  11.461 -0.0550 -5.4893  5.1284
  561TMC3    C7 8382   0.382   3.396  11.225  0.1040 -0.1477  0.0509
  561TMC3    C8 8383   0.472   3.056  11.549  0.1673  0.7307 -0.1081
  561TMC3    O1 8384   0.302   3.447  11.299 -0.8691  0.0037  0.8866
  561TMC3    O2 8385   0.553   2.969  11.578 -0.2177  0.5637  0.4540
  562TMC3    C1 8386   2.179   3.467  16.706 -0.1682 -0.4020 -0.5368
  562TMC3    C2 8387   2.116   3.585  16.745  0.3106 -0.3162  0.2189
  562TMC3    C3 8388   2.038   3.638  16.648  0.2265  0.2601 -0.5684
  562TMC3    C4 8389   2.158   3.401  16.590  0.3059  0.0374 -0.1983
  562TMC3    C5 8390   2.076   3.458  16.499  0.5603  0.3057  0.6463
  562TMC3    C6 8391   2.003   3.571  16.528 -0.2648  0.1897  0.1415
  562TMC3     C 8392   2.278   3.411  16.800  0.3538 -0.6807  0.0141
  562TMC3     O 8393   2.311   3.294  16.790 -0.2626 -0.7445  0.0627
  562TMC3     H 8394   2.125   3.639  16.839 -0.3965 -0.9019  0.6178
  562TMC3    H1 8395   2.220   3.313  16.580  0.2035  0.0688 -1.1471
  562TMC3    H2 8396   1.928   3.607  16.458  1.2651 -2.1917 -2.7309
  562TMC3    C7 8397   2.057   3.391  16.374 -0.4775  0.0503 -0.0864
  562TMC3    C8 8398   1.976   3.764  16.671 -0.2456 -0.3725  0.3707
  562TMC3    O1 8399   1.979   3.440  16.295 -0.2061  0.6172  0.3617
  562TMC3    O2 8400   1.978   3.801  16.787 -0.0214 -0.0789 -0.1793
  563MPD2     C 8401   4.541   0.080  15.648  0.7157  0.2568 -0.1154
  563MPD2    C1 8402   4.620   0.122  15.748 -0.3312 -0.1810  0.2688
  563MPD2    C2 8403   0.023   0.101  15.726  0.4501  0.0272 -0.2105
  563MPD2    C3 8404   0.068   0.035  15.613 -0.2109  0.4984 -0.0281
  563MPD2    C4 8405   4.717   4.729  15.519  0.0537  0.1430 -0.1896
  563MPD2    C5 8406   4.587   0.019  15.537  0.0421 -0.6875  0.1122
  563MPD2     H 8407   0.095   0.142  15.797  1.1989  1.3416 -1.7218
  563MPD2    H1 8408   4.733   4.688  15.419  3.0857  1.6780 -0.3516
  563MPD2    H2 8409   4.437   0.112  15.644  0.8461  0.8844  1.6676
  563MPD2    H3 8410   4.522   0.000  15.452  0.9674  0.1474 -0.7818
  563MPD2     N 8411   0.208   0.023  15.579 -0.0744  0.3862 -0.5082
  563MPD2    H5 8412   0.239   4.715  15.494  0.2459  1.7348 -1.1131
  563MPD2    N1 8413   4.584   0.179  15.868  0.0682 -0.2467  0.8994
  563MPD2    H7 8414   4.660   0.194  15.934 -0.8203 -0.4458  1.9827
  564TMC3    C1 8415   4.441   0.206  16.058  0.9553 -0.3233 -0.4193
  564TMC3    C2 8416   4.311   0.212  16.098 -0.3537 -1.0513 -0.1770
  564TMC3    C3 8417   4.258   0.141  16.201  0.6632  0.1208  0.3353
  564TMC3    C4 8418   4.532   0.133  16.123 -0.1768 -0.3097 -0.3211
  564TMC3    C5 8419   4.480   0.066  16.228  0.2360 -0.8839 -0.2531
  564TMC3    C6 8420   4.354   0.072  16.275 -0.3157  0.8090 -0.9921
  564TMC3     C 8421   4.456   0.204  15.914  0.1641 -0.5737 -0.2116
  564TMC3     O 8422   4.354   0.182  15.850 -0.0420 -0.4568 -0.4720
  564TMC3     H 8423   4.239   0.269  16.040  1.7590  0.4403 -1.2945
  564TMC3    H1 8424   4.636   0.120  16.095 -0.7791 -1.2491 -2.1036
  564TMC3    H2 8425   4.328   4.732  16.346 -0.5450  1.4973 -0.3314
  564TMC3    C7 8426   4.536   4.666  16.238  0.4086  0.2102 -0.3305
  564TMC3    C8 8427   4.181   0.025  16.151 -0.4824 -0.4411  0.2202
  564TMC3    O1 8428   4.546   4.615  16.347 -0.1400  0.4214 -0.3601
  564TMC3    O2 8429   4.133   4.680  16.227  0.0318  0.7645 -0.1669
  565TMC3    C1 8430   4.235   2.351  11.203 -0.3913  0.0526  0.7603
  565TMC3    C2 8431   4.317   2.295  11.290 -0.2792  0.2039  0.0267
  565TMC3    C3 8432   4.296   2.170  11.340 -0.0870 -0.1345  0.1675
  565TMC3    C4 8433   4.117   2.287  11.162 -0.1930  0.5943  0.3451
  565TMC3    C5 8434   4.097   2.158  11.210  0.2720 -0.2091 -0.0379
  565TMC3    C6 8435   4.193   2.095  11.292  0.2229  0.1247  0.2532
  565TMC3     C 8436   4.305   2.435  11.106 -0.3250  0.0341  0.6501
  565TMC3     O 8437   4.419   2.480  11.140 -0.3268  0.3560 -0.3597
  565TMC3     H 8438   4.402   2.351  11.326 -1.0348  0.9100  0.7134
  565TMC3    H1 8439   4.043   2.340  11.102 -0.4089 -0.3121 -0.1818
  565TMC3    H2 8440   4.167   2.016  11.361  0.2113  0.1591  0.2879
  565TMC3    C7 8441   4.028   2.079  11.110  0.0571  0.2719  0.0941
  565TMC3    C8 8442   4.391   2.105  11.424  0.1216 -0.2244 -0.0673
  565TMC3    O1 8443   3.991   2.141  11.012 -0.0417 -0.1776 -0.3487
  565TMC3    O2 8444   4.378   1.984  11.433 -0.1309  0.2333 -0.3048
  566MPD2     C 8445   1.744   3.388  14.386  0.0906 -0.4401  0.2017
  566MPD2    C1 8446   1.789   3.478  14.294  0.0123 -0.1691  0.2597
  566MPD2    C2 8447   1.698   3.540  14.209 -0.2885  0.2129  0.2409
  566MPD2    C3 8448   1.566   3.498  14.205 -0.8761 -0.9915  0.5978
  566MPD2    C4 8449   1.528   3.399  14.297  0.0140 -0.2474 -0.5829
  566MPD2    C5 8450   1.615   3.348  14.381  0.2481  0.0111  0.4127
  566MPD2     H 8451   1.738   3.615  14.143  2.5179  0.6111  2.3992
  566MPD2    H1 8452   1.428   3.357  14.298 -1.0259  2.1264 -2.0788
  566MPD2    H2 8453   1.810   3.347  14.462 -1.5116 -1.1245  1.2267
  566MPD2    H3 8454   1.582   3.269  14.448 -1.0358 -1.0008 -1.3849
  566MPD2     N 8455   1.476   3.557  14.104  0.0363  0.7099  0.2631
  566MPD2    H5 8456   1.377   3.538  14.112  0.5151 -1.1136  1.9342
  566MPD2    N1 8457   1.931   3.504  14.281  0.0922  0.1934 -0.1495
  566MPD2    H7 8458   1.991   3.461  14.350  0.5592  1.7828  0.4326
  567TMC3    C1 8459   2.124   3.617  14.193  0.4307 -0.7378 -1.1115
  567TMC3    C2 8460   2.190   3.668  14.089 -0.3386 -0.1079 -0.5695
  567TMC3    C3 8461   2.295   3.750  14.110 -0.7755 -0.5014  0.0359
  567TMC3    C4 8462   2.171   3.632  14.322  0.8992 -0.6387 -0.5043
  567TMC3    C5 8463   2.288   3.700  14.339 -0.1615  0.6245 -0.1063
  567TMC3    C6 8464   2.348   3.764  14.235 -0.3956 -0.1852 -0.4192
  567TMC3     C 8465   1.989   3.562  14.166  0.7442  0.1585  0.9513
  567TMC3     O 8466   1.940   3.590  14.058  0.1343  0.0580 -0.0143
  567TMC3     H 8467   2.145   3.660  13.990  0.0305  1.4455 -0.8706
  567TMC3    H1 8468   2.137   3.567  14.401 -0.8969 -1.4066 -1.8983
  567TMC3    H2 8469   2.440   3.818  14.247 -0.1906 -1.2835  2.9368
  567TMC3    C7 8470   2.356   3.715  14.468 -0.1929  0.2401  1.0717
  567TMC3    C8 8471   2.347   3.821  13.992  0.2153  0.2748 -0.2945
  567TMC3    O1 8472   2.443   3.798  14.485 -0.6115  0.1212 -0.1442
  567TMC3    O2 8473   2.291   3.795  13.889 -0.5995 -0.2290 -0.0132
  568MPD2     C 8474   3.807   3.310  16.359 -0.2672 -0.0256 -0.3350
  568MPD2    C1 8475   3.936   3.322  16.396  0.4422 -0.2666 -0.6680
  568MPD2    C2 8476   4.008   3.431  16.355  0.4143 -0.4978 -0.1646
  568MPD2    C3 8477   3.949   3.528  16.272  0.3073 -0.1370 -0.6612
  568MPD2    C4 8478   3.824   3.512  16.223 -0.8362  0.4248 -1.1917
  568MPD2    C5 8479   3.757   3.408  16.280  0.2320 -0.1714  0.5915
  568MPD2     H 8480   4.112   3.447  16.381  0.6872 -0.1772 -1.4432
  568MPD2    H1 8481   3.769   3.587  16.167  0.9706  2.5020 -0.1417
  568MPD2    H2 8482   3.740   3.228  16.382 -0.2452  0.0371 -0.0485
  568MPD2    H3 8483   3.662   3.386  16.232 -0.1454  1.2497  0.6890
  568MPD2     N 8484   4.036   3.637  16.246 -0.1443 -0.0874 -0.4224
  568MPD2    H5 8485   4.127   3.637  16.290 -0.3207 -1.2326 -0.0410
  568MPD2    N1 8486   3.980   3.228  16.491 -0.6403  0.3094 -0.2243
  568MPD2    H7 8487   3.915   3.161  16.531  1.6386 -2.4204 -1.0942
  569TMC3    C1 8488   4.106   3.844  16.160  0.4965 -0.0270  0.4585
  569TMC3    C2 8489   4.153   3.871  16.288  0.3166  0.0683 -0.0778
  569TMC3    C3 8490   4.217   3.994  16.298 -0.6496  0.3227  0.0381
  569TMC3    C4 8491   4.114   3.927  16.050  0.0834  0.2872 -0.0124
  569TMC3    C5 8492   4.184   4.046  16.073 -0.1765 -0.8170  0.0540
  569TMC3    C6 8493   4.233   4.084  16.192 -0.5246 -0.0075  0.0550
  569TMC3     C 8494   4.007   3.738  16.154 -0.4591  0.3011  0.1073
  569TMC3     O 8495   3.907   3.753  16.082  0.0552  0.3834  0.6505
  569TMC3     H 8496   4.122   3.818  16.378 -0.2815 -2.8415 -2.0034
  569TMC3    H1 8497   4.103   3.894  15.947  1.7181  1.8189 -0.6625
  569TMC3    H2 8498   4.292   4.175  16.187 -0.6470  0.1223  0.9256
  569TMC3    C7 8499   4.181   4.137  15.958 -0.0843  0.0512 -0.5158
  569TMC3    C8 8500   4.293   3.993  16.420  0.7508  0.5300 -0.7004
  569TMC3    O1 8501   4.189   4.090  15.848  0.2429  0.0988 -0.8382
  569TMC3    O2 8502   4.322   3.879  16.461 -0.2174 -0.6507  0.3641
  570TMC3    C1 8503   3.440   2.349  16.114 -0.1121  0.3465 -0.2375
  570TMC3    C2 8504   3.530   2.357  16.016 -0.8393  0.6340 -0.5354
  570TMC3    C3 8505   3.565   2.480  15.969 -0.2777 -0.5613  0.6349
  570TMC3    C4 8506   3.390   2.463  16.175  0.5098 -0.3416  0.2405
  570TMC3    C5 8507   3.427   2.583  16.125  0.1982  1.2806  0.1760
  570TMC3    C6 8508   3.521   2.596  16.026  0.5220  0.8156 -0.4409
  570TMC3     C 8509   3.402   2.216  16.167 -0.6461  0.3478 -0.2738
  570TMC3     O 8510   3.426   2.121  16.090  0.3267  0.5260 -0.2348
  570TMC3     H 8511   3.584   2.269  15.985 -1.0504  0.0693  0.7167
  570TMC3    H1 8512   3.328   2.460  16.264  0.6037  2.4651  0.3993
  570TMC3    H2 8513   3.572   2.686  15.993  1.5217 -0.1795 -1.5716
  570TMC3    C7 8514   3.403   2.698  16.207  0.2247  0.7605  0.0325
  570TMC3    C8 8515   3.683   2.497  15.880  0.6187 -0.0531  0.4736
  570TMC3    O1 8516   3.343   2.682  16.311  0.6177  0.1844 -0.0363
  570TMC3    O2 8517   3.762   2.592  15.903 -0.4771 -0.4346 -0.4711
  571MPD2     C 8518   1.941   4.078   0.359  0.1775 -0.4194 -0.4041
  571MPD2    C1 8519   1.835   4.145   0.297 -0.0892 -0.4565  0.3059
  571MPD2    C2 8520   1.792   4.261   0.361  0.2575  0.0700  0.4623
  571MPD2    C3 8521   1.842   4.294   0.481  0.2331  0.2938  0.5650
  571MPD2    C4 8522   1.941   4.218   0.544 -0.2869 -0.5474 -0.8860
  571MPD2    C5 8523   1.993   4.109   0.478 -0.9888  0.5064  0.2798
  571MPD2     H 8524   1.729   4.330   0.307  1.4024 -0.1697 -1.2093
  571MPD2    H1 8525   1.984   4.247   0.639  0.1063  0.5936 -1.4129
  571MPD2    H2 8526   1.970   3.991   0.302  2.0918  0.6961 -1.1483
  571MPD2    H3 8527   2.069   4.044   0.521 -2.0552  0.5484  2.2267
  571MPD2     N 8528   1.799   4.409   0.558  0.0415 -0.2462  0.1495
  571MPD2    H5 8529   1.843   4.438   0.645 -0.0235  0.6895 -0.1239
  571MPD2    N1 8530   1.789   4.096   0.172 -0.1331 -0.4967  0.0049
  571MPD2    H7 8531   1.830   4.008   0.143 -2.2544 -1.7674  0.8046
  572TMC3    C1 8532   1.691   4.619   0.597  0.3374  0.3184 -0.4811
  572TMC3    C2 8533   1.670   4.613   0.726 -0.4137  0.2354 -1.0683
  572TMC3    C3 8534   1.607   4.718   0.800  0.0596 -0.4441 -0.4701
  572TMC3    C4 8535   1.670   4.731   0.527 -0.2764 -0.4240 -0.5322
  572TMC3    C5 8536   1.628   0.104   0.601 -0.0798 -0.4884 -0.2624
  572TMC3    C6 8537   1.580   0.093   0.730  0.0255 -0.1447 -0.0369
  572TMC3     C 8538   1.698   4.492   0.520  0.1691 -0.1356 -0.3519
  572TMC3     O 8539   1.613   4.485   0.430  0.1769 -0.4045 -0.0009
  572TMC3     H 8540   1.676   4.517   0.775  0.9448  1.0699  0.3892
  572TMC3    H1 8541   1.684   4.732   0.419 -0.7572 -1.8360 -0.6094
  572TMC3    H2 8542   1.537   0.186   0.767  2.0591 -0.4669  3.1733
  572TMC3    C7 8543   1.600   0.220   0.516  0.4219  0.1680 -0.0827
  572TMC3    C8 8544   1.524   4.671   0.907 -0.8900 -0.5684 -0.7487
  572TMC3    O1 8545   1.516   0.300   0.559  0.4193  0.4613  0.2554
  572TMC3    O2 8546   1.563   4.563   0.952 -0.4755  0.0693  0.2655
  573MPD2     C 8547   2.088   4.471   0.315  0.8009 -0.7836 -0.6037
  573MPD2    C1 8548   2.027   4.593   0.338 -0.0086  0.0656  0.1654
  573MPD2    C2 8549   1.936   4.638   0.248  0.1543 -0.6073 -0.2093
  573MPD2    C3 8550   1.917   4.581   0.124  1.0954 -0.7350  0.1120
  573MPD2    C4 8551   1.982   4.462   0.096  0.4149  0.0673 -0.2085
  573MPD2    C5 8552   2.061   4.407   0.193 -0.4021 -1.2949 -0.1003
  573MPD2     H 8553   1.886   4.731   0.268  0.2988 -0.5549 -0.0954
  573MPD2    H1 8554   1.971   4.409   0.002 -1.7211  0.0390  0.0436
  573MPD2    H2 8555   2.164   4.427   0.378 -0.1363  0.8058  1.6158
  573MPD2    H3 8556   2.108   4.312   0.169  0.3021 -1.0010  0.1484
  573MPD2     N 8557   1.820   4.633   0.034 -0.5677  0.4320 -0.0417
  573MPD2    H5 8558   1.809   4.587  17.693 -1.7743  0.4418  0.0936
  573MPD2    N1 8559   2.060   4.660   0.458 -0.5916 -0.0183 -0.2598
  573MPD2    H7 8560   2.121   4.609   0.522  0.8052  0.6726 -1.0381
  574TMC3    C1 8561   1.667   0.035  17.678  0.2835 -0.5173 -0.7270
  574TMC3    C2 8562   1.555   0.116  17.681  0.1739  0.3684 -0.0677
  574TMC3    C3 8563   1.526   0.194  17.573 -0.4509  0.2882 -0.2635
  574TMC3    C4 8564   1.745   0.032  17.566 -0.1992 -0.1668 -0.4271
  574TMC3    C5 8565   1.707   0.107  17.462 -0.4145 -0.0998 -0.1800
  574TMC3    C6 8566   1.592   0.190  17.458 -0.1613 -0.3024 -0.1787
  574TMC3     C 8567   1.725   4.733   0.054 -1.1135  0.3006  0.5232
  574TMC3     O 8568   1.657   0.017   0.155  0.2510 -0.2570  0.8724
  574TMC3     H 8569   1.501   0.129   0.025  0.7741  0.9290  0.1992
  574TMC3    H1 8570   1.836   4.712  17.555 -0.2491  0.0279 -1.8969
  574TMC3    H2 8571   1.556   0.233  17.366  0.6523 -0.5655 -0.6132
  574TMC3    C7 8572   1.780   0.075  17.336  0.7497 -0.4004  0.2197
  574TMC3    C8 8573   1.404   0.265  17.577  0.2630 -0.1769 -0.4832
  574TMC3    O1 8574   1.818   4.699  17.319  0.4659 -0.7138  0.0754
  574TMC3    O2 8575   1.317   0.228  17.658  0.0929 -0.3925  0.0270
  575TMC3    C1 8576   0.017   1.489  11.991  0.3671 -0.1632 -0.5229
  575TMC3    C2 8577   4.687   1.374  11.946  0.4201 -0.2575  0.0052
  575TMC3    C3 8578   4.590   1.398  11.859  0.0069  0.0261  0.3061
  575TMC3    C4 8579   4.723   1.620  11.951  0.4147  0.5808  0.1992
  575TMC3    C5 8580   4.618   1.627  11.862  0.0080 -0.1849  0.5958
  575TMC3    C6 8581   4.547   1.517  11.814 -0.2101  0.8556 -0.1339
  575TMC3     C 8582   0.107   1.461  12.101 -0.7038 -0.2375  0.0097
  575TMC3     O 8583   0.094   1.352  12.157  0.1989 -0.1651 -0.0841
  575TMC3     H 8584   4.708   1.273  11.981  1.9363  0.0671  0.0416
  575TMC3    H1 8585   0.034   1.699  12.007 -0.5257  2.0659 -1.0869
  575TMC3    H2 8586   4.455   1.523  11.757  0.9197  1.2372 -1.9301
  575TMC3    C7 8587   4.581   1.751  11.803  0.0997 -0.3551 -0.0438
  575TMC3    C8 8588   4.540   1.287  11.793  0.1915 -0.1407  0.1071
  575TMC3    O1 8589   4.470   1.750  11.747  0.1347 -0.5545 -0.0677
  575TMC3    O2 8590   4.554   1.176  11.843  0.3605  0.4326  0.6116
  576MPD2     C 8591   4.198   3.255  12.580  0.3984  0.1736 -0.2385
  576MPD2    C1 8592   4.326   3.295  12.539 -0.2846 -0.6653 -0.7553
  576MPD2    C2 8593   4.403   3.357  12.638 -0.7632 -0.4727  0.4369
  576MPD2    C3 8594   4.364   3.357  12.776 -0.0937 -0.9515 -0.6113
  576MPD2    C4 8595   4.236   3.310  12.811 -0.3998  0.2996 -0.4108
  576MPD2    C5 8596   4.156   3.261  12.711  0.8682  0.0275  1.2877
  576MPD2     H 8597   4.506   3.386  12.620 -0.5571 -2.1138 -1.0148
  576MPD2    H1 8598   4.201   3.314  12.913 -0.1708 -2.9675 -0.1941
  576MPD2    H2 8599   4.124   3.217  12.511 -0.1733 -1.1195  1.0990
  576MPD2    H3 8600   4.052   3.234  12.729  0.7004  0.4788  0.9850
  576MPD2     N 8601   4.455   3.408  12.864 -0.3169  0.2081  0.5219
  576MPD2    H5 8602   4.531   3.455  12.817 -0.6074  0.5056  0.3502
  576MPD2    N1 8603   4.382   3.279  12.410  0.1339 -0.4050  0.0923
  576MPD2    H7 8604   4.472   3.320  12.389 -0.6082  0.5471 -1.1503
  577TMC3    C1 8605   4.402   3.162  12.194  0.0812 -0.3397  0.2036
  577TMC3    C2 8606   4.535   3.132  12.208 -0.6164 -0.1719  1.0040
  577TMC3    C3 8607   4.600   3.053  12.115 -0.2345  0.2701 -0.5820
  577TMC3    C4 8608   4.335   3.117  12.088  0.9874  0.6129 -1.0316
  577TMC3    C5 8609   4.406   3.048  11.989 -0.7527 -0.0639  0.4173
  577TMC3    C6 8610   4.535   3.014  12.000 -0.4995 -0.0388 -0.1101
  577TMC3     C 8611   4.324   3.196  12.311 -0.5041 -0.2319  0.1504
  577TMC3     O 8612   4.219   3.139  12.309 -0.0696 -0.4990 -0.4933
  577TMC3     H 8613   4.583   3.164  12.300 -1.5819  1.3935  0.9608
  577TMC3    H1 8614   4.230   3.139  12.078 -0.0645 -2.7394  2.5398
  577TMC3    H2 8615   4.583   2.955  11.922  0.9271 -0.2539  0.9272
  577TMC3    C7 8616   4.381   3.077  11.844  0.6410 -0.3416 -0.3044
  577TMC3    C8 8617   0.007   3.059  12.112 -0.0409  0.1477 -0.2219
  577TMC3    O1 8618   4.459   3.038  11.757  0.3104 -0.9551  0.2315
  577TMC3    O2 8619   0.070   3.029  12.211 -0.1111  0.4474 -0.4082
  578MPD2     C 8620   2.979   2.798   0.982  0.5803  0.9816 -0.0604
  578MPD2    C1 8621   3.026   2.673   0.942 -0.2624  0.0645 -0.1987
  578MPD2    C2 8622   3.067   2.585   1.040 -0.0330  0.6336 -0.4005
  578MPD2    C3 8623   3.081   2.624   1.173  0.1358 -0.6734  0.3674
  578MPD2    C4 8624   3.035   2.751   1.205 -0.6663 -0.1184 -0.6108
  578MPD2    C5 8625   2.976   2.836   1.109 -0.8948 -0.4787  0.2861
  578MPD2     H 8626   3.099   2.485   1.013 -1.0680 -0.4556  2.4207
  578MPD2    H1 8627   3.021   2.782   1.308 -2.9816  0.8236 -1.2122
  578MPD2    H2 8628   2.941   2.868   0.909  1.1654  0.3792 -0.9333
  578MPD2    H3 8629   2.926   2.930   1.127 -1.7869 -0.1606 -3.7986
  578MPD2     N 8630   3.128   2.524   1.261 -0.2817  0.2361  0.1582
  578MPD2    H5 8631   3.167   2.439   1.222 -0.3515 -0.5500  1.7868
  578MPD2    N1 8632   3.030   2.643   0.800  0.3079  0.1335 -0.4143
  578MPD2    H7 8633   2.987   2.712   0.740  1.1967  0.2083 -0.9641
  579TMC3    C1 8634   3.208   2.415   1.448 -0.3899 -0.4692 -0.3890
  579TMC3    C2 8635   3.281   2.430   1.555  0.3858  0.0431  0.1513
  579TMC3    C3 8636   3.355   2.325   1.595 -0.0876 -0.0665 -0.4798
  579TMC3    C4 8637   3.189   2.296   1.382 -0.4261 -1.2551  0.4232
  579TMC3    C5 8638   3.259   2.189   1.431  0.3815 -0.8415 -0.3866
  579TMC3    C6 8639   3.355   2.201   1.533 -0.7535  0.9436  0.2210
  579TMC3     C 8640   3.155   2.538   1.395  0.1816 -0.0453  0.6104
  579TMC3     O 8641   3.162   2.640   1.460  0.0802 -0.6099 -0.5312
  579TMC3     H 8642   3.296   2.528   1.599 -0.8845  0.7850 -1.0738
  579TMC3    H1 8643   3.129   2.283   1.293  0.5114  0.4935 -0.4355
  579TMC3    H2 8644   3.415   2.121   1.576  2.0586  1.5801 -2.4621
  579TMC3    C7 8645   3.265   2.057   1.367 -0.3825  0.1399  0.2790
  579TMC3    C8 8646   3.484   2.351   1.658 -0.2632  0.7062  0.3880
  579TMC3    O1 8647   3.346   1.978   1.413 -0.4221  0.7473  0.0445
  579TMC3    O2 8648   3.474   2.440   1.743  0.5325  0.2132  0.3417
  580TMC3    C1 8649   1.813   1.765  11.851  0.3887  0.1966  0.5967
  580TMC3    C2 8650   1.848   1.746  11.722  0.4061 -0.1432 -0.9083
  580TMC3    C3 8651   1.936   1.648  11.686 -0.8081  0.3236  0.7831
  580TMC3    C4 8652   1.861   1.680  11.947  0.0833 -0.0900  0.3870
  580TMC3    C5 8653   1.944   1.576  11.909 -0.1432  0.1179  0.6442
  580TMC3    C6 8654   1.985   1.562  11.776 -0.0343  0.4186  0.1173
  580TMC3     C 8655   1.790   1.903  11.887 -0.0046  0.4674  0.5850
  580TMC3     O 8656   1.795   1.988  11.795  0.0103 -0.4238 -0.1439
  580TMC3     H 8657   1.811   1.814  11.646 -1.9847 -1.9603 -1.3539
  580TMC3    H1 8658   1.840   1.699  12.052  0.4086  0.9581  0.2613
  580TMC3    H2 8659   2.066   1.496  11.751  0.0622  1.4277 -2.1909
  580TMC3    C7 8660   2.008   1.497  12.013 -0.0522  0.8240  0.2725
  580TMC3    C8 8661   2.003   1.657  11.557 -1.4840 -0.2926  1.0705
  580TMC3    O1 8662   2.131   1.483  12.019  0.2185  0.4314 -0.0526
  580TMC3    O2 8663   2.020   1.547  11.504  0.1881  0.9424 -0.0593
  581MPD2     C 8664   0.020   1.691  14.663  0.7355  0.0063  0.5565
  581MPD2    C1 8665   4.637   1.632  14.667 -0.1917  0.2318  0.1029
  581MPD2    C2 8666   4.541   1.666  14.568  0.4622  0.0533 -0.6197
  581MPD2    C3 8667   4.572   1.771  14.475 -0.1821  0.2576  0.4797
  581MPD2    C4 8668   4.699   1.820  14.475 -0.4503 -0.2720  0.5719
  581MPD2    C5 8669   0.051   1.790  14.573 -0.7879 -0.3733  0.0957
  581MPD2     H 8670   4.450   1.609  14.551  0.3324 -0.0247  0.3800
  581MPD2    H1 8671   4.736   1.888  14.399 -1.9562 -0.1504 -0.0470
  581MPD2    H2 8672   0.103   1.659  14.724  2.3469  0.8790 -1.2049
  581MPD2    H3 8673   0.153   1.826  14.564 -0.5786 -0.8084  0.6925
  581MPD2     N 8674   4.473   1.811  14.380  0.3616  0.5395  0.4733
  581MPD2    H5 8675   4.384   1.763  14.382  0.2787  0.6514 -0.6204
  581MPD2    N1 8676   4.622   1.524  14.755  0.4416 -0.1410  0.8695
  581MPD2    H7 8677   4.700   1.479  14.801  1.3715  1.8440  1.2507
  582TMC3    C1 8678   4.518   1.341  14.859  0.4255  0.1150 -0.6073
  582TMC3    C2 8679   4.603   1.353  14.967  0.0978 -0.6435  0.2828
  582TMC3    C3 8680   4.570   1.278  15.081 -0.0247 -0.2711 -0.6365
  582TMC3    C4 8681   4.403   1.270  14.868 -0.9242  0.1584  0.2982
  582TMC3    C5 8682   4.368   1.213  14.990  0.1732  1.0749  0.0947
  582TMC3    C6 8683   4.451   1.204  15.092 -0.9985 -0.4743 -0.3679
  582TMC3     C 8684   4.503   1.457  14.776 -0.3817 -0.2486  0.5863
  582TMC3     O 8685   4.392   1.494  14.746  0.0884  0.2242 -0.0385
  582TMC3     H 8686   4.684   1.425  14.956 -1.0345  0.6070  0.1762
  582TMC3    H1 8687   4.337   1.266  14.782 -0.1416  3.8240 -0.4723
  582TMC3    H2 8688   4.417   1.155  15.183  0.5293  0.2192  0.5776
  582TMC3    C7 8689   4.248   1.277  15.039 -0.2288  0.4536 -0.0578
  582TMC3    C8 8690   4.663   1.289  15.186 -0.2615  0.1030  0.5060
  582TMC3    O1 8691   4.202   1.220  15.136  0.3031  0.1238 -0.5674
  582TMC3    O2 8692   0.008   1.381  15.184  0.0015  0.2707 -0.0143
  583MPD2     C 8693   0.455   3.049  16.712  0.9090 -0.7970 -0.7445
  583MPD2    C1 8694   0.464   3.176  16.656  0.4420 -0.1607  0.3191
  583MPD2    C2 8695   0.440   3.281  16.738 -0.2172 -0.1845 -0.9187
  583MPD2    C3 8696   0.404   3.269  16.872 -0.2959 -0.1522 -0.1516
  583MPD2    C4 8697   0.402   3.142  16.928 -0.1895 -0.1109  0.0349
  583MPD2    C5 8698   0.425   3.034  16.843 -0.2629 -0.3671 -0.4575
  583MPD2     H 8699   0.442   3.384  16.703  0.7915  0.1708  0.1924
  583MPD2    H1 8700   0.389   3.123  17.034 -3.2313 -2.0536 -0.7102
  583MPD2    H2 8701   0.477   2.962  16.651  1.8633 -1.2738  0.2807
  583MPD2    H3 8702   0.412   2.936  16.888 -0.8522  0.2282  0.6796
  583MPD2     N 8703   0.373   3.380  16.950 -0.2312  0.2247  0.2374
  583MPD2    H5 8704   0.370   3.465  16.895  0.3948  0.4658  0.5738
  583MPD2    N1 8705   0.500   3.205  16.525 -0.7086 -0.1909  0.0012
  583MPD2    H7 8706   0.519   3.299  16.494  0.0712  0.8203  3.5363
  584TMC3    C1 8707   0.312   3.525  17.126 -0.2829  0.4991 -1.2598
  584TMC3    C2 8708   0.310   3.633  17.044  0.1416 -0.2652  0.0005
  584TMC3    C3 8709   0.235   3.738  17.091 -0.1599  0.1678 -0.0316
  584TMC3    C4 8710   0.242   3.523  17.242 -0.2755 -0.3000  0.1636
  584TMC3    C5 8711   0.177   3.637  17.293  0.1835 -0.3848 -0.5528
  584TMC3    C6 8712   0.174   3.747  17.209 -0.0330 -0.6628  0.2086
  584TMC3     C 8713   0.353   3.394  17.082  0.2955 -0.1240  0.1750
  584TMC3     O 8714   0.371   3.308  17.165  0.7065  0.5985 -0.3997
  584TMC3     H 8715   0.366   3.643  16.951 -1.2309 -1.5979 -0.9601
  584TMC3    H1 8716   0.250   3.432  17.300 -0.3494  0.1575  0.8990
  584TMC3    H2 8717   0.130   3.843  17.229 -0.0040 -0.3446 -1.3141
  584TMC3    C7 8718   0.100   3.629  17.413 -0.4093  0.2156  0.3813
  584TMC3    C8 8719   0.261   3.866  17.033 -0.2147 -0.1927  0.1243
  584TMC3    O1 8720   0.137   3.555  17.504 -0.1838 -0.0214 -0.3806
  584TMC3    O2 8721   0.262   3.875  16.911 -0.1678  1.0599 -0.4762
  585MPD2     C 8722   3.900   2.178   0.440 -0.1005 -0.0610  0.1096
  585MPD2    C1 8723   3.893   2.250   0.324 -0.2884  0.2667 -0.0664
  585MPD2    C2 8724   3.969   2.209   0.211  0.2965 -0.4045 -0.1816
  585MPD2    C3 8725   4.033   2.082   0.214 -0.2073  0.3479  0.1085
  585MPD2    C4 8726   4.021   2.008   0.329 -0.6706 -0.2763  0.5138
  585MPD2    C5 8727   3.948   2.050   0.439 -0.0549  0.2139  0.3217
  585MPD2     H 8728   3.971   2.266   0.119 -0.7724 -2.7771 -1.6775
  585MPD2    H1 8729   4.058   1.905   0.329 -0.7830 -0.3131 -0.6490
  585MPD2    H2 8730   3.839   2.202   0.526 -0.0889  0.1503  0.0590
  585MPD2    H3 8731   3.938   1.990   0.529 -0.8107  1.7661  1.2580
  585MPD2     N 8732   4.096   2.022   0.106 -0.3276 -0.1697 -0.6321
  585MPD2    H5 8733   4.132   1.928   0.118  1.3857  0.7197  1.1086
  585MPD2    N1 8734   3.835   2.376   0.332  0.0579  0.1308  0.3197
  585MPD2    H7 8735   3.809   2.408   0.425 -0.3059  0.7711 -0.0081
  586TMC3    C1 8736   4.202   1.998  17.641 -0.1511  0.1564 -0.8740
  586TMC3    C2 8737   4.276   2.053  17.540 -0.7182  0.2299  0.1346
  586TMC3    C3 8738   4.296   1.979  17.428  0.3635 -0.9036  0.1962
  586TMC3    C4 8739   4.164   1.871  17.636  0.0953 -0.9814  0.4293
  586TMC3    C5 8740   4.196   1.802  17.520 -0.2110 -0.3065  0.7205
  586TMC3    C6 8741   4.251   1.855  17.412 -0.0741  0.3359  0.2645
  586TMC3     C 8742   4.145   2.090  17.747  0.3119 -0.3515 -0.3907
  586TMC3     O 8743   4.138   2.208  17.725 -0.1550  0.4676 -0.6668
  586TMC3     H 8744   4.335   2.143  17.547 -0.4865  0.0853  0.0334
  586TMC3    H1 8745   4.103   1.825  17.712  0.1004  0.3450  1.2411
  586TMC3    H2 8746   4.252   1.809  17.314  1.2350  0.2579  0.3137
  586TMC3    C7 8747   4.153   1.671  17.502  0.0902 -0.3190 -0.1060
  586TMC3    C8 8748   4.411   2.010  17.354  0.1994  0.4903 -0.4727
  586TMC3    O1 8749   4.062   1.632  17.576  0.3797  0.3991  0.1767
  586TMC3    O2 8750   4.525   2.003  17.397 -0.2954  0.3037  0.1540
  587TMC3    C1 8751   1.456   0.823  16.283 -0.7259 -0.3426 -0.2868
  587TMC3    C2 8752   1.480   0.909  16.175  0.3460 -0.8542 -0.5740
  587TMC3    C3 8753   1.588   0.878  16.091 -0.8580  0.3869  0.1170
  587TMC3    C4 8754   1.535   0.717  16.304 -0.6521  0.2733  1.3427
  587TMC3    C5 8755   1.637   0.685  16.217  0.0940  0.7494 -0.5995
  587TMC3    C6 8756   1.669   0.769  16.108  0.1008 -0.6467 -0.2655
  587TMC3     C 8757   1.385   0.886  16.386 -0.4111  0.3443  0.0439
  587TMC3     O 8758   1.375   1.007  16.379  0.0310 -0.4238  0.1448
  587TMC3     H 8759   1.407   0.987  16.158  3.5305  2.3492  0.4289
  587TMC3    H1 8760   1.516   0.655  16.391  2.0622 -1.9545  0.3494
  587TMC3    H2 8761   1.759   0.760  16.048 -0.1289 -0.8017 -0.5837
  587TMC3    C7 8762   1.723   0.571  16.232 -0.4462  0.6424 -0.6245
  587TMC3    C8 8763   1.645   1.001  16.042 -0.5436  0.7363 -0.1426
  587TMC3    O1 8764   1.822   0.554  16.162  0.4508 -0.2648  0.1658
  587TMC3    O2 8765   1.703   0.997  15.935  1.0352  0.3074 -0.0773
  588TMC3    C1 8766   4.306   3.625  10.221  0.3753  0.2574 -0.8697
  588TMC3    C2 8767   4.267   3.496  10.203  0.1204 -0.2319 -0.0375
  588TMC3    C3 8768   4.185   3.440  10.301  0.4312  0.8130  0.0582
  588TMC3    C4 8769   4.272   3.690  10.337  0.1835 -0.1389 -0.1739
  588TMC3    C5 8770   4.189   3.632  10.428  0.1421  0.0772 -0.6717
  588TMC3    C6 8771   4.134   3.508  10.407 -0.6269 -0.0421 -0.3501
  588TMC3     C 8772   4.425   3.680  10.160  0.6064 -0.1967  0.1448
  588TMC3     O 8773   4.516   3.606  10.131 -0.2116  0.5366 -0.3423
  588TMC3     H 8774   4.302   3.442  10.116 -1.6450 -4.1270  1.6961
  588TMC3    H1 8775   4.327   3.777  10.371 -0.6536  0.5889 -0.6915
  588TMC3    H2 8776   4.061   3.468  10.476 -0.0854  0.2550  0.3929
  588TMC3    C7 8777   4.152   3.705  10.547  0.4040  0.1734 -0.6574
  588TMC3    C8 8778   4.175   3.297  10.304 -0.4044 -0.8834  0.5030
  588TMC3    O1 8779   4.122   3.653  10.653 -0.0432  0.5932 -0.3549
  588TMC3    O2 8780   4.212   3.232  10.204 -0.1853  0.2254 -0.7468
  589TMC3    C1 8781   3.008   1.006   1.456  0.0679  0.4883  0.4887
  589TMC3    C2 8782   3.141   1.025   1.492 -0.4649  0.8364 -0.0914
  589TMC3    C3 8783   3.235   0.923   1.469  0.0196 -0.4497 -0.8831
  589TMC3    C4 8784   2.977   0.892   1.375 -0.3526 -0.1567  0.2467
  589TMC3    C5 8785   3.078   0.808   1.344  0.3045 -0.2761  0.4420
  589TMC3    C6 8786   3.204   0.813   1.392 -0.1463 -0.0165  0.2300
  589TMC3     C 8787   2.908   1.107   1.476  0.5193 -0.0350 -0.7481
  589TMC3     O 8788   2.806   1.096   1.413 -0.4995 -0.2974  0.1495
  589TMC3     H 8789   3.169   1.111   1.551 -1.8396  0.5168  1.0227
  589TMC3    H1 8790   2.874   0.862   1.362 -0.2369 -0.5727  0.2715
  589TMC3    H2 8791   3.278   0.735   1.376 -0.4364 -0.5622  1.5907
  589TMC3    C7 8792   3.059   0.710   1.238  0.1516  0.2171 -0.4502
  589TMC3    C8 8793   3.367   0.931   1.516  0.4299  0.5786 -0.8555
  589TMC3    O1 8794   3.151   0.639   1.206 -0.1506  0.2837  0.5273
  589TMC3    O2 8795   3.399   0.973   1.624 -0.0766  0.4519 -1.2331
  590MPD2     C 8796   3.139   3.789  16.720  0.1968 -0.5165 -0.5023
  590MPD2    C1 8797   3.043   3.838  16.635 -0.0287  0.7112  0.0566
  590MPD2    C2 8798   3.072   3.932  16.544  1.2113 -0.3830 -1.2043
  590MPD2    C3 8799   3.201   3.970  16.526  0.2129  0.4414 -0.8872
  590MPD2    C4 8800   3.299   3.922  16.608  0.6705 -0.5649  0.5165
  590MPD2    C5 8801   3.270   3.835  16.706  0.4110 -0.2194  0.2040
  590MPD2     H 8802   2.997   3.977  16.479 -1.0637 -1.8176  0.4402
  590MPD2    H1 8803   3.401   3.956  16.599  0.0842  0.8011 -1.0234
  590MPD2    H2 8804   3.118   3.711  16.792  0.5002  0.6563  0.8589
  590MPD2    H3 8805   3.346   3.798  16.775 -0.6601 -0.6812  1.1339
  590MPD2     N 8806   3.230   4.058  16.424 -0.0551  0.3915  0.1311
  590MPD2    H5 8807   3.145   4.094  16.381 -0.3273 -3.2143 -2.4482
  590MPD2    N1 8808   2.908   3.807  16.647 -0.0553  0.3006  0.0139
  590MPD2    H7 8809   2.840   3.856  16.590 -0.2723  0.1956  0.1853
  591TMC3    C1 8810   3.349   4.155  16.250  0.7969 -0.6232 -0.1374
  591TMC3    C2 8811   3.454   4.136  16.164  0.2636  0.4305 -0.3383
  591TMC3    C3 8812   3.483   4.240  16.075 -0.0601 -0.0836  0.1297
  591TMC3    C4 8813   3.282   4.272  16.256 -0.2076  0.3773 -0.4591
  591TMC3    C5 8814   3.316   4.368  16.172 -0.3643 -0.1345  0.7375
  591TMC3    C6 8815   3.407   4.354  16.072 -0.1172 -0.2866  0.6913
  591TMC3     C 8816   3.353   4.071  16.372 -1.0020 -0.9790 -0.5361
  591TMC3     O 8817   3.458   4.003  16.380  0.1522 -0.0291  0.6158
  591TMC3     H 8818   3.519   4.048  16.164 -0.4037 -0.0571  0.2725
  591TMC3    H1 8819   3.199   4.277  16.326 -0.9561  2.1362 -1.4845
  591TMC3    H2 8820   3.425   4.425  15.993  1.1350 -0.9711  0.3588
  591TMC3    C7 8821   3.235   4.493  16.180 -0.1376 -0.5825 -0.3631
  591TMC3    C8 8822   3.578   4.218  15.960 -0.4106 -0.8095 -0.0987
  591TMC3    O1 8823   3.127   4.498  16.235 -0.4183 -0.1751 -0.1434
  591TMC3    O2 8824   3.592   4.098  15.928 -0.0830 -0.4548 -0.5440
  592MPD2     C 8825   3.114   1.789  11.774 -0.3600  0.1389  0.3443
  592MPD2    C1 8826   3.112   1.894  11.857 -0.1055 -0.2895  0.4556
  592MPD2    C2 8827   3.125   1.883  11.996 -0.2376 -0.4258  1.0893
  592MPD2    C3 8828   3.127   1.748  12.046  0.7428 -1.2662  0.0140
  592MPD2    C4 8829   3.128   1.639  11.962 -0.4416  0.7530 -0.6779
  592MPD2    C5 8830   3.122   1.659  11.829 -0.2258 -0.9657 -0.3613
  592MPD2     H 8831   3.123   1.970  12.059 -0.8253  1.2502 -1.2504
  592MPD2    H1 8832   3.130   1.534  11.989 -0.1372  1.3390  1.5875
  592MPD2    H2 8833   3.100   1.792  11.667 -2.0366 -0.3355  0.5401
  592MPD2    H3 8834   3.095   1.582  11.758 -3.1570  0.9342 -1.2897
  592MPD2     N 8835   3.121   1.728  12.187 -0.1946  0.5942 -0.6579
  592MPD2    H5 8836   3.119   1.814  12.241  0.5554 -0.1416  0.5497
  592MPD2    N1 8837   3.099   2.016  11.788 -0.3830  0.0397  0.6410
  592MPD2    H7 8838   3.086   2.012  11.687  1.3299 -3.4165  0.5674
  593TMC3    C1 8839   3.116   2.236  11.718 -0.5985 -0.7286  0.1141
  593TMC3    C2 8840   3.187   2.354  11.739 -0.1344  0.1611  0.3008
  593TMC3    C3 8841   3.149   2.463  11.666 -0.4922 -1.0856  0.0728
  593TMC3    C4 8842   3.004   2.239  11.635 -0.4233  0.0997  0.4906
  593TMC3    C5 8843   2.969   2.353  11.567 -0.9682  0.0249  0.9958
  593TMC3    C6 8844   3.044   2.462  11.585 -0.1606 -0.6406  0.0805
  593TMC3     C 8845   3.119   2.144  11.833 -0.1794  0.6535  0.1992
  593TMC3     O 8846   3.151   2.180  11.942  0.6330 -0.3205  0.3573
  593TMC3     H 8847   3.276   2.362  11.801  0.4611  0.0386 -0.5431
  593TMC3    H1 8848   2.939   2.153  11.640  0.6175 -0.7824 -1.4378
  593TMC3    H2 8849   3.024   2.546  11.520  1.6629 -1.3379 -1.4012
  593TMC3    C7 8850   2.862   2.349  11.462  0.6368 -0.0668 -0.1539
  593TMC3    C8 8851   3.245   2.553  11.610  0.7336 -0.4954 -0.3101
  593TMC3    O1 8852   2.823   2.462  11.432 -0.7157  0.1282  0.3364
  593TMC3    O2 8853   3.253   2.570  11.490  0.4481  0.1238  0.1554
  594MPD2     C 8854   2.397   4.531  15.016  0.1829  0.8019  0.4551
  594MPD2    C1 8855   2.309   4.600  14.934 -0.1343  0.4009 -0.1393
  594MPD2    C2 8856   2.353   4.710  14.856  0.0908  0.3340  1.3439
  594MPD2    C3 8857   2.482   0.019  14.860 -0.2737 -0.2682 -0.0023
  594MPD2    C4 8858   2.564   4.688  14.948  0.1443 -0.2424 -1.3928
  594MPD2    C5 8859   2.523   4.580  15.021 -0.8140 -0.2669 -0.3148
  594MPD2     H 8860   2.286   0.012  14.780 -0.8208 -2.0901  0.8814
  594MPD2    H1 8861   2.669   4.712  14.957 -0.4348  1.3800  1.1685
  594MPD2    H2 8862   2.376   4.436  15.063 -0.7099  0.9380  0.3336
  594MPD2    H3 8863   2.597   4.523  15.076 -1.4256 -0.7197  0.0431
  594MPD2     N 8864   2.517   0.130  14.778 -0.0203  0.6398  0.2261
  594MPD2    H5 8865   2.453   0.170  14.710  1.9480  1.1150 -1.3595
  594MPD2    N1 8866   2.190   4.537  14.921 -0.0778  0.6915 -0.3535
  594MPD2    H7 8867   2.180   4.455  14.980 -0.3313  1.0732  0.1428
  595TMC3    C1 8868   2.833   0.434  14.579  0.0282 -1.0487 -0.3948
  595TMC3    C2 8869   2.801   0.313  14.632 -0.1476  0.1079  1.0643
  595TMC3    C3 8870   2.674   0.294  14.678 -0.0456 -0.8754 -0.1121
  595TMC3    C4 8871   2.744   0.535  14.573  0.1855  0.2380 -0.0875
  595TMC3    C5 8872   2.623   0.517  14.622 -0.0365 -0.1525 -0.3425
  595TMC3    C6 8873   2.591   0.396  14.683 -0.4776 -0.1245 -0.4643
  595TMC3     C 8874   2.968   0.469  14.536 -0.2030  0.0783  0.8352
  595TMC3     O 8875   2.988   0.590  14.547  0.2375  0.0874 -0.5423
  595TMC3     H 8876   2.869   0.232  14.655 -1.7573 -1.6010 -0.1594
  595TMC3    H1 8877   2.774   0.616  14.508 -1.4990  0.5393 -0.4781
  595TMC3    H2 8878   2.494   0.388  14.729  0.2197 -2.5103  0.5880
  595TMC3    C7 8879   2.552   0.641  14.663 -0.0954  0.2091 -0.4464
  595TMC3    C8 8880   2.645   0.180  14.771 -0.6212 -0.2190  0.0041
  595TMC3    O1 8881   2.459   0.643  14.744 -0.3646 -0.2016 -0.5328
  595TMC3    O2 8882   2.743   0.153  14.834 -1.2483 -0.1830  0.0708
  596MPD2     C 8883   1.232   2.916  16.711  0.0090 -1.1216 -0.0947
  596MPD2    C1 8884   1.300   3.028  16.670 -0.0315  0.0756  0.4274
  596MPD2    C2 8885   1.366   3.028  16.548 -0.0703 -0.0640  0.0199
  596MPD2    C3 8886   1.346   2.923  16.463  0.3532 -0.4032  0.2013
  596MPD2    C4 8887   1.270   2.813  16.501  0.0325 -1.4836 -0.7326
  596MPD2    C5 8888   1.223   2.810  16.626  0.4459 -0.6284 -0.2413
  596MPD2     H 8889   1.411   3.124  16.525  1.8522 -0.7770  0.8836
  596MPD2    H1 8890   1.250   2.724  16.442  1.0657 -1.3765 -1.2421
  596MPD2    H2 8891   1.190   2.912  16.811  0.2939  2.0194  0.1560
  596MPD2    H3 8892   1.172   2.719  16.657  1.4353 -1.7880 -2.0081
  596MPD2     N 8893   1.379   2.924  16.328 -0.2256  0.0602 -0.1189
  596MPD2    H5 8894   1.356   2.837  16.282  0.6920 -0.0262 -0.4197
  596MPD2    N1 8895   1.290   3.153  16.732  0.3910  0.2769  0.2118
  596MPD2    H7 8896   1.326   3.232  16.680 -0.5848  1.0097  0.6698
  597TMC3    C1 8897   1.214   3.321  16.876 -0.3719 -0.0430 -0.1346
  597TMC3    C2 8898   1.301   3.413  16.829 -0.0162  0.3826  0.4701
  597TMC3    C3 8899   1.266   3.547  16.833  0.4268  0.4912  0.7671
  597TMC3    C4 8900   1.109   3.354  16.953 -0.7372  0.0994  0.1913
  597TMC3    C5 8901   1.090   3.485  16.973  0.2177 -0.4810 -0.0011
  597TMC3    C6 8902   1.161   3.587  16.906 -0.2162 -0.1062 -0.2051
  597TMC3     C 8903   1.237   3.181  16.854 -0.1809 -0.1796 -0.9291
  597TMC3     O 8904   1.178   3.114  16.935 -0.3711 -0.4475 -0.1537
  597TMC3     H 8905   1.389   3.383  16.774 -1.7186 -1.2769 -1.3641
  597TMC3    H1 8906   1.047   3.283  17.008 -0.7875  0.1308  0.1757
  597TMC3    H2 8907   1.151   3.689  16.942 -0.2390 -0.6591  1.3769
  597TMC3    C7 8908   0.970   3.515  17.046 -0.1328  1.0263 -0.5239
  597TMC3    C8 8909   1.335   3.647  16.751 -0.2978 -0.1109  0.4366
  597TMC3    O1 8910   0.910   3.429  17.099 -0.4884 -0.1624 -0.4245
  597TMC3    O2 8911   1.288   3.761  16.756 -0.7225 -0.1640 -0.2113
  598TMC3    C1 8912   4.182   4.480  15.277 -0.6999  0.2640 -0.1431
  598TMC3    C2 8913   4.116   4.376  15.228  0.0878  0.0863  0.4003
  598TMC3    C3 8914   4.036   4.385  15.117 -0.3339 -0.5339 -0.1301
  598TMC3    C4 8915   4.178   4.598  15.201 -0.3415 -0.2957  0.4121
  598TMC3    C5 8916   4.105   4.608  15.084  0.4326  0.1783 -0.0540
  598TMC3    C6 8917   4.029   4.501  15.044  0.0425  0.5798 -0.2384
  598TMC3     C 8918   4.303   4.463  15.357 -0.0678 -0.1157 -0.6012
  598TMC3     O 8919   4.369   4.566  15.386  0.0231 -0.2602 -0.1438
  598TMC3     H 8920   4.101   4.297  15.300 -1.6536  0.6332  0.6307
  598TMC3    H1 8921   4.224   4.688  15.239  0.0643  0.0332 -0.8473
  598TMC3    H2 8922   3.969   4.508  14.954 -0.2686 -1.5842 -0.2172
  598TMC3    C7 8923   4.143   4.694  14.974 -0.3304 -0.4103 -0.2956
  598TMC3    C8 8924   3.954   4.274  15.079 -0.1358 -0.1065 -0.9464
  598TMC3    O1 8925   4.085   4.675  14.869  0.3450 -0.0598 -0.3346
  598TMC3    O2 8926   3.916   4.204  15.171 -0.1008 -0.8192  0.0429
  599MPD2     C 8927   4.344   2.082  15.645 -0.5145  0.7806  0.6656
  599MPD2    C1 8928   4.279   1.975  15.701 -0.4204  0.1339  0.1616
  599MPD2    C2 8929   4.163   1.995  15.776  0.4357  0.2135 -0.0124
  599MPD2    C3 8930   4.111   2.123  15.799 -0.8395  0.2506 -0.2105
  599MPD2    C4 8931   4.182   2.233  15.747 -0.0889 -0.1400  0.1645
  599MPD2    C5 8932   4.302   2.208  15.681  0.0727  0.2080 -0.1921
  599MPD2     H 8933   4.115   1.904  15.811 -1.2615  0.7629 -0.9201
  599MPD2    H1 8934   4.152   2.334  15.773 -1.4821 -0.7306  0.8693
  599MPD2    H2 8935   4.439   2.060  15.598 -0.8762  0.9630 -0.1580
  599MPD2    H3 8936   4.359   2.295  15.649  3.7051 -2.0476  0.1282
  599MPD2     N 8937   4.005   2.143  15.883  0.3403  0.1291  0.4920
  599MPD2    H5 8938   4.001   2.237  15.923 -1.4797  0.3940 -0.3395
  599MPD2    N1 8939   4.349   1.855  15.689  0.1227 -0.0941  0.5215
  599MPD2    H7 8940   4.435   1.862  15.636  0.6660 -2.9385  1.0332
  600TMC3    C1 8941   3.808   2.077  16.020 -0.0148  0.0845  0.5640
  600TMC3    C2 8942   3.767   1.961  16.088 -0.3630  0.2906 -0.2091
  600TMC3    C3 8943   3.743   1.973  16.223 -0.4324 -0.3620 -0.5517
  600TMC3    C4 8944   3.824   2.204  16.079 -0.0498 -0.0244 -0.9877
  600TMC3    C5 8945   3.799   2.202  16.214 -0.1855 -0.0439 -0.4472
  600TMC3    C6 8946   3.773   2.090  16.292  0.6946  0.1000 -0.2102
  600TMC3     C 8947   3.904   2.050  15.906  0.4023 -0.9173  0.2175
  600TMC3     O 8948   3.884   1.950  15.843  0.2037  0.0273 -0.0918
  600TMC3     H 8949   3.754   1.869  16.031 -1.5470 -1.0610  2.2307
  600TMC3    H1 8950   3.854   2.291  16.022 -0.3496  0.5606 -0.2461
  600TMC3    H2 8951   3.759   2.093  16.399 -0.0784 -2.6313 -0.2310
  600TMC3    C7 8952   3.802   2.328  16.289  0.3996 -0.1844 -0.2934
  600TMC3    C8 8953   3.713   1.853  16.306 -0.1402 -0.8673 -0.4142
  600TMC3    O1 8954   3.740   2.323  16.393 -0.1056  0.0261 -0.2556
  600TMC3    O2 8955   3.783   1.836  16.402  0.0817 -0.4636 -0.2916
  601MPD2     C 8956   1.652   0.450   0.047  0.4632  0.1240 -0.8206
  601MPD2    C1 8957   1.554   0.471   0.141 -0.3446 -0.8127 -0.5114
  601MPD2    C2 8958   1.565   0.402   0.268  0.4202 -0.4548  0.2235
  601MPD2    C3 8959   1.674   0.320   0.295 -0.1152 -0.3096  1.2648
  601MPD2    C4 8960   1.771   0.303   0.199 -1.7937 -0.3084  0.7687
  601MPD2    C5 8961   1.754   0.368   0.081  0.1946  0.0566  0.6532
  601MPD2     H 8962   1.478   0.403   0.333  1.7212  0.0097  1.9409
  601MPD2    H1 8963   1.856   0.240   0.222 -0.9484  0.6534  0.3170
  601MPD2    H2 8964   1.654   0.494  17.697 -0.8931  2.3520  0.1546
  601MPD2    H3 8965   1.828   0.334   0.009  0.3660  2.0863 -0.1338
  601MPD2     N 8966   1.688   0.233   0.407  0.3901 -0.5132 -0.3332
  601MPD2    H5 8967   1.764   0.166   0.400  0.2697 -0.7491  0.5764
  601MPD2    N1 8968   1.440   0.553   0.118  0.0693  0.5696 -0.3711
  601MPD2    H7 8969   1.366   0.556   0.187  1.4714 -0.1475  1.1726
  602TMC3    C1 8970   1.302   0.706   0.016  0.0853 -0.1766 -0.6871
  602TMC3    C2 8971   1.288   0.828  17.700  0.2733  0.9159 -0.0375
  602TMC3    C3 8972   1.162   0.888  17.709 -0.6896  0.0456 -0.0498
  602TMC3    C4 8973   1.195   0.632   0.060  0.2739  0.7216  0.3402
  602TMC3    C5 8974   1.072   0.687   0.056  0.0987 -0.3241  0.4468
  602TMC3    C6 8975   1.058   0.816   0.009 -0.1908 -0.1652  0.0479
  602TMC3     C 8976   1.428   0.639   0.009  0.1456 -0.6906 -0.1527
  602TMC3     O 8977   1.511   0.680  17.680  0.6478 -0.0401  0.1122
  602TMC3     H 8978   1.375   0.889  17.680  2.0053 -1.7074 -0.6058
  602TMC3    H1 8979   1.204   0.532   0.100  1.0237  1.6810  2.5669
  602TMC3    H2 8980   0.961   0.864   0.015 -0.0841  0.0474  0.0538
  602TMC3    C7 8981   0.959   0.599   0.055  0.8446 -1.3432  0.3109
  602TMC3    C8 8982   1.145   1.014  17.633  0.1053 -0.6201  0.2108
  602TMC3    O1 8983   0.980   0.480   0.067  0.3795 -0.2455 -0.1973
  602TMC3    O2 8984   1.248   1.070  17.603 -0.1702 -0.3439 -0.0927
  603TMC3    C1 8985   3.519   1.363  11.552 -0.3161  0.2175 -0.0321
  603TMC3    C2 8986   3.610   1.332  11.648 -0.6323 -0.1456 -1.4952
  603TMC3    C3 8987   3.707   1.430  11.683  0.0936 -0.1073  0.1869
  603TMC3    C4 8988   3.535   1.485  11.481 -0.2944 -0.1024  0.2366
  603TMC3    C5 8989   3.643   1.568  11.506  0.2832 -0.0981 -0.1749
  603TMC3    C6 8990   3.723   1.550  11.615  0.5019 -0.2196  0.6017
  603TMC3     C 8991   3.392   1.307  11.562  0.6735 -0.0629 -0.7163
  603TMC3     O 8992   3.328   1.309  11.457  0.0220 -0.2495 -0.2424
  603TMC3     H 8993   3.612   1.233  11.691 -3.3443 -0.6000 -2.4164
  603TMC3    H1 8994   3.462   1.511  11.405  0.1516  0.4811  0.0033
  603TMC3    H2 8995   3.808   1.617  11.623 -0.1203  0.8539 -1.7735
  603TMC3    C7 8996   3.645   1.701  11.446 -0.0878  0.2612 -0.0770
  603TMC3    C8 8997   3.783   1.414  11.804 -0.0206  0.3148  0.2177
  603TMC3    O1 8998   3.717   1.782  11.506  0.5368  0.5954 -0.0466
  603TMC3    O2 8999   3.765   1.304  11.856 -0.5647  0.1042  0.0723
  604MPD2     C 9000   0.560   4.219  16.302 -0.1986 -0.6658 -0.2933
  604MPD2    C1 9001   0.503   4.110  16.250 -1.0894  0.6202  1.1546
  604MPD2    C2 9002   0.521   4.081  16.117 -0.6543 -0.0039  0.5186
  604MPD2    C3 9003   0.605   4.166  16.041 -0.3420 -0.1763  0.2325
  604MPD2    C4 9004   0.659   4.283  16.101  0.1489 -0.5590 -0.9943
  604MPD2    C5 9005   0.639   4.307  16.234  0.0267 -0.5281  0.0226
  604MPD2     H 9006   0.495   3.984  16.076 -0.4042 -0.2314  0.8989
  604MPD2    H1 9007   0.710   4.363  16.049 -0.6756  0.7119  0.1562
  604MPD2    H2 9008   0.535   4.244  16.405 -0.4998  0.8331 -0.7232
  604MPD2    H3 9009   0.672   4.395  16.287 -0.8827 -0.5939  0.6904
  604MPD2     N 9010   0.658   4.123  15.915  0.5806  0.5226  0.3271
  604MPD2    H5 9011   0.634   4.028  15.887  0.2304  0.4914  0.7196
  604MPD2    N1 9012   0.415   4.046  16.329  0.2609 -0.1832  0.0805
  604MPD2    H7 9013   0.418   4.084  16.423  4.4966  1.7698 -0.8217
  605TMC3    C1 9014   0.226   3.921  16.411  0.6349 -0.0513  0.9315
  605TMC3    C2 9015   0.279   3.953  16.527 -0.5899  0.7732  0.1391
  605TMC3    C3 9016   0.206   4.043  16.598  0.1644 -0.2882 -0.5021
  605TMC3    C4 9017   0.106   3.963  16.364  0.3984 -0.0933  0.3142
  605TMC3    C5 9018   0.035   4.050  16.443 -0.1816 -0.2624 -0.2427
  605TMC3    C6 9019   0.079   4.077  16.567 -0.4572  0.1933 -0.6350
  605TMC3     C 9020   0.323   3.948  16.305  0.0739  0.1833  0.1963
  605TMC3     O 9021   0.287   3.904  16.197 -0.1652 -0.0065 -0.2378
  605TMC3     H 9022   0.378   3.924  16.563 -1.3414 -1.3567  0.4710
  605TMC3    H1 9023   0.090   3.942  16.259  0.5240  0.1370  0.2493
  605TMC3    H2 9024   0.011   4.125  16.637 -0.9050 -1.7125  0.2087
  605TMC3    C7 9025   4.717   4.168  16.381 -0.3339  0.6041  0.2269
  605TMC3    C8 9026   0.288   4.165  16.609 -0.8110  0.3815 -0.6845
  605TMC3    O1 9027   4.721   4.271  16.448 -0.5043  0.3524  0.3542
  605TMC3    O2 9028   0.408   4.157  16.620  0.8626  0.8484 -0.0351
  606TMC3    C1 9029   1.556   2.658  16.784 -0.2716 -0.2454 -0.3786
  606TMC3    C2 9030   1.566   2.705  16.911 -0.0517  0.2655 -0.3322
  606TMC3    C3 9031   1.489   2.646  17.009  0.2013 -0.0258 -0.2945
  606TMC3    C4 9032   1.471   2.563  16.748  0.0510 -0.6370  0.1449
  606TMC3    C5 9033   1.398   2.501  16.844 -0.5649 -0.3939 -0.2303
  606TMC3    C6 9034   1.407   2.543  16.975  0.1413 -0.1105  0.2070
  606TMC3     C 9035   1.618   2.748  16.688  0.0052 -0.1357 -0.1611
  606TMC3     O 9036   1.662   2.855  16.728  0.1167 -0.2402  0.7710
  606TMC3     H 9037   1.632   2.786  16.939  0.9512 -1.2065  1.6174
  606TMC3    H1 9038   1.455   2.541  16.643  2.0317  1.4959 -0.6131
  606TMC3    H2 9039   1.366   2.474  17.047  1.0351  0.5006  1.3042
  606TMC3    C7 9040   1.326   2.379  16.803  0.1014 -0.1257 -0.8619
  606TMC3    C8 9041   1.507   2.674  17.155 -0.4380 -0.0363 -0.5439
  606TMC3    O1 9042   1.371   2.307  16.713  0.0567  0.0610  0.2448
  606TMC3    O2 9043   1.616   2.723  17.195 -0.2404 -0.0668 -0.4293
  607MPD2     C 9044   3.381   1.138  12.063  0.5222  0.5525  0.0285
  607MPD2    C1 9045   3.352   1.245  12.144  1.0760 -0.6961  0.0493
  607MPD2    C2 9046   3.291   1.214  12.264  1.0125  0.5305  0.0817
  607MPD2    C3 9047   3.283   1.089  12.313  0.0018  0.4508 -0.3585
  607MPD2    C4 9048   3.307   0.982  12.226 -0.4951 -0.2313  0.6647
  607MPD2    C5 9049   3.364   1.013  12.105  0.0729 -0.2202 -0.4838
  607MPD2     H 9050   3.264   1.295  12.332  0.0996 -2.0690  2.8405
  607MPD2    H1 9051   3.306   0.877  12.254  1.7910 -0.2382  0.6775
  607MPD2    H2 9052   3.433   1.137  11.968 -0.3643  0.1158 -0.4533
  607MPD2    H3 9053   3.388   0.931  12.039 -0.0548  1.3809 -2.5008
  607MPD2     N 9054   3.229   1.075  12.443  0.5275 -0.2011  0.2936
  607MPD2    H5 9055   3.205   1.159  12.496  2.0057  0.3746  0.0532
  607MPD2    N1 9056   3.403   1.377  12.131 -0.2912  0.0039  0.3781
  607MPD2    H7 9057   3.374   1.448  12.197 -0.4610  0.7683 -0.5091
  608TMC3    C1 9058   3.497   1.571  12.052 -0.3918  0.2915  0.7093
  608TMC3    C2 9059   3.527   1.614  12.179 -0.0202  0.2515  0.0137
  608TMC3    C3 9060   3.534   1.748  12.212  0.8059 -0.4425  1.0835
  608TMC3    C4 9061   3.469   1.668  11.955  0.0718  0.4826  0.6609
  608TMC3    C5 9062   3.475   1.803  11.998 -0.0904  0.4802 -0.3664
  608TMC3    C6 9063   3.500   1.843  12.123  0.7061  0.1257  0.6533
  608TMC3     C 9064   3.468   1.435  12.023  0.0480  0.4638  0.3014
  608TMC3     O 9065   3.469   1.397  11.905  0.2939 -0.1781  0.0526
  608TMC3     H 9066   3.566   1.543  12.250  0.8096  0.2858 -0.4107
  608TMC3    H1 9067   3.434   1.643  11.856  0.5414 -0.1622  0.6593
  608TMC3    H2 9068   3.507   1.947  12.150 -3.8555  1.1929 -2.2652
  608TMC3    C7 9069   3.482   1.898  11.887  0.1619  0.0961  0.2600
  608TMC3    C8 9070   3.503   1.780  12.348 -0.2709  0.7231 -0.3157
  608TMC3    O1 9071   3.419   1.861  11.789 -0.2178 -0.0613 -0.1900
  608TMC3    O2 9072   3.463   1.898  12.366  0.0922  0.0597 -0.9581
  609TMC3    C1 9073   1.995   4.500   9.221  0.2734 -0.4148 -0.4987
  609TMC3    C2 9074   2.004   4.392   9.136 -0.3579 -0.0193  0.0542
  609TMC3    C3 9075   2.128   4.324   9.135  0.3869 -0.6481 -0.0118
  609TMC3    C4 9076   2.101   4.543   9.298 -0.2216 -0.5202  0.7010
  609TMC3    C5 9077   2.218   4.474   9.287 -0.0410 -0.1651  0.6768
  609TMC3    C6 9078   2.231   4.364   9.208 -0.1693  0.4090  0.4715
  609TMC3     C 9079   1.868   4.557   9.246 -0.6018 -0.1195 -0.0123
  609TMC3     O 9080   1.866   4.638   9.335  0.3628  0.2172 -0.3845
  609TMC3     H 9081   1.918   4.340   9.097 -1.5604  0.6345  1.8583
  609TMC3    H1 9082   2.084   4.624   9.369  0.5324  0.9587 -0.8128
  609TMC3    H2 9083   2.330   4.320   9.195  0.1030  1.2153 -0.1533
  609TMC3    C7 9084   2.324   4.500   9.380  0.4480 -0.0458  0.2040
  609TMC3    C8 9085   2.146   4.195   9.061 -0.0732 -0.1431  0.2252
  609TMC3    O1 9086   2.290   4.549   9.488 -0.4309 -0.0726 -0.4714
  609TMC3    O2 9087   2.241   4.133   9.107 -0.0224 -0.2130  0.0918
  610TMC3    C1 9088   3.911   1.272  12.950  0.3456  0.0049 -0.4082
  610TMC3    C2 9089   3.931   1.403  12.911 -0.3781 -0.5627  0.3925
  610TMC3    C3 9090   4.061   1.443  12.869 -0.9790  1.2108  0.0613
  610TMC3    C4 9091   4.007   1.173  12.946  0.5430  0.4172 -0.2733
  610TMC3    C5 9092   4.129   1.218  12.900 -0.1477 -0.3277  0.9241
  610TMC3    C6 9093   4.157   1.342  12.858  0.8432 -0.4352 -1.0346
  610TMC3     C 9094   3.774   1.232  13.003  0.3094 -0.5934 -0.1264
  610TMC3     O 9095   3.687   1.318  12.995  0.3726 -0.9626 -0.4074
  610TMC3     H 9096   3.859   1.479  12.938  0.0271 -0.3813  0.9639
  610TMC3    H1 9097   3.999   1.070  12.979  1.0452  0.7119  0.7845
  610TMC3    H2 9098   4.260   1.373  12.855  0.6957  0.0707 -0.8652
  610TMC3    C7 9099   4.237   1.121  12.898  0.3117 -0.1923 -0.2114
  610TMC3    C8 9100   4.091   1.565  12.800 -0.0658 -0.2923 -0.1868
  610TMC3    O1 9101   4.226   1.021  12.969  0.8092 -0.3432  0.3992
  610TMC3    O2 9102   4.208   1.583  12.766 -0.2764 -0.3412 -0.1746
  611MPD2     C 9103   2.894   1.250  10.835  0.3605  0.2978 -0.4962
  611MPD2    C1 9104   2.831   1.341  10.756 -0.8057  0.1439 -0.5352
  611MPD2    C2 9105   2.900   1.459  10.726 -0.4564  0.5163  0.1769
  611MPD2    C3 9106   3.035   1.475  10.763 -0.0777 -0.0503  0.7705
  611MPD2    C4 9107   3.096   1.382  10.841 -0.1899  0.0834  0.3306
  611MPD2    C5 9108   3.030   1.264  10.864  0.1588 -0.0754  0.0804
  611MPD2     H 9109   2.855   1.530  10.659  1.7931  2.2524  0.4960
  611MPD2    H1 9110   3.200   1.393  10.868 -0.1591  3.3869 -1.1002
  611MPD2    H2 9111   2.843   1.158  10.861  1.7732  0.1882  1.8375
  611MPD2    H3 9112   3.085   1.190  10.921  1.0352 -0.2817 -1.0201
  611MPD2     N 9113   3.108   1.597  10.748 -0.1960  0.3816  0.0380
  611MPD2    H5 9114   3.198   1.602  10.795 -0.7016 -0.7010  1.1287
  611MPD2    N1 9115   2.701   1.314  10.728  0.6090 -0.2033 -0.0930
  611MPD2    H7 9116   2.664   1.221  10.744  1.0897 -0.3005  0.4238
  612TMC3    C1 9117   3.161   1.807  10.653 -0.3494 -0.0690 -0.5870
  612TMC3    C2 9118   3.208   1.857  10.768  0.2393  0.8050  0.9021
  612TMC3    C3 9119   3.274   1.981  10.753  1.2975  0.0252  0.5447
  612TMC3    C4 9120   3.176   1.863  10.530  0.2522 -0.4146  0.5216
  612TMC3    C5 9121   3.247   1.979  10.511  0.0285  0.2725 -0.2726
  612TMC3    C6 9122   3.297   2.035  10.628  0.1457  0.2473 -0.8454
  612TMC3     C 9123   3.074   1.695  10.659  0.2128  0.1568 -0.0919
  612TMC3     O 9124   2.982   1.698  10.579  0.5824 -0.1172  0.5393
  612TMC3     H 9125   3.184   1.812  10.863  0.3156  0.2949  0.6809
  612TMC3    H1 9126   3.138   1.806  10.445  0.9210 -0.2541  0.1204
  612TMC3    H2 9127   3.357   2.125  10.618  0.5095  0.0128 -0.7356
  612TMC3    C7 9128   3.339   1.976  10.397  0.1668  0.2860  0.8932
  612TMC3    C8 9129   3.344   2.044  10.865  0.5234 -0.4138 -0.8948
  612TMC3    O1 9130   3.436   2.054  10.408  0.4992  0.5601  0.6006
  612TMC3    O2 9131   3.389   2.155  10.849  0.0348 -0.7837 -0.1569
  613MPD2     C 9132   2.987   2.456  16.838 -1.3624 -0.0730 -0.2239
  613MPD2    C1 9133   2.962   2.592  16.807  0.1113 -0.3393  0.4739
  613MPD2    C2 9134   2.869   2.615  16.704  0.9247 -0.6651  0.7429
  613MPD2    C3 9135   2.816   2.514  16.632  0.5724  0.5920  0.0198
  613MPD2    C4 9136   2.862   2.385  16.653  0.0399  0.2459  0.3465
  613MPD2    C5 9137   2.934   2.357  16.760  0.0110  0.0517 -0.2503
  613MPD2     H 9138   2.833   2.713  16.677  0.6473 -0.7729  0.7161
  613MPD2    H1 9139   2.831   2.301  16.593  2.7651 -0.3189 -0.3018
  613MPD2    H2 9140   3.056   2.424  16.916  0.4905  1.5745 -1.1867
  613MPD2    H3 9141   2.966   2.257  16.784 -2.5250 -1.3325 -2.6831
  613MPD2     N 9142   2.742   2.536  16.518  0.0808  0.3663 -0.3564
  613MPD2    H5 9143   2.723   2.452  16.463  1.0532 -0.4539  0.5759
  613MPD2    N1 9144   3.022   2.688  16.892  0.3686  0.2243 -0.2183
  613MPD2    H7 9145   3.047   2.651  16.983  0.1313 -0.8498 -0.5936
  614TMC3    C1 9146   2.998   2.901  16.761  1.1649 -0.6957 -0.4901
  614TMC3    C2 9147   3.055   2.854  16.648 -0.1687 -0.4349 -0.1162
  614TMC3    C3 9148   3.017   2.903  16.525 -0.3050 -0.1186 -0.4606
  614TMC3    C4 9149   2.926   3.016  16.758 -0.4527  0.2612  0.7044
  614TMC3    C5 9150   2.901   3.073  16.640  0.4475  0.6116  0.1118
  614TMC3    C6 9151   2.943   3.016  16.525  0.4005 -0.3242  0.0787
  614TMC3     C 9152   3.007   2.831  16.890  0.4115  0.2238 -0.4633
  614TMC3     O 9153   3.029   2.904  16.987 -0.1115  0.1471  0.4921
  614TMC3     H 9154   3.119   2.767  16.651  0.7506  0.1846 -2.4104
  614TMC3    H1 9155   2.896   3.073  16.845  1.2432 -2.2901  2.9512
  614TMC3    H2 9156   2.943   3.059  16.425  1.6506 -1.6103 -0.4671
  614TMC3    C7 9157   2.794   3.170  16.632 -0.4869  0.6391 -0.0539
  614TMC3    C8 9158   3.018   2.822  16.404 -0.0182  0.3429 -0.7507
  614TMC3    O1 9159   2.726   3.197  16.732  0.8765  0.5532  0.4572
  614TMC3    O2 9160   2.959   2.861  16.305  0.1402  0.2925  0.2553
  615MPD2     C 9161   2.155   4.058  16.196  0.4213 -0.4643 -0.0160
  615MPD2    C1 9162   2.101   4.167  16.260  0.0910 -1.0869 -0.5984
  615MPD2    C2 9163   2.052   4.272  16.178 -0.5352 -0.1718  0.3103
  615MPD2    C3 9164   2.068   4.272  16.041 -0.4713  0.3100  0.1385
  615MPD2    C4 9165   2.115   4.161  15.981  0.6617 -0.4779  0.1940
  615MPD2    C5 9166   2.152   4.055  16.060  0.4333 -0.6422 -0.2486
  615MPD2     H 9167   1.999   4.352  16.228 -0.5337 -0.0872  0.1763
  615MPD2    H1 9168   2.118   4.160  15.872  2.2749  0.1544  0.2384
  615MPD2    H2 9169   2.205   3.971  16.239  0.6863  0.5639  1.7839
  615MPD2    H3 9170   2.193   3.964  16.019  1.1439  0.0575 -1.0724
  615MPD2     N 9171   2.022   4.373  15.954  0.6568  0.2427  0.0621
  615MPD2    H5 9172   2.053   4.367  15.858  0.5316 -1.1070  0.1045
  615MPD2    N1 9173   2.101   4.183  16.409  0.4380 -0.1986  0.3762
  615MPD2    H7 9174   2.047   4.261  16.445  1.2162  0.5587 -0.0960
  616TMC3    C1 9175   2.189   4.156  16.630 -0.3411 -0.1306  0.3589
  616TMC3    C2 9176   2.318   4.162  16.663 -0.3977  0.8476  0.5092
  616TMC3    C3 9177   2.359   4.251  16.758 -0.4964  0.1084 -0.7405
  616TMC3    C4 9178   2.097   4.244  16.667 -0.7163  0.0365 -0.0314
  616TMC3    C5 9179   2.137   4.323  16.773 -0.0030  0.2161  0.2376
  616TMC3    C6 9180   2.266   4.334  16.824  0.6676 -0.4166 -0.1246
  616TMC3     C 9181   2.166   4.097  16.499  0.3168  0.3568  0.7718
  616TMC3     O 9182   2.231   3.998  16.475 -0.5762 -0.3865  0.2592
  616TMC3     H 9183   2.386   4.091  16.618 -0.3298  2.0708 -1.2853
  616TMC3    H1 9184   1.995   4.233  16.634 -0.5088 -1.5358 -0.1275
  616TMC3    H2 9185   2.298   4.407  16.897  0.3342  0.1649 -0.5610
  616TMC3    C7 9186   2.023   4.388  16.849  0.0309  0.1027  0.5861
  616TMC3    C8 9187   2.501   4.247  16.784  0.5496  0.3626 -0.7418
  616TMC3    O1 9188   2.042   4.431  16.962  0.3752  0.0144  0.0371
  616TMC3    O2 9189   2.572   4.177  16.712 -0.0113 -0.2736  0.1631
  617MPD2     C 9190   0.322   2.492  12.710 -0.5230 -0.4424 -0.3936
  617MPD2    C1 9191   0.311   2.507  12.849  0.4817  0.1498 -0.1310
  617MPD2    C2 9192   0.195   2.457  12.912  0.2936 -0.0590  0.2894
  617MPD2    C3 9193   0.097   2.392  12.830 -0.6930 -0.3574 -0.1627
  617MPD2    C4 9194   0.118   2.374  12.691 -0.5603  0.4549  0.5489
  617MPD2    C5 9195   0.233   2.421  12.638 -0.3471  0.1481 -0.4175
  617MPD2     H 9196   0.185   2.468  13.020  1.9069 -2.3383  0.6515
  617MPD2    H1 9197   0.042   2.332  12.626  2.3871 -2.2720 -1.1473
  617MPD2    H2 9198   0.414   2.526  12.663 -0.4385 -0.8742 -0.5360
  617MPD2    H3 9199   0.260   2.407  12.534 -0.1591  1.7490 -0.5845
  617MPD2     N 9200   4.716   2.338  12.892 -0.4983  0.7916 -0.6699
  617MPD2    H5 9201   4.652   2.281  12.837  0.1853 -0.2597 -0.3869
  617MPD2    N1 9202   0.418   2.568  12.918 -0.1750 -0.0682 -0.0211
  617MPD2    H7 9203   0.502   2.591  12.865 -0.1021 -1.0045 -0.3073
  618TMC3    C1 9204   0.535   2.673  13.098  0.1366 -0.3070  0.2526
  618TMC3    C2 9205   0.565   2.658  13.234 -0.5780 -0.0436 -0.0185
  618TMC3    C3 9206   0.671   2.730  13.285 -0.1095 -0.2531 -0.3423
  618TMC3    C4 9207   0.602   2.766  13.023 -0.1869 -0.5190 -0.4554
  618TMC3    C5 9208   0.706   2.835  13.078  0.1777 -0.7444 -0.1745
  618TMC3    C6 9209   0.742   2.815  13.206 -0.1452 -0.0316 -0.1006
  618TMC3     C 9210   0.413   2.610  13.049 -0.2742  0.4364  0.0808
  618TMC3     O 9211   0.327   2.586  13.136  0.5471 -0.2653  0.2931
  618TMC3     H 9212   0.500   2.599  13.297  0.3326 -1.7330 -0.6652
  618TMC3    H1 9213   0.570   2.783  12.921  0.7097  1.8141 -0.3342
  618TMC3    H2 9214   0.818   2.883  13.244  0.3351  0.6430 -2.2795
  618TMC3    C7 9215   0.802   2.909  13.000 -0.9050 -0.5187 -0.8513
  618TMC3    C8 9216   0.741   2.636  13.372  0.1835  0.2821  0.1090
  618TMC3    O1 9217   0.772   2.995  12.918  0.0186 -0.0204  0.2361
  618TMC3    O2 9218   0.727   2.515  13.356  0.2297  0.3434  0.1368
  619MPD2     C 9219   1.485   3.770  14.394 -0.4808 -0.2722  0.2086
  619MPD2    C1 9220   1.392   3.858  14.336 -0.1331 -0.6887  0.1351
  619MPD2    C2 9221   1.259   3.844  14.364 -0.4017  0.6715  0.1289
  619MPD2    C3 9222   1.213   3.743  14.447  0.4413  0.5990  0.0180
  619MPD2    C4 9223   1.301   3.657  14.503  0.4911  0.2913  0.2954
  619MPD2    C5 9224   1.441   3.668  14.472 -0.8876 -0.1872 -0.5577
  619MPD2     H 9225   1.188   3.908  14.312 -0.4226  0.5085 -0.0450
  619MPD2    H1 9226   1.267   3.578  14.570  0.2754 -0.9092 -1.2147
  619MPD2    H2 9227   1.589   3.764  14.364 -0.0747 -1.9090  1.9038
  619MPD2    H3 9228   1.500   3.589  14.517 -0.2752  0.5267 -0.1075
  619MPD2     N 9229   1.074   3.724  14.485  0.6556  0.2419  0.7230
  619MPD2    H5 9230   1.040   3.638  14.527  0.2021  0.0361 -0.0623
  619MPD2    N1 9231   1.424   3.953  14.241 -0.2974 -0.4579 -0.6972
  619MPD2    H7 9232   1.343   4.001  14.203  0.7309  3.2182  1.7237
  620TMC3    C1 9233   1.514   4.047  14.062  0.5404 -0.2645  0.0375
  620TMC3    C2 9234   1.399   4.017  13.989  0.0909  0.0885  0.7665
  620TMC3    C3 9235   1.354   4.115  13.906 -0.1184 -0.6599 -0.4003
  620TMC3    C4 9236   1.590   4.159  14.042  0.1034  0.4643 -0.6813
  620TMC3    C5 9237   1.530   4.261  13.971 -0.7097 -0.6916  0.2725
  620TMC3    C6 9238   1.423   4.237  13.887 -0.8211  0.0867  0.5118
  620TMC3     C 9239   1.543   3.966  14.179 -0.3948  0.1230  0.1541
  620TMC3     O 9240   1.659   3.945  14.205 -0.4347  0.2525 -0.4912
  620TMC3     H 9241   1.340   3.929  14.010 -1.2235  0.3461 -1.8683
  620TMC3    H1 9242   1.677   4.179  14.104 -0.3236  2.1167 -0.6044
  620TMC3    H2 9243   1.391   4.315  13.818 -0.1731 -0.2394 -0.1592
  620TMC3    C7 9244   1.612   4.379  13.956  0.1711  0.0671 -0.7792
  620TMC3    C8 9245   1.209   4.119  13.909 -0.4081 -0.1828 -0.2210
  620TMC3    O1 9246   1.724   4.370  13.998 -0.0793 -0.0627  0.0098
  620TMC3    O2 9247   1.152   4.079  14.005  0.1686  0.4172  0.2864
  621MPD2     C 9248   1.740   0.225   9.604  0.0419  0.2904  0.0719
  621MPD2    C1 9249   1.793   0.267   9.724 -0.1150  0.1123  0.0862
  621MPD2    C2 9250   1.809   0.401   9.753  0.1347 -0.5992  0.2552
  621MPD2    C3 9251   1.768   0.502   9.670  0.8941 -0.7932 -0.1399
  621MPD2    C4 9252   1.705   0.464   9.553 -0.8266 -0.3218 -0.9021
  621MPD2    C5 9253   1.683   0.327   9.527 -0.1349 -0.6658 -0.5404
  621MPD2     H 9254   1.857   0.424   9.848 -2.2568  0.7005  1.1481
  621MPD2    H1 9255   1.689   0.543   9.481  2.0379  0.4534 -0.7282
  621MPD2    H2 9256   1.728   0.121   9.578  0.6432  0.6111 -1.5100
  621MPD2    H3 9257   1.639   0.296   9.433 -1.4457  1.8396 -0.7627
  621MPD2     N 9258   1.792   0.640   9.692  0.3148  0.0570  0.5818
  621MPD2    H5 9259   1.842   0.666   9.777  0.9949 -2.6182  0.9924
  621MPD2    N1 9260   1.808   0.176   9.829 -0.1111 -0.1990 -0.1597
  621MPD2    H7 9261   1.853   0.211   9.914 -0.6384  1.8636 -0.7240
  622TMC3    C1 9262   1.792   4.711   9.954  0.0189 -0.3818 -0.4928
  622TMC3    C2 9263   1.797   0.041  10.075  0.0375  0.4640 -0.2987
  622TMC3    C3 9264   1.771   4.700  10.185 -0.1966  0.1349 -0.1460
  622TMC3    C4 9265   1.773   4.574   9.949 -0.1696 -0.0127 -0.0397
  622TMC3    C5 9266   1.756   4.502  10.067 -0.0115 -0.2676 -0.4684
  622TMC3    C6 9267   1.758   4.563  10.189 -0.3056 -0.0289 -0.6300
  622TMC3     C 9268   1.790   0.040   9.827  0.4196 -0.4749  0.5578
  622TMC3     O 9269   1.800   4.710   9.731 -0.4806 -0.1430  0.5875
  622TMC3     H 9270   1.790   0.149  10.087 -0.8594  0.6511 -2.4935
  622TMC3    H1 9271   1.786   4.516   9.859 -4.8700 -0.2457 -0.5459
  622TMC3    H2 9272   1.738   4.509  10.281  2.3764  0.1316  0.0599
  622TMC3    C7 9273   1.664   4.397  10.063 -0.3878  0.1428  0.2148
  622TMC3    C8 9274   1.708   0.034  10.296 -0.0037 -0.0904 -0.0340
  622TMC3    O1 9275   1.585   4.393  10.159  0.2686  0.2647 -0.1348
  622TMC3    O2 9276   1.753   0.142  10.337 -0.3803  0.3220  0.0767
  623MPD2     C 9277   0.866   0.264  15.995 -0.2380  0.0273 -0.2373
  623MPD2    C1 9278   0.802   0.142  16.024 -0.1722 -0.3393 -0.2322
  623MPD2    C2 9279   0.820   0.089  16.151 -0.7237  0.0486  0.1086
  623MPD2    C3 9280   0.901   0.143  16.249  0.6284  0.7363  0.6196
  623MPD2    C4 9281   0.960   0.264  16.217 -0.2373  0.8331  0.2376
  623MPD2    C5 9282   0.941   0.324  16.095 -0.0125  1.0937 -0.2603
  623MPD2     H 9283   0.752   0.017  16.195  0.2438 -0.1322  1.2946
  623MPD2    H1 9284   1.012   0.324  16.291  0.9696 -0.6658  0.6058
  623MPD2    H2 9285   0.850   0.318  15.903 -1.5297  2.9295  1.6942
  623MPD2    H3 9286   1.007   0.407  16.075  0.4217  0.8048 -0.0256
  623MPD2     N 9287   0.901   0.084  16.378  0.5609  0.1069  0.4020
  623MPD2    H5 9288   0.845   4.737  16.391 -0.7965  0.5167 -2.6781
  623MPD2    N1 9289   0.723   0.081  15.931 -0.3278 -0.0253 -0.0307
  623MPD2    H7 9290   0.729   0.124  15.839  2.7511 -2.1384 -0.8220
  624TMC3    C1 9291   1.024   4.592  16.721 -0.2391 -0.4383 -0.6701
  624TMC3    C2 9292   0.894   4.546  16.737 -0.4990 -0.0429 -0.8633
  624TMC3    C3 9293   0.791   4.618  16.693 -0.5212  0.1170 -0.4941
  624TMC3    C4 9294   1.049   4.711  16.656  0.4436 -0.2085  0.1472
  624TMC3    C5 9295   0.940   0.039  16.604  1.1906  0.1002 -0.2285
  624TMC3    C6 9296   0.809   4.731  16.623  0.6932 -0.2210  0.1486
  624TMC3     C 9297   1.137   4.518  16.776  0.3642 -0.3952  0.8183
  624TMC3     O 9298   1.229   4.574  16.831  0.4975  0.0864 -0.0914
  624TMC3     H 9299   0.880   4.466  16.809  0.1924 -0.3176 -1.0317
  624TMC3    H1 9300   1.154   4.731  16.639  0.4013  0.0988  0.2342
  624TMC3    H2 9301   0.730   0.053  16.578 -0.0945 -0.3825  1.3329
  624TMC3    C7 9302   0.975   0.127  16.491  0.7934 -0.3417 -0.2217
  624TMC3    C8 9303   0.661   4.554  16.703  0.5295 -0.6403 -0.2253
  624TMC3    O1 9304   1.063   0.210  16.505 -0.2823 -0.1918  0.2451
  624TMC3    O2 9305   0.660   4.436  16.741 -0.1557 -0.7019 -0.0834
  625MPD2     C 9306   0.946   1.179   0.642  0.1395  0.1473  0.7330
  625MPD2    C1 9307   1.035   1.283   0.619  0.0548  0.0955  0.6239
  625MPD2    C2 9308   1.175   1.264   0.624 -0.4132  0.8074 -0.6624
  625MPD2    C3 9309   1.221   1.130   0.641  0.1323  0.5026  0.4073
  625MPD2    C4 9310   1.133   1.026   0.661 -0.0934 -0.1443 -0.0518
  625MPD2    C5 9311   0.998   1.053   0.655 -0.5954 -0.2266 -0.2607
  625MPD2     H 9312   1.238   1.343   0.587  2.0978  0.6279  3.1335
  625MPD2    H1 9313   1.153   0.923   0.689 -1.5769  0.0814  1.8411
  625MPD2    H2 9314   0.839   1.192   0.642 -0.0620 -1.4877 -0.2057
  625MPD2    H3 9315   0.922   0.977   0.671  0.5216 -1.6290 -1.5747
  625MPD2     N 9316   1.359   1.110   0.649 -0.2493  0.2386 -0.2934
  625MPD2    H5 9317   1.414   1.193   0.627 -1.0173  1.1081  1.0869
  625MPD2    N1 9318   0.977   1.413   0.590  0.2292  0.0503  0.0597
  625MPD2    H7 9319   0.880   1.414   0.560  1.2230 -1.0010 -3.2146
  626TMC3    C1 9320   0.947   1.645   0.573  0.3994 -0.0792  0.0797
  626TMC3    C2 9321   0.881   1.634   0.457 -0.2614 -0.2618  0.3009
  626TMC3    C3 9322   0.798   1.734   0.411 -0.2973  0.4068  0.5821
  626TMC3    C4 9323   0.927   1.753   0.651 -0.2805  0.3901 -0.0422
  626TMC3    C5 9324   0.830   1.839   0.614 -0.5972 -0.2934  0.2722
  626TMC3    C6 9325   0.776   1.839   0.495 -0.5909  0.2649 -0.8344
  626TMC3     C 9326   1.033   1.528   0.622  0.4820 -0.7096  0.2054
  626TMC3     O 9327   1.127   1.553   0.696 -0.6391 -0.5419 -0.2596
  626TMC3     H 9328   0.911   1.562   0.382  1.8162 -0.4558  1.3238
  626TMC3    H1 9329   0.969   1.777   0.749 -1.8799 -0.6891  0.8962
  626TMC3    H2 9330   0.702   1.912   0.465  3.2064  4.7948  0.8708
  626TMC3    C7 9331   0.779   1.929   0.717 -0.1451 -0.6593  0.1522
  626TMC3    C8 9332   0.721   1.723   0.294  1.0280 -0.7828  0.2910
  626TMC3    O1 9333   0.855   1.955   0.810  0.5733 -0.4743  1.2882
  626TMC3    O2 9334   0.686   1.828   0.230  0.6973  0.1388  0.0064
  627MPD2     C 9335   4.073   1.586  13.757  0.6041 -0.5757 -0.1847
  627MPD2    C1 9336   4.158   1.565  13.859  0.2502 -0.3057 -0.4079
  627MPD2    C2 9337   4.184   1.436  13.895 -0.3117 -1.0888 -0.5117
  627MPD2    C3 9338   4.125   1.330  13.828 -0.3109  0.6873  0.1796
  627MPD2    C4 9339   4.055   1.362  13.712 -0.3744  0.4578 -0.7788
  627MPD2    C5 9340   4.026   1.488  13.679 -0.5769 -0.8386 -0.2594
  627MPD2     H 9341   4.239   1.405  13.983  0.6889 -2.6706 -1.6992
  627MPD2    H1 9342   4.011   1.279  13.658 -0.8491  1.1404 -1.4395
  627MPD2    H2 9343   4.039   1.683  13.721  2.6512  0.9877  2.1201
  627MPD2    H3 9344   3.964   1.519  13.596  1.5951  0.8243 -1.2917
  627MPD2     N 9345   4.142   1.203  13.874 -0.3693  0.3813 -0.7401
  627MPD2    H5 9346   4.191   1.199  13.963  0.3732 -0.6166 -1.1837
  627MPD2    N1 9347   4.220   1.664  13.933 -0.1130 -0.4312  0.5514
  627MPD2    H7 9348   4.280   1.632  14.007 -1.4169 -3.1898  0.4276
  628TMC3    C1 9349   4.338   1.866  13.976  0.4644  0.0367  0.0058
  628TMC3    C2 9350   4.360   1.834  14.106 -0.2846 -0.2433 -0.2494
  628TMC3    C3 9351   4.381   1.933  14.197  0.4642  0.2787 -0.1199
  628TMC3    C4 9352   4.342   1.996  13.932 -0.1933 -0.3592 -0.9345
  628TMC3    C5 9353   4.363   2.099  14.019 -0.0714 -0.3115 -0.8259
  628TMC3    C6 9354   4.376   2.068  14.154  0.1791  1.0619  0.3180
  628TMC3     C 9355   4.255   1.786  13.885 -0.3740 -0.1748 -0.7807
  628TMC3     O 9356   4.234   1.838  13.775  0.1764 -0.0682  0.8428
  628TMC3     H 9357   4.354   1.732  14.142  0.6970  0.7383  2.6958
  628TMC3    H1 9358   4.353   2.016  13.826  2.4962 -0.3000 -0.6464
  628TMC3    H2 9359   4.415   2.141  14.223  0.5461  2.6954 -1.6278
  628TMC3    C7 9360   4.424   2.220  13.959  0.1445 -0.1787 -0.5221
  628TMC3    C8 9361   4.492   1.918  14.288 -0.5616 -0.3259 -0.4213
  628TMC3    O1 9362   4.500   2.291  14.023  0.0472  0.7206  0.3982
  628TMC3    O2 9363   4.584   1.995  14.275 -0.3537 -0.5639 -0.1817
  629MPD2     C 9364   2.917   4.379  17.033  0.4073 -0.0087  0.7281
  629MPD2    C1 9365   2.899   4.336  16.904  0.2836 -0.3112 -0.1270
  629MPD2    C2 9366   2.770   4.303  16.869 -0.0600  0.7867  1.2911
  629MPD2    C3 9367   2.661   4.333  16.945  0.7895 -0.0407 -0.3126
  629MPD2    C4 9368   2.686   4.393  17.064  0.2316  0.8417  0.1847
  629MPD2    C5 9369   2.811   4.415  17.108 -0.4120 -0.1785 -0.4926
  629MPD2     H 9370   2.761   4.255  16.772 -3.1072  1.3484  1.3054
  629MPD2    H1 9371   2.608   4.438  17.124 -0.6208  0.9084 -0.9533
  629MPD2    H2 9372   3.017   4.387  17.074  0.7104 -1.3362  0.2403
  629MPD2    H3 9373   2.817   4.451  17.211 -0.2224  0.2761 -0.6636
  629MPD2     N 9374   2.534   4.308  16.903 -0.8237 -0.3275  0.4849
  629MPD2    H5 9375   2.455   4.351  16.951  0.1096  1.0916  0.7259
  629MPD2    N1 9376   3.014   4.334  16.822  0.2559 -0.0664  0.1493
  629MPD2    H7 9377   3.102   4.367  16.859  0.1749 -0.2141  0.4716
  630TMC3    C1 9378   3.153   4.317  16.638  0.0488 -0.0353  0.0735
  630TMC3    C2 9379   3.161   4.416  16.544  0.2382  0.6814 -0.5060
  630TMC3    C3 9380   3.263   4.501  16.556 -0.7602  0.4773 -0.1116
  630TMC3    C4 9381   3.251   4.295  16.727 -0.1284  0.4170 -0.2192
  630TMC3    C5 9382   3.349   4.389  16.743  0.2622 -0.1741 -0.4320
  630TMC3    C6 9383   3.351   4.500  16.660 -0.1671 -0.1097 -0.1693
  630TMC3     C 9384   3.019   4.293  16.687 -0.2937 -0.8414 -0.0629
  630TMC3     O 9385   2.923   4.273  16.612  0.3276 -0.4675  0.3872
  630TMC3     H 9386   3.070   4.441  16.489  0.3042 -1.5354 -1.6417
  630TMC3    H1 9387   3.248   4.215  16.800  0.0958 -2.3075 -3.1840
  630TMC3    H2 9388   3.407   4.590  16.679  0.7118 -0.4042 -1.3109
  630TMC3    C7 9389   3.352   4.434  16.882 -0.0722  0.4462  0.7306
  630TMC3    C8 9390   3.234   4.639  16.516 -0.1944  0.1167 -0.3223
  630TMC3    O1 9391   3.261   4.389  16.953  0.7761 -0.6177  0.2245
  630TMC3    O2 9392   3.329   4.707  16.498  0.1070 -0.2912  0.1742
  631MPD2     C 9393   1.202   0.303  15.655 -0.8007  0.0675  0.0693
  631MPD2    C1 9394   1.314   0.330  15.583 -0.2453 -0.1377 -0.0932
  631MPD2    C2 9395   1.416   0.238  15.589 -0.5259  0.4489  0.7226
  631MPD2    C3 9396   1.426   0.144  15.689  0.1431  0.9498 -0.4852
  631MPD2    C4 9397   1.314   0.118  15.763 -0.3689 -0.9343 -0.2416
  631MPD2    C5 9398   1.204   0.197  15.743  0.7220 -0.0912 -0.7983
  631MPD2     H 9399   1.502   0.245  15.523 -0.7004  0.1775  0.4647
  631MPD2    H1 9400   1.307   0.044  15.841 -3.7455  2.1616  2.4039
  631MPD2    H2 9401   1.114   0.367  15.654  0.4216  1.7158 -1.4573
  631MPD2    H3 9402   1.120   0.165  15.804  0.9335 -1.3119 -1.1551
  631MPD2     N 9403   1.542   0.064  15.688  0.2403  0.0648  0.0548
  631MPD2    H5 9404   1.618   0.096  15.630  1.8518 -5.8286 -1.0372
  631MPD2    N1 9405   1.312   0.438  15.492 -0.8194 -0.1799 -0.4871
  631MPD2    H7 9406   1.224   0.489  15.486 -0.2716  0.6061 -1.8903
  632TMC3    C1 9407   1.383   0.592  15.333 -0.5375  0.1917  0.3065
  632TMC3    C2 9408   1.331   0.698  15.411 -0.2057  0.4626 -0.4036
  632TMC3    C3 9409   1.325   0.822  15.350 -0.5806  0.3855 -0.5950
  632TMC3    C4 9410   1.418   0.597  15.201 -0.5696  0.6888  0.0994
  632TMC3    C5 9411   1.410   0.722  15.145 -0.4539 -0.3272 -0.9646
  632TMC3    C6 9412   1.344   0.833  15.210 -0.0419 -0.5549  0.5806
  632TMC3     C 9413   1.409   0.461  15.395 -0.3797 -0.2581 -0.3997
  632TMC3     O 9414   1.497   0.391  15.348 -0.1701 -0.2672 -0.7809
  632TMC3     H 9415   1.334   0.684  15.518  0.5860 -5.8251 -1.2309
  632TMC3    H1 9416   1.452   0.501  15.163  0.5016  1.4220 -0.7973
  632TMC3    H2 9417   1.348   0.926  15.154 -0.8090  0.5001  2.2580
  632TMC3    C7 9418   1.404   0.727  15.001  0.6136  0.2240 -0.6541
  632TMC3    C8 9419   1.251   0.929  15.418 -0.2339  0.4492 -0.0740
  632TMC3    O1 9420   1.361   0.828  14.946 -0.1202 -0.0883  0.0713
  632TMC3    O2 9421   1.261   1.045  15.376  0.0356  0.5505  0.3186
  633MPD2     C 9422   0.667   2.886  17.264 -0.3209  0.0398 -0.1943
  633MPD2    C1 9423   0.645   2.861  17.127 -0.5889  0.8357  0.3059
  633MPD2    C2 9424   0.601   2.742  17.084 -0.2036  0.8988  0.1114
  633MPD2    C3 9425   0.573   2.641  17.176 -0.7533  0.3362 -0.3243
  633MPD2    C4 9426   0.610   2.657  17.309  0.1493  0.9786  0.2026
  633MPD2    C5 9427   0.651   2.774  17.352 -0.3297  0.0548  0.1773
  633MPD2     H 9428   0.577   2.727  16.979 -2.3619  1.3879  0.5277
  633MPD2    H1 9429   0.574   2.578  17.374  1.2256 -0.8030 -1.3869
  633MPD2    H2 9430   0.706   2.982  17.295 -1.7123 -0.0837  1.9220
  633MPD2    H3 9431   0.664   2.795  17.458 -0.1929  0.4952  0.0718
  633MPD2     N 9432   0.514   2.515  17.127 -0.0838 -0.0500  0.6477
  633MPD2    H5 9433   0.521   2.434  17.187 -0.4827 -1.5320 -1.3200
  633MPD2    N1 9434   0.684   2.958  17.030  0.5826  0.1089  0.2858
  633MPD2    H7 9435   0.679   2.928  16.933 -0.6727  0.4203  0.2570
  634TMC3    C1 9436   0.762   3.147  16.931 -0.0995  0.7935 -0.1906
  634TMC3    C2 9437   0.831   3.064  16.843 -0.4249  0.2185 -0.3614
  634TMC3    C3 9438   0.876   3.123  16.731  0.3090 -0.7914  0.3644
  634TMC3    C4 9439   0.728   3.278  16.906  0.1001  0.2591 -0.2150
  634TMC3    C5 9440   0.778   3.328  16.783  0.2050 -0.3694 -0.2425
  634TMC3    C6 9441   0.854   3.256  16.698  0.1944 -0.0340 -0.6660
  634TMC3     C 9442   0.707   3.092  17.054  0.2835  0.8796 -0.0284
  634TMC3     O 9443   0.679   3.163  17.151  0.1207  0.0383  0.4621
  634TMC3     H 9444   0.849   2.959  16.862 -0.2237  0.7001  2.1821
  634TMC3    H1 9445   0.664   3.332  16.975 -0.6129 -1.3264  0.3552
  634TMC3    H2 9446   0.883   3.295  16.601 -0.0852 -2.1749 -1.6021
  634TMC3    C7 9447   0.731   3.452  16.724  0.2011 -0.9922 -0.4299
  634TMC3    C8 9448   0.905   3.034  16.618 -0.0524  0.2632  0.1395
  634TMC3    O1 9449   0.725   3.446  16.602 -0.1480  0.1987 -0.1575
  634TMC3    O2 9450   0.902   2.914  16.629  0.1880 -0.0845  0.0043
  635TMC3    C1 9451   1.682   4.121  17.714  0.2967  0.1505 -0.3333
  635TMC3    C2 9452   1.560   4.122  17.654 -0.4982 -0.3977 -0.1437
  635TMC3    C3 9453   1.562   4.074  17.526  0.3487 -0.0217  0.5351
  635TMC3    C4 9454   1.790   4.059  17.661  0.5602  0.2659 -0.0806
  635TMC3    C5 9455   1.782   3.997  17.541 -0.2733 -0.4933  0.1360
  635TMC3    C6 9456   1.667   4.006  17.470  0.3468  0.2983 -0.4730
  635TMC3     C 9457   1.688   4.159   0.104 -0.2584  0.2491 -0.4774
  635TMC3     O 9458   1.595   4.224   0.153 -0.0267  0.2123  0.2898
  635TMC3     H 9459   1.484   4.189  17.692  0.4554  0.5592  0.0719
  635TMC3    H1 9460   1.887   4.061  17.709 -0.2165 -0.6817  1.5369
  635TMC3    H2 9461   1.662   3.969  17.368  0.8258 -2.9351  0.6953
  635TMC3    C7 9462   1.892   3.955  17.473 -0.0589 -0.5226 -0.4474
  635TMC3    C8 9463   1.458   4.108  17.441 -0.2347 -0.5283  0.0525
  635TMC3    O1 9464   1.889   3.957  17.350  0.0504  0.4959  0.0474
  635TMC3    O2 9465   1.493   4.087  17.324  0.1357  0.3583 -0.1664
  636MPD2     C 9466   2.057   3.173  16.168 -0.9654 -0.3134  0.2612
  636MPD2    C1 9467   2.137   3.173  16.277  0.5598  0.1588  0.1654
  636MPD2    C2 9468   2.231   3.076  16.290  0.4495 -0.0414  0.4307
  636MPD2    C3 9469   2.244   2.975  16.194  0.1218  0.1259 -0.2934
  636MPD2    C4 9470   2.173   2.984  16.075  0.1129  0.5717 -0.2959
  636MPD2    C5 9471   2.073   3.080  16.066 -0.5306 -0.5753 -0.2628
  636MPD2     H 9472   2.302   3.070  16.371  2.1473 -2.2060 -1.2109
  636MPD2    H1 9473   2.170   2.918  15.989 -0.8422 -0.5278  0.5722
  636MPD2    H2 9474   1.975   3.243  16.154 -0.4014  0.2287 -0.3044
  636MPD2    H3 9475   2.018   3.090  15.973  1.2890 -0.9770 -1.3817
  636MPD2     N 9476   2.353   2.890  16.213  0.2330  0.4029  0.1566
  636MPD2    H5 9477   2.420   2.913  16.285 -0.0783  0.1751  0.5135
  636MPD2    N1 9478   2.128   3.277  16.368  0.3420  0.9158  0.3707
  636MPD2    H7 9479   2.197   3.278  16.442  1.0883 -1.0598 -0.2932
  637TMC3    C1 9480   2.486   2.711  16.178  0.3762  0.1678 -0.2377
  637TMC3    C2 9481   2.510   2.708  16.322  1.0985  0.2233 -0.6181
  637TMC3    C3 9482   2.608   2.612  16.358  0.7206 -0.5911 -0.4980
  637TMC3    C4 9483   2.544   2.624  16.088 -0.2519 -0.2584  0.3704
  637TMC3    C5 9484   2.654   2.560  16.136  0.0118  0.3249  0.2075
  637TMC3    C6 9485   2.676   2.537  16.269 -0.0942  1.1011  0.4757
  637TMC3     C 9486   2.379   2.782  16.131 -0.1628 -0.1975 -0.2915
  637TMC3     O 9487   2.314   2.738  16.039  0.1897  0.1464 -0.2072
  637TMC3     H 9488   2.463   2.768  16.399 -1.3044 -1.5118 -0.7465
  637TMC3    H1 9489   2.520   2.631  15.983 -0.2431  0.7297  0.4389
  637TMC3    H2 9490   2.743   2.458  16.299  1.6190  2.3826  0.0251
  637TMC3    C7 9491   2.736   2.482  16.041  0.1466  0.4142  0.4717
  637TMC3    C8 9492   2.675   2.644  16.481  0.1058  0.7156 -0.3193
  637TMC3    O1 9493   2.669   2.465  15.945  0.2976  0.1691 -0.3524
  637TMC3    O2 9494   2.648   2.751  16.538 -0.0726  0.1772  0.5497
  638MPD2     C 9495   1.637   2.099  15.402 -0.2495  0.6485 -0.3202
  638MPD2    C1 9496   1.659   2.043  15.286 -0.9577 -0.2240 -1.4752
  638MPD2    C2 9497   1.682   1.908  15.290  0.1769  0.5509  1.0841
  638MPD2    C3 9498   1.707   1.837  15.401  0.3666 -0.3151 -0.4284
  638MPD2    C4 9499   1.694   1.898  15.526  0.0276 -0.2778 -0.1898
  638MPD2    C5 9500   1.652   2.027  15.518  0.1926 -0.3005  0.9405
  638MPD2     H 9501   1.697   1.861  15.193 -0.1392  0.5940  1.0160
  638MPD2    H1 9502   1.712   1.850  15.622 -0.5336  0.3968  0.2538
  638MPD2    H2 9503   1.599   2.201  15.412  0.6584  0.9946 -0.4031
  638MPD2    H3 9504   1.648   2.077  15.614 -1.0347  0.9919  0.2081
  638MPD2     N 9505   1.742   1.706  15.386  0.7431 -0.4662  0.1119
  638MPD2    H5 9506   1.759   1.675  15.290  0.0653  0.1835 -0.2163
  638MPD2    N1 9507   1.631   2.115  15.165 -0.1216 -0.5213  0.3333
  638MPD2    H7 9508   1.599   2.211  15.171  2.4548  0.4594 -1.6941
  639TMC3    C1 9509   1.765   1.480  15.424 -0.7786  0.0420  0.5013
  639TMC3    C2 9510   1.692   1.455  15.314  0.3124  0.7841 -0.3914
  639TMC3    C3 9511   1.751   1.402  15.206 -0.2446  0.0048 -0.2226
  639TMC3    C4 9512   1.904   1.443  15.424 -0.1477  0.4789 -0.4006
  639TMC3    C5 9513   1.953   1.376  15.313 -0.2870 -0.1762  0.0837
  639TMC3    C6 9514   1.880   1.367  15.197 -0.4514 -0.1712  0.6676
  639TMC3     C 9515   1.742   1.607  15.483  0.1886  0.0692 -0.7502
  639TMC3     O 9516   1.720   1.615  15.604  0.4048  0.1266  0.5442
  639TMC3     H 9517   1.597   1.505  15.302 -1.0359 -1.8030 -0.5266
  639TMC3    H1 9518   1.965   1.456  15.513  0.2992  0.5118 -0.7139
  639TMC3    H2 9519   1.914   1.311  15.111  1.8913  0.9074  0.8682
  639TMC3    C7 9520   2.082   1.318  15.319  0.4674  1.2544  0.3115
  639TMC3    C8 9521   1.670   1.354  15.097 -0.1416 -0.2312 -0.3760
  639TMC3    O1 9522   2.124   1.280  15.426 -0.0255 -0.3190 -0.0753
  639TMC3    O2 9523   1.726   1.346  14.984  0.1010 -0.1943  0.2758
  640MPD2     C 9524   1.952   0.713  10.791  0.4735 -0.0019  0.4278
  640MPD2    C1 9525   1.957   0.824  10.714 -0.1841 -0.0854 -0.3787
  640MPD2    C2 9526   1.857   0.918  10.717  0.0615  0.9830 -0.1043
  640MPD2    C3 9527   1.751   0.915  10.799  0.0563 -0.4381 -0.1509
  640MPD2    C4 9528   1.746   0.805  10.880 -0.1291 -0.2019  0.3674
  640MPD2    C5 9529   1.836   0.699  10.870 -0.1910 -0.1614 -0.0440
  640MPD2     H 9530   1.872   0.992  10.639  2.5760  2.9672  2.2873
  640MPD2    H1 9531   1.667   0.801  10.953  0.1750  0.5716  0.7415
  640MPD2    H2 9532   2.025   0.635  10.809  0.4495 -0.2661 -0.5939
  640MPD2    H3 9533   1.836   0.616  10.939  1.4371 -0.7351 -0.7286
  640MPD2     N 9534   1.648   1.013  10.806  0.6828  0.5362 -0.0582
  640MPD2    H5 9535   1.576   0.993  10.875  0.1536  1.7574 -0.2577
  640MPD2    N1 9536   2.080   0.846  10.638 -0.5508  0.1126  0.0022
  640MPD2    H7 9537   2.148   0.775  10.663  1.7712  2.1194 -0.5971
  641TMC3    C1 9538   2.237   0.943  10.488 -0.3445 -0.1978  0.3106
  641TMC3    C2 9539   2.292   0.821  10.461  0.7425  0.3910 -0.1279
  641TMC3    C3 9540   2.398   0.813  10.380  0.6964  0.4143 -0.3979
  641TMC3    C4 9541   2.285   1.054  10.426  0.1915  0.4454 -0.5017
  641TMC3    C5 9542   2.391   1.039  10.349  0.5734 -0.2479  0.3828
  641TMC3    C6 9543   2.457   0.926  10.330  0.3371  0.6669 -0.0026
  641TMC3     C 9544   2.123   0.961  10.577  0.2576 -0.0616  0.0271
  641TMC3     O 9545   2.079   1.072  10.590  0.1083 -0.0182  0.0426
  641TMC3     H 9546   2.241   0.730  10.491 -1.0329  2.1910  2.3311
  641TMC3    H1 9547   2.235   1.149  10.431 -2.3725 -0.9023 -0.6230
  641TMC3    H2 9548   2.542   0.914  10.264 -1.4298 -0.8955 -2.0181
  641TMC3    C7 9549   2.426   1.155  10.272  0.0130 -0.9588  0.3893
  641TMC3    C8 9550   2.473   0.686  10.368 -0.5936  0.0800 -0.0543
  641TMC3    O1 9551   2.346   1.245  10.251  0.2420 -0.5109  0.1073
  641TMC3    O2 9552   2.563   0.667  10.291  0.2378 -0.3283  0.1953
  642TMC3    C1 9553   3.288   2.438  12.113  0.0165 -0.0005  0.1947
  642TMC3    C2 9554   3.419   2.461  12.087 -0.0743 -0.4892  0.1838
  642TMC3    C3 9555   3.512   2.422  12.188 -0.1856  0.3400 -0.4507
  642TMC3    C4 9556   3.245   2.385  12.235 -0.2343 -0.5734  1.1113
  642TMC3    C5 9557   3.344   2.357  12.324 -0.0241  0.2237  0.1198
  642TMC3    C6 9558   3.479   2.358  12.301  0.3497  0.2134  0.4185
  642TMC3     C 9559   3.199   2.523  12.033  0.5591  0.1294  0.0366
  642TMC3     O 9560   3.247   2.598  11.949  0.1921 -0.0767  0.1578
  642TMC3     H 9561   3.454   2.499  11.992  0.1966  0.1211  0.5243
  642TMC3    H1 9562   3.142   2.360  12.260 -1.1100  2.0658  0.1249
  642TMC3    H2 9563   3.548   2.331  12.380 -1.6250 -2.4280  1.2442
  642TMC3    C7 9564   3.308   2.285  12.442  0.2755  0.4952 -0.4038
  642TMC3    C8 9565   3.654   2.432  12.152 -0.1719  0.3194 -0.4188
  642TMC3    O1 9566   3.381   2.186  12.458  0.0368  0.2132 -0.1358
  642TMC3    O2 9567   3.679   2.507  12.061  0.0002 -0.3291 -0.1589
  643TMC3    C1 9568   2.408   0.933   0.207  0.3703 -0.0661  0.2105
  643TMC3    C2 9569   2.288   0.949   0.148 -0.1794  0.1622  0.5270
  643TMC3    C3 9570   2.270   0.906   0.020 -0.2472  0.2452  0.7742
  643TMC3    C4 9571   2.499   0.851   0.153 -0.3218 -0.4272 -0.0208
  643TMC3    C5 9572   2.473   0.784   0.042 -0.6200  0.5096  0.4099
  643TMC3    C6 9573   2.355   0.814  17.715 -0.4675  0.6006 -0.2199
  643TMC3     C 9574   2.449   1.044   0.294  0.2849  0.6254  0.2906
  643TMC3     O 9575   2.378   1.146   0.293 -0.3958  0.4524 -0.0176
  643TMC3     H 9576   2.221   1.021   0.193 -0.7374  0.3988 -0.6903
  643TMC3    H1 9577   2.600   0.835   0.189 -0.2102 -3.3042 -1.6725
  643TMC3    H2 9578   2.349   0.780  17.613 -0.7381 -1.7470  0.5869
  643TMC3    C7 9579   2.587   0.787  17.708  0.0668 -0.4514  0.7166
  643TMC3    C8 9580   2.247   1.014  17.671  0.1511 -0.3711  0.1534
  643TMC3    O1 9581   2.680   0.859  17.729  0.6276 -0.3268  0.3566
  643TMC3    O2 9582   2.234   0.976  17.552  0.2732 -0.6190  0.1286
  644MPD2     C 9583   2.565   1.788  10.068 -0.0487  0.4075  0.6986
  644MPD2    C1 9584   2.540   1.687  10.155 -0.1318 -0.1463 -0.4075
  644MPD2    C2 9585   2.406   1.671  10.188 -0.4755 -0.1405 -0.1411
  644MPD2    C3 9586   2.314   1.759  10.155 -0.0688 -0.4161 -0.4160
  644MPD2    C4 9587   2.340   1.858  10.065  0.3042  0.2205 -0.7079
  644MPD2    C5 9588   2.467   1.870  10.018 -0.1257 -0.0877 -0.1833
  644MPD2     H 9589   2.375   1.583  10.243  0.1710  0.6720  1.5252
  644MPD2    H1 9590   2.261   1.920  10.025 -0.8605 -1.0794 -0.3820
  644MPD2    H2 9591   2.663   1.802  10.025 -1.2672 -2.1393 -2.8743
  644MPD2    H3 9592   2.494   1.945   9.945  1.8313  0.1765  0.8129
  644MPD2     N 9593   2.182   1.750  10.212 -0.0029  0.0707  0.4116
  644MPD2    H5 9594   2.175   1.662  10.262  1.0315 -1.4209 -2.0897
  644MPD2    N1 9595   2.642   1.608  10.206 -0.1538 -0.0830  0.0254
  644MPD2    H7 9596   2.728   1.611  10.153 -2.1092 -2.4193 -3.2595
  645TMC3    C1 9597   1.987   1.831  10.316 -0.1226 -0.3913 -0.0151
  645TMC3    C2 9598   1.957   1.919  10.416  0.0695 -0.2490 -0.5155
  645TMC3    C3 9599   1.863   1.889  10.512  0.3691 -0.0686  0.4018
  645TMC3    C4 9600   1.922   1.708  10.312 -0.9897  0.1765  0.9467
  645TMC3    C5 9601   1.818   1.683  10.402  0.0151  1.0645  0.3272
  645TMC3    C6 9602   1.790   1.773  10.501 -0.3643  0.6204 -0.1081
  645TMC3     C 9603   2.090   1.856  10.222 -0.4924  0.8923 -0.2564
  645TMC3     O 9604   2.114   1.970  10.191  0.0301  0.2468  0.4652
  645TMC3     H 9605   2.019   2.007  10.425  0.4344 -0.5743  0.1268
  645TMC3    H1 9606   1.937   1.636  10.233 -0.9684  1.4775 -0.2228
  645TMC3    H2 9607   1.732   1.737  10.585  0.1399 -1.2301 -0.5474
  645TMC3    C7 9608   1.743   1.558  10.382  0.5212  0.7306 -0.2727
  645TMC3    C8 9609   1.820   1.984  10.613 -0.2659 -0.3099  0.1516
  645TMC3    O1 9610   1.803   1.485  10.305 -0.2566  0.1229 -0.3173
  645TMC3    O2 9611   1.764   1.944  10.712 -0.2615 -0.1997  0.0035
  646MPD2     C 9612   2.166   0.761  14.594  0.7327  0.0124 -0.2454
  646MPD2    C1 9613   2.074   0.755  14.700  0.0859 -0.9520  0.0652
  646MPD2    C2 9614   1.946   0.800  14.687  0.2697  0.4088 -0.4157
  646MPD2    C3 9615   1.915   0.874  14.570  0.3851 -0.1865 -0.1529
  646MPD2    C4 9616   2.006   0.874  14.466  0.4397  0.2641  0.4050
  646MPD2    C5 9617   2.133   0.814  14.472 -0.7617  0.2550  0.2760
  646MPD2     H 9618   1.872   0.793  14.766 -0.3735  1.6555 -0.9146
  646MPD2    H1 9619   1.991   0.922  14.370 -0.9608 -2.3920 -0.6761
  646MPD2    H2 9620   2.267   0.722  14.599  0.9705  0.9503  2.1306
  646MPD2    H3 9621   2.203   0.830  14.390 -1.2290  0.3700 -0.0953
  646MPD2     N 9622   1.785   0.935  14.552 -0.6087 -0.0530 -0.4656
  646MPD2    H5 9623   1.712   0.912  14.619 -0.3161  2.0934  0.6160
  646MPD2    N1 9624   2.129   0.699  14.816  0.1404  0.1809 -0.1536
  646MPD2    H7 9625   2.228   0.677  14.820  0.6636  2.4907 -0.3854
  647TMC3    C1 9626   2.142   0.628  15.052  0.0210  0.0115 -0.3842
  647TMC3    C2 9627   2.078   0.597  15.166  0.1567  0.5432  0.2738
  647TMC3    C3 9628   2.143   0.545  15.274 -0.0818 -0.4807 -0.2396
  647TMC3    C4 9629   2.280   0.608  15.046 -0.3979  0.6722 -0.2101
  647TMC3    C5 9630   2.350   0.554  15.156 -0.8242  0.0030  0.6774
  647TMC3    C6 9631   2.280   0.522  15.270 -0.0859 -0.5702  0.0509
  647TMC3     C 9632   2.058   0.680  14.936  0.2198  0.0112 -0.4275
  647TMC3     O 9633   1.940   0.696  14.960  0.5151 -0.3610  0.3121
  647TMC3     H 9634   1.971   0.609  15.180  0.8992  4.5113  2.7523
  647TMC3    H1 9635   2.321   0.632  14.948  0.8933  2.0332  0.6656
  647TMC3    H2 9636   2.336   0.478  15.352 -0.4784 -2.6784 -0.7884
  647TMC3    C7 9637   2.488   0.517  15.145  0.0503 -0.9709  0.0963
  647TMC3    C8 9638   2.082   0.564  15.400  0.1936 -0.0217  0.0408
  647TMC3    O1 9639   2.526   0.434  15.229  0.3176 -0.1350 -0.2556
  647TMC3    O2 9640   2.021   0.669  15.423  0.1069  0.3233 -0.2536
  648TMC3    C1 9641   1.426   3.030  16.122 -0.6697  0.2065 -0.0201
  648TMC3    C2 9642   1.454   2.908  16.058  0.2412  0.1898  1.1190
  648TMC3    C3 9643   1.461   2.910  15.920 -0.6329 -0.0753 -0.5097
  648TMC3    C4 9644   1.410   3.144  16.049  0.7143  0.4334  0.3180
  648TMC3    C5 9645   1.423   3.141  15.916 -0.1437  0.0627 -0.1375
  648TMC3    C6 9646   1.453   3.025  15.850 -0.0463  0.5955  0.3498
  648TMC3     C 9647   1.420   3.043  16.268  0.3348  0.4143 -0.2770
  648TMC3     O 9648   1.436   3.154  16.314 -0.0061 -0.2319 -0.4083
  648TMC3     H 9649   1.477   2.817  16.112  3.3022 -0.1301 -0.7840
  648TMC3    H1 9650   1.394   3.238  16.100 -1.1824 -0.6452  1.6996
  648TMC3    H2 9651   1.473   3.020  15.743 -2.0930 -0.0825 -0.0048
  648TMC3    C7 9652   1.375   3.257  15.839 -0.7246  0.7539 -0.3477
  648TMC3    C8 9653   1.504   2.795  15.855  0.0844 -0.0701  0.6397
  648TMC3    O1 9654   1.400   3.247  15.715  0.3319 -0.1021 -0.0826
  648TMC3    O2 9655   1.550   2.797  15.745  0.1618  0.0781  0.3432
  649TMC3    C1 9656   0.321   4.194  13.300 -0.4515 -0.3067  0.3733
  649TMC3    C2 9657   0.436   4.268  13.273 -1.3119  0.5318 -0.3402
  649TMC3    C3 9658   0.537   4.276  13.366  0.0159 -1.1516  0.0700
  649TMC3    C4 9659   0.306   4.121  13.410 -0.1001  0.0951  0.8199
  649TMC3    C5 9660   0.413   4.121  13.496  0.0807 -0.4491  0.0680
  649TMC3    C6 9661   0.528   4.194  13.481  0.2680 -0.2964  0.3514
  649TMC3     C 9662   0.205   4.207  13.216 -1.2618  0.2109 -0.2659
  649TMC3     O 9663   0.098   4.235  13.268 -0.5765  0.6617  0.2165
  649TMC3     H 9664   0.428   4.344  13.196  3.1977  0.4224 -0.9159
  649TMC3    H1 9665   0.207   4.077  13.423 -0.6434  1.7805  2.4627
  649TMC3    H2 9666   0.590   4.203  13.570  1.5891  1.3053 -0.7419
  649TMC3    C7 9667   0.379   4.097  13.637 -0.1271 -0.0077  0.2838
  649TMC3    C8 9668   0.638   4.379  13.371  0.6207 -0.1756 -0.0828
  649TMC3    O1 9669   0.270   4.142  13.674  0.0089  0.4687  0.1219
  649TMC3    O2 9670   0.693   4.377  13.477 -0.3158 -0.4428 -0.0252
  650TMC3    C1 9671   2.505   1.427  12.805 -0.0948  0.1156  0.6994
  650TMC3    C2 9672   2.531   1.561  12.779 -0.3979  0.2060 -0.0518
  650TMC3    C3 9673   2.449   1.628  12.695 -0.1474  0.1901  0.0119
  650TMC3    C4 9674   2.391   1.363  12.760  0.2490 -0.2973  0.2664
  650TMC3    C5 9675   2.311   1.440  12.676  0.0732 -0.4769  0.1316
  650TMC3    C6 9676   2.337   1.572  12.646 -0.4645  0.4127  0.0988
  650TMC3     C 9677   2.613   1.351  12.869  0.5354  0.4907 -0.6126
  650TMC3     O 9678   2.724   1.388  12.839  0.1738  0.1517 -0.1241
  650TMC3     H 9679   2.624   1.601  12.817  0.1745 -1.8654  0.7466
  650TMC3    H1 9680   2.377   1.256  12.766 -1.3584 -0.0002  2.1622
  650TMC3    H2 9681   2.272   1.638  12.590  1.0990 -0.7129 -3.0277
  650TMC3    C7 9682   2.205   1.362  12.623 -0.0700 -0.5835  0.6354
  650TMC3    C8 9683   2.465   1.771  12.695  0.0636  1.2019  0.4570
  650TMC3    O1 9684   2.158   1.275  12.692 -0.7869 -0.4444  0.2035
  650TMC3    O2 9685   2.403   1.824  12.602 -0.1747 -0.1209  0.4494
  651MPD2     C 9686   1.360   3.634  10.442 -0.2140  0.5398 -0.4244
  651MPD2    C1 9687   1.303   3.724  10.534 -0.0261 -0.1458 -1.1638
  651MPD2    C2 9688   1.389   3.791  10.620  0.4623 -0.2716  0.4025
  651MPD2    C3 9689   1.527   3.770  10.621 -0.1673 -0.1483  0.5487
  651MPD2    C4 9690   1.579   3.693  10.519  0.0041  0.9842 -0.9026
  651MPD2    C5 9691   1.495   3.619  10.438  0.6009  0.2450 -0.1405
  651MPD2     H 9692   1.346   3.859  10.692 -2.3400 -0.7509 -0.7970
  651MPD2    H1 9693   1.686   3.693  10.501 -0.1065 -0.6332 -1.4626
  651MPD2    H2 9694   1.300   3.588  10.364 -0.9184  1.1134 -0.2255
  651MPD2    H3 9695   1.532   3.548  10.365  1.6282  0.5095  0.1209
  651MPD2     N 9696   1.605   3.835  10.715 -0.5764  0.5380 -0.3859
  651MPD2    H5 9697   1.550   3.893  10.779  0.3480  1.6604 -0.6070
  651MPD2    N1 9698   1.164   3.752  10.542 -0.3354  0.2648 -0.0660
  651MPD2    H7 9699   1.134   3.813  10.617 -1.1078  0.2247 -0.3494
  652TMC3    C1 9700   1.968   4.027  10.936 -0.7989  0.2229 -0.2733
  652TMC3    C2 9701   1.910   3.924  10.862 -0.8104 -0.2920  0.1331
  652TMC3    C3 9702   1.779   3.932  10.826 -0.1182  0.2194  0.3941
  652TMC3    C4 9703   1.901   4.141  10.962 -0.4608  0.3194 -0.3646
  652TMC3    C5 9704   1.768   4.146  10.923 -0.5001 -0.0225 -0.0275
  652TMC3    C6 9705   1.710   4.050  10.841 -0.6059  0.5285 -0.0284
  652TMC3     C 9706   2.110   4.007  10.970  0.1124 -0.5376 -0.2769
  652TMC3     O 9707   2.152   3.893  10.960  0.5307  0.0492 -0.0572
  652TMC3     H 9708   1.964   3.837  10.827 -1.6244 -0.7743  0.0598
  652TMC3    H1 9709   1.944   4.225  11.016  0.0540  0.6342 -1.2531
  652TMC3    H2 9710   1.619   4.074  10.789  1.3517 -1.2037 -4.3027
  652TMC3    C7 9711   1.707   4.276  10.915 -0.3278  0.3687 -0.1736
  652TMC3    C8 9712   1.740   3.841  10.721  0.5984  0.7300  0.1340
  652TMC3    O1 9713   1.583   4.277  10.919  0.2696 -0.6087  0.4435
  652TMC3    O2 9714   1.824   3.776  10.661  0.0742 -0.1588  0.2462
  653MPD2     C 9715   0.595   3.058   0.045 -0.0926 -0.0546 -0.5665
  653MPD2    C1 9716   0.531   3.122  17.699  0.1722  0.2714 -0.4324
  653MPD2    C2 9717   0.467   3.047  17.606 -0.2501 -0.1458 -0.1360
  653MPD2    C3 9718   0.447   2.908  17.625  0.1874  0.9441 -0.1550
  653MPD2    C4 9719   0.521   2.845  17.717 -0.4014  0.4502  0.7668
  653MPD2    C5 9720   0.597   2.923   0.048 -0.3216 -1.2969 -0.2723
  653MPD2     H 9721   0.408   3.112  17.543  1.9617  0.5960 -1.4612
  653MPD2    H1 9722   0.529   2.737  17.729 -0.3070  0.5803  1.8844
  653MPD2    H2 9723   0.651   3.098   0.129  0.4788  0.8211 -1.3745
  653MPD2    H3 9724   0.642   2.876   0.135 -1.0233 -1.7178 -0.1426
  653MPD2     N 9725   0.354   2.847  17.541  0.2247  0.6836 -0.5212
  653MPD2    H5 9726   0.317   2.908  17.469 -0.3048 -0.6066 -1.3440
  653MPD2    N1 9727   0.531   3.259  17.686 -0.4890  0.1751  0.6994
  653MPD2    H7 9728   0.496   3.295  17.598  2.4107  0.0051 -0.5457
  654TMC3    C1 9729   0.211   2.678  17.459  0.2182 -0.1468 -0.0844
  654TMC3    C2 9730   0.124   2.772  17.409  0.5418  0.7034  0.6488
  654TMC3    C3 9731   0.012   2.714  17.352  0.5551  0.4723  0.1376
  654TMC3    C4 9732   0.196   2.539  17.441  0.3076  0.3302 -0.1856
  654TMC3    C5 9733   0.091   2.490  17.367 -0.0966  0.1403  0.0992
  654TMC3    C6 9734   4.733   2.577  17.324  0.7357 -0.3252 -0.5445
  654TMC3     C 9735   0.321   2.712  17.542 -1.3892 -0.0673 -0.1294
  654TMC3     O 9736   0.370   2.616  17.606  0.1369  0.6665 -0.6633
  654TMC3     H 9737   0.136   2.878  17.423  1.1799  0.5539  1.2343
  654TMC3    H1 9738   0.276   2.472  17.470 -0.6512  0.1741  2.0812
  654TMC3    H2 9739   4.652   2.532  17.269 -0.0628 -1.0193  1.1938
  654TMC3    C7 9740   0.128   2.365  17.305  0.0344 -0.2767  0.4735
  654TMC3    C8 9741   4.673   2.805  17.270 -0.9994  0.1403 -0.0176
  654TMC3    O1 9742   0.168   2.282  17.383 -0.7164 -0.4464 -0.0258
  654TMC3    O2 9743   4.559   2.773  17.245  0.2742 -0.1716 -0.2739
  655MPD2     C 9744   1.792   3.129  15.862 -0.1735 -0.0786 -0.1927
  655MPD2    C1 9745   1.821   3.250  15.811 -0.2235  0.0829  0.4176
  655MPD2    C2 9746   1.882   3.258  15.685 -0.1571  0.4552  0.0278
  655MPD2    C3 9747   1.911   3.144  15.621  0.7321 -0.2542 -0.4970
  655MPD2    C4 9748   1.884   3.025  15.679 -0.2415  0.5175  0.0946
  655MPD2    C5 9749   1.815   3.016  15.795  0.1268  0.2749  0.0515
  655MPD2     H 9750   1.904   3.355  15.643 -0.2592  0.9133  1.0378
  655MPD2    H1 9751   1.904   2.934  15.623 -0.5116 -0.6926  1.9511
  655MPD2    H2 9752   1.735   3.109  15.952  0.6100  0.9886  0.5385
  655MPD2    H3 9753   1.797   2.916  15.833 -1.0062  0.2541 -0.5456
  655MPD2     N 9754   1.986   3.131  15.504  0.2134 -0.3005 -0.1490
  655MPD2    H5 9755   2.006   3.033  15.484  1.0497 -0.1285 -0.1485
  655MPD2    N1 9756   1.808   3.367  15.887 -0.0606 -0.3908 -0.4718
  655MPD2    H7 9757   1.842   3.453  15.844 -0.9706  0.4464  0.4923
  656TMC3    C1 9758   1.673   3.492  16.036  0.8129  0.4248 -0.4328
  656TMC3    C2 9759   1.563   3.475  16.112  0.0227  0.0087  0.7337
  656TMC3    C3 9760   1.472   3.576  16.122 -0.5503  0.9528 -0.2739
  656TMC3    C4 9761   1.703   3.611  15.979  1.2790  0.3161 -0.0415
  656TMC3    C5 9762   1.607   3.710  15.991  0.1489 -0.1112  1.2598
  656TMC3    C6 9763   1.490   3.697  16.059  0.7385  0.1363 -0.2503
  656TMC3     C 9764   1.755   3.374  16.015  0.0190  0.0986 -0.6094
  656TMC3     O 9765   1.739   3.284  16.095 -0.0660 -0.0873  1.2256
  656TMC3     H 9766   1.539   3.382  16.163  1.5454 -0.4673  0.5653
  656TMC3    H1 9767   1.799   3.631  15.932  1.8079  1.8422  1.6383
  656TMC3    H2 9768   1.419   3.777  16.078  1.6822  1.0084 -0.4257
  656TMC3    C7 9769   1.622   3.816  15.895 -0.0019  0.0660  0.7732
  656TMC3    C8 9770   1.348   3.556  16.187 -0.0434  0.4087 -0.2845
  656TMC3    O1 9771   1.723   3.834  15.834 -0.1965  0.5474  0.2798
  656TMC3    O2 9772   1.300   3.442  16.194 -0.2695  0.0188 -0.6777
  657TMC3    C1 9773   0.570   2.198  14.949  0.4314 -0.4908 -0.0252
  657TMC3    C2 9774   0.679   2.282  14.941 -0.3572  0.3595  0.3805
  657TMC3    C3 9775   0.660   2.418  14.940  0.1586  0.3946 -0.4819
  657TMC3    C4 9776   0.446   2.248  14.958 -0.0199  0.0207  0.2843
  657TMC3    C5 9777   0.431   2.388  14.948  0.2948 -0.6105 -0.2856
  657TMC3    C6 9778   0.536   2.478  14.935 -0.4055 -0.3196 -0.1110
  657TMC3     C 9779   0.578   2.057  14.926 -0.6717  0.7512  1.2004
  657TMC3     O 9780   0.473   1.994  14.938 -0.2376  0.2799 -0.7902
  657TMC3     H 9781   0.775   2.248  14.904 -0.2273  0.4176  0.6659
  657TMC3    H1 9782   0.363   2.180  14.973 -0.3298 -0.2378 -2.6006
  657TMC3    H2 9783   0.526   2.586  14.942  1.4459 -0.0704 -1.3872
  657TMC3    C7 9784   0.289   2.440  14.937 -0.6086  0.2265 -0.0206
  657TMC3    C8 9785   0.785   2.486  14.924  0.3938 -0.2554 -0.4790
  657TMC3    O1 9786   0.207   2.364  14.987  0.1289 -0.1119  0.6375
  657TMC3    O2 9787   0.889   2.428  14.961  0.0792  0.4383  0.0985
  658MPD2     C 9788   2.427   3.581  14.954 -0.2150 -0.1641 -0.3014
  658MPD2    C1 9789   2.321   3.510  14.906  0.5830 -0.0224 -0.2002
  658MPD2    C2 9790   2.283   3.539  14.780  0.8537  0.5504 -0.6900
  658MPD2    C3 9791   2.354   3.626  14.701  0.2046 -0.2317 -0.4483
  658MPD2    C4 9792   2.467   3.693  14.748  0.0053  0.9562  0.3372
  658MPD2    C5 9793   2.503   3.664  14.878 -0.5436  0.1569 -0.6366
  658MPD2     H 9794   2.201   3.484  14.735  1.0884 -0.2917 -0.0929
  658MPD2    H1 9795   2.539   3.751  14.692 -0.3350  1.4226  0.3891
  658MPD2    H2 9796   2.453   3.574  15.059  2.4137  2.6837 -0.7452
  658MPD2    H3 9797   2.583   3.720  14.925  0.3630 -0.4609 -1.4437
  658MPD2     N 9798   2.299   3.637  14.567 -0.2181 -0.0292  0.0116
  658MPD2    H5 9799   2.219   3.575  14.560 -0.0632 -0.2931  0.5404
  658MPD2    N1 9800   2.260   3.417  14.998 -0.1011  0.1173  0.0260
  658MPD2    H7 9801   2.306   3.386  15.082  0.3840 -0.3598 -0.4189
  659TMC3    C1 9802   2.120   3.231  15.063  0.6856  1.1107  0.6428
  659TMC3    C2 9803   2.134   3.262  15.199 -0.3923  0.0234  0.5297
  659TMC3    C3 9804   2.076   3.174  15.286  0.1509 -0.2795  0.3466
  659TMC3    C4 9805   2.043   3.125  15.017  0.1060 -0.7372  0.3107
  659TMC3    C5 9806   1.994   3.037  15.112 -0.7411  0.7857 -0.4089
  659TMC3    C6 9807   2.016   3.057  15.247 -0.0768 -0.1267  0.5218
  659TMC3     C 9808   2.165   3.325  14.964  0.1463 -0.1950  0.5360
  659TMC3     O 9809   2.106   3.313  14.858 -0.2759  0.4119  0.5075
  659TMC3     H 9810   2.171   3.359  15.229  0.5200 -0.8404  2.1872
  659TMC3    H1 9811   2.012   3.116  14.914 -1.3975 -0.8045  0.7614
  659TMC3    H2 9812   1.964   2.986  15.310 -1.0788  1.3203  1.3186
  659TMC3    C7 9813   1.876   2.969  15.074 -0.2089 -0.1945 -0.2782
  659TMC3    C8 9814   2.034   3.229  15.417  0.9967  0.2854  0.6057
  659TMC3    O1 9815   1.799   2.940  15.163 -0.3010 -0.1400  0.6069
  659TMC3    O2 9816   2.037   3.351  15.438 -0.0998  0.4952 -0.4795
  660MPD2     C 9817   3.912   2.761  12.717  0.0401  0.8073  0.4681
  660MPD2    C1 9818   3.866   2.692  12.605  0.0665  0.1375 -0.5241
  660MPD2    C2 9819   3.774   2.593  12.619 -0.0028 -0.0362  0.6664
  660MPD2    C3 9820   3.714   2.566  12.738 -0.1531  0.0616 -0.2436
  660MPD2    C4 9821   3.750   2.643  12.844 -0.9085 -0.2004  0.1726
  660MPD2    C5 9822   3.849   2.740  12.835  0.1782  0.0605 -0.1513
  660MPD2     H 9823   3.727   2.544  12.535  0.1009  0.6681  0.1990
  660MPD2    H1 9824   3.692   2.626  12.935 -1.0429  2.6919  0.6153
  660MPD2    H2 9825   3.990   2.835  12.708 -0.9192  1.9548  1.4939
  660MPD2    H3 9826   3.876   2.808  12.914 -0.1821 -1.7421  1.5118
  660MPD2     N 9827   3.614   2.471  12.764  0.8963 -0.4976  0.8609
  660MPD2    H5 9828   3.557   2.471  12.848  1.0031  2.2581  0.9484
  660MPD2    N1 9829   3.913   2.723  12.481  0.5019 -0.1417 -0.3115
  660MPD2    H7 9830   3.988   2.791  12.472 -0.0552  0.4103 -0.7967
  661TMC3    C1 9831   3.939   2.731  12.251  0.7685  0.3457 -0.6657
  661TMC3    C2 9832   4.073   2.723  12.258 -0.0062 -0.3725  0.3995
  661TMC3    C3 9833   4.146   2.748  12.145 -0.4341  0.4033  0.1843
  661TMC3    C4 9834   3.871   2.758  12.135 -0.3134  0.0150  0.5564
  661TMC3    C5 9835   3.942   2.786  12.022  0.3728 -0.4634 -0.6592
  661TMC3    C6 9836   4.081   2.784  12.033  0.4978  0.1877  0.1533
  661TMC3     C 9837   3.854   2.703  12.365 -0.3858  0.2694  0.9414
  661TMC3     O 9838   3.734   2.686  12.338  0.4267  0.5194 -0.0090
  661TMC3     H 9839   4.123   2.684  12.345 -1.3867  0.0366  1.3750
  661TMC3    H1 9840   3.763   2.759  12.133 -0.3317 -0.8956  1.1801
  661TMC3    H2 9841   4.131   2.805  11.940 -0.7661  1.0004 -0.3344
  661TMC3    C7 9842   3.881   2.808  11.894 -0.2190  0.8105  0.7544
  661TMC3    C8 9843   4.288   2.708  12.132 -0.9682  0.3691 -0.0481
  661TMC3    O1 9844   3.945   2.874  11.811 -0.6088 -0.3950 -0.3154
  661TMC3    O2 9845   4.335   2.706  12.018 -0.1037 -0.1989 -0.6399
  662MPD2     C 9846   4.563   1.885  16.878 -0.5129  0.7022  0.8021
  662MPD2    C1 9847   4.609   1.846  17.000 -0.8884  0.1210  0.2165
  662MPD2    C2 9848   4.566   1.924  17.108  0.4323  0.3935  0.1078
  662MPD2    C3 9849   4.447   1.992  17.107  0.2498  0.8919  1.2741
  662MPD2    C4 9850   4.392   2.011  16.979 -0.1801 -0.1201  0.0667
  662MPD2    C5 9851   4.464   1.978  16.869  0.4805  0.0171  0.1881
  662MPD2     H 9852   4.608   1.899  17.205  0.0503  0.5254  0.3090
  662MPD2    H1 9853   4.305   2.072  16.959 -0.5321 -1.0612 -1.2571
  662MPD2    H2 9854   4.584   1.839  16.782  1.1999  1.5684  0.7588
  662MPD2    H3 9855   4.414   2.005  16.776  2.2140 -0.1158 -0.7857
  662MPD2     N 9856   4.376   2.030  17.222  0.5505 -0.3037 -0.3289
  662MPD2    H5 9857   4.281   2.056  17.197 -0.8185 -1.3778  3.8072
  662MPD2    N1 9858   4.701   1.735  17.015  0.1427  0.2347  0.0081
  662MPD2    H7 9859   0.015   1.722  17.101 -0.3403  1.4348  0.4777
  663TMC3    C1 9860   0.085   1.540  16.942  0.1894 -0.2184 -0.5167
  663TMC3    C2 9861   0.150   1.542  17.069  0.2809 -0.0328 -0.2917
  663TMC3    C3 9862   0.240   1.441  17.098  0.5788 -0.0941  0.2132
  663TMC3    C4 9863   0.138   1.464  16.841  0.4966 -0.0762  0.1248
  663TMC3    C5 9864   0.247   1.384  16.866 -0.2815  0.7027  0.2359
  663TMC3    C6 9865   0.308   1.389  16.990 -0.4860 -0.0539 -0.6387
  663TMC3     C 9866   4.730   1.648  16.911 -0.8692 -0.0073  0.0529
  663TMC3     O 9867   4.695   1.653  16.793  0.5415  0.1247 -0.1311
  663TMC3     H 9868   0.099   1.595  17.148  1.2538 -0.5168  0.6509
  663TMC3    H1 9869   0.083   1.461  16.748  1.5367  1.8562 -0.5606
  663TMC3    H2 9870   0.383   1.314  17.012 -0.2993  0.1997 -0.4130
  663TMC3    C7 9871   0.241   1.253  16.804  0.3555  0.1855 -0.2954
  663TMC3    C8 9872   0.194   1.331  17.183 -0.8185 -0.1045  0.5079
  663TMC3    O1 9873   0.208   1.251  16.684  0.7902  0.2934  0.3047
  663TMC3    O2 9874   0.244   1.221  17.163  0.2744  0.9279  0.1933
  664MPD2     C 9875   2.408   4.585  17.477 -0.4952  0.0389 -0.3067
  664MPD2    C1 9876   2.530   4.626  17.527 -0.1201  0.2322  0.2268
  664MPD2    C2 9877   2.581   4.586  17.646  0.1591 -0.1844 -0.2768
  664MPD2    C3 9878   2.507   4.512  17.733  0.0799 -1.0203 -0.0906
  664MPD2    C4 9879   2.375   4.486  17.703 -0.2653  0.8043  0.0405
  664MPD2    C5 9880   2.334   4.515  17.571 -0.0059  0.0226  0.3267
  664MPD2     H 9881   2.680   4.623  17.669  0.5409  0.2492 -2.5379
  664MPD2    H1 9882   2.306   4.426   0.013 -0.5432  0.7691 -0.3206
  664MPD2    H2 9883   2.368   4.616  17.381 -0.5040 -0.0532 -0.3328
  664MPD2    H3 9884   2.240   4.469  17.542  0.4550 -0.3072 -0.6347
  664MPD2     N 9885   2.565   4.496   0.116  0.4297  0.1575 -0.6040
  664MPD2    H5 9886   2.661   4.524   0.131  0.0523  1.2471 -0.2262
  664MPD2    N1 9887   2.615   4.705  17.447 -0.5155  0.3850 -0.1461
  664MPD2    H7 9888   2.709   4.722  17.482  0.3151  0.6932 -2.4801
  665TMC3    C1 9889   2.546   4.481   0.354  0.2565 -0.0424 -1.1774
  665TMC3    C2 9890   2.553   4.392   0.459 -0.0097 -0.2212 -0.7610
  665TMC3    C3 9891   2.586   4.443   0.583  0.3347  0.3802 -0.1480
  665TMC3    C4 9892   2.554   4.621   0.370  0.1811 -0.5279 -0.8083
  665TMC3    C5 9893   2.572   4.661   0.500 -0.9108 -0.0086  0.5616
  665TMC3    C6 9894   2.589   4.574   0.610 -0.4324 -0.9164 -0.3513
  665TMC3     C 9895   2.498   4.440   0.224 -0.4689 -0.0883  0.4420
  665TMC3     O 9896   2.398   4.373   0.215  0.4292 -0.3942  0.5282
  665TMC3     H 9897   2.552   4.286   0.437  1.0340 -0.8375  2.2407
  665TMC3    H1 9898   2.524   4.692   0.294 -1.2453  0.1281  0.3732
  665TMC3    H2 9899   2.605   4.596   0.715 -0.9687 -1.4396 -0.1550
  665TMC3    C7 9900   2.529   0.060   0.522 -0.1861 -0.3409  0.2817
  665TMC3    C8 9901   2.578   4.356   0.702 -0.1685 -0.5239 -0.0416
  665TMC3    O1 9902   2.461   0.116   0.434 -0.1850  1.2963  0.3547
  665TMC3    O2 9903   2.647   4.388   0.798  0.2136 -0.1269 -0.3222
  666TMC3    C1 9904   1.793   0.875   9.692  0.5303 -0.1980  0.2939
  666TMC3    C2 9905   1.896   0.875   9.784 -0.2944  0.2948  0.1835
  666TMC3    C3 9906   1.908   0.978   9.872  0.1717 -0.5577 -0.0536
  666TMC3    C4 9907   1.694   0.969   9.709 -0.2005 -0.6631  0.8120
  666TMC3    C5 9908   1.703   1.065   9.808  0.1172  0.1769 -0.1139
  666TMC3    C6 9909   1.813   1.075   9.892 -0.4570  0.1231 -0.3846
  666TMC3     C 9910   1.743   0.752   9.628 -0.4684  0.5865  0.0897
  666TMC3     O 9911   1.650   0.753   9.552 -0.7580 -0.4779  0.2578
  666TMC3     H 9912   1.979   0.806   9.774 -1.0891 -0.6307  0.0384
  666TMC3    H1 9913   1.602   0.965   9.652  0.2658  2.1321 -0.1258
  666TMC3    H2 9914   1.817   1.157   9.962 -0.7000 -0.5568  0.4226
  666TMC3    C7 9915   1.585   1.055   9.896  0.9438 -0.5513  0.1475
  666TMC3    C8 9916   1.959   0.924   9.993 -0.5302  0.7803 -0.5945
  666TMC3    O1 9917   1.598   1.027  10.012  0.4874  0.2138  0.3292
  666TMC3    O2 9918   2.040   0.832   9.988  0.2581  0.8169 -0.0935
  667MPD2     C 9919   3.843   4.558  14.417  0.6004 -0.6493  0.1382
  667MPD2    C1 9920   3.795   4.557  14.547  0.2423  0.2177 -0.3324
  667MPD2    C2 9921   3.698   4.465  14.584  0.0479 -0.3011 -0.2560
  667MPD2    C3 9922   3.656   4.374  14.491  0.2533 -0.3699 -0.1623
  667MPD2    C4 9923   3.699   4.375  14.357  0.1756 -0.3815  0.4320
  667MPD2    C5 9924   3.794   4.468  14.326 -1.0313 -0.7453  0.9059
  667MPD2     H 9925   3.663   4.471  14.687 -0.9244 -2.9335 -0.4357
  667MPD2    H1 9926   3.655   4.305  14.288  1.7645  0.9891 -1.9588
  667MPD2    H2 9927   3.918   4.631  14.389  0.5954  0.1064  2.1406
  667MPD2    H3 9928   3.838   4.466  14.227  1.5285  1.1692  1.9947
  667MPD2     N 9929   3.551   4.293  14.531 -0.0340 -0.3411 -1.0923
  667MPD2    H5 9930   3.497   4.259  14.452 -1.5616 -1.2896  0.3592
  667MPD2    N1 9931   3.841   4.646  14.645  0.4698 -0.6077 -0.1106
  667MPD2    H7 9932   3.808   4.629  14.740  1.6429  1.1437  0.6043
  668TMC3    C1 9933   3.903   0.121  14.737 -0.0360  0.0765 -0.4102
  668TMC3    C2 9934   4.009   0.209  14.759  0.3100  0.3117  0.5715
  668TMC3    C3 9935   4.003   0.287  14.873 -0.0116  0.7193  0.3089
  668TMC3    C4 9936   3.802   0.094  14.826 -0.2532 -0.6398  0.4398
  668TMC3    C5 9937   3.801   0.178  14.936  0.6246 -0.1029 -0.2195
  668TMC3    C6 9938   3.905   0.259  14.968 -0.3361 -0.1600  0.5103
  668TMC3     C 9939   3.915   0.026  14.626  0.3888 -0.6773  0.3650
  668TMC3     O 9940   3.976   0.073  14.533  0.0539  0.1123 -0.2495
  668TMC3     H 9941   4.084   0.221  14.682  1.0162 -0.8713  1.0803
  668TMC3    H1 9942   3.723   0.021  14.816  1.4306 -2.2774 -0.8682
  668TMC3    H2 9943   3.902   0.309  15.064 -2.2980 -0.5189  0.6247
  668TMC3    C7 9944   3.725   0.137  15.047 -0.3894 -0.0657  0.9479
  668TMC3    C8 9945   4.082   0.399  14.900 -0.3770 -0.2717 -0.6795
  668TMC3    O1 9946   3.789   0.133  15.156  0.0810  0.1207  0.3711
  668TMC3    O2 9947   4.080   0.434  15.016 -0.0932  0.2356  0.0337
  669TMC3    C1 9948   1.838   4.383  15.055 -0.4909 -0.3843  0.4882
  669TMC3    C2 9949   1.724   4.404  14.984  0.2563 -0.4323 -0.0503
  669TMC3    C3 9950   1.727   4.477  14.868  0.3408 -0.4992  0.0289
  669TMC3    C4 9951   1.958   4.431  15.013  0.5042 -0.0777  0.4520
  669TMC3    C5 9952   1.960   4.508  14.897  0.6894 -0.1053 -0.2990
  669TMC3    C6 9953   1.846   4.531  14.829 -0.3235 -0.1230 -0.5402
  669TMC3     C 9954   1.826   4.317  15.180  0.1261 -0.5603  0.0842
  669TMC3     O 9955   1.717   4.323  15.228  0.1995 -0.0304 -0.2050
  669TMC3     H 9956   1.626   4.375  15.020 -0.5653  0.2067 -1.7371
  669TMC3    H1 9957   2.044   4.424  15.079 -0.0168  1.2977  1.2673
  669TMC3    H2 9958   1.851   4.602  14.748  2.9258 -2.4313 -2.3474
  669TMC3    C7 9959   2.077   4.584  14.860 -1.1917  0.5957 -0.8446
  669TMC3    C8 9960   1.606   4.503  14.788 -1.0153  0.5508 -0.3755
  669TMC3    O1 9961   2.067   4.675  14.776  0.7904 -0.1386 -0.6129
  669TMC3    O2 9962   1.494   4.490  14.846  0.3715  0.1243  0.4303
  670MPD2     C 9963   0.183   2.045  12.858  0.6880 -0.1970  0.4782
  670MPD2    C1 9964   0.284   2.098  12.937 -0.6056 -0.2787 -0.7682
  670MPD2    C2 9965   0.255   2.126  13.064  1.1225 -0.1231  0.3437
  670MPD2    C3 9966   0.142   2.089  13.123  0.2112 -0.3267 -0.1002
  670MPD2    C4 9967   0.048   2.021  13.052 -0.0170  0.2532  0.0193
  670MPD2    C5 9968   0.063   1.997  12.918 -0.3350  1.0893 -0.3362
  670MPD2     H 9969   0.337   2.170  13.120  0.8069  1.9508 -0.8148
  670MPD2    H1 9970   4.685   2.001  13.088  1.0109 -3.8211  0.5474
  670MPD2    H2 9971   0.198   2.041  12.751  0.5814  0.0571  0.4536
  670MPD2    H3 9972   4.726   1.952  12.854  1.6847 -0.2643 -1.7675
  670MPD2     N 9973   0.119   2.108  13.260 -0.7480  0.3149 -0.3021
  670MPD2    H5 9974   0.186   2.172  13.302  1.5673 -0.7747 -2.3182
  670MPD2    N1 9975   0.406   2.141  12.885  0.7319 -0.2322  0.3482
  670MPD2    H7 9976   0.467   2.204  12.936  0.9274 -0.8352  0.8507
  671TMC3    C1 9977   0.036   2.111  13.474 -1.0433 -0.2727 -0.9933
  671TMC3    C2 9978   0.165   2.128  13.524  0.2938  0.1684  0.0453
  671TMC3    C3 9979   0.175   2.134  13.657  0.3941  0.4858 -0.0878
  671TMC3    C4 9980   4.658   2.119  13.546 -0.0054 -0.5710  0.1415
  671TMC3    C5 9981   4.674   2.092  13.677  0.7429 -0.7912  0.4522
  671TMC3    C6 9982   0.062   2.117  13.733 -0.0953 -0.4563  0.1508
  671TMC3     C 9983   0.020   2.059  13.340 -0.1520 -0.4474 -0.1134
  671TMC3     O 9984   4.662   1.991  13.307  0.1963 -0.5203  0.0430
  671TMC3     H 9985   0.243   2.076  13.471  0.3778 -0.9544  1.2596
  671TMC3    H1 9986   4.561   2.109  13.500 -0.4837  1.2556  0.7434
  671TMC3    H2 9987   0.082   2.109  13.840  1.3774  1.5840  0.0100
  671TMC3    C7 9988   4.609   1.964  13.711  0.1592 -0.6342  0.0554
  671TMC3    C8 9989   0.286   2.071  13.712 -0.3587 -0.1657 -0.0575
  671TMC3    O1 9990   4.506   1.930  13.651  0.5342  0.1917  0.0685
  671TMC3    O2 9991   0.259   1.965  13.775  0.1005  0.2092 -0.1526
  672MPD2     C 9992   0.190   2.457   1.076  0.9909 -0.1235 -0.4464
  672MPD2    C1 9993   0.258   2.522   0.972 -0.0135 -0.4222  0.2665
  672MPD2    C2 9994   0.350   2.620   1.004 -0.4195 -0.1033 -0.4254
  672MPD2    C3 9995   0.377   2.645   1.133 -0.0952 -0.4491  0.0640
  672MPD2    C4 9996   0.314   2.580   1.239 -0.3748  0.5021  0.0726
  672MPD2    C5 9997   0.226   2.477   1.206 -0.4291 -0.3915  0.5118
  672MPD2     H 9998   0.397   2.669   0.920  0.4396  2.6838  1.6687
  672MPD2    H1 9999   0.334   2.605   1.342 -3.4903  0.0152  0.7960
  672MPD2    H210000   0.135   2.368   1.048 -0.6146  0.7409 -0.0744
  672MPD2    H310001   0.176   2.425   1.287  0.1289  1.1596  1.8320
  672MPD2     N10002   0.469   2.745   1.156 -0.0752 -0.0841  1.0849
  672MPD2    H510003   0.501   2.796   1.074  0.6277  0.4438  1.6873
  672MPD2    N110004   0.246   2.488   0.836  0.5279  0.3920  0.2668
  672MPD2    H710005   0.323   2.510   0.773 -0.5887  1.9307 -0.5495
  673TMC3    C110006   0.152   2.394   0.643 -0.2624 -0.2502 -0.0385
  673TMC3    C210007   0.269   2.354   0.586  0.4774  0.3138 -0.1051
  673TMC3    C310008   0.262   2.334   0.451 -0.1765  0.2008  0.9953
  673TMC3    C410009   0.037   2.435   0.577 -0.0515 -0.4169 -0.0425
  673TMC3    C510010   0.043   2.414   0.444  0.4464 -0.3100 -0.0143
  673TMC3    C610011   0.149   2.359   0.379 -0.5863 -0.4076 -0.6454
  673TMC3     C10012   0.140   2.423   0.785  0.3488 -0.9409 -0.1889
  673TMC3     O10013   0.037   2.384   0.839  0.0778 -0.2936 -0.1300
  673TMC3     H10014   0.339   2.299   0.647 -1.1672 -3.6306 -1.7456
  673TMC3    H110015   4.690   2.476   0.632  0.5832  0.9821 -0.1166
  673TMC3    H210016   0.149   2.351   0.271  0.9479  1.1331 -0.7716
  673TMC3    C710017   4.676   2.478   0.360 -0.3009 -0.2376 -0.5213
  673TMC3    C810018   0.378   2.276   0.387  0.2535 -0.5988 -0.2266
  673TMC3    O110019   4.619   2.410   0.276  0.0986 -0.4967  0.0841
  673TMC3    O210020   0.350   2.198   0.293  0.1614 -0.1324 -0.3728
  674MPD2     C10021   4.224   3.052  17.630 -0.3149  1.0498  0.4332
  674MPD2    C110022   4.229   2.914  17.657  0.1232 -0.0708  0.4495
  674MPD2    C210023   4.114   2.855  17.711  0.5434  0.0990 -0.3769
  674MPD2    C310024   3.995   2.932  17.742  0.1622  0.0266 -0.6763
  674MPD2    C410025   3.992   3.058  17.701  0.2745  0.4346  0.2361
  674MPD2    C510026   4.102   3.114  17.636 -0.0130 -0.2877 -0.0075
  674MPD2     H10027   4.117   2.752  17.745 -1.1188 -0.9113 -3.2860
  674MPD2    H110028   3.898   3.111  17.696  0.4546  1.0788  3.4610
  674MPD2    H210029   4.308   3.102  17.583 -0.7558  1.2393 -0.1476
  674MPD2    H310030   4.088   3.210  17.588 -1.0348  0.8472  2.5362
  674MPD2     N10031   3.899   2.857   0.064 -0.0782 -0.1795  0.1093
  674MPD2    H510032   3.920   2.761   0.091 -0.5184 -0.0464  0.9128
  674MPD2    N110033   4.354   2.846  17.636 -0.2888  0.0774 -0.2094
  674MPD2    H710034   4.430   2.906  17.608  0.5807 -0.5859  0.7427
  675TMC3    C110035   4.497   2.657  17.627 -0.0631  0.1890 -0.5095
  675TMC3    C210036   4.499   2.521  17.600 -0.0046  0.1185 -0.8935
  675TMC3    C310037   4.597   2.456  17.665  0.1666  0.1257  0.2859
  675TMC3    C410038   4.592   2.730  17.684 -0.5326 -0.0628 -0.1238
  675TMC3    C510039   4.701   2.655  17.726  1.3069 -0.2986 -0.4003
  675TMC3    C610040   4.702   2.518  17.725  0.4145  0.8178  0.0120
  675TMC3     C10041   4.363   2.707  17.634  0.5627  0.2273 -0.2643
  675TMC3     O10042   4.276   2.620  17.657  0.1581 -0.2362  0.0295
  675TMC3     H10043   4.412   2.472  17.558  0.3479  0.6155 -2.2224
  675TMC3    H110044   4.578   2.835  17.708  2.5232  0.2597  0.2369
  675TMC3    H210045   0.047   2.461   0.016 -0.2821 -1.8200 -2.2759
  675TMC3    C710046   0.066   2.719   0.048  0.6398  0.2649 -0.7767
  675TMC3    C810047   4.584   2.308  17.670 -0.2387  0.0400 -0.5795
  675TMC3    O110048   0.140   2.647   0.119  0.7942 -0.1089  0.6827
  675TMC3    O210049   4.542   2.261  17.565 -0.5668  0.4100 -0.0374
  676MPD2     C10050   2.413   1.721  11.513  0.8451  0.5535  0.5177
  676MPD2    C110051   2.390   1.648  11.626  0.0629  0.3431 -0.1485
  676MPD2    C210052   2.411   1.515  11.628  0.0064  0.3376  0.2818
  676MPD2    C310053   2.487   1.455  11.531 -0.0009  0.2414  0.4692
  676MPD2    C410054   2.513   1.522  11.410 -0.1499 -0.0119  0.2920
  676MPD2    C510055   2.455   1.650  11.404 -0.2129 -0.0078 -0.9312
  676MPD2     H10056   2.398   1.464  11.723  2.4695  1.5765  1.2866
  676MPD2    H110057   2.549   1.468  11.323  0.0866  0.1098  0.3162
  676MPD2    H210058   2.363   1.816  11.502 -0.6890 -0.3210 -0.0064
  676MPD2    H310059   2.462   1.700  11.308 -1.0227  0.4543 -0.7551
  676MPD2     N10060   2.537   1.327  11.545  0.4710 -0.0749  0.1192
  676MPD2    H510061   2.565   1.281  11.459  0.2301  0.9635 -0.5199
  676MPD2    N110062   2.311   1.693  11.736  0.0473  0.0073  0.3650
  676MPD2    H710063   2.282   1.627  11.806  4.5942 -1.8809  0.4432
  677TMC3    C110064   2.226   1.831  11.902  0.4352  1.0458 -0.7445
  677TMC3    C210065   2.284   1.752  12.000  0.0822  0.1531 -0.1251
  677TMC3    C310066   2.282   1.799  12.132  0.0674 -0.0637 -0.0400
  677TMC3    C410067   2.158   1.946  11.933 -0.1780 -0.6151 -0.3516
  677TMC3    C510068   2.175   1.998  12.066  0.3938 -0.1861  0.0674
  677TMC3    C610069   2.236   1.926  12.167  0.2483  0.5932  0.5048
  677TMC3     C10070   2.276   1.819  11.766  0.0329 -0.1065 -0.0992
  677TMC3     O10071   2.301   1.926  11.710 -0.3197 -0.2637  0.3869
  677TMC3     H10072   2.345   1.666  11.974  0.5319  0.4543 -0.0701
  677TMC3    H110073   2.096   1.997  11.860 -0.3516 -1.0089 -0.4804
  677TMC3    H210074   2.252   1.976  12.262 -0.7630  2.7668 -0.4648
  677TMC3    C710075   2.215   2.135  12.064  0.0626 -0.3954 -0.0409
  677TMC3    C810076   2.372   1.738  12.215 -0.2379 -0.5393  0.1943
  677TMC3    O110077   2.255   2.181  12.167  0.5608 -0.0835  0.2348
  677TMC3    O210078   2.418   1.806  12.309  0.0292  0.4249 -0.7188
  678MPD2     C10079   3.858   0.980   1.373  0.1908  0.2856 -0.3789
  678MPD2    C110080   3.800   0.907   1.271  0.0329 -0.1875 -0.3399
  678MPD2    C210081   3.667   0.873   1.288 -0.0539  0.2430  0.1901
  678MPD2    C310082   3.591   0.911   1.401 -0.5072  0.2856 -0.5231
  678MPD2    C410083   3.657   0.976   1.500  0.2756  0.6236  0.3830
  678MPD2    C510084   3.785   1.012   1.482  0.0962 -0.0352  0.3999
  678MPD2     H10085   3.613   0.807   1.221 -0.3611  1.1186 -0.4146
  678MPD2    H110086   3.612   1.007   1.594 -0.9083 -0.4093  0.1578
  678MPD2    H210087   3.961   1.013   1.384  0.3605 -0.5952  0.5505
  678MPD2    H310088   3.829   1.070   1.562  1.0795 -2.8431  1.8910
  678MPD2     N10089   3.449   0.898   1.408  0.3886 -0.0840  0.1714
  678MPD2    H510090   3.411   0.876   1.317 -0.5275  1.9074  0.0833
  678MPD2    N110091   3.862   0.862   1.152 -0.2039 -0.7938 -0.7321
  678MPD2    H710092   3.809   0.803   1.089  0.1278 -1.7566 -0.1078
  679TMC3    C110093   4.061   0.602   0.900  0.4223  0.4944 -0.5223
  679TMC3    C210094   4.016   0.671   1.007 -0.1844 -0.2136  0.3714
  679TMC3    C310095   4.028   0.807   1.001  0.7163  0.0663 -0.6854
  679TMC3    C410096   4.111   0.665   0.789  0.7795 -0.1311  0.3438
  679TMC3    C510097   4.123   0.803   0.792  0.1229 -0.2101  1.1809
  679TMC3    C610098   4.075   0.877   0.894 -0.2801  0.1589 -0.2474
  679TMC3     C10099   4.120   0.466   0.929  0.4260 -0.6204  0.0297
  679TMC3     O10100   4.226   0.438   0.870  0.3667  0.3490 -0.1947
  679TMC3     H10101   3.993   0.624   1.102 -0.4073 -0.1247  0.3602
  679TMC3    H110102   4.145   0.605   0.706 -0.1396 -0.5656  0.2834
  679TMC3    H210103   4.085   0.985   0.896 -3.0732  0.3929  2.2110
  679TMC3    C710104   4.151   0.871   0.664 -0.1579  0.2671  0.4338
  679TMC3    C810105   3.995   0.888   1.121 -1.0055  0.1388 -0.2669
  679TMC3    O110106   4.126   0.991   0.657  0.0932 -0.2088  0.1935
  679TMC3    O210107   4.082   0.950   1.181  0.3895  0.2530  0.1257
  680MPD2     C10108   4.316   4.222  13.835 -0.3506  0.1796  0.2262
  680MPD2    C110109   4.441   4.198  13.891 -0.3959 -0.0144  0.8668
  680MPD2    C210110   4.521   4.302  13.918  0.2282 -0.4124  0.0554
  680MPD2    C310111   4.489   4.431  13.882 -0.2630 -0.0424  0.2957
  680MPD2    C410112   4.377   4.453  13.805  0.2455  0.4199 -0.4830
  680MPD2    C510113   4.286   4.349  13.787  0.2309 -0.0392  0.4434
  680MPD2     H10114   4.607   4.280  13.980 -0.4063  2.1075  1.8370
  680MPD2    H110115   4.355   4.549  13.759 -0.0441  0.6891  0.2254
  680MPD2    H210116   4.245   4.142  13.818 -1.3645  1.5321 -1.9528
  680MPD2    H310117   4.192   4.371  13.738  0.7506 -0.9773 -0.9753
  680MPD2     N10118   4.562   4.540  13.931 -0.4109 -0.8650  0.7419
  680MPD2    H510119   4.526   4.631  13.903 -1.9447 -1.7839 -0.2616
  680MPD2    N110120   4.483   4.075  13.946 -0.0126 -0.3728  0.5217
  680MPD2    H710121   4.575   4.066  13.988  0.8583  1.3236 -1.0345
  681TMC3    C110122   4.461   3.861  14.017 -0.0505  0.0311 -0.2939
  681TMC3    C210123   4.402   3.861  14.144  0.9113  0.7279  0.0793
  681TMC3    C310124   4.486   3.828  14.250  0.2125 -1.0640 -0.7669
  681TMC3    C410125   4.598   3.853  13.999 -0.3591  0.7367 -0.7889
  681TMC3    C510126   4.670   3.805  14.110  0.5820  0.0146  0.4389
  681TMC3    C610127   4.619   3.795  14.236  0.1372  0.5584  0.5420
  681TMC3     C10128   4.403   3.962  13.937  1.1140 -0.5165 -0.2326
  681TMC3     O10129   4.285   3.954  13.922 -0.1205  0.0900 -0.2354
  681TMC3     H10130   4.298   3.893  14.151  0.9514  0.3190  2.7609
  681TMC3    H110131   4.638   3.850  13.898 -0.2306  1.0409 -0.7489
  681TMC3    H210132   4.688   3.764  14.314  0.6691 -1.6940 -0.8202
  681TMC3    C710133   0.071   3.765  14.095  0.1466 -0.3023  0.6450
  681TMC3    C810134   4.463   3.903  14.368  0.8112  0.5098 -0.5589
  681TMC3    O110135   0.117   3.683  14.175 -0.1403  0.1521 -0.0052
  681TMC3    O210136   4.344   3.923  14.395 -0.2939  0.0634 -0.0053
  682MPD2     C10137   0.673   0.705  10.880 -0.0433  0.1119  0.0000
  682MPD2    C110138   0.807   0.725  10.885  0.7883 -0.2985 -0.5172
  682MPD2    C210139   0.880   0.676  10.999 -0.7056  0.3420  0.3240
  682MPD2    C310140   0.821   0.594  11.093  0.0275 -0.1487  0.3445
  682MPD2    C410141   0.687   0.571  11.080  0.0394 -0.1285 -0.7871
  682MPD2    C510142   0.624   0.622  10.975 -0.2282  0.0423  0.1338
  682MPD2     H10143   0.985   0.693  11.017 -0.3981 -1.1310 -0.0740
  682MPD2    H110144   0.629   0.517  11.154 -1.2335 -0.0269 -1.7083
  682MPD2    H210145   0.607   0.756  10.812 -0.0411  0.6601  0.4073
  682MPD2    H310146   0.518   0.600  10.974 -0.2398  0.2361 -1.9826
  682MPD2     N10147   0.889   0.534  11.204  0.3541 -0.3940  0.3184
  682MPD2    H510148   0.833   0.497  11.280 -0.0759 -3.5746 -1.5540
  682MPD2    N110149   0.888   0.794  10.794 -0.2631 -0.2990 -0.8219
  682MPD2    H710150   0.988   0.778  10.804 -0.1439  1.3800  0.6784
  683TMC3    C110151   1.072   0.512  11.587 -0.2629  0.1905 -0.5375
  683TMC3    C210152   1.182   0.433  11.599  0.0688 -0.6604 -0.5297
  683TMC3    C310153   1.249   0.404  11.486  0.1839 -0.1653 -0.2358
  683TMC3    C410154   1.014   0.548  11.467 -0.2710 -0.0202 -0.3655
  683TMC3    C510155   1.078   0.495  11.355 -0.2655 -0.0913  0.5198
  683TMC3    C610156   1.200   0.431  11.359 -0.3303 -0.1489 -0.1783
  683TMC3     C10157   1.043   0.598  11.699  0.5384 -0.2261 -0.5188
  683TMC3     O10158   1.009   0.711  11.664  0.7537 -0.8186 -0.2356
  683TMC3     H10159   1.226   0.426  11.698  0.2060 -3.2817 -0.7850
  683TMC3    H110160   0.932   0.619  11.459 -1.1964 -1.0577 -0.1121
  683TMC3    H210161   1.244   0.400  11.266  1.1526 -0.9968  0.8086
  683TMC3    C710162   1.028   0.533  11.216 -0.0064 -0.2368  0.1902
  683TMC3    C810163   1.389   0.374  11.503 -0.3937 -0.3032  0.4744
  683TMC3    O110164   1.119   0.562  11.137  1.2320  0.0171  0.0834
  683TMC3    O210165   1.433   0.393  11.616  0.2168 -0.4371 -0.1411
  684MPD2     C10166   0.195   4.548  16.152  1.1709  0.3700 -0.0224
  684MPD2    C110167   0.210   4.639  16.054  0.6953 -0.6887 -0.3344
  684MPD2    C210168   0.183   0.036  16.071  0.7202  0.8768 -0.1519
  684MPD2    C310169   0.155   0.080  16.199 -0.4467  0.5068 -0.9862
  684MPD2    C410170   0.134   4.724  16.299  1.5688  0.2026  1.0358
  684MPD2    C510171   0.147   4.593  16.273 -0.5497  0.3784  0.2327
  684MPD2     H10172   0.204   0.107  15.992  0.5497  0.7695 -0.2931
  684MPD2    H110173   0.106   0.019  16.398 -2.0053  0.8395 -0.1843
  684MPD2    H210174   0.204   4.441  16.134  0.0379 -0.1341  2.3381
  684MPD2    H310175   0.133   4.522  16.354  0.9139 -0.0887  0.0725
  684MPD2     N10176   0.151   0.218  16.237 -0.1181  0.3470  0.4278
  684MPD2    H510177   0.147   0.228  16.338 -0.4299  1.0098  0.3494
  684MPD2    N110178   0.266   4.600  15.928  0.1364  0.2532 -0.2641
  684MPD2    H710179   0.286   4.678  15.867 -0.2306  1.7024  1.4898
  685TMC3    C110180   0.409   4.492  15.785 -0.3099 -0.3859 -0.0438
  685TMC3    C210181   0.366   4.565  15.680  0.3291  0.9532  0.7826
  685TMC3    C310182   0.421   4.686  15.657  0.1895 -0.0604 -0.0380
  685TMC3    C410183   0.527   4.521  15.850 -0.1221  0.1915  0.1147
  685TMC3    C510184   0.581   4.646  15.834  0.7538  0.8495  0.6634
  685TMC3    C610185   0.527   4.731  15.737 -0.6381  0.0596 -0.1971
  685TMC3     C10186   0.310   4.472  15.888 -0.8479 -0.7366 -0.5963
  685TMC3     O10187   0.298   4.361  15.939 -0.1182  0.2432  0.5397
  685TMC3     H10188   0.281   4.532  15.623  1.5213  0.0449 -0.4720
  685TMC3    H110189   0.548   4.463  15.939  0.3825 -1.6554 -1.2014
  685TMC3    H210190   0.559   0.096  15.722  0.4940 -0.2043  0.4284
  685TMC3    C710191   0.666   4.694  15.942 -0.3723  0.2426 -0.4333
  685TMC3    C810192   0.311   0.051  15.667 -0.2633 -0.2472  0.3682
  685TMC3    O110193   0.666   4.619  16.042 -0.3322 -0.0531 -0.8077
  685TMC3    O210194   0.297   0.095  15.781 -0.5411  0.0521  0.1421
  686MPD2     C10195   1.758   0.410  15.582  0.2609  0.0062 -0.1436
  686MPD2    C110196   1.796   0.317  15.677 -0.8446  0.4819  0.1467
  686MPD2    C210197   1.873   0.205  15.645  0.7206  0.5967  0.0748
  686MPD2    C310198   1.898   0.171  15.511  0.5517  0.1983 -0.2226
  686MPD2    C410199   1.847   0.256  15.419  0.1653 -1.4155  0.4598
  686MPD2    C510200   1.783   0.369  15.451  0.4801  0.3772  0.2411
  686MPD2     H10201   1.919   0.135  15.714 -1.8174 -1.0307  0.1260
  686MPD2    H110202   1.859   0.242  15.313 -2.5840  3.4883 -0.4854
  686MPD2    H210203   1.708   0.503  15.606  0.3386 -0.1152  0.4836
  686MPD2    H310204   1.756   0.438  15.371 -1.7873 -0.9604 -0.1478
  686MPD2     N10205   1.963   0.048  15.478  0.2636 -0.1626  0.3715
  686MPD2    H510206   1.993   0.044  15.381 -1.9366 -2.5299 -0.2263
  686MPD2    N110207   1.745   0.331  15.801 -0.7797 -0.0729 -0.2928
  686MPD2    H710208   1.676   0.402  15.823  0.8354  0.8425  1.8391
  687TMC3    C110209   1.898   4.646  15.662 -1.2665 -0.3835 -0.4931
  687TMC3    C210210   1.761   4.648  15.643  0.1827 -0.5929 -0.4147
  687TMC3    C310211   1.683   4.622  15.750  0.0072  0.5530 -0.7583
  687TMC3    C410212   1.963   4.586  15.769  0.1653  0.3211 -0.4933
  687TMC3    C510213   1.878   4.545  15.872  0.0267 -0.2728 -0.1182
  687TMC3    C610214   1.739   4.575  15.867  0.0893  0.1861  0.0720
  687TMC3     C10215   1.995   4.673  15.555 -0.0458  0.1999 -0.4081
  687TMC3     O10216   2.068   4.576  15.525 -0.3701  0.4376 -0.1976
  687TMC3     H10217   1.718   4.687  15.551 -0.2210  0.8252  0.3792
  687TMC3    H110218   2.071   4.588  15.772  0.1583  0.3517 -0.2207
  687TMC3    H210219   1.668   4.541  15.942 -0.1116  1.0140  0.2527
  687TMC3    C710220   1.918   4.460  15.986  0.1146  0.3211  0.3925
  687TMC3    C810221   1.559   4.690  15.762 -0.9002  0.1129 -0.4286
  687TMC3    O110222   1.839   4.457  16.079  0.0524 -0.6032  0.6719
  687TMC3    O210223   1.490   4.647  15.852  0.3271 -0.3975  0.4233
  688MPD2     C10224   0.641   3.843  17.247 -0.5569  0.2093  0.4252
  688MPD2    C110225   0.661   3.711  17.286 -0.0938  0.2683  0.3341
  688MPD2    C210226   0.765   3.644  17.223 -0.4831 -0.2473  0.5033
  688MPD2    C310227   0.847   3.710  17.133  0.0632 -0.2239  0.1357
  688MPD2    C410228   0.842   3.849  17.119 -0.2625 -0.4983 -0.0552
  688MPD2    C510229   0.732   3.910  17.173  0.6489  0.1502 -0.1101
  688MPD2     H10230   0.769   3.537  17.238 -0.8201 -0.7015 -2.7958
  688MPD2    H110231   0.897   3.912  17.050  2.6083 -1.8568  0.9753
  688MPD2    H210232   0.552   3.901  17.268 -1.7048 -2.1318  1.8868
  688MPD2    H310233   0.726   4.018  17.158  0.6082  0.2732  0.7402
  688MPD2     N10234   0.941   3.648  17.047  0.6600 -0.4764 -0.2949
  688MPD2    H510235   0.993   3.715  16.991  1.9064 -1.0241  0.2226
  688MPD2    N110236   0.578   3.641  17.380  0.7589  0.2669  0.2563
  688MPD2    H710237   0.593   3.541  17.385 -1.2491  0.0660  2.2810
  689TMC3    C110238   0.451   3.625  17.581  0.3926  0.6301  0.6556
  689TMC3    C210239   0.365   3.689  17.668  0.5124 -0.1689  0.6466
  689TMC3    C310240   0.374   3.642   0.049  0.2823 -0.6080  0.7006
  689TMC3    C410241   0.551   3.535  17.617 -0.5697 -0.4336 -0.1055
  689TMC3    C510242   0.547   3.491  17.745 -0.5526 -0.2187 -0.1927
  689TMC3    C610243   0.457   3.540   0.085 -0.1704 -0.7831 -0.1430
  689TMC3     C10244   0.476   3.696  17.458 -0.2758 -0.1834 -0.2608
  689TMC3     O10245   0.431   3.810  17.447 -0.2663 -0.1369  0.1858
  689TMC3     H10246   0.283   3.755  17.638 -0.7443 -1.9720  0.0945
  689TMC3    H110247   0.639   3.498  17.565 -0.0848  1.1510 -0.4381
  689TMC3    H210248   0.463   3.499   0.185 -1.5391 -1.4055 -0.3247
  689TMC3    C710249   0.590   3.354   0.022  0.1479  0.2748  0.9401
  689TMC3    C810250   0.270   3.656   0.145 -0.4305 -0.0263 -0.2095
  689TMC3    O110251   0.612   3.324   0.140  0.0810  0.6759 -0.2012
  689TMC3    O210252   0.265   3.578   0.241  0.4194  0.3429 -0.5568
  690MPD2     C10253   3.656   0.920  15.760 -0.3995 -0.3265  0.5213
  690MPD2    C110254   3.542   0.939  15.694 -0.0650 -0.0780 -0.1880
  690MPD2    C210255   3.553   0.995  15.564 -0.0739 -0.2603  0.2363
  690MPD2    C310256   3.676   1.001  15.503 -0.1999 -0.3936  0.9515
  690MPD2    C410257   3.791   0.981  15.575 -0.1319 -0.2727 -0.0529
  690MPD2    C510258   3.779   0.960  15.707  0.0712  0.4498 -0.3578
  690MPD2     H10259   3.458   1.013  15.516  0.9997  1.9860 -1.0376
  690MPD2    H110260   3.895   0.979  15.543 -1.3124 -0.7640 -3.7974
  690MPD2    H210261   3.654   0.894  15.865 -1.8673 -1.5560  0.1802
  690MPD2    H310262   3.874   0.950  15.760  1.0684 -0.5982 -2.3464
  690MPD2     N10263   3.678   1.016  15.361  0.8733  0.3175 -0.3266
  690MPD2    H510264   3.590   1.038  15.314  1.0039  2.6039  0.4907
  690MPD2    N110265   3.413   0.908  15.733 -0.3347  0.2387 -0.1213
  690MPD2    H710266   3.333   0.938  15.679 -1.1605 -4.6220 -1.5703
  691TMC3    C110267   3.233   0.813  15.861  0.9933  0.8636  0.5145
  691TMC3    C210268   3.146   0.826  15.755  1.3059  0.5336 -0.5006
  691TMC3    C310269   3.024   0.763  15.762  0.0213  0.7117 -0.1129
  691TMC3    C410270   3.197   0.741  15.974 -0.9020  0.6871  0.2372
  691TMC3    C510271   3.072   0.684  15.975 -0.7686  0.1987  0.4547
  691TMC3    C610272   2.984   0.694  15.870  0.5386 -0.2464 -0.0682
  691TMC3     C10273   3.377   0.845  15.849  0.2784 -0.2282 -0.2219
  691TMC3     O10274   3.447   0.783  15.928 -0.3254  1.0042 -0.2130
  691TMC3     H10275   3.178   0.862  15.658  1.6567  2.1486  0.2033
  691TMC3    H110276   3.271   0.726  16.052 -0.4506 -0.0512 -0.3347
  691TMC3    H210277   2.884   0.653  15.873  0.3491  0.0582 -2.6807
  691TMC3    C710278   3.032   0.629  16.110  0.3486 -0.1471  0.5087
  691TMC3    C810279   2.945   0.766  15.642 -0.4808 -0.2342  0.1111
  691TMC3    O110280   3.110   0.652  16.204  0.0519  0.1028 -0.4802
  691TMC3    O210281   3.003   0.781  15.536  0.0038  0.2044  0.2021
  692TMC3    C110282   4.422   1.646  15.767  0.1014 -0.8677 -0.3099
  692TMC3    C210283   4.540   1.701  15.797 -0.2765 -0.3168  0.0227
  692TMC3    C310284   4.642   1.615  15.823 -0.5712  0.5793 -0.2111
  692TMC3    C410285   4.404   1.509  15.756  0.5246 -0.0257  0.3934
  692TMC3    C510286   4.503   1.419  15.787 -0.1233  0.7532  0.2232
  692TMC3    C610287   4.617   1.478  15.840 -0.4223 -0.1474  0.3442
  692TMC3     C10288   4.309   1.733  15.740  0.0456  0.1829 -0.8716
  692TMC3     O10289   4.198   1.696  15.771  0.5954  0.0493  0.5027
  692TMC3     H10290   4.530   1.799  15.843 -0.5843 -0.8261  1.0305
  692TMC3    H110291   4.319   1.464  15.706  0.7443 -0.7130  0.6317
  692TMC3    H210292   4.704   1.415  15.858 -0.5578 -0.1658  0.9617
  692TMC3    C710293   4.491   1.278  15.751 -0.8279  0.7327 -0.2499
  692TMC3    C810294   0.011   1.667  15.911  0.6042  1.3363 -0.5307
  692TMC3    O110295   4.391   1.243  15.688 -0.0621  0.0098  0.0728
  692TMC3    O210296   0.061   1.590  15.992  0.0871 -0.3582  0.6729
  693MPD2     C10297   3.871   4.535  10.484 -1.0609 -0.8393 -0.2396
  693MPD2    C110298   3.855   4.624  10.582 -0.4217 -0.4778  0.9164
  693MPD2    C210299   3.923   4.607  10.704  0.7049  0.1376  0.3017
  693MPD2    C310300   4.003   4.497  10.729 -0.1759  0.0249  0.0897
  693MPD2    C410301   4.020   4.410  10.623 -0.4003  0.4680  0.5971
  693MPD2    C510302   3.963   4.438  10.498  0.3455  0.2087 -0.5522
  693MPD2     H10303   3.907   4.674  10.788 -3.0012 -1.2846  0.7130
  693MPD2    H110304   4.075   4.321  10.649 -1.5592 -0.0149  1.4220
  693MPD2    H210305   3.821   4.557  10.391 -0.3332  0.0369 -0.4165
  693MPD2    H310306   3.986   4.367  10.420  0.6031  0.5899 -0.8260
  693MPD2     N10307   4.077   4.480  10.847 -0.6896 -0.1545 -0.2028
  693MPD2    H510308   4.152   4.412  10.843  0.1312  0.7656 -0.3528
  693MPD2    N110309   3.775   0.000  10.552  0.3027  0.5975 -0.4841
  693MPD2    H710310   3.708   0.003  10.475 -2.4917  0.7748  1.9637
  694TMC3    C110311   3.636   0.188  10.606  0.1207  0.3694  0.6156
  694TMC3    C210312   3.513   0.133  10.574 -0.7217 -0.2137 -0.1961
  694TMC3    C310313   3.398   0.210  10.592 -0.4784 -0.1632  0.6718
  694TMC3    C410314   3.647   0.313  10.664  0.2978  0.4205 -0.1925
  694TMC3    C510315   3.531   0.383  10.683  0.2665 -0.6896 -0.0437
  694TMC3    C610316   3.404   0.337  10.639 -0.3956 -0.0834 -0.4784
  694TMC3     C10317   3.748   0.102  10.642 -0.0756 -0.5763 -0.3900
  694TMC3     O10318   3.817   0.143  10.734  0.1003 -0.4652  0.9477
  694TMC3     H10319   3.497   0.026  10.568 -0.0929 -0.2496 -1.2541
  694TMC3    H110320   3.734   0.360  10.708 -0.2040  0.4192  0.7995
  694TMC3    H210321   3.316   0.399  10.646 -0.9360 -0.6776 -1.8928
  694TMC3    C710322   3.534   0.482  10.793  0.4659 -0.0649  0.4218
  694TMC3    C810323   3.264   0.167  10.550  0.7663 -0.0131  0.6151
  694TMC3    O110324   3.625   0.563  10.801  0.2814  0.4748  0.0069
  694TMC3    O210325   3.173   0.204  10.617  0.2479 -0.0951  0.1263
  695MPD2     C10326   0.209   0.954  13.785 -0.2856 -0.1797 -0.9376
  695MPD2    C110327   0.201   1.091  13.772  0.7550  0.2750  0.0703
  695MPD2    C210328   0.084   1.136  13.718 -0.0703 -0.8280 -0.0326
  695MPD2    C310329   4.717   1.057  13.679 -0.4472  0.1179  0.2830
  695MPD2    C410330   4.730   0.918  13.686  0.7847 -0.0876  0.0080
  695MPD2    C510331   0.111   0.867  13.741  0.1544  0.1683  0.0536
  695MPD2     H10332   0.065   1.243  13.713 -0.3285 -0.8645  0.1296
  695MPD2    H110333   4.655   0.848  13.652 -0.5218  0.4945  1.6741
  695MPD2    H210334   0.291   0.906  13.838 -1.3570  0.9527  1.7610
  695MPD2    H310335   0.122   0.759  13.751 -0.9037  0.1340  0.8549
  695MPD2     N10336   4.609   1.121  13.612 -0.0185 -0.0880 -0.5260
  695MPD2    H510337   4.605   1.222  13.611 -1.0767 -0.0962  1.6872
  695MPD2    N110338   0.302   1.185  13.815  0.3139 -0.0078 -0.9518
  695MPD2    H710339   0.271   1.281  13.802 -2.9665 -0.9635 -0.0918
  696TMC3    C110340   4.430   1.163  13.494  0.0342 -0.2737  0.0361
  696TMC3    C210341   4.414   1.249  13.593 -0.8704  0.4719 -0.4598
  696TMC3    C310342   4.369   1.375  13.557  0.4829 -0.3286  0.7964
  696TMC3    C410343   4.412   1.191  13.368 -0.3561  0.1090  0.0678
  696TMC3    C510344   4.357   1.310  13.333  0.0555 -0.0753  0.3292
  696TMC3    C610345   4.330   1.404  13.429  0.5467  0.2896 -0.5422
  696TMC3     C10346   4.513   1.059  13.540  0.5204 -0.0753 -0.5506
  696TMC3     O10347   4.494   0.941  13.507 -0.0375 -0.7051  0.2638
  696TMC3     H10348   4.418   1.220  13.697 -1.1600  2.8904  0.2243
  696TMC3    H110349   4.433   1.117  13.292  1.8498 -0.6604  1.4526
  696TMC3    H210350   4.285   1.500  13.404 -0.6813 -0.3229 -0.7162
  696TMC3    C710351   4.409   1.351  13.206 -0.6910 -0.5341  0.1010
  696TMC3    C810352   4.406   1.486  13.635 -0.7689 -0.1090 -0.3564
  696TMC3    O110353   4.463   1.272  13.131 -0.2479  0.4673 -0.5235
  696TMC3    O210354   4.379   1.593  13.584 -0.0281  0.0900 -0.0285
  697MPD2     C10355   4.357   3.327  15.679 -0.5166  0.0284  0.0980
  697MPD2    C110356   4.357   3.292  15.545  0.1191 -0.1228  0.3106
  697MPD2    C210357   4.400   3.385  15.455 -0.7664 -0.2846 -0.3631
  697MPD2    C310358   4.445   3.510  15.494  0.2452 -0.1553  0.0101
  697MPD2    C410359   4.450   3.542  15.628  0.0021 -0.1993  0.2811
  697MPD2    C510360   4.402   3.456  15.717 -0.3329  0.5523 -0.7520
  697MPD2     H10361   4.390   3.369  15.348 -0.1674  0.9383 -0.6112
  697MPD2    H110362   4.488   3.631  15.677 -2.2890  0.4413  0.8879
  697MPD2    H210363   4.307   3.265  15.752 -2.6660 -0.7813 -2.0500
  697MPD2    H310364   4.394   3.475  15.823  2.4430 -1.9394 -0.1234
  697MPD2     N10365   4.485   3.602  15.391  0.1843  0.8097 -0.9368
  697MPD2    H510366   4.461   3.575  15.296 -1.0607  1.5081 -0.8277
  697MPD2    N110367   4.296   3.173  15.496 -0.1836  0.1761  0.1845
  697MPD2    H710368   4.272   3.164  15.398  2.1481 -0.2472 -0.3452
  698TMC3    C110369   4.549   3.799  15.279  0.3207 -0.4284 -0.2023
  698TMC3    C210370   4.477   3.919  15.267  0.7592 -0.5158 -1.0646
  698TMC3    C310371   4.423   3.943  15.141 -0.4652 -0.3813  0.0888
  698TMC3    C410372   4.560   3.710  15.171  0.2302  0.6805 -1.3785
  698TMC3    C510373   4.506   3.739  15.049  0.1195 -0.2290  0.5672
  698TMC3    C610374   4.425   3.850  15.037 -0.8168  0.2080  0.4560
  698TMC3     C10375   4.528   3.736  15.406  0.0706 -0.4519  0.0936
  698TMC3     O10376   4.525   3.808  15.507  0.3054 -0.2222 -0.3913
  698TMC3     H10377   4.461   3.988  15.349  1.0921 -0.9233 -0.6545
  698TMC3    H110378   4.600   3.610  15.179  0.6745  0.9642  0.1236
  698TMC3    H210379   4.388   3.879  14.938 -0.3040 -1.5893 -0.2563
  698TMC3    C710380   4.564   3.672  14.936  0.1914  0.8379 -0.2118
  698TMC3    C810381   4.366   4.067  15.106  0.4185 -0.2991  0.0418
  698TMC3    O110382   4.681   3.637  14.959  0.1534  0.6575 -0.3132
  698TMC3    O210383   4.259   4.058  15.045 -0.1107 -0.2476  0.1788
  699TMC3    C110384   3.509   2.268  12.740  0.3335 -0.1679 -0.1154
  699TMC3    C210385   3.564   2.144  12.761  1.0857 -0.1856 -0.0546
  699TMC3    C310386   3.522   2.069  12.867  0.0680  1.2496  0.0959
  699TMC3    C410387   3.396   2.309  12.812  0.0655 -0.2511  0.0659
  699TMC3    C510388   3.350   2.222  12.912  0.7788 -0.2111  0.1807
  699TMC3    C610389   3.413   2.105  12.940  0.6868  0.3764  0.0756
  699TMC3     C10390   3.593   2.365  12.678 -0.4714 -0.2508 -0.6364
  699TMC3     O10391   3.652   2.335  12.577  0.4699  0.2248 -0.3494
  699TMC3     H10392   3.652   2.110  12.708  1.5642 -0.4361  0.9044
  699TMC3    H110393   3.364   2.411  12.798  0.1128 -0.0748  1.2192
  699TMC3    H210394   3.386   2.036  13.020  2.3092 -0.2218  0.1124
  699TMC3    C710395   3.235   2.256  13.003  0.4566 -0.1886  0.9906
  699TMC3    C810396   3.612   1.976  12.922 -0.4893  0.9147  0.1617
  699TMC3    O110397   3.240   2.211  13.118  0.3405  0.4208  0.4464
  699TMC3    O210398   3.568   1.911  13.011 -0.2873 -0.4803  0.2649
  700TMC3    C110399   3.590   4.072  16.976  0.3282 -0.3464 -0.0510
  700TMC3    C210400   3.587   3.939  17.006 -0.0505  0.2112  0.3055
  700TMC3    C310401   3.660   3.893  17.113 -0.1714 -0.5233  0.0153
  700TMC3    C410402   3.641   4.161  17.073  0.2846  0.5815  0.4004
  700TMC3    C510403   3.722   4.110  17.174  0.0561 -0.5711  0.0193
  700TMC3    C610404   3.740   3.974  17.185 -0.3832  0.1543 -0.0302
  700TMC3     C10405   3.565   4.110  16.843  0.3798  0.1521 -0.0202
  700TMC3     O10406   3.479   4.056  16.779 -0.2204  0.0080  0.0243
  700TMC3     H10407   3.556   3.864  16.934 -0.0629  1.3945 -0.9256
  700TMC3    H110408   3.620   4.267  17.065  0.5684  0.5426 -0.7707
  700TMC3    H210409   3.791   3.936  17.273 -0.5368  0.7207  0.3065
  700TMC3    C710410   3.814   4.192  17.254 -0.1707  0.0234 -0.2571
  700TMC3    C810411   3.693   3.756  17.120 -0.7302  0.5936 -0.2031
  700TMC3    O110412   3.918   4.136  17.276  0.3332 -0.0250  0.6988
  700TMC3    O210413   3.810   3.725  17.136  0.1121 -0.2684 -0.5446
  701TMC3    C110414   3.735   2.676  15.519 -0.1051 -0.3563 -0.0893
  701TMC3    C210415   3.607   2.658  15.580 -0.5565 -0.0850  0.4991
  701TMC3    C310416   3.562   2.765  15.662  0.2069 -0.0025  0.5596
  701TMC3    C410417   3.807   2.791  15.536 -0.3980  0.4960 -0.5097
  701TMC3    C510418   3.755   2.877  15.629 -0.3087  0.0043 -0.1190
  701TMC3    C610419   3.640   2.863  15.701 -0.4394  0.1875  0.1022
  701TMC3     C10420   3.735   2.639  15.376 -0.2966  0.2656  0.2182
  701TMC3     O10421   3.789   2.719  15.299 -0.5091  0.0120 -0.1626
  701TMC3     H10422   3.557   2.561  15.583 -0.3916 -0.1854 -0.0689
  701TMC3    H110423   3.893   2.813  15.474 -0.6510  0.6243 -0.8173
  701TMC3    H210424   3.615   2.943  15.769 -1.4761  1.9449 -2.3516
  701TMC3    C710425   3.846   2.997  15.639  0.0057 -0.6505  0.1414
  701TMC3    C810426   3.437   2.751  15.731  0.2154  0.1705  0.4475
  701TMC3    O110427   3.911   3.035  15.540 -0.3497 -0.9142 -0.4037
  701TMC3    O210428   3.428   2.797  15.840 -0.2141 -0.6696  0.7204
  702MPD2     C10429   2.831   0.894  11.052 -0.8364  0.6054 -0.1417
  702MPD2    C110430   2.707   0.943  11.079 -0.1998 -0.4784 -0.7102
  702MPD2    C210431   2.614   0.955  10.973 -0.2270 -0.1836  0.4933
  702MPD2    C310432   2.652   0.950  10.843 -0.8985 -0.5724 -0.3004
  702MPD2    C410433   2.788   0.919  10.818  0.5901  0.8057  0.9808
  702MPD2    C510434   2.872   0.890  10.923 -0.0119 -1.1595 -0.5478
  702MPD2     H10435   2.517   0.988  11.007 -1.1031 -0.2373 -1.9228
  702MPD2    H110436   2.829   0.916  10.718  0.7881  2.1327  1.0186
  702MPD2    H210437   2.902   0.865  11.129  0.3719  2.5886 -0.5034
  702MPD2    H310438   2.972   0.855  10.902  0.7255  0.5209  0.2313
  702MPD2     N10439   2.555   0.994  10.743  0.5201  0.8472 -0.1043
  702MPD2    H510440   2.595   1.019  10.653 -0.6334  1.0532 -0.5539
  702MPD2    N110441   2.649   0.954  11.201 -0.0339  0.0717 -0.0491
  702MPD2    H710442   2.551   0.978  11.200  0.5959  2.5494 -2.4531
  703TMC3    C110443   2.372   1.142  10.719  0.3816  0.2904 -0.8537
  703TMC3    C210444   2.295   1.181  10.826  0.0216 -0.1108 -1.0904
  703TMC3    C310445   2.324   1.298  10.881 -0.1753 -0.3338 -0.3918
  703TMC3    C410446   2.474   1.222  10.675 -0.2835 -0.2131  0.3780
  703TMC3    C510447   2.479   1.355  10.717 -0.4959  0.1071 -0.1568
  703TMC3    C610448   2.406   1.398  10.829 -0.8130  0.0544 -0.1603
  703TMC3     C10449   2.417   1.008  10.763 -0.8180 -0.6890 -0.7402
  703TMC3     O10450   2.346   0.935  10.830 -0.5897 -0.1165 -0.2556
  703TMC3     H10451   2.217   1.119  10.867 -0.0237  0.0706 -0.9001
  703TMC3    H110452   2.527   1.205  10.582  1.0271 -0.3663  1.1425
  703TMC3    H210453   2.417   1.495  10.876  1.5079  0.0511 -0.7172
  703TMC3    C710454   2.610   1.412  10.711  0.1301 -0.7640  0.2242
  703TMC3    C810455   2.270   1.332  11.016  0.3037  0.0162  0.6750
  703TMC3    O110456   2.620   1.532  10.714  0.0008 -0.1802  0.0731
  703TMC3    O210457   2.346   1.404  11.079 -0.0592 -0.0595  0.1330
  704TMC3    C110458   1.219   3.954  12.584 -0.4782  0.2563  0.1418
  704TMC3    C210459   1.237   3.938  12.449  0.5444 -0.5666 -0.5232
  704TMC3    C310460   1.353   3.887  12.395  0.5093 -0.1481 -0.8304
  704TMC3    C410461   1.317   3.905  12.664 -0.2134  0.1058 -0.1872
  704TMC3    C510462   1.440   3.860  12.606 -0.1399  0.1500  0.0952
  704TMC3    C610463   1.466   3.867  12.473  0.0466 -0.7379  0.5346
  704TMC3     C10464   1.087   3.951  12.642  0.4590  0.0139  0.2195
  704TMC3     O10465   1.081   3.942  12.763  0.1052  0.5369  0.3066
  704TMC3     H10466   1.159   3.976  12.385 -0.0843  0.4120  0.8195
  704TMC3    H110467   1.312   3.911  12.772 -0.6900 -0.2256 -0.1922
  704TMC3    H210468   1.550   3.809  12.438  1.7395  0.1228  3.1653
  704TMC3    C710469   1.506   3.757  12.681  0.1356  0.5195 -0.1334
  704TMC3    C810470   1.340   3.821  12.269  0.0395  0.2694  0.4882
  704TMC3    O110471   1.627   3.759  12.686 -1.1058 -0.6755  0.4083
  704TMC3    O210472   1.222   3.819  12.233  0.0742  0.1034 -0.1719
  705MPD2     C10473   0.365   1.641  16.388  0.0020 -0.0440 -0.5266
  705MPD2    C110474   0.275   1.579  16.307  0.3282  0.6456  0.1966
  705MPD2    C210475   0.145   1.542  16.343 -0.0657 -0.5628  0.1734
  705MPD2    C310476   0.100   1.592  16.467 -0.2356 -0.5462  0.3823
  705MPD2    C410477   0.186   1.669  16.546  0.0253 -0.0921 -0.2791
  705MPD2    C510478   0.319   1.681  16.509 -0.4150 -0.0159 -0.5446
  705MPD2     H10479   0.081   1.484  16.278 -1.2503  0.4736  0.4065
  705MPD2    H110480   0.160   1.719  16.638  0.0929 -1.8779  0.7235
  705MPD2    H210481   0.469   1.654  16.362  0.2539 -1.3145 -0.1363
  705MPD2    H310482   0.381   1.740  16.575 -1.8699 -0.4164  1.1898
  705MPD2     N10483   4.713   1.568  16.519  0.4055  0.0926  0.3832
  705MPD2    H510484   4.695   1.614  16.608 -0.1263 -1.8060  1.2576
  705MPD2    N110485   0.314   1.554  16.172  0.6291  0.7450  0.6862
  705MPD2    H710486   0.238   1.512  16.118  1.1870  2.0791 -1.1442
  706TMC3    C110487   0.304   1.496  15.783 -0.7805 -0.0973  0.4858
  706TMC3    C210488   0.281   1.615  15.714 -0.3554 -1.1218 -0.7329
  706TMC3    C310489   0.316   1.726  15.780 -0.5301  0.5771  0.7584
  706TMC3    C410490   0.354   1.491  15.914 -0.2849  0.0270 -1.1652
  706TMC3    C510491   0.404   1.604  15.961  0.2644 -0.2887  0.4847
  706TMC3    C610492   0.384   1.727  15.902 -0.7356  0.2514  0.4909
  706TMC3     C10493   0.265   1.368  15.737  0.8350  0.1121  0.7351
  706TMC3     O10494   0.298   1.267  15.804 -0.4512 -0.2137 -0.1250
  706TMC3     H10495   0.215   1.617  15.628 -2.2675  0.0287  0.7561
  706TMC3    H110496   0.368   1.400  15.971  2.0282 -0.2966 -2.2271
  706TMC3    H210497   0.397   1.816  15.962  0.7819 -0.2831  0.9605
  706TMC3    C710498   0.415   1.613  16.102  0.1862  0.0409  0.1325
  706TMC3    C810499   0.267   1.856  15.733 -0.4454  0.2890 -0.1343
  706TMC3    O110500   0.505   1.682  16.144  0.4493 -0.0197  0.1539
  706TMC3    O210501   0.186   1.842  15.645  0.5257  0.0064 -0.0355
  707TMC3    C110502   1.481   0.078   1.406  0.0922  0.3108  0.2383
  707TMC3    C210503   1.552   0.012   1.504 -0.1271 -0.2350  0.3569
  707TMC3    C310504   1.491   4.705   1.617  0.1032  0.6087 -0.7893
  707TMC3    C410505   1.350   0.107   1.423 -0.6043 -0.1372 -0.4772
  707TMC3    C510506   1.294   0.055   1.536  0.4633  0.6748 -0.2445
  707TMC3    C610507   1.355   4.731   1.635  0.0329  0.1643 -0.5470
  707TMC3     C10508   1.549   0.128   1.288  0.3435 -0.8420  0.4696
  707TMC3     O10509   1.665   0.098   1.274  0.4820 -0.3676  0.1064
  707TMC3     H10510   1.660   0.005   1.491 -0.0116  1.8202  0.2058
  707TMC3    H110511   1.295   0.134   1.333 -0.9258  0.9226  0.0361
  707TMC3    H210512   1.303   4.701   1.725 -1.2621 -0.0889 -1.3872
  707TMC3    C710513   1.152   0.065   1.554 -0.1511  0.0390 -0.1845
  707TMC3    C810514   1.571   4.644   1.724 -0.3049  0.0959  0.1532
  707TMC3    O110515   1.097   4.727   1.634 -0.1429 -0.2781  0.1394
  707TMC3    O210516   1.523   4.628   1.837  0.2948  0.4787  0.2552
  708MPD2     C10517   2.771   4.339  14.236  0.5758 -0.2044 -0.0476
  708MPD2    C110518   2.885   4.411  14.194 -0.3558 -0.1095  0.8283
  708MPD2    C210519   3.001   4.408  14.266  0.9061 -0.3783  0.0518
  708MPD2    C310520   2.999   4.339  14.383 -0.3187  0.0619 -0.5825
  708MPD2    C410521   2.891   4.269  14.427  0.5812  0.4178  0.3414
  708MPD2    C510522   2.775   4.262  14.352 -1.1926  0.5884  0.3466
  708MPD2     H10523   3.089   4.458  14.229  0.0565  1.9342  1.1249
  708MPD2    H110524   2.881   4.227  14.526 -2.8558  0.7862  0.1352
  708MPD2    H210525   2.682   4.330  14.175 -0.6449  2.7375  1.3209
  708MPD2    H310526   2.694   4.193  14.370  0.0487 -1.0970 -0.5578
  708MPD2     N10527   3.112   4.345  14.468 -0.1689  0.1217 -0.7712
  708MPD2    H510528   3.097   4.325  14.567  0.1497  1.0600 -0.5341
  708MPD2    N110529   2.874   4.483  14.073  0.0070  0.4634 -0.1040
  708MPD2    H710530   2.783   4.479  14.029  0.8654 -0.5459 -1.7965
  709TMC3    C110531   2.898   4.677  13.939 -0.4103 -0.9048 -0.5242
  709TMC3    C210532   2.785   4.646  13.869  0.8846 -0.0838 -0.3735
  709TMC3    C310533   2.676   4.725  13.897  1.1410 -0.7844 -0.7333
  709TMC3    C410534   2.902   0.039  14.037  0.7072  0.1932  0.1836
  709TMC3    C510535   2.778   0.096  14.083  0.3231 -0.6293  0.3393
  709TMC3    C610536   2.668   0.070  14.009  0.1994  0.4961 -0.0635
  709TMC3     C10537   2.968   4.564  14.006 -0.3553  0.4377  0.2883
  709TMC3     O10538   3.084   4.584  14.038  0.7043  0.7337  0.4664
  709TMC3     H10539   2.783   4.577  13.785  1.4062  1.1538 -1.3996
  709TMC3    H110540   2.992   0.070  14.089  1.6689 -0.0750 -1.3360
  709TMC3    H210541   2.578   0.123  14.039  0.7856  0.3202  1.9370
  709TMC3    C710542   2.772   0.138  14.219 -0.2794  0.2188  0.8104
  709TMC3    C810543   2.558   4.737  13.815 -0.8161  0.0281  0.3832
  709TMC3    O110544   2.880   0.177  14.264  0.6445  0.5026 -0.0039
  709TMC3    O210545   2.452   0.003  13.877 -0.2035 -0.1298  0.1005
  710TMC3    C110546   4.274   1.543   0.184  0.7532 -0.5794  0.0092
  710TMC3    C210547   4.351   1.551   0.073 -0.2367  0.3034 -0.7445
  710TMC3    C310548   4.369   1.432   0.004 -0.0058  0.2466 -0.7307
  710TMC3    C410549   4.210   1.437   0.228 -0.2537  0.4076  0.4257
  710TMC3    C510550   4.217   1.324   0.153  0.2706 -0.2031 -0.2111
  710TMC3    C610551   4.299   1.316   0.050  0.2028 -0.6440  0.1293
  710TMC3     C10552   4.269   1.673   0.254  0.3983 -0.0417 -0.3114
  710TMC3     O10553   4.282   1.775   0.191  0.2586 -0.2185  0.5154
  710TMC3     H10554   4.404   1.642   0.044 -0.0952  0.7528  0.9014
  710TMC3    H110555   4.143   1.434   0.313 -2.1582  0.6765 -1.0496
  710TMC3    H210556   4.293   1.227  17.738 -0.4336 -0.5950  0.1197
  710TMC3    C710557   4.213   1.203   0.239  0.2222 -0.6505  0.4212
  710TMC3    C810558   4.483   1.429  17.667 -0.2135  0.5329 -0.4653
  710TMC3    O110559   4.153   1.217   0.346  0.4086  0.0216  0.4636
  710TMC3    O210560   4.503   1.532  17.603  0.0496  0.3161 -0.3100
  711TMC3    C110561   4.010   2.454  14.382  1.2395  0.1226  0.7472
  711TMC3    C210562   3.936   2.537  14.463  0.5108  0.0909 -0.9716
  711TMC3    C310563   4.007   2.623  14.545  0.0657  0.2082 -0.2867
  711TMC3    C410564   4.145   2.457  14.371 -0.2970  0.3557  0.2912
  711TMC3    C510565   4.215   2.555  14.439  1.0398 -0.7201 -0.0947
  711TMC3    C610566   4.144   2.630  14.531 -0.0384 -0.4978 -0.0953
  711TMC3     C10567   3.942   2.332  14.342 -0.1941 -0.6833  0.3044
  711TMC3     O10568   3.850   2.285  14.405 -0.0353 -0.0397 -0.2101
  711TMC3     H10569   3.832   2.510  14.477  1.4608 -1.5728  2.8025
  711TMC3    H110570   4.207   2.393  14.309 -1.0366 -0.4069  0.3411
  711TMC3    H210571   4.196   2.707  14.587 -0.5504  0.3829 -0.8336
  711TMC3    C710572   4.331   2.500  14.504 -0.3282  0.0877 -0.6728
  711TMC3    C810573   3.957   2.619  14.682 -0.2743  0.0533 -0.2280
  711TMC3    O110574   4.339   2.518  14.624  0.1437 -0.3382  0.2752
  711TMC3    O210575   3.839   2.617  14.707  0.1505  0.0342  0.4603
  712MPD2     C10576   1.035   3.694  13.640  0.0134  0.1602  0.0054
  712MPD2    C110577   1.010   3.582  13.712  0.2942 -0.1061 -0.2555
  712MPD2    C210578   0.932   3.585  13.820  0.1343 -0.0919  0.1189
  712MPD2    C310579   0.888   3.706  13.868  0.5601 -0.5923 -0.1709
  712MPD2    C410580   0.914   3.822  13.801 -0.3810  0.4714 -0.5589
  712MPD2    C510581   0.979   3.814  13.684  0.1365  0.1791 -0.5590
  712MPD2     H10582   0.916   3.485  13.859 -1.0314 -1.6638 -4.4215
  712MPD2    H110583   0.887   3.921  13.834 -0.2241  0.3769 -0.1386
  712MPD2    H210584   1.112   3.699  13.564  0.1719  2.7001  0.3326
  712MPD2    H310585   1.020   3.907  13.646 -1.3378  1.1133  0.1614
  712MPD2     N10586   0.806   3.721  13.983  0.1928 -0.1597 -0.1297
  712MPD2    H510587   0.787   3.819  13.998  1.6015  0.3637 -1.8063
  712MPD2    N110588   1.060   3.457  13.667 -0.5735  0.3692  0.1913
  712MPD2    H710589   1.048   3.387  13.740  0.1454  0.8050  0.7183
  713TMC3    C110590   0.772   3.697  14.216  0.4470  0.1738 -0.7462
  713TMC3    C210591   0.855   3.673  14.322  0.5092  0.6615 -0.9583
  713TMC3    C310592   0.845   3.750  14.433 -0.0557 -0.3776 -0.2060
  713TMC3    C410593   0.673   3.790  14.221  0.1627  0.3729 -0.1548
  713TMC3    C510594   0.649   3.852  14.342 -0.5227 -0.1064 -0.4025
  713TMC3    C610595   0.738   3.835  14.440 -1.1823  0.2531  0.1124
  713TMC3     C10596   0.809   3.633  14.093  0.6538 -0.7051 -0.2147
  713TMC3     O10597   0.885   3.537  14.105  0.1536  0.2732 -0.6607
  713TMC3     H10598   0.936   3.602  14.320 -2.2103 -2.5238  2.0199
  713TMC3    H110599   0.613   3.788  14.131 -0.8367  0.2930  0.5143
  713TMC3    H210600   0.744   3.905  14.523  0.8111  0.5537 -0.2892
  713TMC3    C710601   0.572   3.972  14.347  0.7408 -0.3583 -0.1669
  713TMC3    C810602   0.970   3.816  14.458 -0.2628 -0.2246  0.8993
  713TMC3    O110603   0.541   4.002  14.464  0.3189  0.4629 -0.4624
  713TMC3    O210604   0.967   3.934  14.423  0.0960  0.5284 -0.1350
  714MPD2     C10605   2.526   2.228   1.315  0.2268 -0.8753 -0.4751
  714MPD2    C110606   2.531   2.096   1.280 -0.8971 -0.6999 -0.0744
  714MPD2    C210607   2.420   2.040   1.211 -0.2191  0.1253 -0.3693
  714MPD2    C310608   2.310   2.126   1.175 -0.3864 -0.4663 -0.7186
  714MPD2    C410609   2.314   2.259   1.210  0.1690 -0.1488 -1.0173
  714MPD2    C510610   2.424   2.307   1.277 -0.0958 -0.0700  0.0892
  714MPD2     H10611   2.421   1.935   1.187  0.1523  0.4132 -1.5874
  714MPD2    H110612   2.237   2.330   1.185 -0.4390 -0.8062 -0.9941
  714MPD2    H210613   2.607   2.276   1.369  0.0055  0.2776 -1.1671
  714MPD2    H310614   2.438   2.414   1.286  0.7308 -0.1050 -0.7781
  714MPD2     N10615   2.201   2.066   1.104 -0.1451  0.3221  0.6267
  714MPD2    H510616   2.215   1.970   1.075 -1.4791  0.4430 -0.4213
  714MPD2    N110617   2.652   2.028   1.309  0.2277 -0.0724 -1.4391
  714MPD2    H710618   2.722   2.080   1.361  1.8228  1.0347 -4.7141
  715TMC3    C110619   2.810   1.840   1.315  0.1064 -0.6277  0.1634
  715TMC3    C210620   2.840   1.707   1.279  0.0137 -0.4755 -0.0665
  715TMC3    C310621   2.936   1.637   1.351 -0.6643  0.2380 -0.6499
  715TMC3    C410622   2.872   1.896   1.429 -0.9612 -0.3991 -0.3853
  715TMC3    C510623   2.958   1.818   1.507  0.2228 -0.4864  0.5705
  715TMC3    C610624   2.990   1.690   1.467  0.4610  0.2372 -0.4273
  715TMC3     C10625   2.687   1.902   1.263  0.2998 -0.0598 -0.4552
  715TMC3     O10626   2.625   1.826   1.191  0.4822  0.1053  0.1961
  715TMC3     H10627   2.794   1.672   1.187 -0.9517  2.4801 -0.7317
  715TMC3    H110628   2.853   1.998   1.460 -2.6155 -0.0332 -2.5641
  715TMC3    H210629   3.046   1.631   1.539 -1.0817 -0.4275  0.2240
  715TMC3    C710630   3.042   1.875   1.614 -0.4978  0.5518 -0.3841
  715TMC3    C810631   2.968   1.502   1.304 -1.1657  0.6675  0.1942
  715TMC3    O110632   3.122   1.804   1.674 -0.5632 -0.2751  0.5549
  715TMC3    O210633   2.891   1.434   1.233  0.2082 -0.1733 -0.3197
  716MPD2     C10634   2.406   0.364  10.558  1.1305 -0.3333 -0.4138
  716MPD2    C110635   2.458   0.440  10.457 -0.1476 -0.8406  0.0760
  716MPD2    C210636   2.533   0.383  10.355  0.1661 -0.0900 -0.3234
  716MPD2    C310637   2.534   0.248  10.352  0.0028  0.5372 -0.4004
  716MPD2    C410638   2.477   0.168  10.449 -0.5829  0.2744  0.4801
  716MPD2    C510639   2.422   0.229  10.563 -0.1672 -0.7498 -0.6779
  716MPD2     H10640   2.583   0.446  10.283  2.6091  0.2774  1.6949
  716MPD2    H110641   2.481   0.059  10.448  0.4811  0.2847  2.0453
  716MPD2    H210642   2.325   0.397  10.622  2.2330  1.7068 -0.0872
  716MPD2    H310643   2.364   0.174  10.637  1.4782 -1.1629  0.2971
  716MPD2     N10644   2.599   0.190  10.241 -0.3098 -0.3617 -0.1388
  716MPD2    H510645   2.639   0.260  10.179 -1.2991 -1.9432 -2.5434
  716MPD2    N110646   2.428   0.585  10.452 -0.0419  0.1490  0.0117
  716MPD2    H710647   2.384   0.618  10.538 -3.2495 -2.9668 -0.4292
  717TMC3    C110648   2.704   0.058  10.079  0.9046 -0.0117  0.0220
  717TMC3    C210649   2.680   4.696   9.990  0.0091 -0.6196  0.2203
  717TMC3    C310650   2.755   4.686   9.875  0.2779 -0.5811  0.2496
  717TMC3    C410651   2.801   0.147  10.060 -0.8189 -0.7897 -0.4200
  717TMC3    C510652   2.886   0.126   9.954 -0.0616  0.7584  0.1433
  717TMC3    C610653   2.866   0.029   9.858  0.4999 -0.3888  0.4720
  717TMC3     C10654   2.624   0.059  10.206 -0.3702  0.2939 -0.0279
  717TMC3     O10655   2.595   4.691  10.261 -0.3124 -0.0253  0.3045
  717TMC3     H10656   2.589   4.638  10.005 -0.3248 -0.4247 -1.0316
  717TMC3    H110657   2.828   0.212  10.143 -0.0172 -0.3109 -1.0610
  717TMC3    H210658   2.922   0.031   9.766  3.8145 -2.0603  2.4523
  717TMC3    C710659   2.998   0.214   9.938 -0.4197 -0.6282  0.3961
  717TMC3    C810660   2.689   4.642   9.751 -0.0593  0.1974  0.2147
  717TMC3    O110661   2.984   0.333   9.969 -0.1884  0.4016 -0.4501
  717TMC3    O210662   2.572   4.630   9.760 -0.0138 -0.2940 -0.0517
  718MPD2     C10663   2.831   3.644  12.951  0.5974  0.6644 -0.0237
  718MPD2    C110664   2.764   3.691  12.839 -0.5648 -0.5607 -0.3457
  718MPD2    C210665   2.629   3.684  12.826 -0.7951  0.2502  0.1607
  718MPD2    C310666   2.554   3.614  12.918 -0.1497 -0.2442 -0.2819
  718MPD2    C410667   2.619   3.552  13.023 -0.3837 -0.0581 -0.1789
  718MPD2    C510668   2.758   3.562  13.031  0.1308  0.1796 -0.5665
  718MPD2     H10669   2.584   3.718  12.734 -0.8418  1.0637  0.4832
  718MPD2    H110670   2.561   3.489  13.089  1.0693  0.7028  1.8096
  718MPD2    H210671   2.938   3.640  12.968  0.6734 -0.7859 -0.8381
  718MPD2    H310672   2.812   3.501  13.103  1.6994  2.1130 -0.0843
  718MPD2     N10673   2.422   3.608  12.886 -0.0477 -0.3328 -0.1216
  718MPD2    H510674   2.386   3.662  12.808 -1.9793  0.4918  1.3544
  718MPD2    N110675   2.830   3.770  12.740 -0.0048  0.4537  0.0307
  718MPD2    H710676   2.771   3.804  12.665 -2.1006 -1.0576  1.0110
  719TMC3    C110677   2.992   3.896  12.629  0.2306  0.5186 -0.0183
  719TMC3    C210678   2.909   3.862  12.528  0.3928  0.2145 -0.5633
  719TMC3    C310679   2.824   3.952  12.468  0.2916  0.4599 -0.2030
  719TMC3    C410680   3.002   4.027  12.669 -0.0341  0.1414  0.4611
  719TMC3    C510681   2.927   4.122  12.595 -0.0888  0.4311 -0.6003
  719TMC3    C610682   2.836   4.085  12.500  0.3944 -0.3114  0.4243
  719TMC3     C10683   2.964   3.810  12.742 -0.2313  0.5893  0.7064
  719TMC3     O10684   3.061   3.779  12.812 -0.0726  0.0643 -0.0486
  719TMC3     H10685   2.901   3.757  12.502  1.2076 -0.4771  1.9140
  719TMC3    H110686   3.061   4.057  12.755  3.4405  0.4053 -2.0128
  719TMC3    H210687   2.761   4.155  12.465  0.5722 -0.8246 -1.0055
  719TMC3    C710688   2.927   4.257  12.651 -0.4252  0.4647 -0.1884
  719TMC3    C810689   2.688   3.894  12.459  0.3350 -0.6365  0.1307
  719TMC3    O110690   2.874   4.339  12.575  0.0905 -0.2274  0.3332
  719TMC3    O210691   2.672   3.788  12.515  0.5672 -0.3139  0.0776
  720MPD2     C10692   0.621   0.445  13.957 -0.5533 -0.3500  0.0015
  720MPD2    C110693   0.668   0.555  13.893  0.2413  0.3920 -0.2771
  720MPD2    C210694   0.784   0.604  13.940 -0.8808  0.3255  0.2523
  720MPD2    C310695   0.858   0.544  14.035  1.2155 -0.1223 -0.0914
  720MPD2    C410696   0.811   0.433  14.107 -0.0515 -0.0191 -0.6915
  720MPD2    C510697   0.693   0.387  14.061 -0.0578 -0.1153  0.3579
  720MPD2     H10698   0.819   0.698  13.900 -2.5491  1.0974  0.6031
  720MPD2    H110699   0.864   0.379  14.185 -0.9358  1.3617  0.8560
  720MPD2    H210700   0.529   0.393  13.935 -0.5629  0.0617 -0.9041
  720MPD2    H310701   0.651   0.297  14.104 -0.7608  0.8443  1.6573
  720MPD2     N10702   0.982   0.597  14.053 -0.0396  0.3335 -0.1543
  720MPD2    H510703   1.019   0.660  13.982 -1.2430  1.9630  0.6308
  720MPD2    N110704   0.604   0.620  13.795  0.2394 -0.2455  0.0311
  720MPD2    H710705   0.651   0.698  13.749  0.8545  0.3917  1.7505
  721TMC3    C110706   1.176   0.628  14.157  0.0694 -0.0394  0.2844
  721TMC3    C210707   1.240   0.688  14.259  0.3350 -0.7133  0.1077
  721TMC3    C310708   1.370   0.734  14.241  0.3723 -0.0171  0.7081
  721TMC3    C410709   1.228   0.618  14.027  0.5242 -0.4714 -0.0096
  721TMC3    C510710   1.349   0.678  14.011  0.2190  0.1621  0.5330
  721TMC3    C610711   1.416   0.738  14.113 -0.3041 -0.1597 -0.7266
  721TMC3     C10712   1.041   0.590  14.174 -0.3107  0.5131  0.7339
  721TMC3     O10713   0.998   0.560  14.286 -0.2439  0.0548 -0.2180
  721TMC3     H10714   1.189   0.676  14.354 -1.7589  1.0014 -0.8118
  721TMC3    H110715   1.177   0.558  13.952  0.6268 -1.0260  0.3627
  721TMC3    H210716   1.519   0.763  14.090  0.1799  0.1838  1.7631
  721TMC3    C710717   1.434   0.614  13.921 -0.0977  0.3663  0.2340
  721TMC3    C810718   1.474   0.705  14.337  0.0565 -0.3619 -0.0620
  721TMC3    O110719   1.493   0.687  13.842  1.0984  0.0397 -0.0124
  721TMC3    O210720   1.590   0.707  14.299  0.1380 -0.1692  0.0572
  722MPD2     C10721   4.721   3.946  13.603  0.2172  0.5594 -0.3270
  722MPD2    C110722   4.652   4.063  13.603  0.0586 -0.1067  0.3499
  722MPD2    C210723   4.516   4.058  13.585  0.4812  0.1071  0.1061
  722MPD2    C310724   4.445   3.941  13.582 -0.4860  0.0909 -0.3566
  722MPD2    C410725   4.518   3.824  13.592  0.5892  0.6561  0.6164
  722MPD2    C510726   4.656   3.825  13.603  0.6023 -0.4923 -0.0375
  722MPD2     H10727   4.460   4.151  13.579 -0.1727 -0.1380  2.2063
  722MPD2    H110728   4.470   3.727  13.600  2.1801 -0.0281  1.8520
  722MPD2    H210729   0.091   3.952  13.613  0.1589  0.0950  0.6329
  722MPD2    H310730   4.700   3.727  13.616  2.0274 -0.0163 -1.2906
  722MPD2     N10731   4.307   3.947  13.572  0.0313  0.1950 -0.4064
  722MPD2    H510732   4.262   4.037  13.567 -0.5151  0.1662  3.6768
  722MPD2    N110733   4.720   4.180  13.625 -0.4256  0.1624  0.7577
  722MPD2    H710734   0.075   4.156  13.661  0.3474  1.2278 -0.5043
  723TMC3    C110735   4.088   3.875  13.580 -0.1728  0.3519  0.4790
  723TMC3    C210736   3.996   3.783  13.539  0.3605  0.2515 -0.1949
  723TMC3    C310737   3.866   3.824  13.520 -0.7259  0.1844 -0.2652
  723TMC3    C410738   4.057   4.007  13.605  0.7552 -0.4583  0.1940
  723TMC3    C510739   3.924   4.040  13.593  0.9772  0.3333  0.7583
  723TMC3    C610740   3.828   3.948  13.549 -0.4588 -0.1163 -0.6386
  723TMC3     C10741   4.229   3.835  13.590 -0.1952 -0.1391  0.3639
  723TMC3     O10742   4.260   3.713  13.586  0.2851  0.0718 -0.5862
  723TMC3     H10743   4.027   3.686  13.500  1.6757  0.4157  0.4409
  723TMC3    H110744   4.118   4.079  13.657  0.5467  1.0736 -1.6746
  723TMC3    H210745   3.723   3.974  13.534 -0.1664  1.0252 -0.7558
  723TMC3    C710746   3.907   4.178  13.553  0.9764  0.5001 -0.1182
  723TMC3    C810747   3.770   3.735  13.475  0.0210  0.6284  0.0749
  723TMC3    O110748   3.969   4.271  13.613 -0.2728  0.5802 -0.3135
  723TMC3    O210749   3.661   3.745  13.521 -0.0640  0.2379 -0.2215
  724TMC3    C110750   0.316   4.088  10.550  0.0544 -0.3581 -0.1556
  724TMC3    C210751   0.188   4.112  10.509  0.1868 -0.2336 -0.1072
  724TMC3    C310752   0.132   4.031  10.415  0.9673 -0.2173 -0.3156
  724TMC3    C410753   0.398   4.003  10.475 -0.0157 -0.1950  0.2392
  724TMC3    C510754   0.342   3.936  10.363  0.2327 -0.0734 -0.8272
  724TMC3    C610755   0.209   3.939  10.346 -0.3520  0.1215 -0.0514
  724TMC3     C10756   0.363   4.127  10.673 -0.0978  0.2483 -0.5321
  724TMC3     O10757   0.481   4.100  10.691  0.1591 -0.0077 -0.3674
  724TMC3     H10758   0.118   4.178  10.560  0.6403 -0.8464  1.3058
  724TMC3    H110759   0.505   3.987  10.483  0.2155  2.2648  2.0585
  724TMC3    H210760   0.179   3.895  10.251  0.1444  2.3349 -1.2295
  724TMC3    C710761   0.411   3.816  10.313  0.3310  0.8097  0.0375
  724TMC3    C810762   0.011   3.979  10.459 -0.6077  0.4924  0.2209
  724TMC3    O110763   0.334   3.724  10.294  0.3746 -0.4094  0.6892
  724TMC3    O210764   4.667   4.054  10.505  0.0268 -0.5254 -0.3172
  725TMC3    C110765   1.347   1.457  13.185  0.0583  0.7892 -0.0042
  725TMC3    C210766   1.285   1.517  13.079 -0.3307  0.2295 -0.1310
  725TMC3    C310767   1.221   1.433  12.993  0.2426  0.1715 -0.1291
  725TMC3    C410768   1.347   1.320  13.199  0.1266 -0.4096  0.0674
  725TMC3    C510769   1.284   1.246  13.106  0.6780 -0.8798 -0.0884
  725TMC3    C610770   1.215   1.301  13.005 -0.1447  0.2335 -0.4422
  725TMC3     C10771   1.423   1.548  13.276 -0.2514  0.0451 -0.3137
  725TMC3     O10772   1.423   1.669  13.255  0.3981  0.5101 -0.2877
  725TMC3     H10773   1.292   1.619  13.043 -1.0521  0.1091 -0.6183
  725TMC3    H110774   1.399   1.275  13.283  1.1268  0.4485 -0.0966
  725TMC3    H210775   1.158   1.238  12.938  2.2720 -0.4250 -1.8716
  725TMC3    C710776   1.323   1.111  13.076  0.5242 -0.3315 -0.0869
  725TMC3    C810777   1.171   1.491  12.872 -0.2671  0.2884 -0.0423
  725TMC3    O110778   1.251   1.032  13.016 -0.0836 -0.2006 -0.5019
  725TMC3    O210779   1.148   1.614  12.868  0.1358 -0.3859 -0.1270
  726MPD2     C10780   2.356   3.638   9.900  0.8739 -0.6019 -0.5075
  726MPD2    C110781   2.446   3.628  10.003 -0.9016  0.0907 -0.2665
  726MPD2    C210782   2.462   3.509  10.070  0.3424  0.2417  0.5459
  726MPD2    C310783   2.389   3.396  10.025  0.4017 -0.3036 -0.3088
  726MPD2    C410784   2.301   3.410   9.920 -0.0441 -0.5740  0.6251
  726MPD2    C510785   2.285   3.535   9.858  0.2459 -0.6775  0.7467
  726MPD2     H10786   2.533   3.496  10.151 -0.9742 -0.4580  1.5815
  726MPD2    H110787   2.234   3.331   9.888  1.6182 -1.5162 -0.4768
  726MPD2    H210788   2.343   3.738   9.859  1.0060  0.4812  2.0977
  726MPD2    H310789   2.206   3.556   9.787 -0.7786  0.5018  2.2155
  726MPD2     N10790   2.397   3.277  10.094  0.7821 -1.0790 -0.1495
  726MPD2    H510791   2.331   3.205  10.067 -0.3995 -0.2884  0.6415
  726MPD2    N110792   2.541   3.724  10.028  0.0223 -0.2480  0.2756
  726MPD2    H710793   2.611   3.695  10.095  1.3030  1.2465 -0.4263
  727TMC3    C110794   2.684   3.903  10.004 -0.2176  0.1844 -0.6195
  727TMC3    C210795   2.748   3.856  10.119  0.0077  1.3874  0.0185
  727TMC3    C310796   2.867   3.913  10.155 -0.4726  0.1881 -0.4190
  727TMC3    C410797   2.751   3.985   9.912  0.9785  0.8920 -0.5910
  727TMC3    C510798   2.875   4.031   9.948  0.6435 -0.5456  0.1414
  727TMC3    C610799   2.935   4.001  10.071 -0.1661  0.2186 -0.5096
  727TMC3     C10800   2.564   3.842   9.956  0.7552 -0.1060  0.9488
  727TMC3     O10801   2.497   3.892   9.866 -0.4054  0.5437  0.3419
  727TMC3     H10802   2.691   3.811  10.199  0.4593 -0.0691 -0.4878
  727TMC3    H110803   2.696   4.016   9.824 -2.3251 -1.5455  0.6279
  727TMC3    H210804   3.036   4.037  10.086  0.0073  0.8529 -3.2447
  727TMC3    C710805   2.970   4.083   9.842  0.4455 -0.4482 -0.3495
  727TMC3    C810806   2.945   3.863  10.268 -1.0709  0.4136  0.8858
  727TMC3    O110807   3.067   4.144   9.878  0.4886  0.1265 -0.3167
  727TMC3    O210808   3.043   3.924  10.310  0.2314 -1.0789 -0.0707
  728TMC3    C110809   3.759   1.022  15.140  0.6150 -0.4359 -0.3470
  728TMC3    C210810   3.865   1.009  15.053  0.1837 -0.0587  0.0801
  728TMC3    C310811   3.841   1.053  14.924  0.0395 -0.4501  0.3662
  728TMC3    C410812   3.635   1.064  15.100 -0.0774  0.1736 -0.0396
  728TMC3    C510813   3.620   1.111  14.971  0.1338 -0.2275  0.8910
  728TMC3    C610814   3.719   1.098  14.885  0.0405 -0.4419 -0.9255
  728TMC3     C10815   3.788   1.005  15.278  0.2298  0.4049  0.3781
  728TMC3     O10816   3.906   1.001  15.304 -0.3979  0.1862 -0.2007
  728TMC3     H10817   3.968   0.983  15.078 -0.6140 -0.6555  2.8386
  728TMC3    H110818   3.546   1.059  15.162 -0.6011  0.4871 -0.7747
  728TMC3    H210819   3.714   1.149  14.789  1.7023 -0.6928 -1.1467
  728TMC3    C710820   3.484   1.115  14.912  0.1349  0.3942  0.3657
  728TMC3    C810821   3.960   1.080  14.845 -0.2471 -0.3481 -0.2462
  728TMC3    O110822   3.395   1.055  14.971  0.2261 -1.0107  0.7728
  728TMC3    O210823   4.047   0.995  14.840  0.3041 -0.1856 -0.1710
  729MPD2     C10824   0.265   2.593  16.255  0.6653 -0.1404  0.3079
  729MPD2    C110825   0.376   2.515  16.286  0.2869 -0.2540 -0.0659
  729MPD2    C210826   0.374   2.441  16.406 -0.0680  0.0792  0.4888
  729MPD2    C310827   0.261   2.448  16.487 -0.4632  0.5703  0.5647
  729MPD2    C410828   0.159   2.531  16.444 -0.5018  0.3498  0.1990
  729MPD2    C510829   0.159   2.602  16.331  0.3631 -0.5033  0.5905
  729MPD2     H10830   0.459   2.384  16.440  0.1213 -0.1502 -0.3782
  729MPD2    H110831   0.070   2.535  16.505  0.2279  1.4305  1.1806
  729MPD2    H210832   0.266   2.650  16.163  1.1934 -2.7445 -1.3196
  729MPD2    H310833   0.079   2.664  16.292  0.3343 -2.5467 -2.5602
  729MPD2     N10834   0.255   2.383  16.611 -0.6478 -0.4090  0.3825
  729MPD2    H510835   0.186   2.414  16.678  0.3896  1.5865  0.5137
  729MPD2    N110836   0.485   2.513  16.200  0.2791 -0.5694 -0.4995
  729MPD2    H710837   0.477   2.570  16.116 -4.7912 -1.9656 -0.9515
  730TMC3    C110838   0.356   2.244  16.781  0.0948  0.1574 -0.4174
  730TMC3    C210839   0.451   2.148  16.810  0.5500  0.2404 -0.2864
  730TMC3    C310840   0.531   2.166  16.912 -0.1219 -0.9909 -0.2413
  730TMC3    C410841   0.343   2.361  16.850 -0.0124 -0.2235  0.6006
  730TMC3    C510842   0.428   2.370  16.960  0.0699  0.4125  0.4426
  730TMC3    C610843   0.520   2.277  16.993 -0.3353  0.3177 -0.2924
  730TMC3     C10844   0.339   2.279  16.635 -0.2915  0.0580 -0.3046
  730TMC3     O10845   0.404   2.211  16.559  0.4197  0.0324 -0.1146
  730TMC3     H10846   0.471   2.068  16.739  1.7012 -2.5852  3.2123
  730TMC3    H110847   0.282   2.447  16.825  2.5989  1.1284 -1.1085
  730TMC3    H210848   0.580   2.279  17.083 -0.0516 -2.9622 -0.4072
  730TMC3    C710849   0.446   2.503  17.013 -0.4494 -0.1062 -0.8258
  730TMC3    C810850   0.665   2.099  16.906  0.0175  0.1022  0.5130
  730TMC3    O110851   0.402   2.589  16.940 -0.4053  0.1273  0.5636
  730TMC3    O210852   0.670   1.999  16.834 -0.6769 -0.1188 -0.0626
  731MPD2     C10853   0.402   4.432  12.655 -0.6427 -0.0207 -0.1511
  731MPD2    C110854   0.469   4.558  12.637 -0.6076  0.0846  0.3924
  731MPD2    C210855   0.474   4.642  12.746  0.1624 -0.7450 -0.3127
  731MPD2    C310856   0.428   4.598  12.871  0.7482 -0.2980 -0.1811
  731MPD2    C410857   0.364   4.482  12.888  0.2173 -0.2003  0.5077
  731MPD2    C510858   0.364   4.397  12.780 -0.3550  0.0950  0.1993
  731MPD2     H10859   0.521   0.002  12.741  0.7573 -1.0495 -0.6664
  731MPD2    H110860   0.334   4.450  12.987  0.3653  0.0723  0.6406
  731MPD2    H210861   0.395   4.363  12.571 -1.3035 -1.6736  1.2602
  731MPD2    H310862   0.325   4.298  12.803  1.2491 -0.7646 -0.8134
  731MPD2     N10863   0.446   4.688  12.976 -0.2492  0.0810 -0.1215
  731MPD2    H510864   0.480   0.045  12.964  1.3265 -0.5394 -0.5721
  731MPD2    N110865   0.507   4.586  12.507 -0.0402  0.1040  0.7684
  731MPD2    H710866   0.504   4.515  12.434 -0.1953  0.7884  0.1143
  732TMC3    C110867   0.595   4.697  12.326 -0.1309  0.5668 -0.4244
  732TMC3    C210868   0.504   4.635  12.246 -0.0809 -0.0421 -0.1593
  732TMC3    C310869   0.502   4.671  12.118  0.1455 -0.5517  0.8730
  732TMC3    C410870   0.683   0.050  12.274  0.0632  0.0732  0.0495
  732TMC3    C510871   0.682   0.079  12.137  0.2485 -0.0325 -0.1956
  732TMC3    C610872   0.595   0.013  12.062  0.4797  0.2767 -0.2669
  732TMC3     C10873   0.569   4.699  12.474 -0.0561  0.4873  0.4254
  732TMC3     O10874   0.624   0.047  12.542  0.1968 -0.1340  0.0144
  732TMC3     H10875   0.431   4.566  12.286 -0.2573 -1.4975 -3.0264
  732TMC3    H110876   0.759   0.093  12.338  0.0166 -1.1710  0.9198
  732TMC3    H210877   0.590   0.039  11.957  1.6406  0.7630 -0.2016
  732TMC3    C710878   0.809   0.128  12.072 -0.1000 -0.4319  0.5710
  732TMC3    C810879   0.416   4.605  12.023 -0.2058 -0.2942 -0.0743
  732TMC3    O110880   0.826   0.099  11.953  0.2841 -0.5252  0.6915
  732TMC3    O210881   0.450   4.616  11.905 -0.2301 -0.2009  0.1918
  733TMC3    C110882   1.971   3.590  12.893 -0.3143 -0.1223 -0.4036
  733TMC3    C210883   2.090   3.562  12.951  0.2928 -0.3697  0.8791
  733TMC3    C310884   2.196   3.542  12.865 -0.5463 -0.0739 -0.2248
  733TMC3    C410885   1.965   3.604  12.757 -0.0841 -0.5265  0.0063
  733TMC3    C510886   2.084   3.594  12.678  0.1458 -0.0682  0.3079
  733TMC3    C610887   2.201   3.559  12.737  0.4664 -0.1196  0.3258
  733TMC3     C10888   1.869   3.646  12.970 -0.4988  0.0375  0.6904
  733TMC3     O10889   1.825   3.760  12.945  0.5042  0.5145 -0.8042
  733TMC3     H10890   2.117   3.573  13.056  0.9236  0.2923  0.6472
  733TMC3    H110891   1.870   3.623  12.710 -0.1097 -1.5663 -0.3681
  733TMC3    H210892   2.291   3.544  12.679 -0.6005  1.9527 -1.8878
  733TMC3    C710893   2.086   3.679  12.564  0.4456  0.6174 -0.0694
  733TMC3    C810894   2.324   3.520  12.938  0.5938 -0.3607 -0.0507
  733TMC3    O110895   1.979   3.692  12.501 -0.0288  0.2658  0.0984
  733TMC3    O210896   2.315   3.470  13.048  0.6169  0.6894  0.3538
  734MPD2     C10897   3.339   1.647  12.812  0.0052 -0.2423 -0.2332
  734MPD2    C110898   3.338   1.536  12.735  0.6966 -0.2409  0.1499
  734MPD2    C210899   3.402   1.548  12.614  0.3313  0.0551  0.1286
  734MPD2    C310900   3.439   1.671  12.564  0.1479  0.1335  0.1943
  734MPD2    C410901   3.437   1.783  12.647  0.2184 -0.7156  0.5105
  734MPD2    C510902   3.381   1.770  12.771 -0.4377  0.0303  0.9409
  734MPD2     H10903   3.412   1.461  12.550  0.0112 -0.3855  0.6816
  734MPD2    H110904   3.480   1.878  12.615 -0.1298 -0.5982  0.3797
  734MPD2    H210905   3.298   1.647  12.913 -2.9696 -0.1628 -1.4441
  734MPD2    H310906   3.381   1.859  12.834  0.1109  0.9184 -0.3114
  734MPD2     N10907   3.491   1.677  12.438 -0.3203  0.0155 -0.0353
  734MPD2    H510908   3.517   1.586  12.401 -0.3666  0.5367 -1.3656
  734MPD2    N110909   3.267   1.419  12.783 -0.1127 -0.3612 -0.1017
  734MPD2    H710910   3.240   1.410  12.881  1.7502  0.5301  0.4996
  735TMC3    C110911   3.172   1.191  12.764 -0.0149 -0.2284  0.4726
  735TMC3    C210912   3.122   1.110  12.668  0.8322 -0.2825 -0.0366
  735TMC3    C310913   3.173   0.987  12.650 -0.2284 -0.7485  0.7277
  735TMC3    C410914   3.269   1.142  12.850 -0.2873  0.1617  0.2407
  735TMC3    C510915   3.305   1.017  12.846 -0.5285 -0.0706 -0.6335
  735TMC3    C610916   3.258   0.939  12.749  0.3553  0.1381  0.8851
  735TMC3     C10917   3.213   1.318  12.703  0.1392 -0.0185 -0.1067
  735TMC3     O10918   3.212   1.312  12.576  0.0742 -0.4089  0.0554
  735TMC3     H10919   3.040   1.142  12.605  0.1462  1.3754  1.7184
  735TMC3    H110920   3.337   1.212  12.897  0.0513  0.4894 -0.7418
  735TMC3    H210921   3.315   0.848  12.732 -0.5108 -0.4979  1.3776
  735TMC3    C710922   3.446   1.008  12.852 -0.5471  0.0531 -0.4007
  735TMC3    C810923   3.226   0.960  12.520  0.6443 -0.6229 -0.3126
  735TMC3    O110924   3.512   1.102  12.817 -0.1793 -0.1199  0.1375
  735TMC3    O210925   3.295   0.859  12.506 -0.3356 -0.2049 -0.8744
  736MPD2     C10926   3.644   0.742  12.993 -0.6076 -0.4683 -0.3758
  736MPD2    C110927   3.622   0.841  12.904  0.2205  0.7390  1.0066
  736MPD2    C210928   3.722   0.883  12.821  0.6950 -0.5830 -0.2154
  736MPD2    C310929   3.849   0.828  12.830 -0.1583 -0.2814 -0.2141
  736MPD2    C410930   3.875   0.719  12.909  0.2686 -0.0706  0.1769
  736MPD2    C510931   3.771   0.685  12.990 -0.0062 -0.4004  0.2518
  736MPD2     H10932   3.699   0.941  12.732  0.3461  0.0274  0.2724
  736MPD2    H110933   3.974   0.676  12.925  1.3524  2.3233 -0.0642
  736MPD2    H210934   3.562   0.714  13.059 -1.7348 -0.1176 -1.6264
  736MPD2    H310935   3.796   0.607  13.062 -2.9319 -1.7309 -0.1871
  736MPD2     N10936   3.950   0.879  12.746 -0.2493  0.7070  0.3809
  736MPD2    H510937   4.035   0.823  12.746  0.6851  2.1258 -2.2879
  736MPD2    N110938   3.490   0.891  12.903  0.6375 -0.3059 -0.6215
  736MPD2    H710939   3.421   0.841  12.959  1.2505  0.2800  0.6562
  737TMC3    C110940   4.053   1.010  12.583 -0.1859 -0.4288 -0.1998
  737TMC3    C210941   4.061   1.141  12.547  0.8002 -0.5504  0.0283
  737TMC3    C310942   4.101   1.164  12.422 -0.4170  0.2142  0.1886
  737TMC3    C410943   4.098   0.908  12.509  0.1586 -0.1063 -0.0670
  737TMC3    C510944   4.149   0.941  12.384  0.7658  0.5205  0.5088
  737TMC3    C610945   4.136   1.068  12.332  0.1962  0.7053 -0.5906
  737TMC3     C10946   3.945   0.997  12.677  0.1981  1.4657 -0.7750
  737TMC3     O10947   3.860   1.084  12.678 -0.1009  0.0681  0.3996
  737TMC3     H10948   4.006   1.220  12.597  0.0465 -2.1516  1.6935
  737TMC3    H110949   4.076   0.807  12.539  0.6319 -0.7571 -1.9478
  737TMC3    H210950   4.151   1.088  12.227 -0.3939  1.2688 -0.5708
  737TMC3    C710951   4.189   0.832  12.290 -0.2904  0.4464  0.1971
  737TMC3    C810952   4.063   1.297  12.381  0.1846  0.0874  0.5622
  737TMC3    O110953   4.118   0.734  12.289 -0.4462  0.1812 -0.0381
  737TMC3    O210954   4.091   1.381  12.467  0.2563  0.2919 -0.5082
  738MPD2     C10955   4.352   4.339  14.982  0.6157  0.3482 -0.3743
  738MPD2    C110956   4.444   4.301  15.080 -0.4877 -0.3449 -0.0116
  738MPD2    C210957   4.546   4.387  15.109 -0.1555 -0.4608 -0.0506
  738MPD2    C310958   4.576   4.497  15.035  0.2032  0.8530  0.7003
  738MPD2    C410959   4.505   4.524  14.920  0.0742 -0.7852 -0.1133
  738MPD2    C510960   4.397   4.439  14.894  0.4499  0.2287  0.4349
  738MPD2     H10961   4.608   4.356  15.193 -0.6614 -0.3576  0.3630
  738MPD2    H110962   4.524   4.602  14.847 -0.6257  0.2766  0.8345
  738MPD2    H210963   4.277   4.267  14.952  0.3852  0.5858 -0.3692
  738MPD2    H310964   4.332   4.478  14.817  1.0761  0.5019  0.0481
  738MPD2     N10965   4.696   4.572  15.053 -0.2306 -0.5671  0.5683
  738MPD2    H510966   4.715   4.643  14.982  1.2088 -0.6326  0.8803
  738MPD2    N110967   4.444   4.175  15.142  0.4381 -0.3247  0.1825
  738MPD2    H710968   4.515   4.161  15.213 -0.6271 -0.3270  1.2705
  739TMC3    C110969   0.186   4.619  15.108 -0.2725  0.1820 -0.1526
  739TMC3    C210970   0.227   4.607  14.974  0.0467 -0.3312 -0.2405
  739TMC3    C310971   0.348   4.655  14.947  0.1513  0.1319  1.0251
  739TMC3    C410972   0.265   4.673  15.200  0.1603 -0.8273 -0.1138
  739TMC3    C510973   0.392   4.710  15.163 -0.1842  0.1082  0.2495
  739TMC3    C610974   0.437   4.717  15.035 -0.1321 -0.6386  0.1283
  739TMC3     C10975   0.057   4.558  15.149  0.6010 -0.0410 -0.0434
  739TMC3     O10976   0.050   4.504  15.260  0.5094 -0.3075 -0.0615
  739TMC3     H10977   0.159   4.565  14.901 -0.0342 -0.1362 -0.2755
  739TMC3    H110978   0.228   4.669  15.302  0.9150  1.3136  0.2362
  739TMC3    H210979   0.540   0.001  15.008 -0.1338 -1.2736 -0.3647
  739TMC3    C710980   0.458   0.036  15.270 -1.0048  0.3338 -0.8707
  739TMC3    C810981   0.391   4.648  14.805  0.2870 -0.1466  0.2903
  739TMC3    O110982   0.424   0.012  15.385  0.2762 -0.1771 -0.3097
  739TMC3    O210983   0.344   4.564  14.729 -0.1280  0.8305 -0.1010
  740TMC3    C110984   0.783   0.995  14.429 -0.5067 -0.3172  0.0581
  740TMC3    C210985   0.861   0.951  14.535  0.0365  0.4185  0.1969
  740TMC3    C310986   0.993   0.920  14.516 -0.4696 -0.5407  0.2669
  740TMC3    C410987   0.836   1.006  14.305 -0.3506 -0.8006 -0.0890
  740TMC3    C510988   0.970   0.979  14.288  0.0434  0.0397 -0.0243
  740TMC3    C610989   1.052   0.951  14.395  0.6838  0.2839  0.2301
  740TMC3     C10990   0.655   1.049  14.453 -0.0566 -0.1584 -0.1395
  740TMC3     O10991   0.615   1.116  14.359 -0.1306 -0.0617  0.2534
  740TMC3     H10992   0.823   0.945  14.636  2.9218  0.0254  1.2486
  740TMC3    H110993   0.782   1.035  14.216 -1.0774 -0.5107  0.4473
  740TMC3    H210994   1.158   0.940  14.375  0.9767  1.0815  1.3501
  740TMC3    C710995   1.036   1.001  14.166 -0.5603  0.1026  0.1084
  740TMC3    C810996   1.055   0.812  14.590 -0.3690  0.0547 -0.3568
  740TMC3    O110997   1.151   1.050  14.177 -0.2413 -0.1054 -0.2567
  740TMC3    O210998   1.166   0.767  14.557  0.4810 -0.4525 -0.1956
  741TMC3    C110999   0.025   0.298  14.503 -0.0481 -0.1832 -0.0633
  741TMC3    C211000   4.660   0.234  14.434 -0.0596  0.5876  0.4053
  741TMC3    C311001   4.611   0.125  14.491 -0.3064  0.1449  0.5696
  741TMC3    C411002   0.073   0.263  14.623 -0.7022  0.4025  0.1391
  741TMC3    C511003   0.024   0.149  14.677 -0.6881 -0.1604  0.4905
  741TMC3    C611004   4.671   0.074  14.607  0.0135 -0.2204 -0.1012
  741TMC3     C11005   0.118   0.361  14.416  0.1932 -0.1750 -0.4855
  741TMC3     O11006   0.234   0.353  14.445  0.4067  0.4507  0.0748
  741TMC3     H11007   4.646   0.249  14.328  0.7923  1.6086  0.4373
  741TMC3    H111008   0.143   0.338  14.658 -2.1460  1.3160  1.0723
  741TMC3    H211009   4.630   4.725  14.656  0.0268  0.6425  1.4094
  741TMC3    C711010   0.050   0.124  14.819  0.1793  0.0662  0.2075
  741TMC3    C811011   4.549   0.030  14.398 -0.0944  0.3968  0.3029
  741TMC3    O111012   4.730   0.033  14.872 -0.6730 -0.5054  0.4535
  741TMC3    O211013   4.494   0.084  14.302  0.2371 -0.0233  0.0990
  742TMC3    C111014   0.267   3.474  15.155 -0.4167 -0.3982  0.1133
  742TMC3    C211015   0.175   3.400  15.084 -0.2815 -0.9230  0.5250
  742TMC3    C311016   0.217   3.279  15.033  0.4753 -0.4591  0.1560
  742TMC3    C411017   0.393   3.424  15.189 -0.4795  0.5885 -0.0418
  742TMC3    C511018   0.425   3.306  15.132 -0.1699  0.3395  0.0361
  742TMC3    C611019   0.340   3.228  15.050 -0.6736  0.1146  0.1146
  742TMC3     C11020   0.245   3.614  15.192  1.0789 -0.0413 -0.7719
  742TMC3     O11021   0.134   3.656  15.180  0.2632  0.1109 -0.2018
  742TMC3     H11022   0.092   3.453  15.039 -0.0127 -0.5345  0.4892
  742TMC3    H111023   0.456   3.473  15.262 -2.3878  1.8839  0.7180
  742TMC3    H211024   0.369   3.131  15.009 -0.9381 -0.4003  1.1436
  742TMC3    C711025   0.551   3.234  15.176  0.6386 -0.6399 -0.2155
  742TMC3    C811026   0.150   3.226  14.916  0.6656  0.4177 -0.4145
  742TMC3    O111027   0.553   3.116  15.139  0.2511 -0.7315 -0.5851
  742TMC3    O211028   0.216   3.166  14.836 -0.1285 -0.7368 -0.5543
  743MPD2     C11029   2.669   4.605   1.989 -0.0507 -0.3096 -1.2943
  743MPD2    C111030   2.728   4.564   1.868  0.0665 -0.5150  0.5896
  743MPD2    C211031   2.865   4.587   1.838 -0.6012  0.1567 -0.8375
  743MPD2    C311032   2.953   4.632   1.934  0.1543 -0.1391  0.5883
  743MPD2    C411033   2.894   4.665   2.058  0.5081 -0.9561 -0.5187
  743MPD2    C511034   2.762   4.644   2.085  0.0133  0.2626 -0.0595
  743MPD2     H11035   2.883   4.561   1.734  2.1458 -0.6714 -0.1563
  743MPD2    H111036   2.957   4.716   2.130  0.2963  0.8765 -1.6299
  743MPD2    H211037   2.562   4.608   2.007 -0.0424  0.8138 -1.4342
  743MPD2    H311038   2.721   4.683   2.177  1.7079 -0.0175  0.8189
  743MPD2     N11039   3.082   4.643   1.887  0.4104  0.3940 -0.5009
  743MPD2    H511040   3.091   4.630   1.787 -3.2903 -1.4919 -0.5772
  743MPD2    N111041   2.628   4.502   1.782  0.0887  0.2971  0.1219
  743MPD2    H711042   2.535   4.493   1.822 -0.1315 -1.0348 -0.6995
  744TMC3    C111043   2.541   4.425   1.564  0.2991  0.0706  0.4933
  744TMC3    C211044   2.409   4.446   1.603 -0.2188  0.3040  0.4996
  744TMC3    C311045   2.305   4.395   1.531  0.1075 -0.5962 -0.3071
  744TMC3    C411046   2.565   4.363   1.449  0.3490  0.3984  0.2480
  744TMC3    C511047   2.456   4.322   1.371 -0.6323 -0.1354  0.7899
  744TMC3    C611048   2.329   4.338   1.415  0.8524 -0.2093 -0.3945
  744TMC3     C11049   2.653   4.448   1.650 -0.6835 -0.1762  0.1269
  744TMC3     O11050   2.764   4.426   1.606 -0.0506 -0.1077 -0.8801
  744TMC3     H11051   2.384   4.509   1.688  0.3613  1.9754 -0.5749
  744TMC3    H111052   2.663   4.334   1.412  0.8345  0.1220  1.7535
  744TMC3    H211053   2.242   4.313   1.356  0.8530 -1.1064 -0.0081
  744TMC3    C711054   2.483   4.273   1.236 -0.0075 -0.0739  0.4842
  744TMC3    C811055   2.164   4.411   1.575 -0.2199 -0.5324 -0.2864
  744TMC3    O111056   2.600   4.267   1.191 -0.0071  0.0019  0.6046
  744TMC3    O211057   2.084   4.385   1.488  0.3980  0.3098  0.7740
  745TMC3    C111058   1.143   3.282  13.527  0.1801 -0.2439 -0.3616
  745TMC3    C211059   1.039   3.208  13.573 -0.7867  0.6325  0.4788
  745TMC3    C311060   0.990   3.102  13.496 -0.7239 -0.6157  0.1469
  745TMC3    C411061   1.196   3.263  13.400  0.5217  0.5753  0.4483
  745TMC3    C511062   1.139   3.160  13.324 -0.4675 -0.4914 -0.0801
  745TMC3    C611063   1.035   3.084  13.367 -0.4472  0.0123 -0.1805
  745TMC3     C11064   1.141   3.426  13.556  0.3118  0.3010  0.0120
  745TMC3     O11065   1.200   3.499  13.475 -0.3433  0.1336 -0.3931
  745TMC3     H11066   0.986   3.239  13.663 -1.2431  2.8923 -0.5514
  745TMC3    H111067   1.294   3.302  13.375  0.1979  2.0121  1.3837
  745TMC3    H211068   0.995   3.008  13.302  0.4161 -1.5156  1.0856
  745TMC3    C711069   1.109   3.200  13.188  0.9513  0.1670  0.8157
  745TMC3    C811070   0.871   3.033  13.539 -0.2339  0.0114 -0.2427
  745TMC3    O111071   1.077   3.115  13.102 -0.7082  0.3386  0.1321
  745TMC3    O211072   0.790   2.995  13.457 -0.0816  0.2204  0.0719
  746TMC3    C111073   2.537   1.108  11.601  0.0975 -0.1274 -0.2831
  746TMC3    C211074   2.638   1.096  11.510  1.1470  0.0661 -0.9574
  746TMC3    C311075   2.622   0.990  11.427  0.1086  0.4089  0.0736
  746TMC3    C411076   2.427   1.034  11.601  0.4593  0.3126 -0.0277
  746TMC3    C511077   2.407   0.941  11.504  0.2930 -0.7792  0.2586
  746TMC3    C611078   2.506   0.919  11.415  0.4880  0.1531  0.4589
  746TMC3     C11079   2.514   1.238  11.651  0.6379 -0.5758 -0.8910
  746TMC3     O11080   2.461   1.249  11.759  0.1983  0.1415  0.8150
  746TMC3     H11081   2.729   1.154  11.507 -0.9874  3.5570  1.8613
  746TMC3    H111082   2.349   1.059  11.672 -0.1641 -0.6016 -0.3938
  746TMC3    H211083   2.494   0.832  11.351  0.1941  1.5329 -1.3765
  746TMC3    C711084   2.274   0.882  11.468 -0.0695 -0.2482  0.2767
  746TMC3    C811085   2.716   0.957  11.318 -0.1096  0.4685  0.7799
  746TMC3    O111086   2.264   0.838  11.355  0.6355  0.1048  0.4491
  746TMC3    O211087   2.837   0.964  11.342  0.1540  0.1634  0.3149
  747TMC3    C111088   0.034   1.068  11.449 -0.0848  0.2855 -0.6370
  747TMC3    C211089   4.702   0.960  11.496  0.6165 -0.0147  0.3324
  747TMC3    C311090   4.702   0.946  11.634  0.3688 -0.8251  0.3068
  747TMC3    C411091   0.097   1.156  11.530  0.6571  0.2757  0.0696
  747TMC3    C511092   0.092   1.131  11.668  0.3083 -0.2187 -0.1701
  747TMC3    C611093   0.027   1.027  11.721 -0.4532  0.1319 -0.4931
  747TMC3     C11094   0.052   1.097  11.307 -0.0672 -0.1912  0.3588
  747TMC3     O11095   0.079   1.216  11.281  0.6199 -0.4684 -0.0813
  747TMC3     H11096   4.660   0.889  11.425  0.2949 -1.1199  1.6278
  747TMC3    H111097   0.172   1.224  11.491 -2.5669  3.9031  0.1886
  747TMC3    H211098   0.024   1.011  11.829 -0.2731  1.1574 -0.3287
  747TMC3    C711099   0.190   1.193  11.759 -0.6158 -0.6870 -0.0420
  747TMC3    C811100   4.622   0.840  11.691  0.2256 -0.0484  0.6437
  747TMC3    O111101   0.214   1.135  11.865 -0.1325  0.6928  0.3470
  747TMC3    O211102   4.604   0.743  11.623  0.1894 -0.1906  0.0254
  748MPD2     C11103   2.095   2.149   1.490 -0.0109 -0.3116  0.0414
  748MPD2    C111104   1.997   2.081   1.426 -0.2794  0.6516  0.7430
  748MPD2    C211105   2.024   1.951   1.392  0.2729 -0.2862  0.5455
  748MPD2    C311106   2.140   1.886   1.435  0.9452  0.5058  0.1443
  748MPD2    C411107   2.234   1.959   1.506  0.5984 -0.1025  0.0162
  748MPD2    C511108   2.203   2.089   1.536 -0.0604  0.1692  0.2495
  748MPD2     H11109   1.962   1.884   1.333 -1.0661  0.2226  1.3700
  748MPD2    H111110   2.329   1.924   1.544  0.2864 -1.8536 -0.7888
  748MPD2    H211111   2.075   2.250   1.527  0.9155  0.4853 -1.6702
  748MPD2    H311112   2.287   2.129   1.592 -1.0953  0.0425  1.9119
  748MPD2     N11113   2.158   1.743   1.418 -0.1652  0.0440  0.5455
  748MPD2    H511114   2.098   1.695   1.352  0.1910  0.4660 -0.0830
  748MPD2    N111115   1.872   2.144   1.418  0.2591 -0.0037 -0.3571
  748MPD2    H711116   1.858   2.240   1.448 -2.1694 -0.2915 -0.5312
  749TMC3    C111117   2.270   1.534   1.443 -0.1646 -0.3792  0.4945
  749TMC3    C211118   2.309   1.448   1.537  0.2869  0.4897  0.1712
  749TMC3    C311119   2.317   1.317   1.493  0.4855 -0.3478  0.3780
  749TMC3    C411120   2.231   1.493   1.313 -0.4983  0.0447  0.4474
  749TMC3    C511121   2.246   1.366   1.275 -0.2939  0.2639  0.5534
  749TMC3    C611122   2.280   1.274   1.366  0.3328  0.3164 -0.0523
  749TMC3     C11123   2.260   1.669   1.483 -0.4416 -0.4274  0.1996
  749TMC3     O11124   2.319   1.697   1.585 -0.2591 -0.1553 -0.0758
  749TMC3     H11125   2.345   1.482   1.633 -0.4208  0.4058  0.4690
  749TMC3    H111126   2.194   1.569   1.245 -2.0685 -0.1059  1.1325
  749TMC3    H211127   2.299   1.174   1.328  1.2685  0.4571  0.0329
  749TMC3    C711128   2.262   1.320   1.140  0.7484  0.8666 -0.4267
  749TMC3    C811129   2.362   1.221   1.587  0.5970  0.2171 -0.3647
  749TMC3    O111130   2.256   1.202   1.110 -0.0122  0.4323 -0.2015
  749TMC3    O211131   2.361   1.262   1.703  0.0436 -0.2775 -0.7934
  750MPD2     C11132   2.074   2.583  11.151  0.1875  0.3843 -0.5496
  750MPD2    C111133   2.038   2.515  11.266 -0.7907  0.4997  0.2483
  750MPD2    C211134   1.971   2.401  11.243 -0.6443  0.8126  0.0231
  750MPD2    C311135   1.956   2.341  11.120  0.1548 -1.2133 -0.2868
  750MPD2    C411136   2.003   2.408  11.008 -0.3967 -0.3825  0.4290
  750MPD2    C511137   2.055   2.534  11.026 -0.0317 -0.1865  0.6695
  750MPD2     H11138   1.940   2.344  11.330  1.7211 -1.6755 -0.7879
  750MPD2    H111139   2.024   2.374  10.907  0.8205  0.1142  0.5114
  750MPD2    H211140   2.128   2.677  11.155  1.7002 -0.4513 -1.3950
  750MPD2    H311141   2.093   2.581  10.936  0.5770 -1.1881  0.4050
  750MPD2     N11142   1.921   2.209  11.106  0.1497 -0.2077 -0.0254
  750MPD2    H511143   1.940   2.165  11.017 -3.2723  1.0113 -1.3598
  750MPD2    N111144   2.082   2.561  11.387  0.3467  0.0371 -0.2155
  750MPD2    H711145   2.113   2.658  11.391  0.2348  0.0958 -0.6892
  751TMC3    C111146   1.831   2.001  11.158 -0.3367 -0.3298  0.3733
  751TMC3    C211147   1.785   1.914  11.256 -0.5371  0.0834 -0.1240
  751TMC3    C311148   1.791   1.779  11.221 -0.1965 -0.6932  0.0036
  751TMC3    C411149   1.870   1.963  11.033  0.1612  0.0869 -0.2554
  751TMC3    C511150   1.881   1.828  11.011  0.2706 -0.0413  0.3905
  751TMC3    C611151   1.848   1.736  11.102 -0.8156 -0.3752 -0.2362
  751TMC3     C11152   1.846   2.138  11.194 -0.9788  0.1917  0.1779
  751TMC3     O11153   1.789   2.166  11.297  0.0138 -0.3824  0.6673
  751TMC3     H11154   1.770   1.948  11.357  0.8868  1.0581 -0.2382
  751TMC3    H111155   1.892   2.036  10.957  3.7762 -0.6273  0.1083
  751TMC3    H211156   1.875   1.632  11.093  0.8610 -0.0646  1.0396
  751TMC3    C711157   1.958   1.802  10.900 -0.1648 -0.3051 -0.3027
  751TMC3    C811158   1.718   1.679  11.295 -0.1003 -0.5488 -0.4463
  751TMC3    O111159   2.026   1.895  10.855 -0.7903  0.5069 -0.2788
  751TMC3    O211160   1.716   1.565  11.253 -0.7128  0.3735 -0.3345
  752TMC3    C111161   1.609   2.000  16.434  0.0101  0.1672 -0.3537
  752TMC3    C211162   1.542   2.007  16.551  0.4334  0.8308 -1.2553
  752TMC3    C311163   1.617   2.057  16.649 -1.1422 -0.4065  0.5367
  752TMC3    C411164   1.732   2.054  16.408  0.1122  0.7072  0.4457
  752TMC3    C511165   1.806   2.097  16.515  0.4344  0.6524  0.0133
  752TMC3    C611166   1.750   2.089  16.637  0.4155  0.6219 -0.1901
  752TMC3     C11167   1.541   1.954  16.317 -0.2427  0.2342  0.0773
  752TMC3     O11168   1.599   1.881  16.240 -0.0021 -0.0153 -0.4111
  752TMC3     H11169   1.438   1.976  16.554  1.0657 -1.0503  0.7385
  752TMC3    H111170   1.768   2.059  16.306  1.2321 -0.9012  0.7640
  752TMC3    H211171   1.808   2.123  16.722  2.6199  0.6771 -1.6930
  752TMC3    C711172   1.882   2.221  16.502 -0.5217  0.7988 -0.9009
  752TMC3    C811173   1.555   2.050  16.777  0.3774 -0.7977 -0.2415
  752TMC3    O111174   1.871   2.302  16.593  0.1236 -1.1853 -0.1059
  752TMC3    O211175   1.465   1.970  16.780  0.2596  0.5198 -0.5949
  753TMC3    C111176   3.906   2.749  13.312 -0.4206  0.5027  0.1300
  753TMC3    C211177   3.995   2.772  13.415  0.8690 -0.3089  0.2264
  753TMC3    C311178   4.126   2.748  13.397 -0.4300 -0.4786 -0.3708
  753TMC3    C411179   3.953   2.699  13.195  0.0916 -0.1462  0.0504
  753TMC3    C511180   4.079   2.645  13.195  0.6322  0.9345  0.6964
  753TMC3    C611181   4.169   2.673  13.293  0.0260 -0.6583  0.3958
  753TMC3     C11182   3.773   2.805  13.311 -0.5674 -0.8004  0.5640
  753TMC3     O11183   3.708   2.797  13.208 -0.0729  0.1308 -0.1840
  753TMC3     H11184   3.953   2.786  13.514  1.0311 -1.5498  0.4683
  753TMC3    H111185   3.891   2.691  13.107  0.8681  0.9892 -0.6040
  753TMC3    H211186   4.268   2.629  13.292  0.2746 -0.1311  2.1543
  753TMC3    C711187   4.135   2.582  13.074  0.1381  0.2459  0.0800
  753TMC3    C811188   4.226   2.758  13.503 -0.0042  0.2451  0.5332
  753TMC3    O111189   4.253   2.588  13.071  0.4122  0.0584  0.1835
  753TMC3    O211190   4.337   2.717  13.481  0.0833 -0.2131 -0.1782
  754MPD2     C11191   2.735   2.033  13.501  0.6908 -0.8664 -0.5679
  754MPD2    C111192   2.652   1.926  13.500  0.2391  0.5572 -0.5096
  754MPD2    C211193   2.524   1.940  13.436 -0.0089  0.2956 -0.0528
  754MPD2    C311194   2.477   2.071  13.411 -0.4068  0.8929 -0.0591
  754MPD2    C411195   2.565   2.176  13.430  0.1370 -0.1795  0.8267
  754MPD2    C511196   2.699   2.155  13.464 -0.8502 -0.4251 -0.3007
  754MPD2     H11197   2.463   1.854  13.411 -0.1397  0.0102  1.2352
  754MPD2    H111198   2.537   2.281  13.422  1.1992 -0.0188 -0.9072
  754MPD2    H211199   2.837   2.025  13.535  0.0277 -3.4710  0.8450
  754MPD2    H311200   2.771   2.237  13.463  0.2958 -1.4178  2.1045
  754MPD2     N11201   2.336   2.099  13.389  0.2040 -0.1112  0.5644
  754MPD2    H511202   2.314   2.198  13.382  0.8848  0.0575  0.7926
  754MPD2    N111203   2.689   1.806  13.560 -0.4573  0.8915  0.1544
  754MPD2    H711204   2.784   1.819  13.592  0.1200 -2.4020 -0.2036
  755MPD2     C11205   1.998   2.859  13.514 -0.6003 -0.2731  0.4913
  755MPD2    C111206   1.881   2.783  13.520  0.4739 -0.7105  0.4191
  755MPD2    C211207   1.879   2.653  13.478 -0.0358 -0.0248 -1.5953
  755MPD2    C311208   1.996   2.594  13.435 -0.4669  0.0024  1.0857
  755MPD2    C411209   2.121   2.662  13.444 -0.2913  0.0197  0.2085
  755MPD2    C511210   2.115   2.793  13.483  0.6946 -0.1647 -0.1661
  755MPD2     H11211   1.783   2.602  13.477 -1.1679  2.0650 -0.3575
  755MPD2    H111212   2.218   2.618  13.425 -0.3785 -0.1973  0.2633
  755MPD2    H211213   2.002   2.963  13.547  2.3457 -0.8274  1.8779
  755MPD2    H311214   2.205   2.853  13.479  1.2424 -0.8412  1.6485
  755MPD2     N11215   2.004   2.464  13.386 -0.6543 -0.6869  0.2768
  755MPD2    H511216   2.104   2.443  13.385 -0.8207 -1.4108 -0.6884
  755MPD2    N111217   1.759   2.834  13.567 -0.3965 -0.2702 -0.3796
  755MPD2    H711218   1.682   2.772  13.590 -1.9754  1.2030 -1.7010
  756MPD2     C11219   1.930   2.540   9.859  0.1114  1.0501 -0.1141
  756MPD2    C111220   1.868   2.548   9.982  0.5427 -0.0080  0.1678
  756MPD2    C211221   1.819   2.428  10.040 -1.1159  0.0860  0.3983
  756MPD2    C311222   1.831   2.308   9.972  0.2708  0.3812 -0.2247
  756MPD2    C411223   1.888   2.309   9.850 -0.5104  0.1944 -0.4681
  756MPD2    C511224   1.936   2.419   9.797 -0.3752  0.5904  0.0929
  756MPD2     H11225   1.766   2.431  10.135  2.3074 -0.4832  2.3083
  756MPD2    H111226   1.900   2.224   9.783  1.5095 -0.7472  1.0972
  756MPD2    H211227   1.978   2.626   9.812  0.6484  0.1389 -1.2283
  756MPD2    H311228   1.989   2.406   9.704 -3.0117 -0.2062 -1.2878
  756MPD2     N11229   1.776   2.191  10.038  0.2417 -0.3027 -0.0285
  756MPD2    H511230   1.747   2.209  10.133 -1.7374 -1.5684 -0.3937
  756MPD2    N111231   1.869   2.661  10.066  0.2869 -0.5646 -0.3774
  756MPD2    H711232   1.845   2.652  10.164  3.3589 -0.2190  0.4088
  757MPD2     C11233   1.315   2.315  10.749 -0.0651 -0.2555  0.0389
  757MPD2    C111234   1.295   2.177  10.763  0.1331 -0.6050  0.5136
  757MPD2    C211235   1.361   2.098  10.674  0.4870 -0.1718  0.2964
  757MPD2    C311236   1.446   2.149  10.575 -0.0411 -0.0358 -0.0715
  757MPD2    C411237   1.463   2.290  10.575  0.0998 -1.3181 -0.4538
  757MPD2    C511238   1.397   2.371  10.658 -0.4230  0.0101  0.5402
  757MPD2     H11239   1.360   1.990  10.679  0.8457 -0.0255  3.4809
  757MPD2    H111240   1.539   2.333  10.512 -0.1773 -0.0359  0.0876
  757MPD2    H211241   1.265   2.383  10.817  0.1789  0.9821 -1.0297
  757MPD2    H311242   1.408   2.479  10.662  0.3503 -0.0724  0.7588
  757MPD2     N11243   1.501   2.068  10.475  0.1692 -0.4519 -0.6330
  757MPD2    H511244   1.483   1.968  10.482 -0.8349 -0.2789 -0.6662
  757MPD2    N111245   1.210   2.123  10.868  0.2247 -0.2367  0.1817
  757MPD2    H711246   1.175   2.188  10.938  1.6010 -0.7616  1.3545
  758MPD2     C11247   2.624   1.843  15.688  0.0611  1.0893 -0.5969
  758MPD2    C111248   2.584   1.720  15.740  0.1340  0.1651  0.0131
  758MPD2    C211249   2.529   1.713  15.865 -0.3880  0.3353 -0.4237
  758MPD2    C311250   2.513   1.826  15.944  0.5126  0.2963 -0.2238
  758MPD2    C411251   2.541   1.948  15.888 -0.3764 -0.0081 -0.5293
  758MPD2    C511252   2.601   1.959  15.764  0.3671 -0.3288  0.0312
  758MPD2     H11253   2.506   1.615  15.905  0.1599  0.0098 -0.9260
  758MPD2    H111254   2.532   2.031  15.957 -0.9719 -1.4005  1.0735
  758MPD2    H211255   2.693   1.850  15.604  1.5136  0.8073  0.5654
  758MPD2    H311256   2.638   2.054  15.729 -1.3038  0.6863  0.9817
  758MPD2     N11257   2.467   1.822  16.077 -0.0822 -0.3674  0.1584
  758MPD2    H511258   2.482   1.904  16.136  1.4520  0.7735 -1.8576
  758MPD2    N111259   2.612   1.607  15.657 -0.1694 -0.0385 -0.0505
  758MPD2    H711260   2.668   1.637  15.577  1.0037 -0.2972  0.6697
  759MPD2     C11261   0.767   0.294  10.263 -0.3557 -0.2400  0.0068
  759MPD2    C111262   0.842   0.178  10.235 -0.7292 -0.6659 -1.0645
  759MPD2    C211263   0.928   0.169  10.128 -0.1551 -0.3454  0.1380
  759MPD2    C311264   0.931   0.287  10.048  0.4913  0.4165  0.5510
  759MPD2    C411265   0.851   0.394  10.072  0.4884 -0.0724 -0.1130
  759MPD2    C511266   0.778   0.402  10.181 -0.5112 -0.9001 -0.0084
  759MPD2     H11267   0.983   0.077  10.113 -0.2511 -0.6417  1.6135
  759MPD2    H111268   0.868   0.491  10.027 -0.2982 -0.6401 -1.6210
  759MPD2    H211269   0.711   0.316  10.353 -1.3210  1.1190 -0.9263
  759MPD2    H311270   0.716   0.489  10.202  1.8964  0.0874  2.8329
  759MPD2     N11271   1.000   0.288   9.924 -0.2371 -0.4380 -0.2389
  759MPD2    H511272   1.009   0.382   9.886  1.1833  0.6982  2.8637
  759MPD2    N111273   0.836   0.062  10.320 -0.2677  0.6797  0.4050
  759MPD2    H711274   0.900   4.724  10.297  0.4617  1.6758 -0.8955
  760MPD2     C11275   0.586   2.413  12.210  0.4070 -0.4706 -0.5151
  760MPD2    C111276   0.666   2.417  12.102 -0.0675 -0.4692  0.2168
  760MPD2    C211277   0.719   2.305  12.043  0.5381 -0.6751  0.0166
  760MPD2    C311278   0.696   2.179  12.099 -0.2235 -0.3424 -0.2517
  760MPD2    C411279   0.629   2.172  12.218  0.5466 -0.5026  0.6800
  760MPD2    C511280   0.572   2.289  12.272 -0.6771 -0.1845 -0.0321
  760MPD2     H11281   0.785   2.326  11.960 -2.2194  1.1033 -1.7451
  760MPD2    H111282   0.615   2.077  12.269  1.3916 -1.4928 -0.9587
  760MPD2    H211283   0.521   2.493  12.243 -0.1752 -1.0638 -0.2081
  760MPD2    H311284   0.504   2.280  12.356  0.1052 -3.0001  0.3065
  760MPD2     N11285   0.760   2.066  12.052  0.3054 -0.5259  0.1546
  760MPD2    H511286   0.757   1.985  12.113 -2.7789 -1.2088 -0.9374
  760MPD2    N111287   0.688   2.537  12.036  0.1835  0.1806 -0.0931
  760MPD2    H711288   0.752   2.532  11.957 -1.8116 -0.3208 -1.6780
  761MPD2     C11289   1.296   1.553  11.542  0.1692  0.1900 -0.0854
  761MPD2    C111290   1.350   1.507  11.427 -0.7165  0.0134 -0.0043
  761MPD2    C211291   1.465   1.565  11.377  0.0784  0.5286 -0.3922
  761MPD2    C311292   1.523   1.671  11.439  0.0022 -0.5872  0.2776
  761MPD2    C411293   1.471   1.716  11.552 -0.0370  0.1551 -0.1804
  761MPD2    C511294   1.356   1.663  11.600 -0.5953  0.7332 -0.2091
  761MPD2     H11295   1.505   1.532  11.282 -2.2414 -0.6963 -0.9364
  761MPD2    H111296   1.514   1.803  11.599  0.3736 -0.7718  1.1613
  761MPD2    H211297   1.205   1.518  11.589  0.8101 -0.4424  0.6880
  761MPD2    H311298   1.311   1.710  11.687 -2.5089  0.4337 -1.0252
  761MPD2     N11299   1.639   1.740  11.387 -0.6185  0.4883  0.1093
  761MPD2    H511300   1.658   1.831  11.427 -1.8130 -0.3634  2.5802
  761MPD2    N111301   1.297   1.391  11.369 -0.3282 -0.0274 -0.9781
  761MPD2    H711302   1.244   1.321  11.421  1.9824  0.7792  2.4745
  762MPD2     C11303   1.976   1.200  11.420  0.0849  0.2253 -0.3369
  762MPD2    C111304   1.907   1.162  11.301  0.4665  0.7806 -0.2621
  762MPD2    C211305   1.970   1.179  11.177  0.2223  0.3952  0.3238
  762MPD2    C311306   2.091   1.254  11.175 -0.8089  0.0227 -0.0615
  762MPD2    C411307   2.146   1.301  11.290  0.2351 -0.6817 -0.1039
  762MPD2    C511308   2.101   1.256  11.409 -0.8002  0.0240 -0.0338
  762MPD2     H11309   1.927   1.149  11.082 -1.9901 -0.4561  1.6007
  762MPD2    H111310   2.241   1.354  11.288  0.9258 -1.8677  0.8529
  762MPD2    H211311   1.941   1.178  11.520  1.0371  1.1436  0.2008
  762MPD2    H311312   2.153   1.276  11.502 -1.2015  1.9271 -0.2268
  762MPD2     N11313   2.153   1.267  11.048  0.2537  0.4868 -0.1454
  762MPD2    H511314   2.103   1.216  10.976 -0.3827  1.1769 -0.1905
  762MPD2    N111315   1.775   1.105  11.303 -0.5014  0.5527  0.0716
  762MPD2    H711316   1.743   1.087  11.397 -1.0727  1.7059  0.0981
  763MPD2     C11317   4.428   1.569  16.125  0.3655 -0.6311 -0.8477
  763MPD2    C111318   4.303   1.613  16.086  0.0358  0.1848  0.0196
  763MPD2    C211319   4.269   1.751  16.101  0.3213 -0.1566  0.8300
  763MPD2    C311320   4.358   1.845  16.148  0.0120 -0.2807 -0.1322
  763MPD2    C411321   4.488   1.799  16.178 -0.2641  0.5728  0.4861
  763MPD2    C511322   4.511   1.668  16.169  1.4635 -0.5034  0.3319
  763MPD2     H11323   4.169   1.783  16.074 -0.0910 -0.1150  2.4200
  763MPD2    H111324   4.566   1.866  16.214 -0.0880  2.2697 -3.0020
  763MPD2    H211325   4.456   1.465  16.125 -0.2281 -0.7996 -1.8692
  763MPD2    H311326   4.613   1.644  16.195  2.0095  2.6419  1.0768
  763MPD2     N11327   4.342   1.984  16.143  0.1316 -0.0373  0.0397
  763MPD2    H511328   4.425   2.041  16.151  0.7413 -0.9682  0.3197
  763MPD2    N111329   4.213   1.525  16.016  0.9715  0.1292 -0.1039
  763MPD2    H711330   4.153   1.578  15.953 -0.3575 -1.7613 -0.4204
  764MPD2     C11331   2.441   3.086  17.692  0.0685 -0.0682  0.2506
  764MPD2    C111332   2.357   3.035  17.597 -0.2289  0.0597 -0.2377
  764MPD2    C211333   2.255   2.943  17.633  0.8553  0.7888 -0.3063
  764MPD2    C311334   2.239   2.907   0.017  0.1110  0.7425  0.0930
  764MPD2    C411335   2.321   2.960   0.115  0.1167 -0.1218  0.0865
  764MPD2    C511336   2.425   3.039   0.075  0.5338 -0.4058 -0.8302
  764MPD2     H11337   2.191   2.899  17.557 -0.6136  0.1357  1.3335
  764MPD2    H111338   2.322   2.940   0.221  2.7177 -0.9463 -0.1030
  764MPD2    H211339   2.512   3.165  17.669 -0.2489 -0.7704 -3.2320
  764MPD2    H311340   2.487   3.070   0.158 -0.9287  0.6555 -0.1464
  764MPD2     N11341   2.137   2.815   0.046  0.1456  0.0825  0.2763
  764MPD2    H511342   2.096   2.778  17.709  0.0234 -2.1208  1.2939
  764MPD2    N111343   2.351   3.083  17.463  0.0332 -0.1928  0.6926
  764MPD2    H711344   2.292   3.033  17.398  0.5508  1.1224 -0.7905
  765MPD2     C11345   2.472   0.866  15.447 -0.1057  0.3238  0.4926
  765MPD2    C111346   2.474   0.917  15.580  0.0263  0.1853 -0.3510
  765MPD2    C211347   2.594   0.885  15.658  0.5281  0.1161  0.4584
  765MPD2    C311348   2.707   0.832  15.598 -0.1504 -0.5840 -0.1533
  765MPD2    C411349   2.706   0.786  15.466 -0.0513 -0.3036 -0.3495
  765MPD2    C511350   2.591   0.806  15.395  0.0348 -0.2555 -0.0021
  765MPD2     H11351   2.599   0.915  15.762  1.6938 -0.1994  0.4908
  765MPD2    H111352   2.800   0.746  15.430  0.2527  1.3231 -1.3650
  765MPD2    H211353   2.378   0.874  15.395 -0.2444  0.2378  0.7279
  765MPD2    H311354   2.587   0.773  15.291  0.7988 -0.7872  0.1389
  765MPD2     N11355   2.819   0.800  15.681  0.6223 -0.5121  0.2917
  765MPD2    H511356   2.798   0.817  15.779  0.2556 -1.5131  0.3857
  765MPD2    N111357   2.362   0.983  15.632  0.4469  0.5724 -0.1339
  765MPD2    H711358   2.280   0.985  15.573  0.6735 -2.3970 -0.5564
  766MPD2     C11359   1.687   1.041  15.448 -0.5595 -0.0437  0.0305
  766MPD2    C111360   1.824   1.042  15.428 -0.0933  0.0008  1.0358
  766MPD2    C211361   1.855   1.017  15.292 -0.7003  0.4743 -0.2831
  766MPD2    C311362   1.767   1.014  15.186 -0.1901 -0.2717  0.4154
  766MPD2    C411363   1.632   1.015  15.221 -0.7773  0.0057 -0.1759
  766MPD2    C511364   1.596   1.024  15.352  0.0589 -0.4643 -0.1706
  766MPD2     H11365   1.960   1.007  15.271 -1.4831 -1.9144 -2.9656
  766MPD2    H111366   1.557   1.014  15.142  0.8129  0.6389 -1.6882
  766MPD2    H211367   1.647   1.055  15.548 -1.1818  2.5005 -0.5683
  766MPD2    H311368   1.492   1.024  15.384  0.3752  0.1854  0.8483
  766MPD2     N11369   1.805   1.020  15.049 -0.5472  0.7309  0.0330
  766MPD2    H511370   1.732   1.019  14.979  2.0773  1.3137 -2.6983
  766MPD2    N111371   1.916   1.084  15.522 -0.4747 -0.2708 -0.1518
  766MPD2    H711372   2.016   1.074  15.504 -0.1761  1.2948  0.5990
  767MPD2     C11373   1.334   1.215  15.111  0.0607  0.5366 -0.0204
  767MPD2    C111374   1.447   1.262  15.052 -0.2591 -0.5016  0.0391
  767MPD2    C211375   1.470   1.218  14.924 -0.6850  0.1513 -0.4764
  767MPD2    C311376   1.374   1.150  14.854 -0.5776 -0.5083  0.3848
  767MPD2    C411377   1.262   1.106  14.916 -0.7502  0.5670  0.7272
  767MPD2    C511378   1.242   1.144  15.043  0.3964  0.1885  0.9704
  767MPD2     H11379   1.560   1.242  14.870 -0.4239  2.4268  0.9629
  767MPD2    H111380   1.201   1.036  14.860 -1.4440  0.0076  2.1798
  767MPD2    H211381   1.323   1.228  15.218  2.6229  2.6011 -0.0126
  767MPD2    H311382   1.157   1.108  15.099 -1.9901  0.8480 -2.2957
  767MPD2     N11383   1.405   1.116  14.718 -0.1413 -0.1615  0.1102
  767MPD2    H511384   1.497   1.143  14.685 -0.3604  1.2481  0.6716
  767MPD2    N111385   1.544   1.325  15.134 -0.1611 -0.1142 -0.6353
  767MPD2    H711386   1.526   1.344  15.232  0.5465  1.2001 -0.7623
  768MPD2     C11387   2.253   0.181  11.132  0.2637 -0.7837 -0.4821
  768MPD2    C111388   2.197   0.271  11.221  0.5891 -0.3238 -0.5300
  768MPD2    C211389   2.274   0.324  11.327 -0.2696 -0.3550 -0.5136
  768MPD2    C311390   2.398   0.276  11.359 -0.1563  0.0871  0.5217
  768MPD2    C411391   2.445   0.181  11.274 -0.2555  0.5430  0.6191
  768MPD2    C511392   2.379   0.146  11.158 -0.7606  0.1947  0.1075
  768MPD2     H11393   2.233   0.399  11.394 -1.8120  0.3556 -2.2593
  768MPD2    H111394   2.542   0.134  11.287 -1.2219 -2.2356 -2.3129
  768MPD2    H211395   2.200   0.149  11.043  0.8489  0.7972 -1.3816
  768MPD2    H311396   2.444   0.084  11.097 -0.1559  0.5600  0.3788
  768MPD2     N11397   2.469   0.310  11.478  0.4702 -0.0295 -0.0832
  768MPD2    H511398   2.561   0.270  11.493  0.5229  0.0548 -0.1775
  768MPD2    N111399   2.072   0.329  11.208  0.3303  0.0270 -0.1318
  768MPD2    H711400   2.049   0.405  11.271 -0.9473 -1.0120  0.6422
  769MPD2     C11401   2.992   2.489  15.760  0.5621 -0.1692 -0.2952
  769MPD2    C111402   3.023   2.509  15.621  0.3375 -0.4365 -0.6660
  769MPD2    C211403   3.145   2.574  15.595  0.1023 -0.6148 -0.3260
  769MPD2    C311404   3.224   2.617  15.698  0.7227 -0.8169  0.3407
  769MPD2    C411405   3.190   2.602  15.830  0.4876  0.5692 -0.5779
  769MPD2    C511406   3.072   2.541  15.859  0.1044  0.5194  0.1654
  769MPD2     H11407   3.181   2.590  15.494  1.8372 -0.3581  0.3322
  769MPD2    H111408   3.249   2.646  15.910  0.7521  0.1037 -0.5187
  769MPD2    H211409   2.889   2.463  15.783  0.6991  1.1793  1.8293
  769MPD2    H311410   3.032   2.531  15.959 -0.5897  0.6730 -0.1006
  769MPD2     N11411   3.345   2.679  15.660  0.5709 -0.6459 -0.0816
  769MPD2    H511412   3.364   2.667  15.561 -0.9137  1.4820 -0.6265
  769MPD2    N111413   2.927   2.480  15.518 -0.0085 -0.2713 -0.9612
  769MPD2    H711414   2.849   2.426  15.553  0.8089  0.7140  2.4233
  770MPD2     C11415   2.850   2.066  14.546 -0.6326 -0.1231 -0.3459
  770MPD2    C111416   2.754   1.999  14.619  0.4412 -0.4001 -0.3627
  770MPD2    C211417   2.718   2.051  14.740  0.0281  0.6692 -0.0557
  770MPD2    C311418   2.770   2.174  14.778 -0.3361  0.4191  0.1598
  770MPD2    C411419   2.860   2.244  14.702  0.1607 -0.2834  0.4496
  770MPD2    C511420   2.888   2.195  14.578  1.2640 -0.1041  0.9293
  770MPD2     H11421   2.669   1.990  14.815  0.6672 -0.5903 -0.6658
  770MPD2    H111422   2.906   2.340  14.722 -0.8096  0.3538 -0.4020
  770MPD2    H211423   2.881   2.023  14.452  1.5390  1.7355 -0.4768
  770MPD2    H311424   2.946   2.255  14.508 -0.6542  0.7538  0.0527
  770MPD2     N11425   2.739   2.224  14.903  0.4573 -0.0084  0.3405
  770MPD2    H511426   2.681   2.170  14.966 -1.8811  1.8267 -0.2026
  770MPD2    N111427   2.714   1.868  14.581 -0.0764  0.8249  0.2966
  770MPD2    H711428   2.764   1.838  14.498 -1.0581 -0.1883  0.0746
  771MPD2     C11429   4.147   0.863  13.501  0.1609  0.4972 -0.7119
  771MPD2    C111430   4.010   0.862  13.487  0.9410 -0.4283  0.4126
  771MPD2    C211431   3.938   0.752  13.513 -0.8088  0.5249  0.3953
  771MPD2    C311432   3.989   0.632  13.545  0.6624  0.1026  0.5585
  771MPD2    C411433   4.128   0.630  13.551 -0.0234  0.2119 -0.1740
  771MPD2    C511434   4.204   0.743  13.542 -0.2796 -0.5487 -0.3057
  771MPD2     H11435   3.831   0.759  13.494 -0.2544  1.3412 -2.4761
  771MPD2    H111436   4.180   0.541  13.584 -2.9501 -1.2644  0.5087
  771MPD2    H211437   4.214   0.947  13.484 -2.0317  2.3354 -0.3624
  771MPD2    H311438   4.311   0.727  13.555  0.3437  0.9256 -3.4950
  771MPD2     N11439   3.906   0.524  13.561 -0.0600 -1.0306  0.6733
  771MPD2    H511440   3.811   0.548  13.534  0.0413 -0.9138  0.4205
  771MPD2    N111441   3.937   0.983  13.448 -0.5550 -0.0130  0.2336
  771MPD2    H711442   3.839   0.982  13.473 -0.8723 -0.0111 -1.0243
  772MPD2     C11443   3.297   1.335  13.524 -0.0618 -0.1501 -0.0585
  772MPD2    C111444   3.401   1.262  13.570 -0.1864  1.0164 -0.0949
  772MPD2    C211445   3.384   1.166  13.661  0.0800  0.1439 -0.5558
  772MPD2    C311446   3.266   1.147  13.727 -0.1082 -0.9682  0.4658
  772MPD2    C411447   3.156   1.222  13.684 -0.5380 -0.3756  0.0486
  772MPD2    C511448   3.183   1.317  13.590 -0.1197 -0.4787 -0.2779
  772MPD2     H11449   3.475   1.109  13.680 -1.2478 -1.0747  2.2613
  772MPD2    H111450   3.056   1.220  13.725 -1.9379 -2.1060 -3.4725
  772MPD2    H211451   3.309   1.413  13.449 -1.5232  2.4988  2.4429
  772MPD2    H311452   3.094   1.368  13.557  0.1616 -0.6985 -1.3785
  772MPD2     N11453   3.254   1.063  13.839 -0.3814  0.0601 -0.1162
  772MPD2    H511454   3.167   1.059  13.891  0.5248  1.8198  1.5752
  772MPD2    N111455   3.539   1.280  13.526 -0.2703 -0.0683  0.4140
  772MPD2    H711456   3.612   1.218  13.560 -0.0867  0.4606  0.9862
  773MPD2     C11457   3.020   1.601   0.415 -0.3459 -0.7467 -0.6173
  773MPD2    C111458   2.965   1.537   0.301  0.0052  0.6324 -0.4720
  773MPD2    C211459   2.976   1.400   0.301  0.3869  0.1562 -0.3200
  773MPD2    C311460   3.051   1.327   0.397 -0.4376  0.2370  0.3355
  773MPD2    C411461   3.111   1.395   0.499 -0.2360  0.2902  0.3328
  773MPD2    C511462   3.088   1.532   0.509 -0.1519 -0.5814  0.6101
  773MPD2     H11463   2.928   1.336   0.228  0.8094  0.0097 -0.4720
  773MPD2    H111464   3.172   1.351   0.576  1.1957  0.4677 -0.7014
  773MPD2    H211465   3.004   1.706   0.435  0.9713 -0.9567  1.5206
  773MPD2    H311466   3.131   1.585   0.593  1.7839 -0.9806 -0.1262
  773MPD2     N11467   3.065   1.185   0.371 -0.0432 -0.2025 -0.0343
  773MPD2    H511468   3.015   1.144   0.293  0.2825  0.7293 -0.7331
  773MPD2    N111469   2.892   1.605   0.196 -0.2349  0.9107  0.2117
  773MPD2    H711470   2.837   1.544   0.135  1.9841  1.0674 -1.9716
  774MPD2     C11471   1.880   1.070  13.608  0.2664 -0.3810  0.0639
  774MPD2    C111472   2.006   1.083  13.655 -0.1861 -0.7438 -0.8086
  774MPD2    C211473   2.086   1.187  13.615 -0.1569  0.6654  0.1369
  774MPD2    C311474   2.042   1.277  13.520  0.1230  0.4470  0.2395
  774MPD2    C411475   1.915   1.269  13.473 -0.4959  0.2188  0.3034
  774MPD2    C511476   1.832   1.175  13.529 -0.2043 -0.0410 -0.7304
  774MPD2     H11477   2.191   1.185  13.641  0.2009  1.8179 -1.2352
  774MPD2    H111478   1.882   1.353  13.412  1.3850 -1.1381 -2.6005
  774MPD2    H211479   1.811   0.994  13.643  0.8786 -1.0930 -0.2577
  774MPD2    H311480   1.730   1.175  13.495 -1.1833 -1.1573  2.2366
  774MPD2     N11481   2.110   1.393  13.490  0.4570 -0.7659  0.0465
  774MPD2    H511482   2.066   1.473  13.445  0.0955  0.9985  3.5386
  774MPD2    N111483   2.054   0.975  13.735 -0.2063 -0.1996 -0.2226
  774MPD2    H711484   1.998   0.891  13.747 -2.2377  1.0245 -1.1412
  775MPD2     C11485   3.763   2.240  15.619 -0.2979 -0.3484 -0.0526
  775MPD2    C111486   3.777   2.358  15.691  0.2384  0.2302  0.3788
  775MPD2    C211487   3.874   2.446  15.659 -0.3163 -1.2454  0.5526
  775MPD2    C311488   3.961   2.422  15.553 -0.1636 -0.3772 -0.2215
  775MPD2    C411489   3.954   2.307  15.482  0.4825  0.5814 -0.3134
  775MPD2    C511490   3.853   2.221  15.521 -0.3067 -0.0934 -0.6051
  775MPD2     H11491   3.887   2.536  15.719  3.5462 -1.4681  0.0228
  775MPD2    H111492   4.020   2.277  15.402 -2.8748 -0.1731 -2.7991
  775MPD2    H211493   3.681   2.172  15.641  0.3461 -1.3880 -0.8201
  775MPD2    H311494   3.844   2.127  15.468  1.2129 -0.8177  0.4072
  775MPD2     N11495   4.070   2.505  15.526 -0.2580  0.3469 -0.1425
  775MPD2    H511496   4.114   2.479  15.438  0.8238  1.4487  0.0658
  775MPD2    N111497   3.686   2.388  15.788 -0.2459  0.0232 -0.1221
  775MPD2    H711498   3.608   2.322  15.797 -1.1546  1.0621 -0.4089
  776MPD2     C11499   2.630   2.920  11.724  0.0358  0.0837 -0.8058
  776MPD2    C111500   2.497   2.938  11.741 -0.7384 -0.2251  0.2156
  776MPD2    C211501   2.450   3.065  11.766 -0.2518 -0.8183 -0.7775
  776MPD2    C311502   2.534   3.176  11.773  0.4140  0.1290 -0.3805
  776MPD2    C411503   2.671   3.148  11.757  0.4766 -0.2532  0.0483
  776MPD2    C511504   2.717   3.029  11.731  0.1037 -0.0095 -0.3486
  776MPD2     H11505   2.343   3.082  11.769 -0.1569 -0.0619 -1.6800
  776MPD2    H111506   2.742   3.230  11.758 -0.3693  0.4621  1.0682
  776MPD2    H211507   2.669   2.824  11.695 -1.4836 -0.2533 -1.7426
  776MPD2    H311508   2.817   3.006  11.698 -0.7343 -2.3455 -1.2643
  776MPD2     N11509   2.492   3.308  11.786 -0.2248  0.1953 -0.1978
  776MPD2    H511510   2.557   3.386  11.780  0.2034 -0.1206  0.3078
  776MPD2    N111511   2.419   2.827  11.731  0.5483 -0.0504 -0.4575
  776MPD2    H711512   2.457   2.739  11.698  0.1388  0.1352 -1.4469
  777MPD2     C11513   2.424   0.403   0.878  0.4904 -0.4309 -0.0227
  777MPD2    C111514   2.533   0.334   0.918  0.4203  0.7335 -0.8021
  777MPD2    C211515   2.582   0.234   0.836 -0.5364  0.6266 -0.1892
  777MPD2    C311516   2.520   0.208   0.717  0.5148  0.4467  0.5079
  777MPD2    C411517   2.410   0.272   0.678 -0.1914  0.1325  0.1803
  777MPD2    C511518   2.372   0.377   0.754  0.2173  0.3267 -0.8977
  777MPD2     H11519   2.677   0.185   0.857  0.1969  1.7835 -0.7990
  777MPD2    H111520   2.346   0.256   0.591 -1.0416  1.9386  0.4512
  777MPD2    H211521   2.384   0.485   0.936  0.7362 -1.0953  1.0773
  777MPD2    H311522   2.288   0.435   0.719 -1.4983 -0.8128  1.3338
  777MPD2     N11523   2.575   0.100   0.645  0.5762 -0.3638 -0.0050
  777MPD2    H511524   2.654   0.055   0.689  0.0374 -0.5606  0.7754
  777MPD2    N111525   2.576   0.351   1.055  0.3265 -0.5626 -0.9354
  777MPD2    H711526   2.532   0.421   1.113  0.8840  0.2825 -1.5398
  778MPD2     C11527   4.175   0.665  14.886 -0.2975  0.8426 -0.2715
  778MPD2    C111528   4.207   0.573  14.789 -0.3554  0.3427 -0.2278
  778MPD2    C211529   4.309   0.601  14.703 -0.4550 -0.5636 -0.7700
  778MPD2    C311530   4.368   0.719  14.695  0.0846  0.0493  0.2703
  778MPD2    C411531   4.338   0.815  14.791  0.2785  0.0036 -0.0873
  778MPD2    C511532   4.246   0.785  14.882 -0.7413  0.2301 -0.0019
  778MPD2     H11533   4.328   0.527  14.626 -2.4635 -0.1332 -1.6958
  778MPD2    H111534   4.377   0.916  14.790  2.8793 -0.9922  0.1651
  778MPD2    H211535   4.095   0.657  14.959 -2.0335 -2.5881 -2.5565
  778MPD2    H311536   4.223   0.861  14.956  0.0410 -0.0551  0.5450
  778MPD2     N11537   4.474   0.737  14.601  0.9344 -0.0618 -0.6161
  778MPD2    H511538   4.507   0.657  14.549 -1.0614 -0.9939 -0.4605
  778MPD2    N111539   4.148   0.449  14.790  0.4932  0.2715  0.1258
  778MPD2    H711540   4.169   0.385  14.714 -1.6741 -0.8238  0.4289
  779MPD2     C11541   3.776   3.769  13.868 -0.1102  0.2088  0.5582
  779MPD2    C111542   3.904   3.798  13.913  0.6544  0.5381  0.2445
  779MPD2    C211543   3.944   3.928  13.937  0.0562 -0.3724  0.2876
  779MPD2    C311544   3.853   4.031  13.903 -0.1991 -0.7246 -0.0081
  779MPD2    C411545   3.733   4.002  13.853 -0.0206 -0.5093 -0.6584
  779MPD2    C511546   3.689   3.871  13.841  0.5065  0.5889 -0.0856
  779MPD2     H11547   4.039   3.948  13.984  0.3142 -1.6005  0.3019
  779MPD2    H111548   3.656   4.078  13.844  0.5679 -0.0456 -1.7153
  779MPD2    H211549   3.750   3.665  13.853 -1.3120  0.6214 -0.1961
  779MPD2    H311550   3.590   3.849  13.802  0.5150 -2.2828  1.4824
  779MPD2     N11551   3.891   4.167  13.936  0.4964  0.4021  0.6941
  779MPD2    H511552   3.985   4.180  13.972  1.5012 -0.4993 -1.6011
  779MPD2    N111553   3.998   3.698  13.955 -0.5344 -0.0764 -0.2534
  779MPD2    H711554   4.090   3.728  13.986 -0.9959  0.6634  0.4261
  780MPD2     C11555   3.936   3.937   0.560 -0.1300 -0.2362  0.1169
  780MPD2    C111556   3.892   3.854   0.460  0.3086 -0.4739 -0.0391
  780MPD2    C211557   3.861   3.914   0.335 -0.9852  0.3521 -0.9431
  780MPD2    C311558   3.882   4.048   0.315  0.1892 -0.0787 -0.2374
  780MPD2    C411559   3.907   4.122   0.425  0.1599 -0.3279  0.9451
  780MPD2    C511560   3.936   4.070   0.544 -0.2091 -0.0579  0.6534
  780MPD2     H11561   3.820   3.855   0.253 -1.1232  1.3564 -1.5860
  780MPD2    H111562   3.913   4.230   0.417  0.5500 -0.5160 -1.4127
  780MPD2    H211563   3.964   3.905   0.660 -2.1077  0.2949  0.8529
  780MPD2    H311564   3.972   4.125   0.630 -2.8700  1.5799  0.7291
  780MPD2     N11565   3.839   4.096   0.190 -0.1746 -0.2885 -0.2870
  780MPD2    H511566   3.810   4.020   0.129 -1.8744  0.1067  0.0445
  780MPD2    N111567   3.879   3.716   0.491 -0.0007 -0.0501 -0.6983
  780MPD2    H711568   3.861   3.696   0.589  0.4321 -0.2754 -0.6658
  781MPD2     C11569   0.625   0.644  12.047 -0.2825  0.8919 -0.1866
  781MPD2    C111570   0.594   0.683  12.171 -0.0565 -0.3903  0.1810
  781MPD2    C211571   0.640   0.803  12.215 -0.2587  0.2918 -0.2314
  781MPD2    C311572   0.703   0.895  12.133 -0.0614 -0.2447 -0.7461
  781MPD2    C411573   0.721   0.859  12.006  0.3438 -0.6277  0.0792
  781MPD2    C511574   0.685   0.735  11.958  0.4027  0.2982 -0.0539
  781MPD2     H11575   0.625   0.816  12.322 -1.4022  1.3448 -0.5154
  781MPD2    H111576   0.773   0.926  11.937  0.6645 -2.2826 -1.2862
  781MPD2    H211577   0.599   0.546  12.008 -0.1195  0.0757  1.7839
  781MPD2    H311578   0.703   0.715  11.853 -0.8840 -0.1157 -0.1967
  781MPD2     N11579   0.741   1.027  12.171 -0.1635  0.3046 -1.0505
  781MPD2    H511580   0.783   1.083  12.097  1.4511  1.6434  0.8584
  781MPD2    N111581   0.535   0.603  12.271  0.3168 -0.0550 -0.4624
  781MPD2    H711582   0.543   0.636  12.367  2.3582  0.6024 -0.8666
  782MPD2     C11583   2.294   2.264  10.060 -0.0011  0.1924  0.0782
  782MPD2    C111584   2.381   2.282  10.161 -0.1480 -0.3694  0.4138
  782MPD2    C211585   2.410   2.411  10.209  0.2201  0.3704 -0.0510
  782MPD2    C311586   2.368   2.518  10.131 -0.4427  0.2185 -0.5050
  782MPD2    C411587   2.282   2.493  10.020  0.2205  0.7229 -0.2774
  782MPD2    C511588   2.238   2.365   9.990 -0.4056  0.2776  0.6534
  782MPD2     H11589   2.486   2.428  10.284  0.8222  2.6298 -1.1456
  782MPD2    H111590   2.241   2.575   9.962 -1.3882  0.0651 -0.0657
  782MPD2    H211591   2.259   2.167  10.029 -0.5646  0.3799  0.1295
  782MPD2    H311592   2.160   2.350   9.917  0.0810  2.1362 -0.2414
  782MPD2     N11593   2.399   2.647  10.177 -0.1286 -0.5205 -0.0387
  782MPD2    H511594   2.448   2.655  10.265  0.2561  0.3081 -0.3292
  782MPD2    N111595   2.441   2.166  10.215 -0.2592  0.7676 -0.0496
  782MPD2    H711596   2.405   2.077  10.184  3.7935 -0.8613 -0.1002
  783MPD2     C11597   1.998   1.472  10.719 -0.2427  0.5104  0.2771
  783MPD2    C111598   2.018   1.611  10.749  0.6893 -0.0681  0.4047
  783MPD2    C211599   2.124   1.678  10.681 -0.3393  0.1900 -0.3408
  783MPD2    C311600   2.204   1.613  10.596  0.5402  0.4838  0.7572
  783MPD2    C411601   2.174   1.485  10.560 -0.5012 -0.1561  0.2939
  783MPD2    C511602   2.074   1.410  10.621  0.3443 -0.3800 -0.3302
  783MPD2     H11603   2.143   1.782  10.703 -0.7372 -0.0582  1.1863
  783MPD2    H111604   2.233   1.426  10.490  0.0573  0.1380  0.5174
  783MPD2    H211605   1.912   1.424  10.764  0.1271  1.1397  1.6743
  783MPD2    H311606   2.052   1.310  10.586  1.4522  0.0102 -2.1534
  783MPD2     N11607   2.315   1.674  10.532 -0.2131  0.0612  0.3555
  783MPD2    H511608   2.376   1.619  10.472 -0.4112 -1.7380  1.8129
  783MPD2    N111609   1.940   1.673  10.853 -0.1067  0.2237  0.5329
  783MPD2    H711610   1.867   1.619  10.899  0.0347  0.7472  1.3633
  784MPD2     C11611   0.875   2.117   0.358  0.5872 -0.2813  0.1084
  784MPD2    C111612   0.856   2.178   0.478 -0.5050 -0.7385 -0.2452
  784MPD2    C211613   0.734   2.238   0.507 -0.3747  0.2794  0.0118
  784MPD2    C311614   0.621   2.224   0.425  0.1890 -0.1305  0.0155
  784MPD2    C411615   0.640   2.170   0.300  0.6044  0.4104  0.8468
  784MPD2    C511616   0.767   2.119   0.266  0.4001  0.6060 -0.4228
  784MPD2     H11617   0.727   2.291   0.601  4.6125  0.8508  0.0437
  784MPD2    H111618   0.571   2.183   0.218  0.9063 -0.9970  0.3669
  784MPD2    H211619   0.965   2.072   0.318  0.2375  0.6554 -1.7443
  784MPD2    H311620   0.791   2.068   0.173 -2.4654  0.3745 -1.0268
  784MPD2     N11621   0.494   2.279   0.463 -0.0953  0.3381  0.2733
  784MPD2    H511622   0.491   2.339   0.545 -0.3703 -0.8516  1.1346
  784MPD2    N111623   0.946   2.199   0.583  0.3040  0.1533  0.3562
  784MPD2    H711624   0.912   2.244   0.667 -0.3102  1.5158 -0.6244
  785MPD2     C11625   0.635   0.194  11.638 -0.3565  0.1461 -0.3885
  785MPD2    C111626   0.508   0.223  11.610 -0.5017  0.0044  0.2037
  785MPD2    C211627   0.438   0.151  11.514  0.0255 -0.4723 -0.6195
  785MPD2    C311628   0.502   0.055  11.443  0.2346  0.6125 -0.1679
  785MPD2    C411629   0.625   0.018  11.477 -0.6627 -0.5289 -0.6398
  785MPD2    C511630   0.695   0.090  11.581  0.0640  0.2100 -0.8546
  785MPD2     H11631   0.334   0.172  11.495  0.8797  1.4491 -3.2667
  785MPD2    H111632   0.672   4.668  11.433 -0.2643 -0.4053 -0.4683
  785MPD2    H211633   0.692   0.243  11.716  0.7999  0.7735 -1.6190
  785MPD2    H311634   0.798   0.064  11.601  0.0727  1.3607  0.6076
  785MPD2     N11635   0.430   4.725  11.344 -0.3803 -0.2261 -0.0810
  785MPD2    H511636   0.337   0.024  11.328 -1.1464 -1.5990  1.2336
  785MPD2    N111637   0.442   0.323  11.677 -0.5334 -0.0929  0.0483
  785MPD2    H711638   0.340   0.320  11.681 -0.6149 -1.4308 -2.7900
  786MPD2     C11639   4.485   3.224  14.596 -0.1162 -0.6071  0.2549
  786MPD2    C111640   4.620   3.189  14.574  0.2259  0.5782  0.2292
  786MPD2    C211641   4.708   3.198  14.675  0.2516  0.1410  0.9036
  786MPD2    C311642   4.667   3.244  14.797  0.2749 -0.2038  0.4127
  786MPD2    C411643   4.537   3.285  14.818 -0.7554 -0.1358  0.2802
  786MPD2    C511644   4.446   3.277  14.716 -0.3426 -0.2336 -0.3307
  786MPD2     H11645   0.075   3.186  14.652  0.3660 -1.0431  2.0397
  786MPD2    H111646   4.510   3.335  14.911 -1.2077  3.2231 -1.6356
  786MPD2    H211647   4.411   3.228  14.516  1.4244 -0.0117 -1.1359
  786MPD2    H311648   4.347   3.320  14.727  0.2433  1.4783 -1.9638
  786MPD2     N11649   0.018   3.267  14.905 -0.1164 -0.9571  0.3946
  786MPD2    H511650   4.713   3.317  14.982  0.6257 -0.3138  0.3928
  786MPD2    N111651   4.663   3.150  14.444  0.5894 -0.6219  0.6324
  786MPD2    H711652   0.026   3.142  14.436  0.3786 -1.6313 -0.9602
  787MPD2     C11653   0.507   2.987  14.377 -0.3474 -0.3150  0.1917
  787MPD2    C111654   0.458   2.940  14.251 -0.6620 -0.4206 -0.3852
  787MPD2    C211655   0.545   2.871  14.171 -0.1581 -0.4596 -0.3040
  787MPD2    C311656   0.679   2.845  14.206  0.2794  0.4969  0.5121
  787MPD2    C411657   0.716   2.885  14.327 -0.1066 -0.0870 -0.4134
  787MPD2    C511658   0.638   2.953  14.410 -0.0844 -0.1794 -0.3400
  787MPD2     H11659   0.504   2.841  14.075  0.0650 -0.1903 -0.4808
  787MPD2    H111660   0.817   2.863  14.359  0.1271  0.4635 -0.7803
  787MPD2    H211661   0.445   3.040  14.448 -0.8540 -0.8903  0.1708
  787MPD2    H311662   0.668   2.998  14.504  0.0369 -2.5172  0.7370
  787MPD2     N11663   0.766   2.782  14.107 -0.4327  0.0872 -0.3919
  787MPD2    H511664   0.724   2.766  14.016 -0.7227  0.6623 -0.3593
  787MPD2    N111665   0.321   2.964  14.222  0.8544  0.3722  0.8698
  787MPD2    H711666   0.268   3.012  14.294  1.3113  1.5842  0.3980
  788MPD2     C11667   1.982   1.454   0.820 -0.2450 -0.3213 -0.6930
  788MPD2    C111668   1.875   1.440   0.731  0.0463 -0.5108 -0.7117
  788MPD2    C211669   1.835   1.550   0.660  0.5799  0.0118  0.3692
  788MPD2    C311670   1.908   1.666   0.661  0.1040  0.3423 -0.2204
  788MPD2    C411671   2.016   1.675   0.740  0.6804  0.4102  0.0639
  788MPD2    C511672   2.055   1.571   0.825 -0.1854 -0.4285  0.0238
  788MPD2     H11673   1.754   1.537   0.590 -0.2630  1.2404  1.1282
  788MPD2    H111674   2.068   1.771   0.741  1.4698 -0.0284  1.0201
  788MPD2    H211675   2.016   1.381   0.892 -0.5217 -0.1158 -0.3511
  788MPD2    H311676   2.141   1.583   0.889 -0.4069  0.5131  0.1397
  788MPD2     N11677   1.856   1.780   0.585 -0.2602  0.2184  0.5496
  788MPD2    H511678   1.922   1.857   0.580  1.5755 -1.3770  0.0974
  788MPD2    N111679   1.798   1.322   0.730  0.1942 -0.4775 -0.4425
  788MPD2    H711680   1.711   1.327   0.678  1.9884 -0.0724 -3.3912
  789MPD2     C11681   1.693   1.292  15.983  0.0595 -0.1770  0.2967
  789MPD2    C111682   1.632   1.245  16.102 -0.0104 -0.3871 -0.4853
  789MPD2    C211683   1.593   1.332  16.201  0.3129 -0.4703  0.3327
  789MPD2    C311684   1.621   1.466  16.189  0.5861  0.3352 -0.0599
  789MPD2    C411685   1.670   1.514  16.078 -0.1034 -0.4652  0.1437
  789MPD2    C511686   1.705   1.426  15.972  0.6365  0.4175 -0.1910
  789MPD2     H11687   1.533   1.302  16.286 -0.6008 -0.6084 -0.3628
  789MPD2    H111688   1.701   1.618  16.075  2.0038 -1.0816  0.9458
  789MPD2    H211689   1.722   1.227  15.902  0.8872 -0.5446  0.8930
  789MPD2    H311690   1.743   1.456  15.875 -1.3530  0.3598 -0.9684
  789MPD2     N11691   1.591   1.559  16.294  0.4829 -0.1139 -0.6064
  789MPD2    H511692   1.587   1.657  16.270  1.7238  0.0001 -0.3447
  789MPD2    N111693   1.605   1.106  16.125 -0.0182  0.6343  0.0134
  789MPD2    H711694   1.563   1.089  16.215  0.8302 -1.9844 -0.0726
  790MPD2     C11695   3.367   2.708  13.518  0.5227 -0.4338  0.2478
  790MPD2    C111696   3.253   2.768  13.563 -0.0752  0.4000 -0.2233
  790MPD2    C211697   3.151   2.790  13.472 -0.2500  0.4290 -0.6015
  790MPD2    C311698   3.168   2.759  13.334 -0.4218  0.3118 -0.3215
  790MPD2    C411699   3.286   2.697  13.292 -0.1096 -0.1108  0.2861
  790MPD2    C511700   3.386   2.679  13.383 -0.4374  0.3734  0.1539
  790MPD2     H11701   3.065   2.849  13.502 -1.8823 -1.5373 -1.3658
  790MPD2    H111702   3.316   2.675  13.191 -1.9789  0.1844 -0.3410
  790MPD2    H211703   3.446   2.687  13.589  0.5183 -1.8259 -0.1465
  790MPD2    H311704   3.477   2.628  13.354 -1.3914 -1.5746  0.5837
  790MPD2     N11705   3.059   2.788  13.248 -0.3750  0.3508 -0.0028
  790MPD2    H511706   2.984   2.843  13.288 -0.5143 -0.8368  1.3662
  790MPD2    N111707   3.236   2.790  13.705  0.1426 -0.5777  0.3298
  790MPD2    H711708   3.318   2.783  13.764  0.4509 -0.0078 -0.0339
  791MPD2     C11709   2.414   2.970  13.206  0.6388 -0.1912 -0.3252
  791MPD2    C111710   2.455   2.876  13.110 -0.5427  0.8710  0.0456
  791MPD2    C211711   2.370   2.776  13.067 -0.0590 -0.4217 -0.1463
  791MPD2    C311712   2.232   2.784  13.095  0.4040 -0.3156 -0.2867
  791MPD2    C411713   2.192   2.881  13.186  0.9979 -0.8727 -0.4757
  791MPD2    C511714   2.286   2.967  13.244  0.2549 -0.4087  0.4241
  791MPD2     H11715   2.412   2.705  12.997 -0.6127 -1.2906  0.3962
  791MPD2    H111716   2.088   2.891  13.216  1.2725  0.7951 -0.0863
  791MPD2    H211717   2.468   3.056  13.242 -0.4074  0.6583 -0.7867
  791MPD2    H311718   2.261   3.042  13.318 -0.3360 -0.7173  0.5411
  791MPD2     N11719   2.147   2.689  13.040 -0.1086  0.0083  0.2654
  791MPD2    H511720   2.186   2.616  12.982 -1.1134 -0.8824  0.7057
  791MPD2    N111721   2.595   2.885  13.079  0.2531 -0.3680  0.0075
  791MPD2    H711722   2.658   2.941  13.136 -0.5253  1.7480 -1.2021
  792MPD2     C11723   2.629   3.058  11.371 -0.8320  0.5059  0.1567
  792MPD2    C111724   2.559   3.169  11.412  0.3813  0.1339  0.1906
  792MPD2    C211725   2.425   3.159  11.440  0.5691  0.5212  0.4464
  792MPD2    C311726   2.357   3.036  11.422 -0.1173 -0.1329 -0.0523
  792MPD2    C411727   2.434   2.930  11.378 -0.0662  0.0710  0.2389
  792MPD2    C511728   2.568   2.942  11.357  1.0427  0.3804 -0.1025
  792MPD2     H11729   2.373   3.250  11.465  0.2962  0.3888  0.3593
  792MPD2    H111730   2.400   2.827  11.377 -1.3799  0.5080  0.2195
  792MPD2    H211731   2.732   3.070  11.340 -1.2355  2.3008 -0.5119
  792MPD2    H311732   2.630   2.859  11.325  1.6344 -0.0558  2.1158
  792MPD2     N11733   2.218   3.023  11.454  0.3685  0.7823  0.3216
  792MPD2    H511734   2.168   3.105  11.487 -1.7088 -0.9358  1.4571
  792MPD2    N111735   2.630   3.292  11.394  1.0380 -0.0042  0.5512
  792MPD2    H711736   2.720   3.285  11.349  0.5002 -0.2132 -0.4810
  793MPD2     C11737   1.579   2.795  10.714  0.3815  0.2764  0.0207
  793MPD2    C111738   1.702   2.858  10.711  0.6604  0.0504 -0.1092
  793MPD2    C211739   1.766   2.878  10.831  0.7429  0.0836  0.0364
  793MPD2    C311740   1.710   2.844  10.956  0.3536  0.2480  0.3606
  793MPD2    C411741   1.582   2.779  10.954  0.1909 -0.0607 -0.4116
  793MPD2    C511742   1.521   2.760  10.832 -0.6697 -0.8379  0.4404
  793MPD2     H11743   1.856   2.938  10.828 -0.2759  1.5810 -0.3101
  793MPD2    H111744   1.522   2.754  11.040  2.6416 -0.4967  1.1866
  793MPD2    H211745   1.528   2.773  10.621 -0.6341  3.1115 -0.1040
  793MPD2    H311746   1.421   2.722  10.846 -1.8072  2.0826  0.0931
  793MPD2     N11747   1.771   2.877  11.081 -0.6867 -0.2025  0.0962
  793MPD2    H511748   1.856   2.932  11.084 -1.1687  0.5640 -0.3890
  793MPD2    N111749   1.764   2.892  10.590 -0.2614 -0.0861 -0.2562
  793MPD2    H711750   1.863   2.908  10.600 -0.3175 -0.0961  0.2773
  794MPD2     C11751   2.880   2.312  17.431  0.1288 -0.5302 -0.3066
  794MPD2    C111752   2.822   2.200  17.381 -0.1115 -0.3660  0.2316
  794MPD2    C211753   2.807   2.179  17.251 -0.2067 -0.3164 -0.2012
  794MPD2    C311754   2.808   2.286  17.164  0.6685  0.5199  0.6473
  794MPD2    C411755   2.854   2.403  17.212 -0.3381  0.3388 -0.3276
  794MPD2    C511756   2.891   2.419  17.348  0.2109  0.2837  0.0231
  794MPD2     H11757   2.763   2.088  17.211  0.2615 -0.5376 -0.2104
  794MPD2    H111758   2.854   2.491  17.149  1.0202  1.3056  1.0447
  794MPD2    H211759   2.905   2.333  17.535  0.6555  1.3739 -0.8218
  794MPD2    H311760   2.926   2.515  17.385 -0.2694  0.8496 -1.0005
  794MPD2     N11761   2.745   2.286  17.039 -0.1457  0.2068  0.6182
  794MPD2    H511762   2.746   2.378  16.997  1.3432  0.3231  0.9043
  794MPD2    N111763   2.791   2.089  17.469 -0.2195  0.3463  0.2392
  794MPD2    H711764   2.730   2.018  17.429  0.1663 -0.0675  0.3921
  795MPD2     C11765   0.353   4.411  14.180 -0.1328 -0.1381  0.2061
  795MPD2    C111766   0.347   4.318  14.076  0.0845  0.5152 -0.8498
  795MPD2    C211767   0.389   4.182  14.097  0.7590  0.4416 -0.0803
  795MPD2    C311768   0.451   4.145  14.223  0.0666 -0.2793  0.4493
  795MPD2    C411769   0.465   4.250  14.315 -0.2946  0.1929 -0.8747
  795MPD2    C511770   0.419   4.380  14.297 -0.8890  0.4423 -0.3838
  795MPD2     H11771   0.394   4.118  14.010 -1.1605 -0.1564  0.2574
  795MPD2    H111772   0.525   4.246  14.405  0.7418 -0.2413 -1.5832
  795MPD2    H211773   0.305   4.508  14.173  0.4323  0.0324 -1.2051
  795MPD2    H311774   0.443   4.453  14.374  1.5165  2.1258 -2.7177
  795MPD2     N11775   0.523   4.023  14.230 -0.1367 -0.5945  0.3623
  795MPD2    H511776   0.527   3.958  14.152  0.6164 -0.9777  0.7172
  795MPD2    N111777   0.294   4.356  13.952 -1.0684  0.2996 -0.3958
  795MPD2    H711778   0.270   4.282  13.886  2.8652  0.0331 -1.5276
  796MPD2     C11779   4.648   0.787  15.770 -0.6964  0.4376  0.0619
  796MPD2    C111780   4.715   0.850  15.869 -0.0361 -0.3757 -0.0119
  796MPD2    C211781   4.699   0.988  15.877 -0.0238  0.7587  0.0835
  796MPD2    C311782   4.610   1.052  15.793  0.0692  0.1161 -0.3534
  796MPD2    C411783   4.535   0.989  15.699  0.4479  0.1367 -0.5546
  796MPD2    C511784   4.559   0.857  15.685  0.7362  0.2845  0.2931
  796MPD2     H11785   0.027   1.052  15.935  1.8458 -1.8711  0.8965
  796MPD2    H111786   4.466   1.031  15.626 -1.7017  0.2774  1.5787
  796MPD2    H211787   4.662   0.682  15.749  1.9643  0.6950  0.5828
  796MPD2    H311788   4.526   0.808  15.594  0.4165 -0.4405  0.8028
  796MPD2     N11789   4.594   1.195  15.806 -0.3345 -0.9678  0.0033
  796MPD2    H511790   4.648   1.256  15.866 -0.4911 -1.7441  0.9226
  796MPD2    N111791   0.057   0.773  15.952 -0.1355 -0.2262  0.1830
  796MPD2    H711792   0.070   0.674  15.935 -0.4578 -0.3674  0.7449
  797MPD2     C11793   0.706   0.483  17.706  0.0222  0.4021  0.2655
  797MPD2    C111794   0.734   0.622  17.703  0.3638  0.0868  0.6447
  797MPD2    C211795   0.664   0.713  17.631 -0.8974  0.2693 -0.0305
  797MPD2    C311796   0.561   0.665  17.549 -0.7345  0.5030  0.0121
  797MPD2    C411797   0.529   0.531  17.558 -0.2567 -0.5750 -0.3377
  797MPD2    C511798   0.594   0.442  17.639 -0.3694 -0.0032 -0.8459
  797MPD2     H11799   0.694   0.817  17.624  1.0651 -0.4721 -2.4481
  797MPD2    H111800   0.452   0.489  17.494 -0.4559  2.5585 -2.1299
  797MPD2    H211801   0.765   0.414   0.016  0.0178  0.5680  0.4647
  797MPD2    H311802   0.567   0.337  17.642  0.3072 -0.2009 -2.0305
  797MPD2     N11803   0.503   0.750  17.455 -0.1392 -0.1706 -0.3065
  797MPD2    H511804   0.540   0.844  17.450  1.0138 -0.6450 -0.7983
  797MPD2    N111805   0.848   0.672   0.017  0.6158 -0.1848  0.2635
  797MPD2    H711806   0.881   0.768   0.012  3.4145 -1.2454 -1.5286
  798MPD2     C11807   0.834   1.342  17.384 -0.3025 -0.2612  0.0964
  798MPD2    C111808   0.772   1.221  17.408  0.7515  0.0990 -0.5523
  798MPD2    C211809   0.839   1.134  17.487 -0.4862 -0.2710  0.7745
  798MPD2    C311810   0.969   1.152  17.520 -0.0983  0.3535  0.4651
  798MPD2    C411811   1.032   1.269  17.481  0.1858  0.9141 -0.1160
  798MPD2    C511812   0.965   1.368  17.415 -0.0444 -0.0795  0.2265
  798MPD2     H11813   0.798   1.041  17.525 -1.4178 -1.6605 -3.6605
  798MPD2    H111814   1.134   1.290  17.511  0.8950 -1.9961 -0.5129
  798MPD2    H211815   0.792   1.421  17.323 -1.9933  0.0151  1.6229
  798MPD2    H311816   1.016   1.461  17.391 -0.9846  0.7449  1.4887
  798MPD2     N11817   1.015   1.052  17.607  0.0461 -0.3879  0.0948
  798MPD2    H511818   0.936   0.994  17.632  0.3690 -0.8280  0.0983
  798MPD2    N111819   0.650   1.192  17.340 -0.5596 -0.1682  0.5036
  798MPD2    H711820   0.628   1.248  17.258  1.8014  0.1372  0.0693
  799MPD2     C11821   4.541   2.433  13.773 -0.0869 -0.0284 -0.0070
  799MPD2    C111822   4.440   2.341  13.741 -0.3099  0.3056  0.4916
  799MPD2    C211823   4.397   2.334  13.612 -0.0760  0.0128 -0.0385
  799MPD2    C311824   4.460   2.402  13.516  0.2109  0.1381  0.7893
  799MPD2    C411825   4.565   2.487  13.543 -0.4445 -0.8738  0.3967
  799MPD2    C511826   4.596   2.508  13.672  0.2169 -0.2692  0.1321
  799MPD2     H11827   4.321   2.260  13.589 -2.0231  1.5463  1.4441
  799MPD2    H111828   4.611   2.542  13.462 -1.8348 -1.2094 -0.6388
  799MPD2    H211829   4.585   2.453  13.871 -0.5215  0.5729  0.0670
  799MPD2    H311830   4.667   2.590  13.682 -2.5958  2.3420 -1.3128
  799MPD2     N11831   4.431   2.389  13.380 -0.8052  0.4110 -0.7980
  799MPD2    H511832   4.494   2.427  13.309  3.3635 -3.1827  0.9823
  799MPD2    N111833   4.392   2.241  13.827  0.3430 -0.2517 -0.2580
  799MPD2    H711834   4.329   2.173  13.785 -1.8154  1.4302  0.2796
  800MPD2     C11835   0.543   3.095  13.925  0.1872  0.0023 -0.2227
  800MPD2    C111836   0.670   3.091  13.972  0.5159 -0.0998 -0.0169
  800MPD2    C211837   0.772   3.042  13.898 -0.7249 -0.4526  0.5374
  800MPD2    C311838   0.754   3.029  13.763  0.0803 -0.2908  0.1008
  800MPD2    C411839   0.629   3.037  13.704  0.2669 -0.3226 -0.3106
  800MPD2    C511840   0.522   3.060  13.792 -0.4209  1.1887  0.2977
  800MPD2     H11841   0.873   3.039  13.937 -0.7355  0.2080  0.6173
  800MPD2    H111842   0.611   2.994  13.606  0.4944  1.8085 -1.2719
  800MPD2    H211843   0.456   3.128  13.980 -0.5832 -1.0351 -0.8225
  800MPD2    H311844   0.423   3.072  13.750  0.4388  1.9735 -1.4880
  800MPD2     N11845   0.872   3.027  13.681 -0.4491  0.8617  0.2948
  800MPD2    H511846   0.964   3.039  13.723  1.2547  1.0314 -3.4803
  800MPD2    N111847   0.694   3.153  14.102  0.1541  0.4383  0.3480
  800MPD2    H711848   0.612   3.186  14.151  0.8833 -0.3619  2.1075
  801MPD2     C11849   0.354   3.452  14.716 -0.8252 -1.0084 -0.3156
  801MPD2    C111850   0.479   3.519  14.718  0.5368 -0.5813 -0.3693
  801MPD2    C211851   0.489   3.638  14.786  0.3452 -0.0034  0.4625
  801MPD2    C311852   0.373   3.697  14.847  0.6260  0.0355  0.2907
  801MPD2    C411853   0.254   3.629  14.841  0.8351 -0.7747 -0.0080
  801MPD2    C511854   0.246   3.508  14.772  0.2623 -0.3488  0.1752
  801MPD2     H11855   0.585   3.687  14.776  0.6681 -0.8905 -0.7598
  801MPD2    H111856   0.162   3.674  14.877  1.0563  0.3262 -0.8042
  801MPD2    H211857   0.352   3.351  14.675  0.9282 -1.3322  0.3649
  801MPD2    H311858   0.146   3.469  14.756  0.4275  0.5151 -2.9231
  801MPD2     N11859   0.374   3.827  14.902 -0.3158 -0.1232  0.1937
  801MPD2    H511860   0.289   3.871  14.937 -1.8913 -1.2754 -2.1808
  801MPD2    N111861   0.587   3.467  14.636 -0.7133 -0.5722 -0.0155
  801MPD2    H711862   0.678   3.509  14.648  0.6484 -3.0643 -1.5704
  802MPD2     C11863   4.465   0.158   0.635  0.3747 -0.5676  0.2014
  802MPD2    C111864   4.421   0.091   0.523 -0.9403 -0.6019  0.2196
  802MPD2    C211865   4.496   4.732   0.463 -0.8153 -1.0121 -0.4555
  802MPD2    C311866   4.635   4.732   0.494  0.5720  0.1892 -0.6616
  802MPD2    C411867   4.682   0.069   0.596  0.4442 -0.1103  0.5132
  802MPD2    C511868   4.594   0.142   0.669 -0.2786  0.4737  0.0075
  802MPD2     H11869   4.451   4.675   0.383  0.0597 -1.4386 -0.6426
  802MPD2    H111870   0.050   0.071   0.621  0.4089 -4.3342  1.0205
  802MPD2    H211871   4.416   0.228   0.701 -2.8594 -2.5529 -0.1127
  802MPD2    H311872   4.637   0.195   0.753  1.0079  0.4600 -0.6508
  802MPD2     N11873   4.720   4.645   0.420 -0.2456 -0.4057 -0.0483
  802MPD2    H511874   4.682   4.595   0.340  2.1723 -1.4214 -0.5613
  802MPD2    N111875   4.294   0.111   0.466  0.1411 -1.2892 -0.4842
  802MPD2    H711876   4.286   0.061   0.378  1.3241  1.1768 -1.9734
  803MPD2     C11877   0.627   3.204  12.085  0.0956  0.4610 -0.1854
  803MPD2    C111878   0.767   3.216  12.089  0.0458 -0.0328  0.4800
  803MPD2    C211879   0.830   3.174  12.207 -0.6865  0.5677  0.3552
  803MPD2    C311880   0.760   3.115  12.312 -1.3406  0.1676 -0.0162
  803MPD2    C411881   0.620   3.099  12.304 -0.2685  0.2145  0.0631
  803MPD2    C511882   0.558   3.153  12.198  0.3854 -0.3826 -0.4053
  803MPD2     H11883   0.936   3.168  12.189 -0.7366 -0.8331  0.5761
  803MPD2    H111884   0.564   3.064  12.390  0.3575 -1.9591 -0.4248
  803MPD2    H211885   0.575   3.241  11.998 -2.3316 -1.1889  0.5767
  803MPD2    H311886   0.450   3.152  12.190  0.4011  1.7204 -0.9723
  803MPD2     N11887   0.828   3.062  12.426 -0.0675 -0.0537 -0.0101
  803MPD2    H511888   0.776   3.015  12.499  1.1027 -0.7274  0.4022
  803MPD2    N111889   0.843   3.258  11.978 -0.9298 -0.1243 -0.0060
  803MPD2    H711890   0.943   3.267  11.992 -0.5383 -0.9779 -2.1311
  804MPD2     C11891   0.372   4.130  16.956 -0.5800 -0.6546  0.1926
  804MPD2    C111892   0.360   4.083  17.082 -0.2795  0.3440  1.2319
  804MPD2    C211893   0.413   4.162  17.179  0.4431 -0.4211 -0.0216
  804MPD2    C311894   0.488   4.276  17.160  1.0194 -0.2379  0.4496
  804MPD2    C411895   0.477   4.337  17.034 -0.6917  0.2763 -0.0882
  804MPD2    C511896   0.428   4.258  16.933  0.0769  1.1948  0.3052
  804MPD2     H11897   0.420   4.116  17.277 -1.0613 -1.5861 -0.4642
  804MPD2    H111898   0.525   4.425  16.994  1.3750  0.1738  2.1207
  804MPD2    H211899   0.333   4.075  16.871 -0.3550 -0.0150 -0.3261
  804MPD2    H311900   0.433   4.286  16.828 -2.2469  1.1700  0.1739
  804MPD2     N11901   0.545   4.340  17.267 -0.5557 -0.4002 -0.2524
  804MPD2    H511902   0.517   4.302  17.357 -1.5677  1.6126  0.2605
  804MPD2    N111903   0.313   3.955  17.121  0.3677  0.6309  0.0153
  804MPD2    H711904   0.309   3.940  17.221 -2.7735  0.5054 -0.1393
  805MPD2     C11905   3.954   2.509  14.956  0.4451  0.5952  0.8968
  805MPD2    C111906   4.072   2.550  14.888 -0.7497  0.0167  0.2314
  805MPD2    C211907   4.188   2.511  14.947 -0.3005  0.2532  0.0221
  805MPD2    C311908   4.195   2.445  15.074  0.2171  0.6216 -0.7794
  805MPD2    C411909   4.081   2.412  15.141  0.4404  0.1118 -0.5639
  805MPD2    C511910   3.965   2.444  15.079 -0.4510 -0.3095  0.1981
  805MPD2     H11911   4.280   2.529  14.894 -0.1665  0.0520  0.1865
  805MPD2    H111912   4.080   2.351  15.230 -2.6524  0.9666 -0.0257
  805MPD2    H211913   3.857   2.546  14.927 -0.0359 -0.7155  0.8692
  805MPD2    H311914   3.872   2.414  15.125  0.0279  0.1302  1.4530
  805MPD2     N11915   4.321   2.415  15.122 -0.3048  0.2183  0.2163
  805MPD2    H511916   4.393   2.458  15.064  1.1111 -1.1044  0.9869
  805MPD2    N111917   4.072   2.604  14.762  0.0183 -0.2566  0.0781
  805MPD2    H711918   4.158   2.623  14.712  0.3479  1.9024  1.4535
  806MPD2     C11919   4.620   1.856   0.185  0.6589  0.5972  0.3585
  806MPD2    C111920   4.627   1.966   0.275 -0.2240  0.8459 -0.0803
  806MPD2    C211921   4.633   2.094   0.228 -0.4341  0.4330  0.3371
  806MPD2    C311922   4.617   2.119   0.089  0.3599 -0.1048 -0.1593
  806MPD2    C411923   4.603   2.015  17.746 -0.7387  0.1617  0.0905
  806MPD2    C511924   4.602   1.886   0.047  0.0050  0.6434 -0.2575
  806MPD2     H11925   4.656   2.179   0.292 -0.6381  0.2994  0.5885
  806MPD2    H111926   4.591   2.031  17.639  0.2772 -0.7019 -0.1460
  806MPD2    H211927   4.599   1.753   0.210  2.6043  0.1180 -0.0248
  806MPD2    H311928   4.573   1.799  17.739  2.6681  0.5615 -1.4761
  806MPD2     N11929   4.617   2.255   0.050 -0.4272 -0.0517 -0.0783
  806MPD2    H511930   4.645   2.322   0.121  2.3628  0.5602 -1.7571
  806MPD2    N111931   4.616   1.941   0.412 -0.1279 -0.2587 -0.1877
  806MPD2    H711932   4.623   1.845   0.446  0.1887 -0.5781 -1.1602
  807MPD2     C11933   4.425   1.551   1.086  0.3209  0.4026 -0.1709
  807MPD2    C111934   4.438   1.680   1.135 -0.5889  0.6055 -0.2483
  807MPD2    C211935   4.424   1.699   1.273  0.5641  0.8502 -0.0520
  807MPD2    C311936   4.379   1.600   1.354 -0.1454 -0.1045 -0.1222
  807MPD2    C411937   4.352   1.477   1.304  0.2193 -0.1293 -0.6987
  807MPD2    C511938   4.379   1.451   1.170  0.0208 -0.6963 -0.7436
  807MPD2     H11939   4.452   1.796   1.313 -1.8108  0.6670  2.0707
  807MPD2    H111940   4.310   1.398   1.365  0.5010  0.7998  0.6801
  807MPD2    H211941   4.443   1.533   0.981  4.5418 -0.2955  0.6726
  807MPD2    H311942   4.369   1.353   1.125 -2.5936 -0.2821 -1.0551
  807MPD2     N11943   4.347   1.628   1.491  0.2015 -0.4281 -0.1912
  807MPD2    H511944   4.368   1.722   1.522  4.0636 -1.8166  1.3567
  807MPD2    N111945   4.472   1.793   1.052 -0.2338  0.9053  0.3297
  807MPD2    H711946   4.500   1.878   1.100 -2.0138  1.3435  0.5878
  808MPD2     C11947   0.173   3.084   9.756  0.7694  0.8443 -0.0894
  808MPD2    C111948   0.176   3.168   9.871 -0.2405 -0.1092 -0.0337
  808MPD2    C211949   0.255   3.284   9.875  0.4418 -0.1033  0.5633
  808MPD2    C311950   0.342   3.311   9.764 -0.3571  0.9107  0.1129
  808MPD2    C411951   0.353   3.215   9.665 -0.0166 -0.4255  0.8102
  808MPD2    C511952   0.271   3.103   9.668  0.4501  0.5232 -0.0492
  808MPD2     H11953   0.255   3.342   9.967 -1.3706 -0.1004  0.5661
  808MPD2    H111954   0.420   3.219   9.579 -0.2207 -1.1334  0.6174
  808MPD2    H211955   0.119   2.991   9.744 -0.7193  1.8326 -0.9612
  808MPD2    H311956   0.275   3.026   9.592  1.4943  1.1623 -0.6501
  808MPD2     N11957   0.430   3.420   9.757 -0.0169 -0.4936  0.5082
  808MPD2    H511958   0.484   3.419   9.671 -1.9292  1.7369 -0.7306
  808MPD2    N111959   0.101   3.139   9.990  0.0090  0.2098 -0.3784
  808MPD2    H711960   0.124   3.187  10.077 -1.5772 -0.5633  0.4772
  809MPD2     C11961   1.210   3.457   9.310  0.3674  0.0612 -0.2466
  809MPD2    C111962   1.233   3.545   9.410 -0.1234 -0.1859  0.9240
  809MPD2    C211963   1.129   3.592   9.489  0.3182  0.1345 -0.6947
  809MPD2    C311964   1.008   3.533   9.479  0.1847 -0.2475 -0.7442
  809MPD2    C411965   0.985   3.432   9.385 -0.3120  0.0264 -0.7038
  809MPD2    C511966   1.085   3.406   9.292  0.4162 -0.2266 -0.3071
  809MPD2     H11967   1.147   3.660   9.572  1.0799 -0.5194 -0.3247
  809MPD2    H111968   0.884   3.395   9.370 -0.1356 -0.6883 -0.1413
  809MPD2    H211969   1.287   3.426   9.240  0.3463 -0.6412  0.0351
  809MPD2    H311970   1.061   3.334   9.215 -0.4798  0.8637 -1.0694
  809MPD2     N11971   0.901   3.571   9.566  0.4964 -0.0513  0.2679
  809MPD2    H511972   0.811   3.524   9.559  0.6331 -0.3234  0.3390
  809MPD2    N111973   1.360   3.598   9.437  0.2215 -0.3664 -0.0851
  809MPD2    H711974   1.368   3.666   9.511 -1.0330  0.1882 -0.4428
  810MPD2     C11975   3.720   3.261  11.504 -0.3136  0.1273 -0.1367
  810MPD2    C111976   3.785   3.273  11.383 -0.3570 -0.7810  0.1675
  810MPD2    C211977   3.725   3.347  11.286 -0.3368 -0.3207  0.0030
  810MPD2    C311978   3.611   3.423  11.315  0.7368 -0.5337  0.6502
  810MPD2    C411979   3.554   3.408  11.435  0.1408  0.2850 -0.3922
  810MPD2    C511980   3.606   3.330  11.529 -0.0169  0.2444 -0.1380
  810MPD2     H11981   3.767   3.350  11.186  0.1167  3.0666  0.3041
  810MPD2    H111982   3.465   3.466  11.459 -1.2956 -1.8711 -0.4622
  810MPD2    H211983   3.769   3.207  11.584  0.4478 -0.3319 -0.9074
  810MPD2    H311984   3.558   3.328  11.627  1.7319 -1.9976  0.6710
  810MPD2     N11985   3.555   3.510  11.218  0.0220 -0.0610  0.1522
  810MPD2    H511986   3.463   3.543  11.245 -0.3958 -0.4693 -0.7873
  810MPD2    N111987   3.909   3.206  11.370  0.4870 -0.3586  0.6144
  810MPD2    H711988   3.930   3.132  11.437  0.5167  1.1028  2.2215
  811MPD2     C11989   4.083   2.871  10.571 -0.4192 -0.3503 -0.5468
  811MPD2    C111990   4.129   2.970  10.660 -0.6233  0.0163  0.8821
  811MPD2    C211991   4.156   3.089  10.610 -0.3638  0.0010  0.2794
  811MPD2    C311992   4.155   3.118  10.474  0.5720  0.9091  0.0128
  811MPD2    C411993   4.111   3.022  10.391  0.2042  0.1377 -0.6181
  811MPD2    C511994   4.072   2.900  10.440 -0.1309  0.1654  0.1948
  811MPD2     H11995   4.189   3.166  10.679  0.4320 -0.2383  0.1616
  811MPD2    H111996   4.096   3.046  10.286  0.4605  0.3356 -0.6079
  811MPD2    H211997   4.076   2.765  10.589  0.0415 -0.1658  0.7601
  811MPD2    H311998   4.029   2.828  10.371  1.7234  1.0627 -1.8979
  811MPD2     N11999   4.161   3.249  10.433  0.5930  0.4656 -0.5558
  811MPD2    H512000   4.168   3.314  10.511 -1.0288 -0.0692  0.0542
  811MPD2    N112001   4.123   2.936  10.792  0.8456  0.0781  0.4975
  811MPD2    H712002   4.077   2.848  10.813 -0.1650  0.0256 -1.9574
  812MPD2     C12003   3.392   3.333  11.839  0.1963  0.0251  0.1726
  812MPD2    C112004   3.425   3.398  11.955  1.0557  0.6405 -0.2068
  812MPD2    C212005   3.491   3.338  12.062  0.3633 -0.0955  0.1941
  812MPD2    C312006   3.523   3.205  12.050 -0.0650  0.2881  0.4643
  812MPD2    C412007   3.507   3.146  11.926  0.4724 -0.2893  0.2283
  812MPD2    C512008   3.435   3.205  11.822  0.4010  0.6575  0.5877
  812MPD2     H12009   3.508   3.386  12.158 -0.0949 -0.6184  0.5405
  812MPD2    H112010   3.545   3.045  11.917  1.0758  0.0982 -1.4008
  812MPD2    H212011   3.330   3.381  11.764 -2.1226  3.6023  4.3685
  812MPD2    H312012   3.406   3.158  11.728  1.1142  0.7212  0.3352
  812MPD2     N12013   3.568   3.132  12.164 -0.2465  0.2389  0.1464
  812MPD2    H512014   3.587   3.192  12.245  1.6728  0.5144 -0.4924
  812MPD2    N112015   3.368   3.527  11.961 -0.4388  0.3974  0.2681
  812MPD2    H712016   3.315   3.556  11.879  0.0034  1.8183  0.4986
  813MPD2     C12017   2.103   0.089  12.942  0.1953 -0.1599 -0.1282
  813MPD2    C112018   2.115   0.193  13.020 -0.3781 -0.0660  0.1317
  813MPD2    C212019   2.054   0.196  13.146  0.0658  0.0985  0.6553
  813MPD2    C312020   1.999   0.083  13.197  0.0086  0.3705 -0.7028
  813MPD2    C412021   1.985   4.707  13.113 -0.8100  0.0436  0.9800
  813MPD2    C512022   2.039   4.714  12.988  0.4303  0.4342 -0.5872
  813MPD2     H12023   2.077   0.280  13.211  2.0723 -0.9639  1.3209
  813MPD2    H112024   1.921   4.625  13.143 -4.2307  2.5704  0.6304
  813MPD2    H212025   2.149   0.082  12.844  1.2309 -0.6608  0.3927
  813MPD2    H312026   2.037   4.622  12.931  2.4328 -1.3337  2.1975
  813MPD2     N12027   1.965   0.092  13.332  0.8525  0.2251  0.2375
  813MPD2    H512028   1.968   0.185  13.370  0.4303  0.9979 -1.5958
  813MPD2    N112029   2.194   0.297  12.980  0.0233  0.1165  0.7352
  813MPD2    H712030   2.249   0.280  12.896 -0.8508  2.1944 -0.2601
  814MPD2     C12031   2.900   2.118  12.694 -0.6642  0.1704  0.4323
  814MPD2    C112032   3.018   2.056  12.649 -0.1105 -0.1005  0.5803
  814MPD2    C212033   3.123   2.125  12.598 -0.2199  0.1022 -0.2635
  814MPD2    C312034   3.111   2.263  12.584  0.0854 -0.2613 -0.4344
  814MPD2    C412035   3.000   2.326  12.638 -0.3961 -0.5197  0.2979
  814MPD2    C512036   2.898   2.256  12.702  0.4554 -0.2394 -0.6393
  814MPD2     H12037   3.217   2.082  12.562 -0.1002  0.6065 -0.5485
  814MPD2    H112038   2.987   2.432  12.623 -0.8247 -0.5926  0.1576
  814MPD2    H212039   2.817   2.056  12.727 -1.0802  1.0080  0.9749
  814MPD2    H312040   2.814   2.303  12.753 -0.8892 -1.2459 -1.9255
  814MPD2     N12041   3.197   2.332  12.496  0.7754  0.6194  0.3936
  814MPD2    H512042   3.163   2.423  12.467  0.1287 -0.1214 -1.1681
  814MPD2    N112043   3.044   1.916  12.645 -0.3066  0.0787 -0.6525
  814MPD2    H712044   3.133   1.883  12.608  1.0901  2.6225  0.4712
  815MPD2     C12045   3.805   0.097  12.562 -0.7547 -0.9822  0.3644
  815MPD2    C112046   3.718   0.140  12.466  0.0801  0.7582  0.4819
  815MPD2    C212047   3.601   0.204  12.507 -0.4235  0.1359  0.1511
  815MPD2    C312048   3.569   0.218  12.643 -0.1069  0.4378 -0.2684
  815MPD2    C412049   3.662   0.172  12.734 -0.2285  0.2876 -0.0044
  815MPD2    C512050   3.776   0.108  12.694 -0.1472 -1.2966  0.8035
  815MPD2     H12051   3.526   0.235  12.435 -0.0226 -0.5944 -0.5733
  815MPD2    H112052   3.644   0.177  12.840 -1.2301  1.2551 -0.2232
  815MPD2    H212053   3.893   0.043  12.531  0.2300  0.0407  1.3484
  815MPD2    H312054   3.847   0.077  12.769  1.2582 -1.9235 -0.7928
  815MPD2     N12055   3.441   0.266  12.673  0.0578 -0.3199  0.3014
  815MPD2    H512056   3.390   0.296  12.591  1.2408 -0.7774 -0.6160
  815MPD2    N112057   3.754   0.103  12.338  0.3812  0.1743  0.6098
  815MPD2    H712058   3.837   0.048  12.316  0.4097  0.7046 -0.5967
  816MPD2     C12059   3.489   3.457  17.092 -0.2453 -0.3368  0.7308
  816MPD2    C112060   3.599   3.538  17.066 -0.2215 -0.3090  0.0675
  816MPD2    C212061   3.712   3.471  17.029  0.0067 -0.2064 -0.7409
  816MPD2    C312062   3.720   3.332  17.014  0.2849 -0.3871  0.4283
  816MPD2    C412063   3.609   3.253  17.022  0.2330  0.5126 -0.1566
  816MPD2    C512064   3.494   3.323  17.069  0.1212 -0.5857 -0.0014
  816MPD2     H12065   3.802   3.524  17.000 -0.5085  0.1816 -1.6493
  816MPD2    H112066   3.614   3.149  16.994 -1.0588 -0.0296  1.6493
  816MPD2    H212067   3.393   3.494  17.128 -0.3370  0.6499 -0.5567
  816MPD2    H312068   3.405   3.262  17.081 -0.5633  0.0359 -1.9093
  816MPD2     N12069   3.846   3.280  16.971 -0.2364 -0.2010 -0.4595
  816MPD2    H512070   3.926   3.341  16.952 -0.1409  0.3829  1.8594
  816MPD2    N112071   3.585   3.674  17.095 -0.3591 -0.6124 -0.1309
  816MPD2    H712072   3.494   3.717  17.108 -0.4911 -0.3642 -1.9237
  817MPD2     C12073   3.015   0.642  10.481  0.4241 -0.0096 -0.5797
  817MPD2    C112074   3.119   0.726  10.451  0.0595  0.3927  0.7477
  817MPD2    C212075   3.108   0.862  10.455 -0.0459  1.2721  0.3029
  817MPD2    C312076   2.975   0.911  10.473 -0.6127 -0.0357 -0.5130
  817MPD2    C412077   2.867   0.829  10.477 -0.4590  0.0550 -0.5149
  817MPD2    C512078   2.887   0.693  10.489 -0.2942  0.1997 -0.6494
  817MPD2     H12079   3.189   0.933  10.441 -0.1002  1.6186  1.7486
  817MPD2    H112080   2.766   0.868  10.475  0.0994  1.5574  0.5766
  817MPD2    H212081   3.026   0.535  10.498 -1.5891  0.1295  1.6034
  817MPD2    H312082   2.799   0.633  10.507 -0.4113  0.4556 -0.3628
  817MPD2     N12083   2.963   1.050  10.472  0.3325 -0.6067 -0.1155
  817MPD2    H512084   3.053   1.097  10.484  0.3707 -0.8560  0.5957
  817MPD2    N112085   3.244   0.676  10.411 -0.0753 -0.3637 -0.4563
  817MPD2    H712086   3.320   0.741  10.393  0.4897 -0.7228  0.6165
  818MPD2     C12087   1.069   1.071   9.973 -0.9561  0.0795  0.2704
  818MPD2    C112088   1.170   1.026  10.058  0.5157 -0.4783  0.5771
  818MPD2    C212089   1.305   1.025  10.018 -0.4901 -0.7153 -0.1010
  818MPD2    C312090   1.338   1.078   9.891  0.3936 -0.4148 -0.2842
  818MPD2    C412091   1.232   1.119   9.811 -0.2443  0.3987  0.1460
  818MPD2    C512092   1.107   1.118   9.850  0.5133  0.1361 -0.4731
  818MPD2     H12093   1.381   0.990  10.087 -0.7046  0.7909  0.9143
  818MPD2    H112094   1.251   1.145   9.707 -0.0251 -2.5928 -0.5516
  818MPD2    H212095   0.965   1.062  10.002 -1.0516  0.4736  0.0526
  818MPD2    H312096   1.019   1.144   9.792 -1.1622 -0.4777  1.7734
  818MPD2     N12097   1.470   1.092   9.835 -0.0380  0.9895 -0.1414
  818MPD2    H512098   1.476   1.129   9.741  1.7562  1.3733  0.1307
  818MPD2    N112099   1.136   0.974  10.181 -0.5624  0.4048 -0.4427
  818MPD2    H712100   1.207   0.912  10.218 -0.3896  1.5267  1.1260
  819MPD2     C12101   0.368   2.372  15.308  0.6559  1.1546 -0.1097
  819MPD2    C112102   0.321   2.235  15.309  0.3496 -0.0589 -0.3548
  819MPD2    C212103   0.376   2.151  15.404 -0.4052  0.2039 -0.7795
  819MPD2    C312104   0.476   2.188  15.489  0.5087 -0.2339  0.7039
  819MPD2    C412105   0.518   2.315  15.495  0.1725  0.3737  0.1649
  819MPD2    C512106   0.458   2.405  15.406  0.6916  0.2414  0.1543
  819MPD2     H12107   0.352   2.046  15.397  1.3192 -0.2179 -0.4981
  819MPD2    H112108   0.598   2.358  15.555  2.2389  1.0940 -3.1267
  819MPD2    H212109   0.335   2.442  15.233 -0.3641  1.3382  0.5182
  819MPD2    H312110   0.501   2.504  15.398 -1.4621  1.1686 -0.0490
  819MPD2     N12111   0.533   2.089  15.568  0.3467  0.1545 -0.1420
  819MPD2    H512112   0.502   1.996  15.544 -0.5834  0.3959  0.1015
  819MPD2    N112113   0.221   2.195  15.223 -0.5326  0.1881  0.6694
  819MPD2    H712114   0.195   2.257  15.146  0.6179  0.8398  0.8066
  820MPD2     C12115   4.620   2.314  14.372  0.1224  0.1712  0.1629
  820MPD2    C112116   4.530   2.359  14.465  1.2160 -0.3725  0.0878
  820MPD2    C212117   4.553   2.323  14.597  0.5869  0.1529  0.0515
  820MPD2    C312118   4.662   2.248  14.636  0.1326  0.3045 -0.4210
  820MPD2    C412119   0.011   2.207  14.538  0.0247 -0.5630  0.1147
  820MPD2    C512120   4.723   2.235  14.405  0.9027  0.7510 -0.0402
  820MPD2     H12121   4.477   2.352  14.668  0.4653  0.3607 -0.1606
  820MPD2    H112122   0.089   2.136  14.564  0.1331 -1.0685 -1.6246
  820MPD2    H212123   4.602   2.332  14.267 -0.3966  1.3231  0.4490
  820MPD2    H312124   0.048   2.201  14.324  0.8346  1.3147 -0.3340
  820MPD2     N12125   4.684   2.196  14.766 -0.8338  0.6916 -0.5532
  820MPD2    H512126   0.033   2.145  14.782  0.0581  1.6689 -2.2025
  820MPD2    N112127   4.414   2.436  14.421 -0.0917 -0.1905 -0.2468
  820MPD2    H712128   4.398   2.459  14.323 -2.5234 -0.9187 -0.0296
  821MPD2     C12129   1.032   3.383  12.961 -0.3695 -0.0133  0.2284
  821MPD2    C112130   1.083   3.427  13.082 -0.1622 -0.7338  0.9263
  821MPD2    C212131   1.069   3.566  13.109  0.3820 -0.6830 -0.5107
  821MPD2    C312132   1.040   3.660  13.011  0.8223  0.2844  0.5813
  821MPD2    C412133   1.016   3.614  12.889  0.9191  0.2969  0.1649
  821MPD2    C512134   1.012   3.480  12.868  0.5897 -0.3666  0.5508
  821MPD2     H12135   1.108   3.598  13.205  0.0680 -0.7852 -0.3483
  821MPD2    H112136   0.994   3.677  12.803 -1.2918  2.2318  2.1713
  821MPD2    H212137   1.027   3.279  12.929  1.0272 -0.1308  0.3957
  821MPD2    H312138   0.980   3.455  12.767 -1.3569 -0.9645  1.3191
  821MPD2     N12139   1.059   3.804  13.035 -0.5738  0.2472 -0.3192
  821MPD2    H512140   1.066   3.867  12.955 -0.8343 -2.4014 -2.4415
  821MPD2    N112141   1.124   3.333  13.182 -0.4112 -0.2744 -0.0603
  821MPD2    H712142   1.161   3.368  13.269 -1.1254  1.5824 -0.5049
  822MPD2     C12143   1.279   3.510  15.734  0.7262  0.0989  0.1162
  822MPD2    C112144   1.241   3.463  15.855 -0.1758 -0.3428 -0.2133
  822MPD2    C212145   1.143   3.534  15.934 -0.8365 -0.0371 -0.4473
  822MPD2    C312146   1.086   3.653  15.892 -0.1976  0.3472 -0.4393
  822MPD2    C412147   1.131   3.697  15.769  0.6868  0.4288 -0.7341
  822MPD2    C512148   1.222   3.626  15.697 -0.5641  0.3397  0.1901
  822MPD2     H12149   1.118   3.484  16.027  1.4594 -1.4769 -0.6187
  822MPD2    H112150   1.101   3.787  15.717 -2.1094 -0.3575 -0.5376
  822MPD2    H212151   1.351   3.467  15.665  1.6135  1.1443  0.3942
  822MPD2    H312152   1.250   3.660  15.598 -0.5288  0.2700  0.1761
  822MPD2     N12153   1.007   3.737  15.978 -0.4191  0.0531  0.7763
  822MPD2    H512154   0.977   3.701  16.068  0.9717 -3.7339 -0.2831
  822MPD2    N112155   1.291   3.339  15.906  0.9776  0.3487 -0.3242
  822MPD2    H712156   1.272   3.335  16.006 -1.6598 -1.0264 -0.8790
  823MPD2     C12157   0.609   3.949  16.713  0.0892 -0.1456 -0.0659
  823MPD2    C112158   0.639   3.859  16.617  0.1905  0.4152 -0.1625
  823MPD2    C212159   0.649   3.723  16.643 -0.4964 -0.5642 -0.2425
  823MPD2    C312160   0.646   3.686  16.777  0.3820  0.1527 -0.8061
  823MPD2    C412161   0.599   3.775  16.869  0.1353 -0.1403 -0.0252
  823MPD2    C512162   0.577   3.905  16.840 -0.2462  0.8468  0.4432
  823MPD2     H12163   0.678   3.662  16.558 -0.9732  0.5428 -1.1889
  823MPD2    H112164   0.578   3.740  16.969  4.0061 -1.8154  0.2014
  823MPD2    H212165   0.612   4.056  16.698  3.7318 -0.4205 -1.3600
  823MPD2    H312166   0.539   3.971  16.917 -0.5177  1.7996 -0.4959
  823MPD2     N12167   0.682   3.548  16.814  0.3432 -0.7042  0.4925
  823MPD2    H512168   0.698   3.539  16.914  0.4912  0.2146  0.5531
  823MPD2    N112169   0.675   3.919  16.491  0.1157 -0.4735  0.1748
  823MPD2    H712170   0.686   4.020  16.489 -1.9736 -0.2580 -0.0854
  824MPD2     C12171   1.446   2.456  15.975  0.2142 -0.1169 -1.1642
  824MPD2    C112172   1.496   2.555  15.896 -0.3489  1.1475  0.1472
  824MPD2    C212173   1.602   2.520  15.818  0.7284 -0.1530 -0.6375
  824MPD2    C312174   1.656   2.391  15.816 -0.1116 -1.0107  0.4429
  824MPD2    C412175   1.592   2.294  15.889 -0.0011  0.1459  0.0433
  824MPD2    C512176   1.494   2.324  15.977 -0.2715  0.2101  0.1662
  824MPD2     H12177   1.656   2.588  15.753 -2.8032  2.3780 -0.9170
  824MPD2    H112178   1.632   2.194  15.878  1.9114  0.4716  4.3191
  824MPD2    H212179   1.363   2.466  16.045  0.1530 -2.0804 -0.9458
  824MPD2    H312180   1.446   2.261  16.050 -0.3448  4.4549  3.7635
  824MPD2     N12181   1.770   2.367  15.742 -0.0330  0.0828 -0.3934
  824MPD2    H512182   1.802   2.445  15.686  1.7741  0.6990  1.4835
  824MPD2    N112183   1.452   2.686  15.919  0.4391  0.8023  0.5213
  824MPD2    H712184   1.383   2.703  15.992  0.8865  0.8494  0.9375
  825MPD2     C12185   2.573   2.662  15.706 -0.2501 -0.8677  0.3283
  825MPD2    C112186   2.437   2.681  15.690 -0.5297  0.1922 -0.6919
  825MPD2    C212187   2.391   2.810  15.711  0.0157 -0.4040 -0.5640
  825MPD2    C312188   2.471   2.916  15.744  0.9975 -0.3606 -0.4214
  825MPD2    C412189   2.609   2.895  15.753  0.5509 -0.3210  0.2989
  825MPD2    C512190   2.656   2.765  15.740 -0.0650  0.2569 -0.9747
  825MPD2     H12191   2.285   2.830  15.705  0.2431  0.6215 -1.2425
  825MPD2    H112192   2.670   2.975  15.793 -0.4252  0.2602  0.6062
  825MPD2    H212193   2.617   2.565  15.688  0.4612 -0.5600  0.4285
  825MPD2    H312194   2.762   2.748  15.752 -0.1376  0.0571 -0.5880
  825MPD2     N12195   2.417   3.045  15.776 -0.1873 -0.1486 -0.2035
  825MPD2    H512196   2.488   3.112  15.805 -0.5063  0.9696 -1.9856
  825MPD2    N112197   2.355   2.564  15.658 -0.0700 -0.6488 -0.1158
  825MPD2    H712198   2.409   2.480  15.643 -0.6443 -1.6321  3.3281
  826MPD2     C12199   2.111   2.998  14.139 -0.1318 -0.0355  0.4073
  826MPD2    C112200   2.119   3.008  14.002  0.3761 -0.2342  0.1858
  826MPD2    C212201   2.032   3.103  13.934 -0.0534  0.5338 -0.4034
  826MPD2    C312202   1.935   3.176  14.002  0.1340 -0.0590 -0.6428
  826MPD2    C412203   1.938   3.163  14.141  0.1055  0.1439 -0.4172
  826MPD2    C512204   2.027   3.085  14.206 -0.2653  0.3886 -0.6588
  826MPD2     H12205   2.037   3.128  13.829  0.9795  0.1375 -0.4425
  826MPD2    H112206   1.877   3.234  14.195 -1.0136  0.3344 -1.9161
  826MPD2    H212207   2.176   2.932  14.195 -0.4410 -1.2792 -0.6794
  826MPD2    H312208   2.031   3.099  14.313  0.5397 -1.4060 -0.4560
  826MPD2     N12209   1.859   3.281  13.945  0.2225  0.2607 -0.2758
  826MPD2    H512210   1.790   3.334  13.997  0.3634 -0.0106  0.1839
  826MPD2    N112211   2.203   2.918  13.933  0.3244  0.0554 -0.0595
  826MPD2    H712212   2.270   2.863  13.985  0.0974  0.4938  0.6958
  827MPD2     C12213   2.282   4.527  10.172  0.2202  0.1538 -0.5373
  827MPD2    C112214   2.266   4.451  10.289  1.0910 -0.1981 -0.5176
  827MPD2    C212215   2.172   4.353  10.290  0.4289 -0.7763 -0.2079
  827MPD2    C312216   2.104   4.324  10.175  0.5282 -0.1296 -0.4917
  827MPD2    C412217   2.133   4.382  10.055 -0.9789  0.2052  0.4376
  827MPD2    C512218   2.219   4.490  10.057 -0.2447  0.4268 -0.3300
  827MPD2     H12219   2.173   4.295  10.382  0.4466  1.5644  1.2594
  827MPD2    H112220   2.086   4.354   9.962  2.4054  4.3682 -2.5504
  827MPD2    H212221   2.359   4.603  10.175  0.3160  0.1263 -2.2989
  827MPD2    H312222   2.225   4.546   9.965 -3.1518 -1.0664 -1.4298
  827MPD2     N12223   2.010   4.222  10.192 -0.5706 -0.2389  0.3473
  827MPD2    H512224   1.981   4.187  10.282  0.7702 -3.0264 -0.2927
  827MPD2    N112225   2.359   4.484  10.397  0.2811 -0.3856  0.0509
  827MPD2    H712226   2.425   4.561  10.389 -1.4557  1.1163  0.2278
  828MPD2     C12227   1.357   4.240  12.276 -0.4354 -0.2656  0.8680
  828MPD2    C112228   1.241   4.207  12.219  0.2251  0.5301 -0.5101
  828MPD2    C212229   1.242   4.135  12.101  0.1637 -0.6218  0.0841
  828MPD2    C312230   1.363   4.091  12.045  0.5927 -0.4776  0.5430
  828MPD2    C412231   1.482   4.132  12.104  0.0610 -0.6529  0.0971
  828MPD2    C512232   1.475   4.210  12.216 -0.8348  0.0405  0.9550
  828MPD2     H12233   1.145   4.119  12.055  0.7932  2.8386 -2.4256
  828MPD2    H112234   1.579   4.115  12.059  0.9396 -0.4846  1.9594
  828MPD2    H212235   1.361   4.296  12.369 -1.2836  0.1351  0.6623
  828MPD2    H312236   1.565   4.259  12.251 -0.0802 -0.6271 -0.0543
  828MPD2     N12237   1.376   4.018  11.926  0.0114 -0.4646 -0.7195
  828MPD2    H512238   1.468   4.004  11.886  1.2683 -0.3638  2.1115
  828MPD2    N112239   1.112   4.233  12.269  0.6293  0.1154 -0.9764
  828MPD2    H712240   1.034   4.204  12.211  0.3896  1.0616 -1.1285
  829MPD2     C12241   0.406   4.209  11.869  0.3902  0.1487  0.1670
  829MPD2    C112242   0.341   4.230  11.994  0.2522  0.2149 -0.5289
  829MPD2    C212243   0.421   4.253  12.103  0.6023 -0.8449 -0.2828
  829MPD2    C312244   0.558   4.264  12.076 -0.4507 -0.4693  0.2901
  829MPD2    C412245   0.614   4.252  11.947 -0.2549 -0.0648  0.2550
  829MPD2    C512246   0.535   4.223  11.845 -0.7073  0.6765 -0.6546
  829MPD2     H12247   0.375   4.260  12.201  0.3417 -0.5146 -0.4327
  829MPD2    H112248   0.722   4.255  11.938 -0.2076 -2.3851  0.2186
  829MPD2    H212249   0.349   4.181  11.781 -1.7720  2.0995  0.9407
  829MPD2    H312250   0.582   4.203  11.750 -0.5818  1.3315 -0.7262
  829MPD2     N12251   0.649   4.270  12.177  0.6700 -0.0376 -0.1078
  829MPD2    H512252   0.743   4.237  12.155 -0.0294 -1.8216 -0.4116
  829MPD2    N112253   0.203   4.189  12.005  0.0845 -0.5217  0.6975
  829MPD2    H712254   0.162   4.145  11.923 -0.9150 -0.3652  1.1232
  830MPD2     C12255   0.760   1.401  15.456  0.0838 -0.6687 -0.6673
  830MPD2    C112256   0.859   1.480  15.523 -0.7919  0.1568 -0.5522
  830MPD2    C212257   0.992   1.453  15.501  0.0792  0.1293  0.0216
  830MPD2    C312258   1.036   1.346  15.423 -0.3204 -0.7746 -0.0718
  830MPD2    C412259   0.938   1.251  15.383  0.0455 -0.0165 -0.7270
  830MPD2    C512260   0.806   1.287  15.393  0.2586  0.2761 -0.4112
  830MPD2     H12261   1.058   1.522  15.552  0.6093  0.5296 -1.2191
  830MPD2    H112262   0.966   1.168  15.319 -1.5232  0.6345 -2.2810
  830MPD2    H212263   0.652   1.408  15.460  0.1247 -0.0026 -0.6987
  830MPD2    H312264   0.738   1.219  15.343  1.0641 -1.4818  0.8916
  830MPD2     N12265   1.176   1.323  15.401 -0.5504  0.0098 -0.7197
  830MPD2    H512266   1.194   1.223  15.394  0.3031  0.0099  1.6078
  830MPD2    N112267   0.813   1.581  15.613 -0.3279 -0.3018  0.1593
  830MPD2    H712268   0.886   1.612  15.677 -0.9689 -0.0452  0.7644
  831MPD2     C12269   1.148   3.763  16.424  0.1566  0.6450 -0.3891
  831MPD2    C112270   1.173   3.672  16.327 -0.0505  0.5824 -0.5617
  831MPD2    C212271   1.078   3.573  16.314 -0.0523  0.4664  0.1293
  831MPD2    C312272   0.969   3.562  16.388  0.0176 -0.4534 -0.5728
  831MPD2    C412273   0.954   3.649  16.496  0.0193 -0.2700  0.0183
  831MPD2    C512274   1.045   3.750  16.511 -0.7628  0.5185  0.3855
  831MPD2     H12275   1.099   3.488  16.249  1.8235  0.4687  0.7399
  831MPD2    H112276   0.881   3.633  16.574 -0.4684  1.7297 -0.0079
  831MPD2    H212277   1.205   3.853  16.445 -2.8676  2.4766  0.1388
  831MPD2    H312278   1.039   3.816  16.596 -1.8259  0.7979  0.1023
  831MPD2     N12279   0.862   3.473  16.355 -0.5547 -0.0419 -0.0599
  831MPD2    H512280   0.788   3.473  16.425  2.1720 -1.3129  2.8266
  831MPD2    N112281   1.296   3.669  16.247 -0.4045  0.0467 -1.1357
  831MPD2    H712282   1.358   3.747  16.265  0.4735 -1.3788  1.8776
  832MPD2     C12283   4.523   0.053  17.185  0.1012 -0.0060  0.3739
  832MPD2    C112284   4.498   0.177  17.135  0.1865 -0.2636 -0.2016
  832MPD2    C212285   4.399   0.197  17.052 -0.1178 -0.0756 -0.2391
  832MPD2    C312286   4.320   0.096  17.008 -0.1070  0.8592 -0.5246
  832MPD2    C412287   4.341   4.704  17.060  0.0146  0.2980  0.3448
  832MPD2    C512288   4.445   4.686  17.150  0.2188 -0.4486 -0.3660
  832MPD2     H12289   4.401   0.295  17.005  0.8861  1.0564  2.1745
  832MPD2    H112290   4.285   4.618  17.026 -1.5739  1.3609  0.3187
  832MPD2    H212291   4.614   0.031  17.239 -0.4346  0.2715  1.3823
  832MPD2    H312292   4.469   4.587  17.186 -0.3796 -0.7358 -0.7432
  832MPD2     N12293   4.209   0.114  16.924  0.4151 -0.1096 -0.0644
  832MPD2    H512294   4.150   0.033  16.905  0.4790 -0.3601  0.8132
  832MPD2    N112295   4.581   0.285  17.174  0.5442  0.2444  0.1165
  832MPD2    H712296   4.560   0.375  17.132 -0.1594  0.3979  0.7949
  833MPD2     C12297   1.575   1.365  12.851  0.4383 -0.2335  0.1118
  833MPD2    C112298   1.532   1.432  12.738 -0.6191  0.0791 -0.7492
  833MPD2    C212299   1.500   1.362  12.621 -0.7373 -0.9183 -0.6350
  833MPD2    C312300   1.512   1.221  12.613 -0.7752 -0.6894  0.1913
  833MPD2    C412301   1.552   1.160  12.725  0.9760 -0.2326  0.4448
  833MPD2    C512302   1.592   1.229  12.835  0.2420 -0.5045 -1.0429
  833MPD2     H12303   1.458   1.414  12.535 -0.5848  0.2157 -0.0273
  833MPD2    H112304   1.569   1.053  12.720 -0.2694 -0.3976 -0.2643
  833MPD2    H212305   1.627   1.413  12.934  1.9597 -1.1189 -0.3237
  833MPD2    H312306   1.646   1.173  12.910  0.1202 -0.9667 -1.3023
  833MPD2     N12307   1.481   1.149  12.493 -0.1767  0.0195 -0.2680
  833MPD2    H512308   1.472   1.050  12.509  0.1527  0.1912  0.9560
  833MPD2    N112309   1.522   1.573  12.729 -0.0405  0.2083 -0.2359
  833MPD2    H712310   1.498   1.607  12.637  0.7664  1.4019 -0.0115
  834MPD2     C12311   0.967   0.525  12.040 -0.0421  0.4938 -0.2863
  834MPD2    C112312   0.999   0.599  11.929  0.5347  0.0319  0.1512
  834MPD2    C212313   1.040   0.730  11.952 -0.2380  0.0404 -0.1754
  834MPD2    C312314   1.032   0.796  12.075 -0.2566  0.4326  0.1297
  834MPD2    C412315   0.984   0.723  12.180 -0.5861  0.4730  0.7532
  834MPD2    C512316   0.965   0.586  12.166 -1.0447 -0.4349  0.7956
  834MPD2     H12317   1.075   0.786  11.866  0.4903  1.3955  1.0153
  834MPD2    H112318   0.955   0.766  12.275  1.3689 -1.1901  2.1095
  834MPD2    H212319   0.947   0.418  12.034  1.6619  0.1457  0.1584
  834MPD2    H312320   0.930   0.530  12.252 -0.5481  1.1152  2.0129
  834MPD2     N12321   1.098   0.921  12.085  1.0033 -0.0584  0.8485
  834MPD2    H512322   1.121   0.971  12.000 -0.4509 -0.1997  0.3687
  834MPD2    N112323   1.025   0.531  11.816  0.0574  0.1272 -0.0540
  834MPD2    H712324   0.997   0.433  11.819  0.1160  0.1206  0.2731
  835MPD2     C12325   1.642   4.001  11.196  0.1069  0.5464 -0.1792
  835MPD2    C112326   1.679   4.127  11.245  0.6136 -0.0065 -0.3714
  835MPD2    C212327   1.807   4.133  11.294  0.0252  0.1209  0.5220
  835MPD2    C312328   1.902   4.035  11.302  0.2044  0.1173 -0.7197
  835MPD2    C412329   1.857   3.913  11.248  0.0252 -0.2943  0.0263
  835MPD2    C512330   1.731   3.897  11.196  0.5322  0.2070  0.0688
  835MPD2     H12331   1.834   4.230  11.334  1.0213 -0.1356  0.4589
  835MPD2    H112332   1.928   3.831  11.244 -0.7319 -0.8899 -1.1428
  835MPD2    H212333   1.544   3.983  11.152  0.3431  0.2290 -0.5729
  835MPD2    H312334   1.714   3.796  11.158 -0.4587 -0.2450  1.7431
  835MPD2     N12335   2.027   4.043  11.356  0.1121 -0.2932 -0.0183
  835MPD2    H512336   2.063   3.955  11.390 -2.7010 -1.9562 -1.3430
  835MPD2    N112337   1.607   4.248  11.238 -0.6691  0.1814 -0.2685
  835MPD2    H712338   1.648   4.332  11.276 -2.5717  1.0914 -0.2246
  836MPD2     C12339   1.488   4.200  11.591 -0.3632 -0.4226  0.7552
  836MPD2    C112340   1.571   4.248  11.691  0.4315 -0.2717 -0.0011
  836MPD2    C212341   1.522   4.331  11.785  0.7911  0.2572  0.0180
  836MPD2    C312342   1.390   4.371  11.781  0.2381  0.2457 -0.2882
  836MPD2    C412343   1.314   4.341  11.668 -0.3825  0.1828 -0.3606
  836MPD2    C512344   1.367   4.262  11.573 -0.0809  0.1235 -0.2053
  836MPD2     H12345   1.585   4.368  11.865 -2.2622 -0.4154  2.7292
  836MPD2    H112346   1.213   4.378  11.658 -0.9842 -0.8809  1.7539
  836MPD2    H212347   1.536   4.143  11.511 -0.0472 -0.1177  0.7276
  836MPD2    H312348   1.311   4.245  11.481  1.0246  2.7626 -1.3593
  836MPD2     N12349   1.324   4.456  11.882 -0.0346  0.5446  0.4484
  836MPD2    H512350   1.231   4.490  11.862 -1.0765 -1.7341  1.5132
  836MPD2    N112351   1.704   4.194  11.695  0.2929  0.0635  0.0598
  836MPD2    H712352   1.719   4.126  11.622  0.8241  0.8308 -0.5432
  837MPD2     C12353   4.212   3.914  10.760 -0.0752 -0.0762  0.1494
  837MPD2    C112354   4.196   3.935  10.629 -0.0952  0.2572 -0.2972
  837MPD2    C212355   4.245   4.052  10.576  0.1054 -0.0924 -0.8857
  837MPD2    C312356   4.295   4.153  10.658  0.1241  0.8582 -0.9050
  837MPD2    C412357   4.290   4.129  10.794  0.2775  0.5964  0.2546
  837MPD2    C512358   4.262   4.007  10.842  0.3421  0.3236 -0.3770
  837MPD2     H12359   4.257   4.064  10.469  1.0545  0.9798 -0.6602
  837MPD2    H112360   4.343   4.198  10.858  1.6078  0.4733 -0.6999
  837MPD2    H212361   4.189   3.821  10.811  1.0728  0.1246  1.0416
  837MPD2    H312362   4.283   3.984  10.945 -0.9490 -0.3605 -0.2739
  837MPD2     N12363   4.348   4.270  10.590  0.2274  1.4520  0.1899
  837MPD2    H512364   4.351   4.259  10.490  1.5758 -0.4281  0.4489
  837MPD2    N112365   4.162   3.839  10.529 -0.9764 -0.7026  0.0283
  837MPD2    H712366   4.167   3.875  10.434 -1.6233 -0.3068  0.1461
  838MPD2     C12367   2.244   1.878  11.160  0.6616 -0.0006  0.4566
  838MPD2    C112368   2.201   1.972  11.249  0.4572  0.0338 -0.1155
  838MPD2    C212369   2.138   1.939  11.361 -0.1430  0.2136 -0.3162
  838MPD2    C312370   2.105   1.808  11.387 -0.8586  0.1473  0.0048
  838MPD2    C412371   2.135   1.713  11.292 -0.0450 -0.4315  0.0025
  838MPD2    C512372   2.208   1.746  11.177  0.5544  0.4344 -0.7259
  838MPD2     H12373   2.124   2.017  11.435  1.9555  0.3264 -0.0182
  838MPD2    H112374   2.096   1.612  11.299 -1.1939 -0.0589 -1.0079
  838MPD2    H212375   2.316   1.897  11.081 -0.3803  0.3079 -0.4184
  838MPD2    H312376   2.253   1.673  11.110  0.0972  0.9179 -1.5662
  838MPD2     N12377   2.041   1.782  11.513  0.4531  0.1192 -0.3993
  838MPD2    H512378   2.021   1.850  11.585  0.6613 -0.6871  0.4130
  838MPD2    N112379   2.235   2.108  11.226 -0.5279  0.2854 -0.2989
  838MPD2    H712380   2.214   2.167  11.306 -2.2981 -2.2742  1.0967
  839MPD2     C12381   2.373   2.367  11.974 -0.2978 -0.3970  0.5173
  839MPD2    C112382   2.311   2.282  11.884 -0.3503 -1.2219 -0.3749
  839MPD2    C212383   2.322   2.297  11.749 -0.1532 -0.1702 -0.1422
  839MPD2    C312384   2.399   2.393  11.696 -0.0850  0.0163  0.0215
  839MPD2    C412385   2.463   2.475  11.779  0.1445  0.7195  0.9855
  839MPD2    C512386   2.450   2.464  11.921 -0.2202 -0.1770  0.8351
  839MPD2     H12387   2.281   2.217  11.688 -1.0172 -0.1148  0.3783
  839MPD2    H112388   2.537   2.541  11.735  1.2164  0.7191  2.8128
  839MPD2    H212389   2.380   2.339  12.079  2.1451  0.6385  0.6275
  839MPD2    H312390   2.519   2.522  11.982 -0.3834  1.8061 -0.8554
  839MPD2     N12391   2.407   2.387  11.552 -0.6023  0.1992  0.3084
  839MPD2    H512392   2.367   2.302  11.513 -0.5527  0.2149  0.2248
  839MPD2    N112393   2.242   2.165  11.933  0.5402  0.4039 -0.1417
  839MPD2    H712394   2.202   2.097  11.869  1.2547 -0.0689 -0.0860
  840MPD2     C12395   2.944   4.612  10.260 -0.3062  0.5646 -0.0411
  840MPD2    C112396   2.932   4.670  10.380 -0.7281 -0.6820 -0.2763
  840MPD2    C212397   3.028   0.016  10.434  0.3081 -0.0597  0.5811
  840MPD2    C312398   3.149   0.034  10.370 -0.3750  0.0538  0.9008
  840MPD2    C412399   3.163   4.717  10.250 -0.0622  0.6755 -0.4770
  840MPD2    C512400   3.060   4.636  10.193  0.7148 -0.0059 -0.0767
  840MPD2     H12401   3.014   0.059  10.533  1.4235 -2.2089  1.6568
  840MPD2    H112402   3.258   4.720  10.198  1.0227 -0.8249  1.4452
  840MPD2    H212403   2.857   4.567  10.212 -1.4175  1.0931  1.4762
  840MPD2    H312404   3.067   4.605  10.089  0.6153  1.6029 -0.5681
  840MPD2     N12405   3.263   0.097  10.432  0.0691  0.3064  0.1607
  840MPD2    H512406   3.354   0.105  10.387  0.8400 -1.8668  1.3911
  840MPD2    N112407   2.815   4.626  10.449  0.3744  0.0739 -0.6206
  840MPD2    H712408   2.752   4.571  10.391  3.1115 -1.4514 -2.1999
  841MPD2     C12409   2.751   3.775  14.201  0.7575  0.0508 -1.0024
  841MPD2    C112410   2.865   3.834  14.147  0.7739  0.1122  0.2125
  841MPD2    C212411   2.961   3.879  14.231  0.1681 -0.6330 -0.0809
  841MPD2    C312412   2.948   3.870  14.365 -0.5267  0.1408  0.2500
  841MPD2    C412413   2.829   3.829  14.418  0.1904 -0.4816  0.6059
  841MPD2    C512414   2.731   3.786  14.338  0.2559 -0.0762  0.2428
  841MPD2     H12415   3.041   3.934  14.183 -2.2791  0.3867 -3.0088
  841MPD2    H112416   2.810   3.832  14.524 -0.4449 -0.8221  0.5014
  841MPD2    H212417   2.663   3.743  14.146  1.3849 -2.3259 -0.6403
  841MPD2    H312418   2.641   3.749  14.386  0.3287  1.8234  1.8379
  841MPD2     N12419   3.042   3.923  14.458 -0.6545  0.3468  0.8470
  841MPD2    H512420   3.005   3.917  14.552 -1.7919  0.4704  0.4170
  841MPD2    N112421   2.892   3.833  14.007  0.1213 -0.4188 -0.1862
  841MPD2    H712422   2.973   3.886  13.976  0.2478  0.0425  0.9471
  842MPD2     C12423   3.524   0.003  17.017  0.6437 -0.3353  0.1585
  842MPD2    C112424   3.418   4.643  17.002 -0.4778  0.3197 -0.7146
  842MPD2    C212425   3.292   4.674  17.071 -0.1050 -0.1890  0.1840
  842MPD2    C312426   3.283   0.035  17.167 -0.2168 -0.0207 -0.2359
  842MPD2    C412427   3.390   0.115  17.186  0.3058 -0.0644 -0.6825
  842MPD2    C512428   3.507   0.095  17.114 -0.7589 -0.2769  0.6715
  842MPD2     H12429   3.203   4.625  17.033 -0.4396  0.5434  0.0139
  842MPD2    H112430   3.389   0.202  17.251  0.3555  0.8945 -1.9721
  842MPD2    H212431   3.614   4.726  16.959  0.3407  0.7708 -0.6109
  842MPD2    H312432   3.588   0.165  17.128 -0.7874 -0.0453 -0.3673
  842MPD2     N12433   3.166   0.076  17.225 -0.1703 -0.7425 -0.2831
  842MPD2    H512434   3.165   0.162  17.279 -1.1831 -1.7026  1.2290
  842MPD2    N112435   3.435   4.544  16.900  0.4840  0.4918 -0.8885
  842MPD2    H712436   3.521   4.544  16.846  0.6689  1.3953 -0.6051
  843MPD2     C12437   0.241   0.976  17.718 -0.5960  0.2387 -0.0615
  843MPD2    C112438   0.348   0.910   0.033 -0.5686  0.1771  0.6936
  843MPD2    C212439   0.468   0.976   0.049 -0.4094  0.2940  0.1281
  843MPD2    C312440   0.485   1.107   0.008 -0.7576 -0.2223  0.3248
  843MPD2    C412441   0.383   1.165  17.699 -0.0663  0.1905  0.2619
  843MPD2    C512442   0.256   1.106  17.674 -0.3354 -0.0416 -0.6804
  843MPD2     H12443   0.556   0.921   0.079 -1.4376 -0.8686  1.0087
  843MPD2    H112444   0.395   1.264  17.655 -0.8935  0.8631  1.5352
  843MPD2    H212445   0.150   0.921  17.698  0.6181 -1.1807 -1.7208
  843MPD2    H312446   0.173   1.157  17.627  0.2172 -1.1090 -2.7950
  843MPD2     N12447   0.603   1.182   0.029  0.6563  0.2359  0.9959
  843MPD2    H512448   0.592   1.282   0.025 -0.2317  0.0408 -1.3938
  843MPD2    N112449   0.337   0.772   0.076  0.0336  0.1668  0.1387
  843MPD2    H712450   0.254   0.720   0.050 -0.8526  1.6132  0.0526
  844MPD2     C12451   4.359   4.024  16.700  0.4057  0.3257 -0.8639
  844MPD2    C112452   4.394   4.115  16.606 -0.1042 -0.1090  0.2907
  844MPD2    C212453   4.472   4.222  16.651 -0.0952  0.5936 -0.3525
  844MPD2    C312454   4.520   4.229  16.782  0.2516  0.3389  0.2354
  844MPD2    C412455   4.468   4.143  16.872 -0.3235 -0.4408  0.2627
  844MPD2    C512456   4.391   4.041  16.834 -0.4703  0.4495  0.0019
  844MPD2     H12457   4.508   4.292  16.577  0.1883  0.7883 -0.0361
  844MPD2    H112458   4.479   4.168  16.977  1.6370  1.3982 -0.3776
  844MPD2    H212459   4.308   3.933  16.672  1.6869 -0.7164  0.2365
  844MPD2    H312460   4.363   3.973  16.913 -0.0550  1.5566  1.0937
  844MPD2     N12461   4.598   4.338  16.819  0.3696 -0.7485  0.1310
  844MPD2    H512462   4.615   4.410  16.749 -0.1902  1.7027  2.4995
  844MPD2    N112463   4.356   4.105  16.467 -0.2176 -0.7081  0.0362
  844MPD2    H712464   4.368   4.187  16.410 -0.2581 -0.2829  0.6387
  845MPD2     C12465   4.465   0.409  16.608  0.9575 -0.8907  0.9806
  845MPD2    C112466   4.513   0.421  16.738 -0.4177 -0.5380  0.0697
  845MPD2    C212467   4.574   0.315  16.802  0.1731 -0.5302  0.5774
  845MPD2    C312468   4.579   0.198  16.726  0.5008  0.0730 -0.1463
  845MPD2    C412469   4.525   0.181  16.604 -0.8467  0.2043 -0.4270
  845MPD2    C512470   4.475   0.293  16.537  0.3798  0.4268  0.3103
  845MPD2     H12471   4.607   0.332  16.904 -1.7978  0.1200  1.1168
  845MPD2    H112472   4.520   0.086  16.552  0.2540  0.6827 -1.4071
  845MPD2    H212473   4.424   0.495  16.557  0.0924 -3.3757 -2.4770
  845MPD2    H312474   4.459   0.288  16.430  1.5820  1.5609  0.0789
  845MPD2     N12475   4.642   0.083  16.786 -0.1364  0.1589  0.0503
  845MPD2    H512476   4.600   4.732  16.760 -0.0294  0.4597 -1.1900
  845MPD2    N112477   4.481   0.549  16.802 -0.4641  0.1829 -0.3167
  845MPD2    H712478   4.447   0.618  16.736  0.4868  0.1293 -0.8592
  846MPD2     C12479   1.113   0.885  13.681 -0.0262  0.0693 -0.3921
  846MPD2    C112480   0.975   0.897  13.698  0.4295 -0.4472  1.0427
  846MPD2    C212481   0.929   0.927  13.821 -0.2009 -0.5605 -0.8689
  846MPD2    C312482   1.019   0.951  13.932 -0.7434 -0.0592  0.5598
  846MPD2    C412483   1.158   0.936  13.912 -0.2542 -0.4780  0.6379
  846MPD2    C512484   1.197   0.892  13.788  0.3485  0.3002  0.5403
  846MPD2     H12485   0.823   0.944  13.839  0.2624  0.6636  0.7536
  846MPD2    H112486   1.235   0.937  13.989  0.0812  2.7114  0.2623
  846MPD2    H212487   1.157   0.865  13.584 -0.7967 -0.0148 -0.7252
  846MPD2    H312488   1.304   0.887  13.772  0.1804 -0.1597 -0.3992
  846MPD2     N12489   0.958   0.969  14.058  0.1790  0.1908  0.2819
  846MPD2    H512490   0.859   0.952  14.068  0.3888 -1.2352 -0.0000
  846MPD2    N112491   0.896   0.911  13.578  0.1722 -0.4511 -0.5669
  846MPD2    H712492   0.804   0.953  13.587 -0.9774 -3.1437  0.1405
  847MPD2     C12493   0.656   1.984  14.559  0.6967 -0.5032 -0.0416
  847MPD2    C112494   0.778   1.948  14.583  0.0571  0.2112 -0.5426
  847MPD2    C212495   0.812   1.817  14.552  0.5286  0.2802 -0.0688
  847MPD2    C312496   0.718   1.730  14.500 -0.1418 -0.0957  0.8046
  847MPD2    C412497   0.590   1.775  14.483 -0.0723 -0.1058 -0.0249
  847MPD2    C512498   0.555   1.905  14.508  0.0854  0.1044  0.0740
  847MPD2     H12499   0.913   1.782  14.569 -0.0342 -1.1406  0.3653
  847MPD2    H112500   0.511   1.705  14.459  0.8753 -1.3361  0.4234
  847MPD2    H212501   0.632   2.085  14.590  3.8607  1.2263 -3.3163
  847MPD2    H312502   0.451   1.934  14.501  0.6861  2.1484 -0.5707
  847MPD2     N12503   0.761   1.601  14.480  0.3993  0.7080  0.5548
  847MPD2    H512504   0.852   1.582  14.522  0.9006 -0.7882 -1.2271
  847MPD2    N112505   0.879   2.018  14.639  0.2936  0.1896  0.5650
  847MPD2    H712506   0.967   1.967  14.646 -1.2057 -2.4081  0.6355
  848MPD2     C12507   3.937   0.473  16.197  0.3569  0.0831 -0.1749
  848MPD2    C112508   3.855   0.401  16.276 -0.6565 -0.1809 -0.2488
  848MPD2    C212509   3.720   0.437  16.286 -0.4727  0.0051 -0.1051
  848MPD2    C312510   3.681   0.559  16.232  0.2201  0.1241 -0.3155
  848MPD2    C412511   3.762   0.622  16.147 -0.0685  0.2244  0.2786
  848MPD2    C512512   3.892   0.585  16.136 -0.3257 -0.3723 -0.0863
  848MPD2     H12513   3.658   0.385  16.358  0.7543 -0.1900  0.8110
  848MPD2    H112514   3.743   0.717  16.099 -0.1268 -0.1488 -0.4397
  848MPD2    H212515   4.041   0.449  16.183  1.0319  1.5684  2.2402
  848MPD2    H312516   3.956   0.646  16.075  1.8706 -3.5627 -0.9547
  848MPD2     N12517   3.560   0.623  16.266 -0.2410 -0.6527 -0.5582
  848MPD2    H512518   3.550   0.724  16.255  2.5777 -0.4960 -1.7015
  848MPD2    N112519   3.900   0.297  16.364 -0.1320 -0.6908  0.9099
  848MPD2    H712520   3.828   0.254  16.421 -0.6455  1.2734  1.7712
  849MPD2     C12521   2.559   4.668  14.442  0.2688  0.2767  0.1034
  849MPD2    C112522   2.670   4.733  14.395 -0.5151 -0.0620  0.5299
  849MPD2    C212523   2.777   4.727  14.478  0.3392  0.1780 -0.3174
  849MPD2    C312524   2.784   4.657  14.595  0.4162 -0.3492  0.2295
  849MPD2    C412525   2.674   4.589  14.634 -0.0726 -0.5034 -0.4835
  849MPD2    C512526   2.555   4.598  14.556  0.0972 -0.6865  0.1258
  849MPD2     H12527   2.872   0.021  14.438  1.6026 -1.3806  1.4969
  849MPD2    H112528   2.658   4.533  14.726 -1.9329 -0.0597 -0.5350
  849MPD2    H212529   2.468   4.681  14.384  0.9422  3.0632 -0.2978
  849MPD2    H312530   2.459   4.560  14.588  1.2998 -2.6969  1.3166
  849MPD2     N12531   2.906   4.643  14.676 -0.1523 -0.5568 -0.2637
  849MPD2    H512532   2.907   4.569  14.746  1.3879  1.3075  1.7014
  849MPD2    N112533   2.663   0.073  14.277  0.3115 -0.1060  0.0562
  849MPD2    H712534   2.589   0.060  14.209  0.8130  1.1646 -0.7256
  850MPD2     C12535   1.657   2.611  14.793  0.0410 -0.1954  0.2219
  850MPD2    C112536   1.601   2.702  14.879  0.2533 -0.1749  0.0222
  850MPD2    C212537   1.684   2.796  14.929  0.2081 -0.2500 -0.7661
  850MPD2    C312538   1.815   2.813  14.888 -0.4432  0.1927  0.4924
  850MPD2    C412539   1.857   2.742  14.783 -0.6553  0.4390 -1.0386
  850MPD2    C512540   1.777   2.638  14.743  0.1477  0.3452  0.1085
  850MPD2     H12541   1.644   2.868  15.000  1.6044  0.1711 -0.3925
  850MPD2    H112542   1.963   2.739  14.758 -0.2706  0.0449  0.6967
  850MPD2    H212543   1.607   2.522  14.756  2.2727 -1.0864 -0.6426
  850MPD2    H312544   1.822   2.572  14.669 -0.9365 -1.2634  0.8922
  850MPD2     N12545   1.898   2.906  14.953  0.2263 -0.4921  0.8193
  850MPD2    H512546   1.989   2.925  14.913  0.7581 -1.1674  1.6964
  850MPD2    N112547   1.469   2.687  14.925 -0.1365  0.1738  0.3380
  850MPD2    H712548   1.418   2.605  14.895  0.3706 -0.3483  0.8972
  851MPD2     C12549   1.234   2.360  15.548  0.6085  0.2814 -0.3948
  851MPD2    C112550   1.212   2.329  15.414 -0.5308  0.0349 -0.7386
  851MPD2    C212551   1.228   2.208  15.359 -0.3533  0.1009 -0.3337
  851MPD2    C312552   1.279   2.105  15.438  0.2497  0.3962 -0.2738
  851MPD2    C412553   1.305   2.139  15.569  0.2045 -0.4638  0.3093
  851MPD2    C512554   1.287   2.264  15.623 -0.3120  0.1616 -0.4311
  851MPD2     H12555   1.216   2.193  15.252 -1.3035 -0.0230 -0.2114
  851MPD2    H112556   1.342   2.066  15.639 -0.9627 -1.7179 -0.3841
  851MPD2    H212557   1.211   2.454  15.597 -0.3011 -1.1306  1.8884
  851MPD2    H312558   1.319   2.271  15.726 -3.3784 -2.3365  0.7067
  851MPD2     N12559   1.300   1.982  15.378  0.1734 -0.2881 -0.5244
  851MPD2    H512560   1.258   1.974  15.285 -0.7915  2.2691 -0.3102
  851MPD2    N112561   1.171   2.442  15.336 -0.1902  0.4091  0.2566
  851MPD2    H712562   1.162   2.530  15.385 -0.3399  0.1051  0.7788
  852MPD2     C12563   0.433   0.355  10.641  0.2316 -0.0553 -0.4866
  852MPD2    C112564   0.379   0.378  10.763  0.4288 -0.0596 -0.0871
  852MPD2    C212565   0.341   0.500  10.801  0.2558 -0.7902 -0.4595
  852MPD2    C312566   0.367   0.606  10.715  0.3291  0.3942 -0.2030
  852MPD2    C412567   0.416   0.584  10.593 -0.0338 -0.0940 -0.6860
  852MPD2    C512568   0.439   0.456  10.546  0.1070 -0.0715 -0.4942
  852MPD2     H12569   0.301   0.516  10.901 -0.3031 -1.3889 -0.5831
  852MPD2    H112570   0.453   0.668  10.535 -0.8914 -0.6909 -2.0977
  852MPD2    H212571   0.463   0.258  10.604 -2.9815 -0.9770 -0.6294
  852MPD2    H312572   0.482   0.435  10.449 -1.1947  1.1159 -1.3225
  852MPD2     N12573   0.346   0.743  10.768  0.0224  0.4488 -0.3348
  852MPD2    H512574   0.320   0.749  10.866  1.0283  2.3440 -0.1707
  852MPD2    N112575   0.363   0.280  10.870 -0.0681 -0.3633  0.8273
  852MPD2    H712576   0.310   0.310  10.951 -1.6564 -3.0652  0.7976
  853MPD2     C12577   1.947   0.661  12.940 -0.5027 -1.1026  0.1989
  853MPD2    C112578   1.899   0.793  12.926 -0.5883  0.0234  0.3561
  853MPD2    C212579   1.855   0.837  12.802 -0.1138 -0.0534 -0.1524
  853MPD2    C312580   1.885   0.753  12.693  0.0501 -0.0260  0.3727
  853MPD2    C412581   1.915   0.622  12.715 -0.2853 -0.1181  0.5325
  853MPD2    C512582   1.949   0.575  12.839 -0.0689  0.0875 -0.4980
  853MPD2     H12583   1.828   0.941  12.788  2.1811  0.4416 -0.7818
  853MPD2    H112584   1.915   0.564  12.624  0.2227  3.6822 -1.9001
  853MPD2    H212585   1.980   0.629  13.038 -2.1703 -1.2387  0.7136
  853MPD2    H312586   1.976   0.472  12.859 -0.3478 -0.1965 -1.5746
  853MPD2     N12587   1.886   0.797  12.559 -0.0919  0.1021 -0.1771
  853MPD2    H512588   1.928   0.730  12.496 -1.0158 -0.1621 -0.5137
  853MPD2    N112589   1.914   0.873  13.043 -0.8578 -0.5315  1.0442
  853MPD2    H712590   1.947   0.822  13.125  1.8841 -0.8867 -0.2490
  854MPD2     C12591   4.473   1.054  12.626 -0.1850 -0.1053 -0.1263
  854MPD2    C112592   4.429   1.037  12.753  0.0743  0.3305  0.0323
  854MPD2    C212593   4.484   0.933  12.838  0.2940 -0.0301  0.6148
  854MPD2    C312594   4.577   0.846  12.790 -0.2188  0.2510  0.4199
  854MPD2    C412595   4.630   0.884  12.673  0.2665  0.7055  0.2327
  854MPD2    C512596   4.579   0.980  12.594  0.0293  0.4464 -0.8412
  854MPD2     H12597   4.440   0.925  12.937 -0.4005 -0.2791  0.2908
  854MPD2    H112598   4.718   0.831  12.640 -0.4269  0.9448 -2.0491
  854MPD2    H212599   4.439   1.122  12.548  0.1583 -2.2294 -2.1349
  854MPD2    H312600   4.629   0.998  12.499  0.4441  0.3924 -0.6313
  854MPD2     N12601   4.634   0.742  12.864  0.5077 -0.3399  0.0769
  854MPD2    H512602   4.708   0.684  12.825  0.0400 -1.8510  1.3888
  854MPD2    N112603   4.331   1.134  12.792  0.0234  0.1244  0.4317
  854MPD2    H712604   4.320   1.213  12.729 -1.6989 -0.8196 -0.4355
  855MPD2     C12605   4.599   0.506  13.848 -0.2316 -0.1277 -0.4303
  855MPD2    C112606   4.700   0.427  13.796  0.0259  0.4813 -0.3205
  855MPD2    C212607   0.011   0.457  13.670  0.0117  0.2165  0.5390
  855MPD2    C312608   4.687   0.548  13.583  0.0726 -0.2223 -0.7622
  855MPD2    C412609   4.577   0.615  13.637 -0.1132 -0.1518  1.3204
  855MPD2    C512610   4.536   0.597  13.768  0.6243  0.2450 -0.7524
  855MPD2     H12611   0.100   0.406  13.638 -1.4769 -2.8471  1.3019
  855MPD2    H112612   4.524   0.689  13.578 -0.1646  0.9914  2.8213
  855MPD2    H212613   4.566   0.496  13.951 -0.7503  1.3733 -0.4594
  855MPD2    H312614   4.442   0.635  13.807  1.1665  0.4617  0.3524
  855MPD2     N12615   4.722   0.558  13.447  0.3414 -0.2710  0.6755
  855MPD2    H512616   4.659   0.616  13.392  1.2716  0.0338 -0.0797
  855MPD2    N112617   0.005   0.305  13.853  0.5115 -0.1185 -0.3358
  855MPD2    H712618   0.059   0.244  13.793 -3.0805 -1.0974 -2.5477
  856MPD2     C12619   1.743   1.026  13.955  0.2584 -0.1068 -0.0966
  856MPD2    C112620   1.805   1.145  13.985 -0.4157  0.0858 -0.4307
  856MPD2    C212621   1.737   1.261  13.955  0.0623  0.6496 -0.2502
  856MPD2    C312622   1.609   1.262  13.920  0.0408  0.0757  0.2291
  856MPD2    C412623   1.556   1.148  13.868 -0.5973 -0.0090 -0.5996
  856MPD2    C512624   1.620   1.030  13.899 -0.0733  0.7765 -0.1163
  856MPD2     H12625   1.768   1.355  13.999 -1.7407  1.1707 -0.0686
  856MPD2    H112626   1.454   1.139  13.833 -0.5269 -3.6830  0.0993
  856MPD2    H212627   1.784   0.931  13.989  1.0142 -0.6668 -2.5653
  856MPD2    H312628   1.563   0.938  13.892  0.9255  0.1326  0.2354
  856MPD2     N12629   1.525   1.373  13.916 -0.6385 -0.3983 -0.0520
  856MPD2    H512630   1.433   1.355  13.877  0.5870 -1.6311 -2.4158
  856MPD2    N112631   1.927   1.167  14.052 -0.7801  0.5849 -1.1415
  856MPD2    H712632   1.962   1.262  14.062  0.4593  0.0702 -0.5078
  857MPD2     C12633   3.616   3.384  13.133 -0.0196  1.0138 -0.7072
  857MPD2    C112634   3.725   3.448  13.084  0.3368  0.3630  0.1840
  857MPD2    C212635   3.795   3.541  13.164 -0.2990 -0.2378  0.1505
  857MPD2    C312636   3.745   3.573  13.293  0.5901  0.1483 -0.2607
  857MPD2    C412637   3.637   3.508  13.342 -0.4567 -0.3679 -0.1880
  857MPD2    C512638   3.576   3.411  13.262  1.0907  0.2316  0.4712
  857MPD2     H12639   3.879   3.593  13.120 -0.7100  0.3751  0.0780
  857MPD2    H112640   3.595   3.540  13.436  2.0083 -1.8235  1.4057
  857MPD2    H212641   3.565   3.306  13.077 -1.4439  0.2260  1.6698
  857MPD2    H312642   3.489   3.361  13.301  0.9052 -1.7947 -2.5780
  857MPD2     N12643   3.816   3.664  13.366  0.5693  0.2102 -0.0670
  857MPD2    H512644   3.906   3.701  13.336 -0.1646  0.3607 -2.0591
  857MPD2    N112645   3.758   3.420  12.948 -0.3419  0.3890  0.3869
  857MPD2    H712646   3.707   3.355  12.888  0.0536 -0.7278  1.2516
  858MPD2     C12647   4.514   2.704  16.535 -0.3786  0.5801  0.2103
  858MPD2    C112648   4.446   2.587  16.542  0.4467  0.0730  0.4557
  858MPD2    C212649   4.397   2.540  16.667  0.0247 -0.1104  0.6006
  858MPD2    C312650   4.425   2.612  16.782 -0.2413 -0.2111 -0.7495
  858MPD2    C412651   4.501   2.721  16.769  0.5553  0.2734 -0.3865
  858MPD2    C512652   4.547   2.765  16.650 -0.5037  0.1500  0.3080
  858MPD2     H12653   4.337   2.450  16.674 -1.0325  0.5678  0.2295
  858MPD2    H112654   4.531   2.778  16.856 -0.9858  3.5436 -2.0201
  858MPD2    H212655   4.542   2.746  16.439  0.0169 -0.4997 -0.1405
  858MPD2    H312656   4.610   2.853  16.647 -0.4146  0.0464 -0.8005
  858MPD2     N12657   4.397   2.571  16.917  0.9701 -0.4452  0.3295
  858MPD2    H512658   4.419   2.641  16.986 -1.4076 -0.4007  1.0490
  858MPD2    N112659   4.420   2.513  16.422  0.0616 -0.1782 -0.3603
  858MPD2    H712660   4.465   2.543  16.336  0.6080  3.2215  1.1104
  859MPD2     C12661   2.755   4.651  15.441 -0.2742 -0.0109  0.3641
  859MPD2    C112662   2.882   4.646  15.486  0.6356  0.0304 -0.2657
  859MPD2    C212663   2.934   4.526  15.527 -0.3117  0.0100  0.6018
  859MPD2    C312664   2.860   4.411  15.515 -0.2196  0.3322 -0.3254
  859MPD2    C412665   2.740   4.411  15.453 -0.4703  0.5312  0.2287
  859MPD2    C512666   2.691   4.531  15.417 -0.4587 -0.1435 -0.0095
  859MPD2     H12667   3.033   4.521  15.571 -0.1634 -0.6217  0.1957
  859MPD2    H112668   2.675   4.326  15.435 -0.1376  0.2465  0.3818
  859MPD2    H212669   2.706   0.005  15.411 -2.3102 -0.6872  1.6179
  859MPD2    H312670   2.604   4.526  15.352 -0.1782  1.2301 -0.5064
  859MPD2     N12671   2.900   4.281  15.562  0.8253 -0.2504  0.0857
  859MPD2    H512672   2.853   4.200  15.522 -0.0770  0.3944 -0.1456
  859MPD2    N112673   2.966   0.024  15.467 -0.0143  0.2359 -0.3453
  859MPD2    H712674   2.921   0.113  15.448  0.2152  0.6433  0.9956
  860MPD2     C12675   0.185   4.510  11.863  0.0201 -0.4288  0.0443
  860MPD2    C112676   0.184   4.548  11.998  0.2725 -0.6186  0.1110
  860MPD2    C212677   0.064   4.556  12.063  0.8120  0.0309 -0.6319
  860MPD2    C312678   4.679   4.547  11.997 -0.3103  0.0287 -0.6733
  860MPD2    C412679   4.683   4.513  11.866 -0.5682 -0.1838  0.5476
  860MPD2    C512680   0.062   4.482  11.805 -0.4310 -0.1919  0.6481
  860MPD2     H12681   0.068   4.579  12.169  0.0047 -2.1552 -0.1242
  860MPD2    H112682   4.595   4.514  11.801 -1.0854  1.5052  1.2679
  860MPD2    H212683   0.280   4.494  11.812 -0.3636 -0.6781 -0.5922
  860MPD2    H312684   0.063   4.445  11.703  1.8391 -0.3780  0.7367
  860MPD2     N12685   4.564   4.578  12.063  0.5197  0.1743 -0.2528
  860MPD2    H512686   4.581   4.607  12.159  1.7811 -0.1645 -0.3754
  860MPD2    N112687   0.293   4.573  12.082  0.3914 -0.2323  0.1631
  860MPD2    H712688   0.278   4.601  12.179 -0.1776 -1.2700  0.3779
  861MPD2     C12689   3.778   3.799  11.145  0.7119 -0.3484  0.1761
  861MPD2    C112690   3.716   3.854  11.256 -0.0017  0.0269 -0.2983
  861MPD2    C212691   3.603   3.934  11.247 -0.0606  0.2224  0.3461
  861MPD2    C312692   3.560   3.974  11.119 -0.1780  0.3939 -0.6275
  861MPD2    C412693   3.632   3.926  11.006  0.6186 -0.2697 -0.6614
  861MPD2    C512694   3.740   3.849  11.021 -0.1170 -0.1784 -0.6411
  861MPD2     H12695   3.563   3.962  11.344 -2.7176 -1.8915 -0.1377
  861MPD2    H112696   3.603   3.973  10.912 -2.3446  0.6658  0.6976
  861MPD2    H212697   3.863   3.733  11.161  1.0753  0.3549  1.2122
  861MPD2    H312698   3.795   3.803  10.939 -2.5512  1.4774 -3.1668
  861MPD2     N12699   3.445   4.059  11.102  0.2510  0.7225  0.4213
  861MPD2    H512700   3.423   4.094  11.010  1.7916  2.2510  0.6439
  861MPD2    N112701   3.775   3.810  11.373  1.1689  0.1704  0.0741
  861MPD2    H712702   3.838   3.731  11.367  0.6837 -0.3144  1.4794
  862MPD2     C12703   2.971   4.332  10.662  0.5256  0.2521  0.0772
  862MPD2    C112704   2.983   4.236  10.757  0.6296  0.1320 -0.4491
  862MPD2    C212705   2.933   4.110  10.733 -0.9923  0.3758 -0.7924
  862MPD2    C312706   2.877   4.082  10.607  0.7409 -0.7701 -0.2844
  862MPD2    C412707   2.880   4.174  10.509 -0.0869  0.0552 -0.0579
  862MPD2    C512708   2.908   4.301  10.539 -0.2429 -0.4464 -0.3151
  862MPD2     H12709   2.914   4.037  10.811  2.0212 -1.1081 -1.4640
  862MPD2    H112710   2.835   4.162  10.411 -2.9881 -1.7453  1.5209
  862MPD2    H212711   3.000   4.436  10.671 -0.7621  0.5721  0.5206
  862MPD2    H312712   2.898   4.374  10.461  0.2482  1.3887  1.3385
  862MPD2     N12713   2.815   3.960  10.578  0.0122 -0.2035 -0.1744
  862MPD2    H512714   2.755   3.957  10.496 -0.0777  0.4348 -0.1311
  862MPD2    N112715   3.044   4.261  10.882 -0.6120 -0.6074 -0.2279
  862MPD2    H712716   3.061   4.185  10.947  1.6457  1.4332  1.5792
  863MPD2     C12717   2.509   1.189  16.519  0.7171  0.4092 -0.0747
  863MPD2    C112718   2.549   1.308  16.582 -0.4198 -0.0971  0.3663
  863MPD2    C212719   2.642   1.307  16.685 -0.1684 -0.0681  0.4606
  863MPD2    C312720   2.697   1.187  16.728  0.4232 -0.1624  0.1994
  863MPD2    C412721   2.650   1.072  16.661  0.0747 -0.1868  0.3453
  863MPD2    C512722   2.561   1.072  16.557 -0.3416 -0.3298 -0.3012
  863MPD2     H12723   2.669   1.400  16.733 -1.7278  0.2236  0.7791
  863MPD2    H112724   2.690   0.979  16.700 -1.4508 -1.4121 -1.0049
  863MPD2    H212725   2.441   1.203  16.435 -0.6835  0.0243  1.0139
  863MPD2    H312726   2.535   0.981  16.504  0.7807 -0.2111 -1.0634
  863MPD2     N12727   2.792   1.183  16.832  1.0548  0.7361 -0.1208
  863MPD2    H512728   2.820   1.094  16.874  1.8852 -0.7649 -3.8210
  863MPD2    N112729   2.472   1.420  16.540  0.6816 -0.1678  0.5664
  863MPD2    H712730   2.394   1.401  16.479  2.3395 -0.5720 -1.4310
  864MPD2     C12731   3.194   2.563  17.316 -0.3428  0.1762  0.2188
  864MPD2    C112732   3.249   2.501  17.208  0.0952  0.8551 -0.3122
  864MPD2    C212733   3.294   2.578  17.099 -0.0355  0.0023 -0.1018
  864MPD2    C312734   3.300   2.720  17.111  0.2838 -0.2299  0.5645
  864MPD2    C412735   3.247   2.773  17.225 -0.6643  0.2162  0.4346
  864MPD2    C512736   3.192   2.700  17.324 -0.1076 -0.8404 -0.5983
  864MPD2     H12737   3.326   2.531  17.007  1.7233  0.2063  0.3970
  864MPD2    H112738   3.246   2.881  17.233  0.3658  0.1218  1.8282
  864MPD2    H212739   3.160   2.509  17.404  0.9869 -2.0645 -0.6383
  864MPD2    H312740   3.153   2.744  17.415  0.2618  0.0739 -0.8930
  864MPD2     N12741   3.361   2.808  17.021 -0.0575  0.0141  0.5243
  864MPD2    H512742   3.350   2.908  17.030  3.7290  0.7085 -2.3588
  864MPD2    N112743   3.249   2.360  17.209 -0.2699  0.8660  0.8503
  864MPD2    H712744   3.204   2.320  17.291 -0.0762  1.1945  1.1162
  865MPD2     C12745   3.415   3.039  16.089  0.2528  0.1303 -0.6917
  865MPD2    C112746   3.420   2.940  16.185  0.0575  0.2116 -0.5133
  865MPD2    C212747   3.417   2.968  16.322 -0.7373  0.5217  0.3517
  865MPD2    C312748   3.425   3.101  16.362 -0.0152 -0.6889  0.1409
  865MPD2    C412749   3.438   3.204  16.268  0.3803 -0.3293  0.2675
  865MPD2    C512750   3.432   3.170  16.132 -0.2124  0.7038  0.2252
  865MPD2     H12751   3.405   2.887  16.393 -0.0911 -0.7742 -1.0379
  865MPD2    H112752   3.475   3.300  16.302 -0.7881 -1.2418  4.1203
  865MPD2    H212753   3.394   3.014  15.986  0.8323 -0.8836 -0.5653
  865MPD2    H312754   3.426   3.256  16.066 -0.0741  0.8036  0.3438
  865MPD2     N12755   3.406   3.144  16.498  0.4499 -0.3393  0.1298
  865MPD2    H512756   3.418   3.244  16.509 -0.3472 -0.1650 -0.5439
  865MPD2    N112757   3.421   2.809  16.136 -0.2124  0.0311  0.3229
  865MPD2    H712758   3.437   2.801  16.036  0.8240 -1.2227  0.6054
  866MPD2     C12759   4.213   3.936  11.894  0.0020 -0.3392  0.4124
  866MPD2    C112760   4.179   3.935  11.761 -1.0769  0.5382  0.5213
  866MPD2    C212761   4.085   4.023  11.712 -0.0825  0.2317 -0.2285
  866MPD2    C312762   4.024   4.112  11.800 -0.2927 -0.9395 -0.4647
  866MPD2    C412763   4.060   4.108  11.934 -0.1955 -0.5063 -0.2824
  866MPD2    C512764   4.147   4.011  11.984 -0.1310 -0.6215 -0.5669
  866MPD2     H12765   4.079   4.048  11.606 -0.2748  0.8522 -0.0701
  866MPD2    H112766   4.008   4.177  12.000  0.0960 -0.8550  0.3029
  866MPD2    H212767   4.282   3.865  11.938  0.8177 -1.3489 -2.4916
  866MPD2    H312768   4.190   4.003  12.083  0.8396  0.1218 -0.9269
  866MPD2     N12769   3.931   4.210  11.757 -0.0377 -0.7445  0.2842
  866MPD2    H512770   3.887   4.269  11.828  0.6465 -0.1822  0.2455
  866MPD2    N112771   4.236   3.834  11.680 -0.2231  0.2234 -0.3265
  866MPD2    H712772   4.328   3.801  11.707  0.3130 -0.0322 -2.4589
  867MPD2     C12773   2.240   2.739  16.568  0.2619 -0.9211  0.3705
  867MPD2    C112774   2.309   2.701  16.684  0.2833 -0.1165 -0.2620
  867MPD2    C212775   2.316   2.784  16.792 -0.4198  0.1049 -0.5393
  867MPD2    C312776   2.252   2.911  16.785 -0.0054 -0.3043 -0.6247
  867MPD2    C412777   2.175   2.946  16.677 -0.4285  0.2510 -0.3459
  867MPD2    C512778   2.170   2.860  16.570 -0.8760  0.4883  0.1668
  867MPD2     H12779   2.364   2.753  16.884  1.4994  3.7493 -0.3014
  867MPD2    H112780   2.124   3.042  16.671 -0.0895  0.5064  0.9058
  867MPD2    H212781   2.241   2.689  16.472 -1.2458  0.1045 -0.1724
  867MPD2    H312782   2.102   2.889  16.490 -1.5945 -0.5101  0.4199
  867MPD2     N12783   2.243   3.004  16.889  0.5171 -0.3618 -0.1364
  867MPD2    H512784   2.202   3.094  16.868 -0.9107 -0.6089  1.6565
  867MPD2    N112785   2.368   2.573  16.675  0.2298  0.5191  0.5997
  867MPD2    H712786   2.363   2.527  16.585 -0.6099 -0.5877  1.2185
  868MPD2     C12787   2.943   2.462  12.953  0.0673  1.1120 -0.3593
  868MPD2    C112788   3.055   2.415  13.025  0.3435 -0.1075  0.8376
  868MPD2    C212789   3.042   2.407  13.160  0.7666 -0.5083 -0.0493
  868MPD2    C312790   2.935   2.447  13.229 -0.3308 -0.1342 -0.3307
  868MPD2    C412791   2.822   2.485  13.156  0.5614 -0.0385 -0.2962
  868MPD2    C512792   2.825   2.491  13.015 -0.6753  0.1684  0.1063
  868MPD2     H12793   3.121   2.356  13.214  2.1602  1.2269 -0.4272
  868MPD2    H112794   2.729   2.515  13.202 -0.0781 -3.2558  0.4311
  868MPD2    H212795   2.941   2.472  12.845 -0.7226 -1.1626 -0.5583
  868MPD2    H312796   2.736   2.527  12.965 -0.4673  0.3204 -0.1563
  868MPD2     N12797   2.947   2.454  13.369  0.5263 -0.1664  0.1424
  868MPD2    H512798   3.041   2.444  13.407  0.8845  0.6050 -0.5327
  868MPD2    N112799   3.158   2.356  12.953 -0.6392  0.3625  0.0770
  868MPD2    H712800   3.168   2.368  12.853 -0.8676  0.9587  0.1258
  869MPD2     C12801   4.300   4.397   0.406 -0.0912  0.0745 -0.7153
  869MPD2    C112802   4.226   4.467   0.500  0.4633 -0.1525 -0.4493
  869MPD2    C212803   4.287   4.489   0.620  0.6395 -0.7478  0.0692
  869MPD2    C312804   4.419   4.443   0.655 -0.1200  0.0652  0.3222
  869MPD2    C412805   4.488   4.373   0.556  0.3863  0.2618 -0.0516
  869MPD2    C512806   4.431   4.359   0.431 -0.2811  0.3268 -0.1224
  869MPD2     H12807   4.237   4.545   0.698  0.9679  0.8116 -0.8373
  869MPD2    H112808   4.590   4.338   0.568 -0.0662 -1.4268 -1.1186
  869MPD2    H212809   4.253   4.369   0.313  0.3340  2.6168 -1.7005
  869MPD2    H312810   4.488   4.295   0.365 -0.2234  1.1198 -0.8509
  869MPD2     N12811   4.480   4.489   0.774  0.2444 -0.2148  0.0406
  869MPD2    H512812   4.436   4.570   0.817  0.6334 -0.6365  1.2075
  869MPD2    N112813   4.098   4.523   0.471  0.5567  0.3591 -0.3056
  869MPD2    H712814   4.034   4.541   0.548  0.7062 -1.3380  0.2302
  870MPD2     C12815   4.478   3.226   1.792  0.2173 -0.1147 -0.0477
  870MPD2    C112816   4.550   3.270   1.686  0.8819  0.1762 -0.2286
  870MPD2    C212817   4.490   3.361   1.604 -0.1094 -0.1256 -0.8708
  870MPD2    C312818   4.366   3.411   1.628  0.3660 -1.1782 -0.1135
  870MPD2    C412819   4.292   3.361   1.731  0.9053  0.3296  0.0060
  870MPD2    C512820   4.355   3.275   1.819  0.1527 -0.0934 -0.0584
  870MPD2     H12821   4.540   3.387   1.511 -0.9520  0.6974 -1.0939
  870MPD2    H112822   4.191   3.396   1.753  1.0685  1.4262 -1.0091
  870MPD2    H212823   4.512   3.149   1.860 -1.4949 -0.3222  0.5660
  870MPD2    H312824   4.297   3.238   1.903  1.5700 -0.0179  0.9540
  870MPD2     N12825   4.313   3.508   1.542 -0.1169 -0.3988  0.2559
  870MPD2    H512826   4.379   3.547   1.474 -0.0897  2.1739  1.7562
  870MPD2    N112827   4.680   3.219   1.660  0.1873 -0.3709  0.4836
  870MPD2    H712828   4.710   3.137   1.712 -1.7186 -1.7777 -0.6882
  871MPD2     C12829   1.071   3.143  16.305  1.0868 -0.5524 -0.9792
  871MPD2    C112830   0.993   3.059  16.386 -0.0364 -0.2506  0.6544
  871MPD2    C212831   0.923   2.949  16.335  0.0950  0.5650 -0.6732
  871MPD2    C312832   0.941   2.919  16.201 -0.0089  0.8932  0.3064
  871MPD2    C412833   1.019   2.997  16.120 -0.3055 -0.8274 -0.4012
  871MPD2    C512834   1.082   3.109  16.171 -0.6464 -0.1927  0.0299
  871MPD2     H12835   0.869   2.876  16.393  1.1096  1.6514  1.6558
  871MPD2    H112836   1.036   2.982  16.014  0.3019  1.5325 -0.6364
  871MPD2    H212837   1.122   3.230  16.345 -1.1529  0.1839  0.2988
  871MPD2    H312838   1.140   3.163  16.097 -0.2324 -2.4097 -1.2811
  871MPD2     N12839   0.876   2.807  16.146  0.3039  0.1043 -0.6457
  871MPD2    H512840   0.816   2.755  16.209  0.1727 -1.4012 -2.0178
  871MPD2    N112841   0.971   3.102  16.519 -0.1992  0.4104  0.2667
  871MPD2    H712842   1.006   3.195  16.539  1.5275 -0.1882  0.0682
  872MPD2     C12843   1.858   0.354  14.008 -0.3284 -0.3630  0.1812
  872MPD2    C112844   1.834   0.469  13.936  0.0377  0.1923 -0.8773
  872MPD2    C212845   1.703   0.498  13.908  0.0667  1.0603 -0.2836
  872MPD2    C312846   1.599   0.439  13.985 -0.1023 -0.5611 -0.4812
  872MPD2    C412847   1.632   0.331  14.063 -0.4999 -0.9765  0.0486
  872MPD2    C512848   1.756   0.286  14.064 -0.2613  0.4864 -0.6214
  872MPD2     H12849   1.678   0.581  13.843 -1.6928 -1.1347 -2.4239
  872MPD2    H112850   1.554   0.276  14.116 -2.5605  1.4521 -0.4278
  872MPD2    H212851   1.956   0.312  14.023 -0.4975 -1.1838 -0.9801
  872MPD2    H312852   1.781   0.196  14.119 -1.5820  0.4956 -0.0155
  872MPD2     N12853   1.474   0.498  13.984  0.0399 -0.2920 -0.0277
  872MPD2    H512854   1.409   0.458  14.051  0.6820 -0.0567  0.7320
  872MPD2    N112855   1.943   0.545  13.883  0.1843  0.2996  0.5612
  872MPD2    H712856   1.920   0.630  13.832  0.6385 -0.0507 -0.2383
  873MPD2     C12857   2.776   0.676   0.993 -0.3584  0.0726  0.1646
  873MPD2    C112858   2.879   0.635   1.074  0.4341  0.4572 -0.0061
  873MPD2    C212859   2.938   0.516   1.033 -0.1240 -0.0118  0.3942
  873MPD2    C312860   2.905   0.451   0.922  0.2710  0.1006 -0.1457
  873MPD2    C412861   2.805   0.501   0.838 -0.5127 -0.5613  0.1975
  873MPD2    C512862   2.742   0.620   0.871 -0.2658 -0.3893  0.9709
  873MPD2     H12863   3.015   0.473   1.096 -0.6299 -1.5504 -0.0420
  873MPD2    H112864   2.794   0.467   0.736  2.2606 -0.7768 -0.0214
  873MPD2    H212865   2.717   0.761   1.026  1.7778  1.1438  1.2293
  873MPD2    H312866   2.666   0.670   0.811  0.9307  1.1063  0.7075
  873MPD2     N12867   2.976   0.346   0.869 -1.4367 -0.4475  0.8404
  873MPD2    H512868   2.948   0.319   0.775  1.1149 -1.6658  0.4430
  873MPD2    N112869   2.932   0.726   1.167  0.3653  0.2534  0.1516
  873MPD2    H712870   2.887   0.813   1.194 -1.2140 -1.3604  2.5960
  874MPD2     C12871   2.972   0.075  16.697 -0.6996  0.4402  0.3276
  874MPD2    C112872   3.071   0.067  16.596 -0.9835  0.0487  0.1851
  874MPD2    C212873   3.147   0.182  16.575  0.2041  0.1918 -0.2045
  874MPD2    C312874   3.108   0.302  16.641 -0.0254  0.5589  0.0592
  874MPD2    C412875   3.009   0.302  16.740 -0.2697 -0.6904 -0.8987
  874MPD2    C512876   2.952   0.184  16.769  0.1258 -0.8851  0.6136
  874MPD2     H12877   3.225   0.180  16.500  0.1244 -0.3844 -0.2718
  874MPD2    H112878   2.976   0.391  16.793  2.5630 -1.1463  1.5819
  874MPD2    H212879   2.905   4.729  16.714  1.1756 -1.3116 -0.9213
  874MPD2    H312880   2.880   0.182  16.850 -3.4096  1.4330 -2.4475
  874MPD2     N12881   3.166   0.430  16.608  0.1952  0.3293 -0.2756
  874MPD2    H512882   3.240   0.432  16.538 -0.9449 -0.1770 -1.4925
  874MPD2    N112883   3.104   4.680  16.543  0.8714 -0.6965 -0.5124
  874MPD2    H712884   3.035   4.606  16.555  0.4458 -0.3054 -0.5572
  875MPD2     C12885   4.573   3.535  14.439 -0.2926  0.7671 -0.4505
  875MPD2    C112886   4.443   3.563  14.467 -0.2398 -0.1246 -0.2599
  875MPD2    C212887   4.420   3.609  14.599 -0.5600  0.0386 -0.3777
  875MPD2    C312888   4.518   3.616  14.704  1.0796 -0.1625 -0.2934
  875MPD2    C412889   4.648   3.590  14.667  0.0962  0.2058  0.0329
  875MPD2    C512890   4.671   3.555  14.537  0.1390  0.5974  0.6282
  875MPD2     H12891   4.321   3.639  14.633  0.3762  0.3949  2.0070
  875MPD2    H112892   4.735   3.576  14.729  0.5804  3.3712  0.0600
  875MPD2    H212893   4.596   3.475  14.352 -1.0071  1.8620 -1.4022
  875MPD2    H312894   0.030   3.510  14.516  0.1309  1.0477 -0.3779
  875MPD2     N12895   4.481   3.658  14.835  0.0520 -0.4400 -0.0063
  875MPD2    H512896   4.385   3.674  14.864  0.4800  0.9750  0.6130
  875MPD2    N112897   4.334   3.537  14.382  0.6166  0.1988 -0.4676
  875MPD2    H712898   4.241   3.535  14.422  1.4197  0.2357  1.4365
  876MPD2     C12899   3.221   0.274  16.143 -0.0747 -0.4128 -0.2204
  876MPD2    C112900   3.338   0.226  16.083 -0.6755  0.4116 -0.4769
  876MPD2    C212901   3.369   0.089  16.085 -0.9699  0.1089 -0.3472
  876MPD2    C312902   3.280   4.736  16.135 -0.0799 -0.1789  0.3769
  876MPD2    C412903   3.162   0.044  16.194 -0.4906 -0.0355  0.1981
  876MPD2    C512904   3.139   0.181  16.201  1.1111  0.6833  0.7324
  876MPD2     H12905   3.456   0.059  16.027 -0.6968  1.1244 -0.4748
  876MPD2    H112906   3.090   4.717  16.243  1.0088  0.4077  2.9930
  876MPD2    H212907   3.203   0.380  16.159  1.2023 -0.1799 -0.3097
  876MPD2    H312908   3.050   0.212  16.254 -0.8963 -0.2807 -2.0640
  876MPD2     N12909   3.311   4.594  16.132  0.2787 -0.0180  0.2735
  876MPD2    H512910   3.403   4.575  16.095 -0.4893  1.9966 -2.6688
  876MPD2    N112911   3.421   0.317  16.008 -0.4958  0.5426 -0.3039
  876MPD2    H712912   3.395   0.415  16.003  2.4108  1.4760  2.6395
  877MPD2     C12913   3.283   0.691  15.376  0.0576  0.1932 -0.1471
  877MPD2    C112914   3.420   0.674  15.377 -0.1152 -0.8411  0.7880
  877MPD2    C212915   3.490   0.694  15.257  0.4366  0.7555  0.1872
  877MPD2    C312916   3.422   0.738  15.140  0.2442 -0.6297 -0.3412
  877MPD2    C412917   3.287   0.761  15.155 -0.2410  0.1027  0.8199
  877MPD2    C512918   3.216   0.741  15.267  0.2704 -0.1825 -0.0528
  877MPD2     H12919   3.595   0.668  15.262 -0.0760 -1.2212  0.4984
  877MPD2    H112920   3.232   0.794  15.067 -1.3972 -0.4335  1.3597
  877MPD2    H212921   3.220   0.671  15.462 -0.3138 -0.3284 -0.5409
  877MPD2    H312922   3.108   0.729  15.264  0.4090 -1.8312  1.3416
  877MPD2     N12923   3.479   0.737  15.017 -0.2850 -0.2777  0.5194
  877MPD2    H512924   3.429   0.744  14.929 -0.0327  0.5696  0.4449
  877MPD2    N112925   3.494   0.640  15.489  0.7222 -0.6215 -0.5364
  877MPD2    H712926   3.594   0.654  15.489  0.2309  2.8880 -0.3611
  878MPD2     C12927   2.339   0.066  13.367  1.0070 -0.2581 -0.1317
  878MPD2    C112928   2.457   0.147  13.368 -0.8771  0.7055  0.5119
  878MPD2    C212929   2.543   0.137  13.478  0.2836  0.1056  0.5988
  878MPD2    C312930   2.504   0.061  13.589 -0.0906 -0.6438 -0.1420
  878MPD2    C412931   2.392   4.721  13.587 -0.0827  0.1976  0.0604
  878MPD2    C512932   2.315   4.724  13.478  0.1485 -0.2283 -0.1158
  878MPD2     H12933   2.640   0.186  13.481  0.7863 -0.8247 -0.5181
  878MPD2    H112934   2.359   4.657  13.669  4.0372 -0.4321  1.2482
  878MPD2    H212935   2.278   0.058  13.278  0.6786  1.6031 -0.0581
  878MPD2    H312936   2.228   4.658  13.482 -0.1960  0.3091  0.9852
  878MPD2     N12937   2.587   0.059  13.697  0.4362  0.9500  0.0135
  878MPD2    H512938   2.682   0.085  13.675  0.7173  0.8996  1.1959
  878MPD2    N112939   2.468   0.235  13.261 -0.0185  0.3172 -0.1680
  878MPD2    H712940   2.387   0.232  13.201  0.4142  2.5722 -0.8673
  879MPD2     C12941   3.395   1.467  16.896  0.5552  0.5006  0.1313
  879MPD2    C112942   3.380   1.338  16.934 -0.4776  0.7058 -0.5791
  879MPD2    C212943   3.299   1.252  16.862  0.3275 -0.6270  0.1602
  879MPD2    C312944   3.235   1.292  16.744 -0.4602  0.1433  0.7373
  879MPD2    C412945   3.253   1.421  16.708 -0.3446 -0.2880  0.5770
  879MPD2    C512946   3.339   1.506  16.777 -0.4928 -0.3355  0.7242
  879MPD2     H12947   3.304   1.147  16.886  0.3683 -1.0611 -1.7249
  879MPD2    H112948   3.206   1.464  16.620  2.1409  0.0351 -0.5965
  879MPD2    H212949   3.450   1.534  16.961 -0.9178 -0.6322  2.5924
  879MPD2    H312950   3.348   1.608  16.742  0.6382  0.4263  3.2731
  879MPD2     N12951   3.166   1.209  16.662  0.1578  0.4701  0.0241
  879MPD2    H512952   3.149   1.229  16.564 -0.9479  1.5229  0.4289
  879MPD2    N112953   3.453   1.301  17.053  0.1245 -0.1958 -0.1728
  879MPD2    H712954   3.528   1.359  17.088  2.2119 -0.9796 -3.3202
  880MPD2     C12955   4.422   2.897   0.203  0.0251 -0.3769 -0.2948
  880MPD2    C112956   4.517   2.936   0.294 -0.0404  0.4576  0.2116
  880MPD2    C212957   4.599   2.843   0.355 -0.0492 -0.4388 -0.3116
  880MPD2    C312958   4.585   2.706   0.323 -0.1374 -0.5862  0.0682
  880MPD2    C412959   4.474   2.672   0.245  0.1212  1.0442  0.0741
  880MPD2    C512960   4.390   2.762   0.193 -0.1726  0.0790 -0.1562
  880MPD2     H12961   4.684   2.866   0.418 -0.1205  0.9179 -0.7210
  880MPD2    H112962   4.459   2.568   0.218 -1.3506  2.0328 -2.9541
  880MPD2    H212963   4.343   2.959   0.164 -0.8460 -0.8723  0.6834
  880MPD2    H312964   4.307   2.722   0.137 -1.0233  2.5714 -0.6478
  880MPD2     N12965   4.671   2.613   0.386  0.3975  0.1498  0.4733
  880MPD2    H512966   0.014   2.648   0.437  0.6408 -2.8310  2.1659
  880MPD2    N112967   4.525   3.078   0.322 -0.5953  0.3521 -0.1877
  880MPD2    H712968   4.466   3.142   0.271  0.0643 -0.0133 -1.3995
  881MPD2     C12969   4.513   3.806  17.482 -0.3413  0.3591  0.7854
  881MPD2    C112970   4.636   3.747  17.515 -0.3145  0.0932 -0.0523
  881MPD2    C212971   4.636   3.678  17.635  0.3884  0.2407  0.2457
  881MPD2    C312972   4.538   3.686  17.735 -0.3603  0.8531  0.6714
  881MPD2    C412973   4.426   3.761  17.702  0.3859  0.5443  0.0661
  881MPD2    C512974   4.417   3.819  17.576  0.0955  0.4406 -0.7944
  881MPD2     H12975   4.723   3.619  17.663 -0.9607 -2.0280 -0.3991
  881MPD2    H112976   4.338   3.752   0.017  1.7957  0.6843  2.0304
  881MPD2    H212977   4.504   3.863  17.390 -1.4401  0.8942  1.2262
  881MPD2    H312978   4.326   3.867  17.542  0.7817  1.4779 -1.1884
  881MPD2     N12979   4.543   3.612   0.112  0.4384 -0.1357 -0.1172
  881MPD2    H512980   4.477   3.641   0.183  2.0490  1.3111  0.7850
  881MPD2    N112981   4.727   3.714  17.407  0.0898 -0.1250  0.0939
  881MPD2    H712982   4.716   3.782  17.333  0.6646 -0.3158 -0.1599
  882MPD2     C12983   3.446   0.397  14.381 -0.2932  0.3148 -0.0190
  882MPD2    C112984   3.388   0.494  14.453  0.2637  0.1189  0.7076
  882MPD2    C212985   3.253   0.487  14.490 -0.4381  0.5889 -0.9173
  882MPD2    C312986   3.182   0.382  14.453  0.6430 -0.9133 -0.3193
  882MPD2    C412987   3.238   0.281  14.377  0.6704 -0.1867  0.0768
  882MPD2    C512988   3.367   0.293  14.334  0.3713 -0.1885 -0.2225
  882MPD2     H12989   3.211   0.556  14.561  0.0225  0.4722 -0.5343
  882MPD2    H112990   3.175   0.198  14.347  0.3648  0.0817 -0.0268
  882MPD2    H212991   3.546   0.404  14.339 -1.1315  1.2147 -1.8697
  882MPD2    H312992   3.413   0.225  14.264  2.4865  0.2269  0.7826
  882MPD2     N12993   3.044   0.363  14.494  0.2461 -0.2231 -0.2751
  882MPD2    H512994   2.998   0.275  14.472 -1.3982  0.4060  0.7145
  882MPD2    N112995   3.474   0.602  14.496 -0.4658 -0.2382 -0.7697
  882MPD2    H712996   3.572   0.595  14.469 -0.4545 -0.5290 -0.6526
  883MPD2     C12997   0.487   0.277  16.255  0.1874  0.0406 -0.6246
  883MPD2    C112998   0.578   0.373  16.263 -0.1518 -0.8811  0.2910
  883MPD2    C212999   0.657   0.382  16.377 -0.7230  0.3047 -1.0115
  883MPD2    C313000   0.624   0.314  16.494  0.2743 -0.0567  0.3063
  883MPD2    C413001   0.517   0.233  16.479 -0.4392  0.4965  0.3169
  883MPD2    C513002   0.453   0.209  16.364  0.4823  0.6016 -0.3964
  883MPD2     H13003   0.739   0.452  16.380 -2.2361  2.0816 -1.2193
  883MPD2    H113004   0.484   0.175  16.564  1.7271 -1.0888  0.0692
  883MPD2    H213005   0.444   0.236  16.164 -0.9617  0.8913 -0.4553
  883MPD2    H313006   0.370   0.139  16.361  0.2541  0.9066 -1.1984
  883MPD2     N13007   0.677   0.352  16.616 -0.5081 -0.7422 -0.0568
  883MPD2    H513008   0.746   0.427  16.621  0.1884 -1.3597 -0.3716
  883MPD2    N113009   0.608   0.469  16.161  0.3324  0.8530 -0.5079
  883MPD2    H713010   0.686   0.531  16.183  1.1875 -0.6811  0.8499
  884MPD2     C13011   2.530   1.248  15.087  0.5205 -0.2678  0.1909
  884MPD2    C113012   2.448   1.304  14.990 -0.5377 -0.5537  0.1304
  884MPD2    C213013   2.318   1.330  15.025 -0.0341 -0.2100  0.3495
  884MPD2    C313014   2.271   1.301  15.154  0.6134 -0.0316 -0.0796
  884MPD2    C413015   2.354   1.239  15.247  0.0422 -0.1274 -0.5907
  884MPD2    C513016   2.481   1.212  15.213 -0.1938 -0.4266 -0.5460
  884MPD2     H13017   2.250   1.369  14.950  0.2919 -1.0103 -0.3567
  884MPD2    H113018   2.323   1.214  15.347  2.8116  0.8767  0.4977
  884MPD2    H213019   2.636   1.237  15.071  0.4014 -1.0580 -0.0831
  884MPD2    H313020   2.541   1.158  15.285  0.3022 -0.6200 -1.1007
  884MPD2     N13021   2.139   1.333  15.194  0.2494  0.3788  0.1254
  884MPD2    H513022   2.083   1.376  15.121  2.0737  2.2930 -0.1583
  884MPD2    N113023   2.493   1.354  14.868 -0.6427  0.6443 -0.9672
  884MPD2    H713024   2.427   1.406  14.812 -1.5391  1.1542  0.5630
  885MPD2     C13025   0.485   1.463   0.196 -0.3577 -0.2887 -0.3455
  885MPD2    C113026   0.583   1.556   0.176 -0.2378  0.6094 -0.0995
  885MPD2    C213027   0.599   1.618   0.053 -0.1618  0.3504  1.0279
  885MPD2    C313028   0.503   1.591  17.706  0.4494  0.3946  0.1232
  885MPD2    C413029   0.398   1.509  17.730 -0.1089  0.6442 -0.7922
  885MPD2    C513030   0.393   1.442   0.099 -0.6432 -0.3366 -0.4683
  885MPD2     H13031   0.684   1.682   0.035  0.8853 -1.1913  0.4238
  885MPD2    H113032   0.319   1.501  17.656 -1.7989  2.4225  0.8325
  885MPD2    H213033   0.486   1.401   0.285 -0.9161  0.6882  0.3362
  885MPD2    H313034   0.305   1.383   0.123 -1.6777  0.7350 -1.7037
  885MPD2     N13035   0.530   1.651  17.572  0.4368  0.7247  0.4341
  885MPD2    H513036   0.611   1.712  17.568  0.3625  0.8845  1.5230
  885MPD2    N113037   0.666   1.594   0.280  0.5887  0.5068  0.6112
  885MPD2    H713038   0.687   1.532   0.358 -0.6009 -0.0152  0.5038
  886MPD2     C13039   2.056   0.420  15.891 -0.2197 -0.6654  0.4033
  886MPD2    C113040   2.148   0.340  15.828  0.2617 -0.5079 -0.0496
  886MPD2    C213041   2.169   0.362  15.686  0.7561  0.0155  0.0160
  886MPD2    C313042   2.111   0.465  15.619  0.4484 -0.0374 -0.1693
  886MPD2    C413043   2.043   0.557  15.691 -0.3195  0.5156  0.9931
  886MPD2    C513044   2.014   0.531  15.823  0.6453 -0.9251  0.1877
  886MPD2     H13045   2.218   0.286  15.627  0.6609 -0.2812  0.3169
  886MPD2    H113046   1.999   0.646  15.645  0.3136 -0.1174 -0.8481
  886MPD2    H213047   2.029   0.416  15.996 -3.2507  0.9886 -0.3150
  886MPD2    H313048   1.962   0.602  15.887  0.6193  0.4690 -1.3711
  886MPD2     N13049   2.122   0.462  15.479 -0.1833  0.2482  0.1261
  886MPD2    H513050   2.167   0.378  15.446 -0.3945 -0.6847  2.2170
  886MPD2    N113051   2.214   0.233  15.892  0.5422 -0.2248 -0.0523
  886MPD2    H713052   2.196   0.222  15.991 -1.0607 -4.0030 -0.7893
  887MPD2     C13053   2.767   0.270  16.355  0.0963  0.0803  0.2125
  887MPD2    C113054   2.725   0.271  16.227 -0.6481  0.1713 -0.0832
  887MPD2    C213055   2.789   0.354  16.138 -0.5996  0.0423  0.0544
  887MPD2    C313056   2.883   0.445  16.184 -0.7893  0.2353  0.7564
  887MPD2    C413057   2.910   0.460  16.313 -0.5719  0.2644  0.0857
  887MPD2    C513058   2.855   0.367  16.398 -0.2981 -1.0295  0.2166
  887MPD2     H13059   2.753   0.363  16.036 -1.5384 -1.5868  0.2486
  887MPD2    H113060   2.978   0.534  16.353 -0.3670  0.3621 -0.4376
  887MPD2    H213061   2.723   0.201  16.425 -1.2956  1.0056  0.2457
  887MPD2    H313062   2.883   0.364  16.503  1.3912 -0.1617 -0.2164
  887MPD2     N13063   2.928   0.538  16.095  0.1011 -0.6692  0.1140
  887MPD2    H513064   2.888   0.525  16.002 -0.0009 -0.7714  0.1728
  887MPD2    N113065   2.620   0.187  16.175 -0.2623 -0.2375  0.2475
  887MPD2    H713066   2.595   0.192  16.077  1.0405 -0.3497 -0.0850
  888MPD2     C13067   4.303   0.092  14.783 -0.2997  0.2331  0.7192
  888MPD2    C113068   4.311   0.120  14.919 -0.6955 -1.3745 -0.6600
  888MPD2    C213069   4.397   0.217  14.965  0.4158  0.0215  0.2256
  888MPD2    C313070   4.468   0.299  14.878  0.3479 -0.3784  0.2450
  888MPD2    C413071   4.442   0.286  14.743 -0.4361  0.2954 -0.0718
  888MPD2    C513072   4.361   0.186  14.696  0.5024  0.3038 -0.4075
  888MPD2     H13073   4.412   0.244  15.069 -0.7796 -1.6373  0.8289
  888MPD2    H113074   4.480   0.346  14.661  0.5924  0.9242  0.8738
  888MPD2    H213075   4.235   0.031  14.726 -0.3861 -0.8679  2.0091
  888MPD2    H313076   4.353   0.170  14.589 -1.3499 -1.6768  0.0205
  888MPD2     N13077   4.545   0.404  14.929  0.3387  0.0953 -0.2918
  888MPD2    H513078   4.548   0.413  15.030  1.2306  1.0892 -0.4070
  888MPD2    N113079   4.225   0.055  15.011  0.5291 -0.2196 -0.2179
  888MPD2    H713080   4.231   0.076  15.110  0.2027  0.0507 -0.2566
  889MPD2     C13081   3.724   4.306  13.272 -0.0205 -0.2757  0.8832
  889MPD2    C113082   3.787   4.314  13.396 -0.0651 -0.6926 -0.7547
  889MPD2    C213083   3.758   4.427  13.479 -0.4657 -0.0261 -0.4304
  889MPD2    C313084   3.686   4.533  13.422  0.2375 -0.3236 -0.0231
  889MPD2    C413085   3.642   4.524  13.291 -0.5019  0.3493  0.7131
  889MPD2    C513086   3.653   4.406  13.218  0.5808 -0.2784 -0.8106
  889MPD2     H13087   3.794   4.431  13.581 -2.5530 -0.7497  0.3292
  889MPD2    H113088   3.606   4.616  13.245 -1.4832 -0.4936 -0.1821
  889MPD2    H213089   3.750   4.227  13.203  1.4563  0.8455  0.1295
  889MPD2    H313090   3.611   4.399  13.119 -1.1236  2.6814 -0.2875
  889MPD2     N13091   3.654   4.652  13.494 -0.2079  0.0381  0.2589
  889MPD2    H513092   3.590   4.722  13.457  1.3630 -0.3065 -3.1025
  889MPD2    N113093   3.830   4.185  13.442 -0.0175  0.0618 -0.2968
  889MPD2    H713094   3.800   4.102  13.393  0.5462 -1.9966  2.8816
  890MPD2     C13095   3.183   1.226  14.520 -0.1564 -0.3821 -0.1626
  890MPD2    C113096   3.292   1.306  14.518 -0.3847  0.2928  0.0831
  890MPD2    C213097   3.387   1.296  14.617 -0.6748 -0.2989 -0.1463
  890MPD2    C313098   3.368   1.207  14.718  0.0645 -0.6153 -0.1004
  890MPD2    C413099   3.260   1.124  14.722 -0.3546  0.0217  0.0637
  890MPD2    C513100   3.163   1.145  14.625 -0.8637  0.8292  0.3277
  890MPD2     H13101   3.482   1.347  14.621 -0.9588  0.2998 -1.1407
  890MPD2    H113102   3.239   1.047  14.796 -0.5554 -1.0538 -1.1113
  890MPD2    H213103   3.113   1.231  14.438 -0.9528 -0.7226  0.4975
  890MPD2    H313104   3.067   1.093  14.619  0.2640 -1.1364 -0.6559
  890MPD2     N13105   3.478   1.199  14.807 -0.3457  0.4855  0.2563
  890MPD2    H513106   3.563   1.252  14.791 -0.5544  0.2020 -1.8445
  890MPD2    N113107   3.290   1.413  14.418 -0.2676  0.4997  0.7772
  890MPD2    H713108   3.216   1.421  14.349  1.5978  2.0612 -1.0179
  891MPD2     C13109   1.236   4.172  16.725  0.1182 -0.6057  0.3132
  891MPD2    C113110   1.240   4.298  16.786 -0.0736  0.4063  0.0352
  891MPD2    C213111   1.345   4.322  16.873 -0.0968 -0.8645 -0.0046
  891MPD2    C313112   1.436   4.229  16.913  0.0833 -0.3583  0.1634
  891MPD2    C413113   1.437   4.114  16.843 -0.1653  0.4399  0.1327
  891MPD2    C513114   1.341   4.086  16.753 -0.4717  0.3847 -0.5929
  891MPD2     H13115   1.353   4.413  16.932 -0.2411 -0.2272 -0.9649
  891MPD2    H113116   1.518   4.042  16.852 -0.0194  0.4982 -0.7027
  891MPD2    H213117   1.160   4.148  16.652 -0.0736  1.9698 -0.3278
  891MPD2    H313118   1.352   3.993  16.698  0.7980 -0.3454  0.9242
  891MPD2     N13119   1.531   4.263  17.012  0.1944  0.3496  0.5972
  891MPD2    H513120   1.520   4.352  17.060 -0.7669  0.1021  0.8274
  891MPD2    N113121   1.138   4.388  16.749 -0.4572  0.0492  0.7334
  891MPD2    H713122   1.065   4.359  16.684  0.1534  0.3716 -0.0976
  892MPD2     C13123   2.490   1.160  14.597  0.8324  0.4107  0.0134
  892MPD2    C113124   2.408   1.061  14.646  0.6019 -0.9386 -0.0068
  892MPD2    C213125   2.442   0.932  14.662 -0.4544 -0.0399 -0.1065
  892MPD2    C313126   2.558   0.884  14.599 -0.5586 -0.2387 -0.1083
  892MPD2    C413127   2.637   0.982  14.539  0.0578  0.2188 -0.1470
  892MPD2    C513128   2.608   1.116  14.554  0.2334 -0.2912 -0.3447
  892MPD2     H13129   2.376   0.862  14.713 -2.7060  1.7007 -0.6395
  892MPD2    H113130   2.728   0.952  14.489  0.5571  1.5955 -0.0603
  892MPD2    H213131   2.455   1.260  14.575  1.7116  0.8653  0.7290
  892MPD2    H313132   2.676   1.180  14.499 -0.4588 -1.0228 -2.0295
  892MPD2     N13133   2.601   0.752  14.602  0.2674 -0.0881 -0.4340
  892MPD2    H513134   2.682   0.741  14.542  0.9206  0.1604  0.3908
  892MPD2    N113135   2.275   1.088  14.679  0.5480  0.4188  0.1788
  892MPD2    H713136   2.223   1.007  14.710 -0.7900  0.2496 -2.4539
  893MPD2     C13137   3.655   4.414   1.940  0.1398  0.2430 -0.5298
  893MPD2    C113138   3.580   4.374   1.835 -0.5285  0.3390  1.1620
  893MPD2    C213139   3.438   4.363   1.845 -0.0089  0.0820 -0.3895
  893MPD2    C313140   3.381   4.383   1.977  0.0564 -0.1375 -0.2677
  893MPD2    C413141   3.464   4.411   2.080  0.6937  0.1168  0.0032
  893MPD2    C513142   3.601   4.425   2.065  0.6006  0.0550  0.5648
  893MPD2     H13143   3.376   4.342   1.759  0.7376  0.9529 -1.1429
  893MPD2    H113144   3.409   4.423   2.173  1.0626  2.2051 -0.0647
  893MPD2    H213145   3.760   4.418   1.915  0.9178  0.5788  2.9111
  893MPD2    H313146   3.665   4.455   2.148 -1.4674  0.0459  2.1861
  893MPD2     N13147   3.244   4.358   2.009 -0.1459 -0.1037 -0.1649
  893MPD2    H513148   3.209   4.383   2.101  0.0824 -2.5201  0.5737
  893MPD2    N113149   3.652   4.339   1.715 -0.2559  1.2113  0.0094
  893MPD2    H713150   3.752   4.349   1.725  0.0268  0.1517 -1.8469
  894MPD2     C13151   1.728   1.203   1.130 -0.3153  0.3293  0.8086
  894MPD2    C113152   1.629   1.273   1.057  0.0314 -0.0386  0.2924
  894MPD2    C213153   1.641   1.410   1.036  0.1807 -0.6415  0.0218
  894MPD2    C313154   1.757   1.471   1.074  0.4052  0.0911 -0.2590
  894MPD2    C413155   1.855   1.398   1.136  0.0841  0.5307 -0.7406
  894MPD2    C513156   1.844   1.269   1.147  0.3274  0.3792 -0.0606
  894MPD2     H13157   1.560   1.467   0.993 -0.2341 -0.3997  1.1226
  894MPD2    H113158   1.952   1.438   1.166  1.7067 -2.5841 -1.8343
  894MPD2    H213159   1.714   1.100   1.160  0.7578  0.2626  1.0835
  894MPD2    H313160   1.929   1.222   1.196 -0.3911 -0.7567  0.1084
  894MPD2     N13161   1.772   1.613   1.061 -0.7344  0.2050 -0.1103
  894MPD2    H513162   1.696   1.666   1.020  0.8424  2.1208 -0.5292
  894MPD2    N113163   1.501   1.228   1.024 -0.4108 -0.4730  0.1732
  894MPD2    H713164   1.448   1.296   0.970 -1.8695 -0.1742  1.9638
  895MPD2     C13165   1.709   0.117  13.772 -0.0503 -0.3752 -0.1664
  895MPD2    C113166   1.587   0.075  13.727  0.5726 -0.4348 -0.3080
  895MPD2    C213167   1.541   4.691  13.762 -0.5752 -0.1942  0.3328
  895MPD2    C313168   1.609   4.607  13.845 -0.0825  0.2032 -0.0550
  895MPD2    C413169   1.743   4.639  13.879 -0.0993  0.4118 -1.1162
  895MPD2    C513170   1.784   0.031  13.846 -0.4043  0.1001 -0.1907
  895MPD2     H13171   1.436   4.670  13.745 -0.7696  2.0577 -1.3485
  895MPD2    H113172   1.810   4.581  13.942  1.5601  2.1438 -1.2597
  895MPD2    H213173   1.751   0.213  13.743 -0.1908 -0.3359 -0.2419
  895MPD2    H313174   1.876   0.071  13.887  1.2622 -2.3767 -1.4456
  895MPD2     N13175   1.556   4.478  13.880  0.3666  0.8563  0.3377
  895MPD2    H513176   1.460   4.462  13.851 -0.0476  0.6945  1.7748
  895MPD2    N113177   1.503   0.167  13.659 -0.0724  0.5281  0.1983
  895MPD2    H713178   1.408   0.140  13.633 -0.6542  2.3314  0.4487
  896MPD2     C13179   3.992   2.415   1.700  0.0771  0.7783  0.1891
  896MPD2    C113180   3.963   2.342   1.588 -0.4893 -0.5624  0.4179
  896MPD2    C213181   3.838   2.282   1.576  0.0867  0.8394  0.2747
  896MPD2    C313182   3.730   2.315   1.660 -0.5604  0.5289  0.1611
  896MPD2    C413183   3.762   2.395   1.767  0.3933 -0.0211 -0.2614
  896MPD2    C513184   3.891   2.432   1.794 -0.3525  0.5875  0.2047
  896MPD2     H13185   3.826   2.216   1.491 -0.4927 -1.0481  1.8111
  896MPD2    H113186   3.683   2.432   1.830  0.0957  1.5077 -1.5355
  896MPD2    H213187   4.085   2.466   1.717  0.2900  1.3211 -2.7683
  896MPD2    H313188   3.913   2.493   1.881 -1.0394 -1.2510  1.6794
  896MPD2     N13189   3.598   2.287   1.616 -0.1380  0.5735  0.0542
  896MPD2    H513190   3.580   2.222   1.540 -0.3581  1.0140 -0.2774
  896MPD2    N113191   4.064   2.342   1.492  0.4521  0.4000 -0.3530
  896MPD2    H713192   4.151   2.381   1.527 -0.4595  2.2574 -0.1578
  897MPD2     C13193   0.105   4.652  10.740  0.5217 -0.7845 -0.3269
  897MPD2    C113194   0.026   0.021  10.767 -0.2615 -0.0164 -0.5467
  897MPD2    C213195   4.645   4.729  10.831 -0.7787 -0.1289 -1.1176
  897MPD2    C313196   4.625   4.612  10.908  0.5160 -0.0922  0.2495
  897MPD2    C413197   4.713   4.513  10.887  0.3322  0.2444  0.4378
  897MPD2    C513198   0.087   4.529  10.808  0.4699 -0.0415  0.4717
  897MPD2     H13199   4.579   0.076  10.845 -1.3284 -0.8106  0.3345
  897MPD2    H113200   4.703   4.421  10.944  2.0341  0.3783  0.9376
  897MPD2    H213201   0.198   4.664  10.687 -0.3551  0.5827 -1.5460
  897MPD2    H313202   0.158   4.450  10.793  1.2445  0.8195 -0.3712
  897MPD2     N13203   4.511   4.603  10.984 -0.1117  0.0159 -0.3690
  897MPD2    H513204   4.439   4.672  10.963 -2.0996 -1.3400  1.9612
  897MPD2    N113205   0.064   0.144  10.714  0.2231 -0.4372 -0.7035
  897MPD2    H713206   0.137   0.144  10.644 -0.1887 -0.9517 -1.1262
  898MPD2     C13207   1.170   0.438  17.530 -0.0857  0.7152 -0.3478
  898MPD2    C113208   1.297   0.463  17.484 -0.2372 -0.0213  0.4901
  898MPD2    C213209   1.318   0.586  17.421  0.2694 -0.2297  0.0184
  898MPD2    C313210   1.214   0.671  17.407 -0.1097  0.4295 -0.2028
  898MPD2    C413211   1.086   0.632  17.438  0.4066  0.6914  0.5413
  898MPD2    C513212   1.062   0.511  17.496  0.8480  0.0113  0.1595
  898MPD2     H13213   1.414   0.613  17.379  0.8026 -0.5157  1.0700
  898MPD2    H113214   0.996   0.686  17.412 -0.9884 -2.4910 -1.2585
  898MPD2    H213215   1.149   0.343  17.578 -1.7342  0.4563 -1.5897
  898MPD2    H313216   0.957   0.492  17.515  0.9797  1.0392  1.9018
  898MPD2     N13217   1.236   0.801  17.347 -0.5889 -0.3768  0.7135
  898MPD2    H513218   1.336   0.818  17.343 -0.3898 -2.1053 -1.4749
  898MPD2    N113219   1.405   0.375  17.498  0.6977  0.3437  0.1872
  898MPD2    H713220   1.496   0.395  17.457  0.0626  1.8650 -0.4781
  899MPD2     C13221   2.723   0.727  17.212  0.2414 -0.2107 -0.7871
  899MPD2    C113222   2.756   0.828  17.303  0.0536 -0.4313 -0.4569
  899MPD2    C213223   2.711   0.820  17.434 -0.8747 -0.5247  0.2796
  899MPD2    C313224   2.628   0.715  17.472 -0.2121 -0.2261  0.3164
  899MPD2    C413225   2.602   0.618  17.377 -0.2132 -0.8556 -0.1149
  899MPD2    C513226   2.646   0.623  17.251  0.4340  0.1615 -0.2385
  899MPD2     H13227   2.723   0.902  17.505  1.2205 -0.5193 -0.0763
  899MPD2    H113228   2.512   0.561  17.398  0.0598 -2.3346 -3.0267
  899MPD2    H213229   2.757   0.724  17.109  0.2800 -0.8402 -0.7564
  899MPD2    H313230   2.599   0.553  17.183 -0.4776  0.5044  0.0362
  899MPD2     N13231   2.572   0.705  17.596 -0.3649 -0.3637  0.0460
  899MPD2    H513232   2.502   0.633  17.614  3.0107 -3.3882  1.1337
  899MPD2    N113233   2.837   0.928  17.249 -0.4154 -0.0844 -0.1627
  899MPD2    H713234   2.869   0.928  17.153 -0.6941  0.3093 -0.2573
  900MPD2     C13235   2.250   3.058  12.883 -0.3957  0.1862  0.2709
  900MPD2    C113236   2.229   2.991  12.763 -0.2472  0.3601 -0.4020
  900MPD2    C213237   2.115   3.016  12.682  0.1469  0.7530  0.3820
  900MPD2    C313238   2.026   3.121  12.719 -0.0008  0.3293 -0.6289
  900MPD2    C413239   2.050   3.183  12.836 -0.1447 -0.0338  0.5191
  900MPD2    C513240   2.157   3.154  12.916 -0.8773 -0.3416  0.3310
  900MPD2     H13241   2.107   2.975  12.582 -1.2840  1.9639 -0.0058
  900MPD2    H113242   1.990   3.266  12.873 -0.4790  0.1601 -0.4374
  900MPD2    H213243   2.339   3.042  12.941  0.2233  2.9789  0.0729
  900MPD2    H313244   2.169   3.214  13.005  0.9395 -0.1450 -0.0554
  900MPD2     N13245   1.921   3.162  12.634  0.3884  0.3173  0.4100
  900MPD2    H513246   1.925   3.108  12.548 -0.2201 -0.8421  1.1025
  900MPD2    N113247   2.324   2.894  12.718  0.1591  0.3025 -0.4136
  900MPD2    H713248   2.396   2.885  12.789 -1.3044  1.1609  1.1608
  901MPD2     C13249   2.594   1.987  12.965 -0.5096 -0.1998  0.1190
  901MPD2    C113250   2.536   1.955  12.846 -0.1826 -0.8912 -0.2392
  901MPD2    C213251   2.496   2.060  12.768  0.6215  0.6833 -0.6254
  901MPD2    C313252   2.520   2.190  12.806  0.3726  0.7947  0.5157
  901MPD2    C413253   2.588   2.223  12.920  0.1778 -0.3455 -0.3666
  901MPD2    C513254   2.624   2.115  12.998  0.0848  0.2518  0.4917
  901MPD2     H13255   2.454   2.051  12.668 -0.7928  4.3167 -0.3478
  901MPD2    H113256   2.631   2.322  12.937 -3.4174  0.8460  1.6606
  901MPD2    H213257   2.632   1.910  13.031  1.5151 -1.5406 -2.6459
  901MPD2    H313258   2.694   2.129  13.080  0.1676  0.6379  0.3569
  901MPD2     N13259   2.471   2.294  12.725 -0.2483  0.9818  0.2572
  901MPD2    H513260   2.431   2.269  12.636 -0.8056 -1.5654  1.2393
  901MPD2    N113261   2.522   1.818  12.812 -0.5080 -0.2715 -0.1865
  901MPD2    H713262   2.552   1.757  12.887 -1.6637  1.0221  1.3268
  902MPD2     C13263   1.583   0.926  13.249 -0.2768 -0.2277  0.6818
  902MPD2    C113264   1.496   0.952  13.145 -0.3930 -0.5137 -0.0405
  902MPD2    C213265   1.483   0.861  13.034  0.2533  0.5784  0.2164
  902MPD2    C313266   1.543   0.738  13.043  0.0827  0.2931 -0.2056
  902MPD2    C413267   1.628   0.710  13.152  0.9004  0.6001  0.4028
  902MPD2    C513268   1.641   0.805  13.259  0.7848  0.2459  0.6254
  902MPD2     H13269   1.428   0.883  12.944 -0.8735 -2.2779  0.2264
  902MPD2    H113270   1.671   0.611  13.162 -0.7512  0.0000  1.5972
  902MPD2    H213271   1.580   0.992  13.335 -0.1000 -0.1575  0.6334
  902MPD2    H313272   1.700   0.774  13.344  0.6078  0.0613  0.6813
  902MPD2     N13273   1.531   0.637  12.946 -0.0664 -0.0040  0.7912
  902MPD2    H513274   1.590   0.558  12.970 -0.3162 -0.5931 -0.5560
  902MPD2    N113275   1.440   1.079  13.146 -0.3593 -0.3779 -0.2105
  902MPD2    H713276   1.480   1.141  13.216 -0.2244  0.3456 -0.9224
  903MPD2     C13277   1.314   0.228  12.122  0.2525  0.1454  0.3465
  903MPD2    C113278   1.248   0.264  12.237  0.3567  0.2957 -0.1000
  903MPD2    C213279   1.111   0.233  12.247  0.1345  0.6356  0.9691
  903MPD2    C313280   1.041   0.187  12.140 -0.1843 -0.4163 -0.6457
  903MPD2    C413281   1.104   0.163  12.018  0.7095  0.0268  0.0729
  903MPD2    C513282   1.240   0.176  12.019 -0.2748 -0.1368  0.9199
  903MPD2     H13283   1.066   0.240  12.346 -0.8466 -0.2024  0.5811
  903MPD2    H113284   1.058   0.115  11.932 -1.2478 -0.7284  1.5532
  903MPD2    H213285   1.421   0.247  12.112  0.1455 -0.5510 -2.1309
  903MPD2    H313286   1.291   0.154  11.925 -3.4972  2.9679 -1.5547
  903MPD2     N13287   0.904   0.166  12.165  0.1745 -0.2295  0.3258
  903MPD2    H513288   0.867   0.184  12.258 -1.8820  2.2386 -0.9701
  903MPD2    N113289   1.334   0.305  12.346  0.1311 -0.2803  0.5709
  903MPD2    H713290   1.434   0.312  12.331  0.0493 -1.6315 -0.5745
  904MPD2     C13291   1.179   4.043  14.665  0.2899 -0.1035 -0.2110
  904MPD2    C113292   1.205   4.170  14.612 -0.6820 -0.4193 -0.1730
  904MPD2    C213293   1.338   4.199  14.577  0.7163  0.4744  1.0451
  904MPD2    C313294   1.442   4.099  14.583  0.1072  0.5882  0.1882
  904MPD2    C413295   1.411   3.978  14.650  0.2385  0.8689 -0.4088
  904MPD2    C513296   1.281   3.957  14.697 -0.7284 -0.0793 -0.4170
  904MPD2     H13297   1.369   4.299  14.552  2.5206 -0.5397 -0.7681
  904MPD2    H113298   1.484   3.900  14.667  0.5380  1.7903  2.5481
  904MPD2    H213299   1.076   4.014  14.684  0.2871 -0.3512 -0.5993
  904MPD2    H313300   1.256   3.861  14.740 -0.1405  0.5900  1.4156
  904MPD2     N13301   1.571   4.137  14.547  0.0022  0.1084  0.3551
  904MPD2    H513302   1.569   4.224  14.494  0.6128  0.3581  0.7415
  904MPD2    N113303   1.105   4.272  14.594  0.5309 -0.2876 -0.6415
  904MPD2    H713304   1.138   4.360  14.557  0.9821 -0.5724 -0.9114
  905MPD2     C13305   0.831   4.475  13.855  0.4436  0.8481 -0.0382
  905MPD2    C113306   0.870   4.389  13.962 -0.0993 -0.5403 -0.0695
  905MPD2    C213307   0.980   4.299  13.954  0.0725  0.4760  0.4730
  905MPD2    C313308   1.049   4.289  13.836 -0.0199  0.5942 -0.0812
  905MPD2    C413309   1.007   4.377  13.736 -0.8190  0.1243 -0.1021
  905MPD2    C513310   0.898   4.460  13.742 -0.1841  0.1775  0.1567
  905MPD2     H13311   1.009   4.237  14.039  0.4402 -1.6402 -1.1908
  905MPD2    H113312   1.055   4.369  13.640  0.0255  2.5503  0.1152
  905MPD2    H213313   0.758   4.552  13.875 -1.8249 -1.3277  0.0831
  905MPD2    H313314   0.871   4.519  13.655  0.9603  0.5986  0.0854
  905MPD2     N13315   1.160   4.209  13.815  0.4416 -0.4684  0.5259
  905MPD2    H513316   1.219   4.213  13.733  0.3809 -1.9107  0.4111
  905MPD2    N113317   0.815   4.411  14.090  0.1296  0.0214 -0.1753
  905MPD2    H713318   0.753   4.490  14.107  1.5632  1.2017 -0.3925
  906MPD2     C13319   3.476   0.620  11.040 -0.7826  0.2589  0.5041
  906MPD2    C113320   3.404   0.513  11.002  0.1824  0.2942  0.1728
  906MPD2    C213321   3.301   0.465  11.083  0.1745  1.0327 -0.3215
  906MPD2    C313322   3.306   0.490  11.217  0.7133  0.4674 -0.2849
  906MPD2    C413323   3.395   0.585  11.260 -0.6302 -0.9150  0.7694
  906MPD2    C513324   3.460   0.664  11.167  0.4443  0.2125  0.1163
  906MPD2     H13325   3.243   0.383  11.041  1.0952 -1.1472  2.6672
  906MPD2    H113326   3.412   0.606  11.366  4.2808  0.1481 -0.2049
  906MPD2    H213327   3.552   0.668  10.981 -1.8280  1.1634 -0.1066
  906MPD2    H313328   3.529   0.742  11.196  1.4722 -0.5678 -0.2469
  906MPD2     N13329   3.247   0.393  11.309 -0.4040 -0.4672  0.0625
  906MPD2    H513330   3.197   0.322  11.257  0.5841 -1.1491  0.0563
  906MPD2    N113331   3.425   0.458  10.876 -0.0136  0.0828 -0.4340
  906MPD2    H713332   3.358   0.384  10.855 -0.3202  0.4207 -0.6447
  907MPD2     C13333   2.451   3.455  16.383 -0.9523  0.1136 -0.3964
  907MPD2    C113334   2.500   3.357  16.295 -0.1700  0.7727  0.4916
  907MPD2    C213335   2.605   3.274  16.337 -0.5950 -0.0248 -0.1663
  907MPD2    C313336   2.659   3.287  16.465  0.5302  0.2371  0.5155
  907MPD2    C413337   2.613   3.389  16.548  0.1371 -0.3029  0.6743
  907MPD2    C513338   2.508   3.472  16.507  0.6151 -0.2407 -0.2810
  907MPD2     H13339   2.636   3.189  16.277 -1.8337  2.1039 -3.8539
  907MPD2    H113340   2.660   3.411  16.643  0.0471  2.1121  0.1592
  907MPD2    H213341   2.359   3.509  16.365 -0.3000  0.5681 -2.4269
  907MPD2    H313342   2.465   3.543  16.578  0.7799  1.0676 -1.4818
  907MPD2     N13343   2.771   3.209  16.502  0.1880  0.2672 -0.7959
  907MPD2    H513344   2.824   3.159  16.431  0.0473  1.9609 -2.1176
  907MPD2    N113345   2.452   3.349  16.165  0.3784  0.1178 -0.6773
  907MPD2    H713346   2.503   3.283  16.106  1.9444 -1.6589  2.6405
  908MPD2     C13347   0.519   0.309   9.996  0.6581  0.2684  0.2305
  908MPD2    C113348   0.466   0.198  10.059  0.1896 -0.0998  0.0154
  908MPD2    C213349   0.359   0.211  10.151 -1.1154  0.6092 -0.1371
  908MPD2    C313350   0.305   0.332  10.184  0.3158  0.6534 -0.3102
  908MPD2    C413351   0.355   0.442  10.117  0.0194  0.3628 -0.5554
  908MPD2    C513352   0.454   0.430  10.021  0.4031  0.8091  0.1345
  908MPD2     H13353   0.336   0.121  10.207  0.2169  0.9454  0.9355
  908MPD2    H113354   0.341   0.543  10.152 -1.2162 -0.7470  2.1995
  908MPD2    H213355   0.601   0.298   9.926  0.8509  0.8047  0.3678
  908MPD2    H313356   0.499   0.521   9.982 -0.4185  0.4870 -1.6074
  908MPD2     N13357   0.210   0.339  10.291  0.2669 -0.2195  0.3984
  908MPD2    H513358   0.209   0.260  10.355 -2.3442  0.0641  0.7063
  908MPD2    N113359   0.515   0.073  10.027  0.1153  0.1154 -0.0912
  908MPD2    H713360   0.589   0.071   9.957  0.6177  1.8869  0.4086
  909MPD2     C13361   0.440   3.004  11.830  0.4734  0.3730  0.1336
  909MPD2    C113362   0.347   3.079  11.759 -0.1863 -0.1461  0.2419
  909MPD2    C213363   0.231   3.120  11.827  0.7103  0.5593  0.0880
  909MPD2    C313364   0.193   3.077  11.953 -0.6290 -0.4613  0.4107
  909MPD2    C413365   0.285   3.004  12.022 -0.2191  0.0138  0.6767
  909MPD2    C513366   0.404   2.977  11.962 -0.2931 -0.9265 -0.6129
  909MPD2     H13367   0.154   3.174  11.773  2.0665  1.1855 -1.2407
  909MPD2    H113368   0.278   2.956  12.119 -0.9126 -0.0314  0.6019
  909MPD2    H213369   0.541   2.980  11.797  0.0995  1.0091 -1.4662
  909MPD2    H313370   0.472   2.912  12.015 -0.5236  0.0322  0.8549
  909MPD2     N13371   0.054   3.096  11.989 -0.0142  0.9602 -0.3873
  909MPD2    H513372   4.728   3.126  11.917 -2.6698 -0.3105  1.4306
  909MPD2    N113373   0.365   3.109  11.618 -0.2056  0.2089 -0.1210
  909MPD2    H713374   0.298   3.171  11.574 -0.7056  0.5444  1.1340
  910MPD2     C13375   1.813   4.016  16.672  0.2510 -0.3510  0.2832
  910MPD2    C113376   1.863   3.953  16.560  1.0130  0.1288 -0.1678
  910MPD2    C213377   1.841   4.012  16.437 -0.2126  0.1006 -1.0473
  910MPD2    C313378   1.765   4.126  16.423  0.1351 -0.1153 -0.5137
  910MPD2    C413379   1.714   4.182  16.533 -0.0489  0.7366 -0.0827
  910MPD2    C513380   1.745   4.134  16.660  0.3841  0.2374 -0.4821
  910MPD2     H13381   1.887   3.963  16.352  1.2780 -0.3487  0.0321
  910MPD2    H113382   1.653   4.271  16.527 -1.0947  0.0478  0.4224
  910MPD2    H213383   1.823   3.966  16.768  0.4086 -3.1102 -1.1711
  910MPD2    H313384   1.710   4.191  16.745  1.5208 -1.8664  1.4088
  910MPD2     N13385   1.714   4.167  16.301 -0.0802  0.2351 -0.5335
  910MPD2    H513386   1.672   4.260  16.304 -1.8892 -0.6103  0.9391
  910MPD2    N113387   1.926   3.828  16.561 -0.4496  0.1919 -0.8468
  910MPD2    H713388   1.953   3.787  16.472 -1.2293  1.6531 -1.7513
  911MPD2     C13389   4.580   4.188  16.043  0.2468 -0.2223  0.1422
  911MPD2    C113390   4.621   4.239  16.163 -0.3559 -0.3816  0.3113
  911MPD2    C213391   4.614   4.380  16.188 -0.0112  0.1058  0.6749
  911MPD2    C313392   4.560   4.460  16.092 -0.1405  0.3279  0.3105
  911MPD2    C413393   4.518   4.407  15.971 -0.3165 -0.9690 -0.0224
  911MPD2    C513394   4.535   4.273  15.949  0.3756 -0.2549 -0.6146
  911MPD2     H13395   4.654   4.426  16.277 -0.4621 -1.1885  1.5395
  911MPD2    H113396   4.477   4.471  15.893  0.6772  0.0080  0.2653
  911MPD2    H213397   4.567   4.081  16.034 -0.6094 -0.2110  1.1938
  911MPD2    H313398   4.510   4.245  15.847  0.5204 -0.3324 -0.6285
  911MPD2     N13399   4.534   4.600  16.117 -0.4414 -0.3180 -0.0725
  911MPD2    H513400   4.493   4.661  16.047  2.8824  3.0856  0.9543
  911MPD2    N113401   4.679   4.145  16.252  0.0876 -0.4775 -0.1232
  911MPD2    H713402   4.677   4.048  16.224 -1.2627 -0.6786  0.6493
  912MPD2     C13403   4.210   4.635  15.807 -0.4210  0.1170  0.1772
  912MPD2    C113404   4.187   4.627  15.940 -0.4297 -0.3400  0.0737
  912MPD2    C213405   4.174   4.502  16.003  0.2014  0.3649  0.6827
  912MPD2    C313406   4.168   4.388  15.929  0.3774  0.1199 -0.7075
  912MPD2    C413407   4.202   4.395  15.795  0.4759  0.3946  0.7488
  912MPD2    C513408   4.230   4.517  15.736  0.2451  0.5866 -0.2537
  912MPD2     H13409   4.167   4.498  16.111 -0.5473  0.6793  0.6435
  912MPD2    H113410   4.217   4.302  15.742 -0.4291  1.5617 -1.5610
  912MPD2    H213411   4.229   4.725  15.750  0.3484 -0.9635 -1.2790
  912MPD2    H313412   4.272   4.523  15.636 -0.4956 -0.7555 -0.6411
  912MPD2     N13413   4.165   4.267  16.004 -0.1203  0.1770 -0.0652
  912MPD2    H513414   4.147   4.283  16.103  0.7073 -2.4726  0.5014
  912MPD2    N113415   4.202   0.014  16.016  0.0035 -0.6188 -0.1154
  912MPD2    H713416   4.242   0.088  15.960  0.3416  0.0472  1.0043
  913MPD2     C13417   0.023   2.069  11.776 -0.4773 -0.1612  0.3725
  913MPD2    C113418   4.666   1.976  11.745 -0.2339 -0.3581 -0.2834
  913MPD2    C213419   4.576   2.018  11.644 -0.8800  0.5485  0.7436
  913MPD2    C313420   4.571   2.148  11.588 -0.4869  0.3982  0.6613
  913MPD2    C413421   4.679   2.234  11.626  0.5603  0.4933  0.7134
  913MPD2    C513422   0.029   2.194  11.724 -0.0635  0.8603  0.0205
  913MPD2     H13423   4.497   1.946  11.628  0.5025 -0.6071 -0.8480
  913MPD2    H113424   4.685   2.335  11.585 -4.9347  0.5377 -0.0809
  913MPD2    H213425   0.108   2.052  11.841 -0.0523  0.3934 -0.0462
  913MPD2    H313426   0.111   2.258  11.756  1.4360 -0.4155 -1.2801
  913MPD2     N13427   4.477   2.191  11.489  0.0001 -0.6972  0.4828
  913MPD2    H513428   4.486   2.289  11.466 -0.4897 -0.5234  1.0190
  913MPD2    N113429   4.676   1.847  11.809  0.3097  0.1277 -0.1872
  913MPD2    H713430   0.022   1.820  11.860  1.2949 -0.8898 -2.3854
  914MPD2     C13431   1.842   1.292  12.261  0.1449 -0.2250  0.4057
  914MPD2    C113432   1.932   1.386  12.216 -0.1033 -0.0479  0.0631
  914MPD2    C213433   2.038   1.429  12.297 -0.5835 -0.1503  0.0103
  914MPD2    C313434   2.057   1.364  12.419  0.5273 -0.3078 -0.3338
  914MPD2    C413435   1.963   1.271  12.465 -0.4511 -0.3822 -0.0599
  914MPD2    C513436   1.855   1.239  12.385 -0.1996  0.7054  0.0528
  914MPD2     H13437   2.103   1.508  12.262  0.0473 -1.2588 -1.2973
  914MPD2    H113438   1.974   1.208  12.552 -1.3653 -1.6197 -0.8315
  914MPD2    H213439   1.766   1.239  12.204  1.3546 -0.7357 -0.7130
  914MPD2    H313440   1.797   1.151  12.406 -2.3648  2.0354 -0.3205
  914MPD2     N13441   2.161   1.415  12.503 -0.5906 -0.1065  0.7489
  914MPD2    H513442   2.218   1.493  12.473 -0.3115 -1.1037 -1.3567
  914MPD2    N113443   1.913   1.444  12.087 -0.1404  0.4891 -0.2337
  914MPD2    H713444   1.817   1.450  12.056  0.3781  0.7120 -1.8551
  915MPD2     C13445   4.737   1.046  15.439 -0.8375 -0.6952 -0.4169
  915MPD2    C113446   4.727   1.174  15.388  0.3656  0.1538 -0.6204
  915MPD2    C213447   0.053   1.279  15.452  0.2005 -0.4514 -0.2663
  915MPD2    C313448   0.125   1.258  15.571 -0.0272 -0.2031 -0.9274
  915MPD2    C413449   0.142   1.128  15.613  0.3731  0.3803 -0.0771
  915MPD2    C513450   0.079   1.032  15.541 -0.5476 -0.0935  0.3715
  915MPD2     H13451   0.031   1.380  15.418 -1.9521 -0.6009  0.6773
  915MPD2    H113452   0.175   1.103  15.714 -0.1310 -1.6487 -0.4182
  915MPD2    H213453   4.690   0.957  15.399  2.1272 -1.7744 -1.4359
  915MPD2    H313454   0.088   0.931  15.581 -2.1670 -0.2320  0.3929
  915MPD2     N13455   0.172   1.369  15.639  0.3951  0.1921 -0.3856
  915MPD2    H513456   0.134   1.452  15.595  0.2814  0.5272  0.3434
  915MPD2    N113457   4.650   1.182  15.274  0.3385 -0.3785  0.0873
  915MPD2    H713458   4.599   1.101  15.241  2.7782 -1.9660  0.2684
  916MPD2     C13459   3.789   4.442  15.768  0.2703 -0.1885  0.5258
  916MPD2    C113460   3.750   4.320  15.820  0.1612  0.2417 -0.8208
  916MPD2    C213461   3.815   4.203  15.786 -0.2295  0.6422 -0.3834
  916MPD2    C313462   3.915   4.204  15.684  0.4821  0.2388 -0.3136
  916MPD2    C413463   3.957   4.324  15.635 -0.7452  0.1137 -0.0876
  916MPD2    C513464   3.899   4.434  15.680 -0.0742  0.2071 -0.3523
  916MPD2     H13465   3.787   4.106  15.824 -1.8562  0.0339 -3.1257
  916MPD2    H113466   4.028   4.330  15.554  1.9005  2.4600  2.4011
  916MPD2    H213467   3.754   4.539  15.802  1.6051 -1.4309  5.4040
  916MPD2    H313468   3.934   4.532  15.648 -0.0731 -0.0139 -1.0204
  916MPD2     N13469   3.977   4.082  15.643  0.1975 -0.5284  0.3391
  916MPD2    H513470   3.940   3.998  15.686 -0.6344 -1.3815 -2.0340
  916MPD2    N113471   3.643   4.327  15.911 -0.6661 -0.1332 -0.4099
  916MPD2    H713472   3.619   4.417  15.951  1.3709  1.9604 -3.8645
  917MPD2     C13473   2.704   2.065  11.286 -0.3547 -0.0416  0.0449
  917MPD2    C113474   2.750   2.196  11.307  0.7974 -0.7609  0.3456
  917MPD2    C213475   2.749   2.286  11.198 -0.7408 -0.8197  0.0978
  917MPD2    C313476   2.687   2.275  11.079 -0.2116 -0.3304 -1.0732
  917MPD2    C413477   2.622   2.154  11.070 -0.5567  0.4633  0.5365
  917MPD2    C513478   2.636   2.054  11.167  0.7248  0.1485 -0.0624
  917MPD2     H13479   2.806   2.378  11.209 -0.7789 -0.9682  1.5431
  917MPD2    H113480   2.566   2.127  10.982 -0.5447 -2.1108  1.3092
  917MPD2    H213481   2.706   1.988  11.362 -2.6083 -0.8425 -0.7140
  917MPD2    H313482   2.583   1.961  11.148 -0.1989  0.6262  0.1571
  917MPD2     N13483   2.691   2.369  10.971  0.3155 -0.2267  0.1140
  917MPD2    H513484   2.644   2.347  10.884 -1.7106  0.4798  1.0320
  917MPD2    N113485   2.821   2.224  11.422 -0.0639  0.6171  0.5848
  917MPD2    H713486   2.855   2.148  11.480  0.5075  0.8168  0.5170
  918MPD2     C13487   3.714   2.779  11.643  1.0622  0.0487 -0.6453
  918MPD2    C113488   3.671   2.739  11.768  0.0786  0.0038 -0.1991
  918MPD2    C213489   3.556   2.675  11.787 -1.1076 -0.0920 -0.3482
  918MPD2    C313490   3.462   2.656  11.686 -0.3246 -0.2041  0.4622
  918MPD2    C413491   3.499   2.699  11.558  0.0517  0.7794  0.0396
  918MPD2    C513492   3.621   2.769  11.545 -0.0400  0.2437 -0.5163
  918MPD2     H13493   3.529   2.652  11.890  1.8794 -0.4310  0.3499
  918MPD2    H113494   3.434   2.688  11.471  0.8577 -0.3586 -0.4164
  918MPD2    H213495   3.801   2.840  11.623 -0.2549  2.2059  0.2262
  918MPD2    H313496   3.641   2.803  11.444 -1.3258 -0.8279 -1.1409
  918MPD2     N13497   3.343   2.578  11.706  0.5755  0.2652  0.4600
  918MPD2    H513498   3.327   2.561  11.805  0.0905  1.1641  0.5320
  918MPD2    N113499   3.758   2.749  11.882 -0.8445  0.1763 -0.0215
  918MPD2    H713500   3.725   2.701  11.965  1.3643 -2.0466 -0.4182
  919MPD2     C13501   3.992   1.569  12.242 -0.3536  0.3440  0.3676
  919MPD2    C113502   3.983   1.439  12.193  0.6907 -0.1706  0.7052
  919MPD2    C213503   3.932   1.437  12.062  0.0543 -0.0876  0.4456
  919MPD2    C313504   3.882   1.543  11.987  0.1262  0.1768  0.0221
  919MPD2    C413505   3.902   1.668  12.044  0.3303 -0.0843  0.0113
  919MPD2    C513506   3.960   1.685  12.169  0.4172  0.3672  0.6805
  919MPD2     H13507   3.932   1.347  12.002 -1.9319  1.3011 -1.6617
  919MPD2    H113508   3.871   1.758  11.994 -0.9111 -0.2121  0.5437
  919MPD2    H213509   4.028   1.577  12.344  0.1599  2.6509 -0.0086
  919MPD2    H313510   3.949   1.783  12.213  0.5877  0.4782  0.4770
  919MPD2     N13511   3.823   1.535  11.860 -0.5729 -1.1522  0.3894
  919MPD2    H513512   3.792   1.624  11.821  1.7139  0.3356  1.9532
  919MPD2    N113513   4.005   1.314  12.257  0.1465  0.6086  0.0181
  919MPD2    H713514   3.985   1.227  12.210 -0.2729  1.4254 -1.3103
  920MPD2     C13515   3.527   2.067  11.106  0.1395 -1.3040  0.8399
  920MPD2    C113516   3.455   1.954  11.072 -0.1539  0.2157  0.3593
  920MPD2    C213517   3.462   1.842  11.157  1.2653 -0.3599 -0.2861
  920MPD2    C313518   3.546   1.843  11.267 -0.4662 -0.4197  0.0993
  920MPD2    C413519   3.604   1.966  11.305 -0.1700 -0.8883  0.2825
  920MPD2    C513520   3.595   2.071  11.220 -0.2666 -0.2627  0.2261
  920MPD2     H13521   3.438   1.740  11.129 -1.0332 -0.4070  1.8359
  920MPD2    H113522   3.655   1.974  11.400 -0.2160  0.3045  0.2133
  920MPD2    H213523   3.523   2.154  11.042 -2.8660 -1.3864  0.9452
  920MPD2    H313524   3.646   2.162  11.247  0.4150 -0.4866 -0.3158
  920MPD2     N13525   3.565   1.719  11.334  0.1710  0.1597 -0.0169
  920MPD2    H513526   3.501   1.650  11.296 -1.2322  1.9027 -0.8231
  920MPD2    N113527   3.378   1.946  10.952 -0.1651 -0.1832  0.1981
  920MPD2    H713528   3.352   1.852  10.925  0.6511 -0.0707 -1.0164
  921MPD2     C13529   0.331   4.685  16.648  0.1177  0.5193 -0.1725
  921MPD2    C113530   0.429   4.590  16.646 -0.0306  0.2786 -0.1975
  921MPD2    C213531   0.395   4.455  16.618 -0.5878 -0.3251 -0.3485
  921MPD2    C313532   0.261   4.417  16.615  0.1155  0.7992 -0.0851
  921MPD2    C413533   0.163   4.520  16.629  0.0234 -0.6643 -0.7287
  921MPD2    C513534   0.201   4.651  16.636  0.1655 -0.2591  0.1278
  921MPD2     H13535   0.479   4.386  16.613  0.9152  1.4380  0.6529
  921MPD2    H113536   0.056   4.498  16.632 -0.5376  2.2968  1.0825
  921MPD2    H213537   0.360   0.047  16.678 -0.2938 -0.0070  1.9518
  921MPD2    H313538   0.127   4.730  16.637 -0.5067 -0.8980  0.2226
  921MPD2     N13539   0.212   4.286  16.596 -0.5545 -0.1960  0.0245
  921MPD2    H513540   0.112   4.279  16.580 -0.3620  0.5767 -1.5436
  921MPD2    N113541   0.566   4.638  16.659 -0.1950 -0.1385 -0.5128
  921MPD2    H713542   0.573   4.737  16.678 -0.2975 -0.6297  1.9728
  922MPD2     C13543   1.170   2.124  16.839 -0.2146 -0.4556 -0.1268
  922MPD2    C113544   1.126   2.251  16.876  0.3845  0.5906 -0.2290
  922MPD2    C213545   0.995   2.269  16.918  0.4413 -0.0367  0.2624
  922MPD2    C313546   0.905   2.160  16.913 -0.2108 -0.1475  0.0412
  922MPD2    C413547   0.952   2.033  16.873 -0.3906 -0.8601  0.0139
  922MPD2    C513548   1.081   2.027  16.834  0.3290  0.4524  0.4760
  922MPD2     H13549   0.960   2.365  16.955 -0.4901 -1.2863  2.6309
  922MPD2    H113550   0.894   1.941  16.868  1.1206 -1.7708 -0.9708
  922MPD2    H213551   1.268   2.098  16.800 -0.0134  0.0360  0.0544
  922MPD2    H313552   1.110   1.930  16.796 -1.1295  0.1742  0.0426
  922MPD2     N13553   0.770   2.183  16.943 -0.0054  0.5422  0.2494
  922MPD2    H513554   0.744   2.280  16.959 -2.8102  0.1922 -2.2722
  922MPD2    N113555   1.209   2.363  16.876  0.2103  0.3764  0.4571
  922MPD2    H713556   1.183   2.447  16.928 -2.1350  0.3879 -0.7287
  923MPD2     C13557   2.676   4.481   9.276 -0.8579 -0.4483  0.3139
  923MPD2    C113558   2.576   4.513   9.366  0.1365 -0.1001 -0.1393
  923MPD2    C213559   2.601   4.545   9.489 -0.1047  0.0581  0.3442
  923MPD2    C313560   2.737   4.550   9.529  0.3408 -0.4717 -0.6225
  923MPD2    C413561   2.834   4.517   9.443  0.3648 -0.2498 -0.3985
  923MPD2    C513562   2.805   4.477   9.321  0.0037  0.0418  0.8245
  923MPD2     H13563   2.517   4.556   9.557  0.4798 -1.1890  1.2499
  923MPD2    H113564   2.939   4.520   9.470  0.3366 -0.6981 -0.2517
  923MPD2    H213565   2.656   4.452   9.174 -2.6430  1.0069  0.2554
  923MPD2    H313566   2.880   4.461   9.243  0.0765  1.8498  0.5173
  923MPD2     N13567   2.777   4.601   9.655  0.0595  0.0082 -0.5219
  923MPD2    H513568   2.876   4.606   9.680  0.5971 -1.8628 -2.2123
  923MPD2    N113569   2.442   4.502   9.314  0.3916 -0.3732 -0.3719
  923MPD2    H713570   2.440   4.481   9.215  0.2871  0.8145 -0.6219
  924MPD2     C13571   3.012   2.333  16.238  0.9652  0.1801  0.0941
  924MPD2    C113572   2.950   2.444  16.186 -0.7018 -0.2563  0.2013
  924MPD2    C213573   2.970   2.570  16.249  0.6502 -0.2591  0.1509
  924MPD2    C313574   3.055   2.581  16.360  0.5645 -0.1953  0.1599
  924MPD2    C413575   3.117   2.467  16.413 -0.0771  0.2732 -0.0691
  924MPD2    C513576   3.087   2.343  16.351  0.2568  0.0801  0.1858
  924MPD2     H13577   2.913   2.651  16.206 -0.3271 -0.6405  0.7358
  924MPD2    H113578   3.161   2.465  16.512  0.7460 -0.2689 -0.4415
  924MPD2    H213579   2.986   2.236  16.198  0.5557  0.3166  0.0359
  924MPD2    H313580   3.119   2.248  16.393  0.1393  0.0524  0.2110
  924MPD2     N13581   3.071   2.702  16.430 -0.5335  0.0865 -0.3888
  924MPD2    H513582   3.140   2.701  16.505 -1.5938  1.4505  0.6014
  924MPD2    N113583   2.850   2.412  16.083 -0.0606 -0.4978 -0.2147
  924MPD2    H713584   2.860   2.324  16.033  2.0551 -0.6989  0.5515
  925MPD2     C13585   1.605   0.581  14.550  0.6678  0.5787 -0.0987
  925MPD2    C113586   1.491   0.651  14.576 -0.1587  0.2104  0.0614
  925MPD2    C213587   1.439   0.661  14.705  0.6210 -0.2564 -0.2726
  925MPD2    C313588   1.514   0.609  14.816  0.3103  0.0374 -0.5577
  925MPD2    C413589   1.635   0.555  14.787  0.1955 -0.2199  1.0292
  925MPD2    C513590   1.674   0.542  14.659 -0.0900  0.3924  0.2549
  925MPD2     H13591   1.350   0.721  14.717 -0.3348 -2.0048  1.5376
  925MPD2    H113592   1.699   0.520  14.867  0.3579  0.9945  1.4369
  925MPD2    H213593   1.649   0.562  14.453  0.0433  1.8104 -0.6233
  925MPD2    H313594   1.770   0.493  14.646  0.3211  0.4896  2.7454
  925MPD2     N13595   1.483   0.631  14.952  0.3406 -0.5849  0.3073
  925MPD2    H513596   1.545   0.595  15.024 -2.8287 -1.3197  2.6519
  925MPD2    N113597   1.424   0.700  14.466 -0.5175 -0.0050  0.1431
  925MPD2    H713598   1.328   0.729  14.479 -0.4021 -0.4331  2.0130
  926MPD2     C13599   0.342   3.723  13.959  0.3468 -0.3409 -0.4694
  926MPD2    C113600   0.262   3.831  13.942 -0.4197 -0.4264 -0.3261
  926MPD2    C213601   0.302   3.929  13.854  0.3327  0.2857 -0.6741
  926MPD2    C313602   0.422   3.921  13.786 -0.1983  0.2246  0.3135
  926MPD2    C413603   0.495   3.809  13.794  0.6039  0.4235  0.0831
  926MPD2    C513604   0.452   3.713  13.883  0.1984 -0.1821 -0.6946
  926MPD2     H13605   0.232   4.011  13.843  2.4171  2.2937  0.8750
  926MPD2    H113606   0.586   3.800  13.734  0.4747  0.6060 -0.1406
  926MPD2    H213607   0.316   3.646  14.031  1.8197 -1.6152 -1.2951
  926MPD2    H313608   0.513   3.624  13.895 -1.3412 -0.7556  2.7985
  926MPD2     N13609   0.467   4.011  13.686 -0.2571  0.3790 -0.1655
  926MPD2    H513610   0.540   3.983  13.620 -1.9310  0.0306 -1.8839
  926MPD2    N113611   0.132   3.842  14.001  0.2627 -0.2364  0.1867
  926MPD2    H713612   0.083   3.927  13.974  0.1111 -0.4799 -0.2911
  927MPD2     C13613   4.651   1.125  17.551  0.1147 -0.1440 -0.0545
  927MPD2    C113614   4.614   1.261  17.547 -0.5390 -0.0377 -0.3832
  927MPD2    C213615   4.670   1.341  17.447 -0.8485 -0.7679  0.4999
  927MPD2    C313616   0.026   1.281  17.357  0.3590 -0.1486 -0.2021
  927MPD2    C413617   0.049   1.149  17.364  0.3001 -0.3750 -0.2757
  927MPD2    C513618   0.003   1.073  17.457  0.1706 -0.8871 -0.3230
  927MPD2     H13619   4.658   1.448  17.448 -1.0777 -0.7681 -2.5653
  927MPD2    H113620   0.110   1.103  17.288  0.4185 -1.7655  0.6741
  927MPD2    H213621   4.611   1.058  17.626 -2.4908  0.5938 -0.7637
  927MPD2    H313622   0.023   0.966  17.450 -0.0845 -0.7195 -3.8774
  927MPD2     N13623   0.095   1.367  17.268  0.4634  0.0820  0.2308
  927MPD2    H513624   0.070   1.465  17.260 -2.8417 -0.4886  3.3254
  927MPD2    N113625   4.532   1.303  17.649  0.2102 -0.2965 -0.0597
  927MPD2    H713626   4.511   1.232  17.718 -1.4273 -0.2066 -0.4498
  928MPD2     C13627   2.246   4.117   1.004  0.1835 -0.3715  0.6543
  928MPD2    C113628   2.361   4.189   1.032  1.0953  0.1184 -0.4507
  928MPD2    C213629   2.436   4.244   0.930  0.0153  0.2203 -0.4959
  928MPD2    C313630   2.411   4.214   0.799  0.4634  0.6485 -0.6519
  928MPD2    C413631   2.301   4.137   0.769 -0.2479  0.6221  0.3188
  928MPD2    C513632   2.220   4.099   0.875 -0.4761  0.5243 -0.3658
  928MPD2     H13633   2.517   4.311   0.959 -0.0579 -0.0736  0.3886
  928MPD2    H113634   2.274   4.106   0.669 -1.9717  1.6050  0.4736
  928MPD2    H213635   2.177   4.082   1.079  1.4455 -2.3591  0.8922
  928MPD2    H313636   2.147   4.020   0.861  1.1797 -0.9278 -0.9039
  928MPD2     N13637   2.471   4.268   0.683 -0.1575  0.2118 -0.1047
  928MPD2    H513638   2.435   4.237   0.594 -0.5954 -1.9903  0.8552
  928MPD2    N113639   2.369   4.218   1.171 -0.0966 -0.2313 -0.3062
  928MPD2    H713640   2.297   4.174   1.228 -0.7078 -0.4097 -1.2268
  929MPD2     C13641   1.798   0.738  10.446  0.0191  0.5365 -0.1353
  929MPD2    C113642   1.910   0.700  10.379 -0.5713 -0.5464  0.4393
  929MPD2    C213643   1.937   0.766  10.269 -0.2385 -0.6252 -0.4110
  929MPD2    C313644   1.849   0.866  10.219  0.4045 -0.2517 -0.2893
  929MPD2    C413645   1.742   0.904  10.292 -0.3598 -0.2662 -0.9074
  929MPD2    C513646   1.715   0.845  10.412  0.8548  0.2203 -0.3566
  929MPD2     H13647   2.033   0.757  10.220 -0.7083  2.4746 -1.8888
  929MPD2    H113648   1.673   0.977  10.252 -1.3218 -0.3776  0.5559
  929MPD2    H213649   1.768   0.693  10.540  1.6421  1.4703  0.8286
  929MPD2    H313650   1.635   0.873  10.480 -1.1123 -2.8725 -1.3951
  929MPD2     N13651   1.867   0.943  10.096 -0.0521 -0.1105 -0.1570
  929MPD2    H513652   1.803   1.018  10.073 -0.1958  0.0983  0.9046
  929MPD2    N113653   1.971   0.588  10.424  0.1827 -0.0596  0.0636
  929MPD2    H713654   1.929   0.544  10.505 -0.9144  1.6890  0.4478
  930MPD2     C13655   4.674   1.739  13.990 -0.0919 -0.1864 -0.0528
  930MPD2    C113656   4.638   1.777  13.860 -0.1054  0.3421 -0.8255
  930MPD2    C213657   4.574   1.682  13.782 -0.2282  0.3831 -0.0778
  930MPD2    C313658   4.545   1.554  13.833  0.2946 -0.0244 -0.5757
  930MPD2    C413659   4.581   1.522  13.958 -0.0175 -0.1545 -0.1826
  930MPD2    C513660   4.642   1.612  14.040 -0.8464  0.5717 -0.3733
  930MPD2     H13661   4.567   1.708  13.677  0.0899  0.8608  0.0147
  930MPD2    H113662   4.572   1.417  13.985 -3.3214  0.0573 -0.4492
  930MPD2    H213663   4.722   1.816  14.049 -1.2036 -0.2180  0.8978
  930MPD2    H313664   4.677   1.596  14.141 -2.0670  0.9389  0.0963
  930MPD2     N13665   4.478   1.454  13.747  0.1002  0.4478  0.2425
  930MPD2    H513666   4.494   1.356  13.770 -2.2413  0.1331  0.5150
  930MPD2    N113667   4.672   1.901  13.815 -1.2355  0.6971 -0.4706
  930MPD2    H713668   4.715   1.965  13.881  0.6967  0.3850 -1.4262
  931MPD2     C13669   4.337   0.866   0.181  0.3586 -0.0188 -0.7340
  931MPD2    C113670   4.279   0.969   0.250 -0.0194  0.4784 -0.2927
  931MPD2    C213671   4.215   0.936   0.372 -0.3148 -0.2081 -0.1480
  931MPD2    C313672   4.238   0.816   0.434  0.2470 -0.7422  0.2362
  931MPD2    C413673   4.297   0.715   0.357 -0.6275 -0.2733  0.3645
  931MPD2    C513674   4.347   0.743   0.232 -0.4658  0.3307 -0.3147
  931MPD2     H13675   4.173   1.019   0.428 -1.3083 -1.0611  0.3557
  931MPD2    H113676   4.312   0.615   0.397  2.2106 -0.5314 -1.3560
  931MPD2    H213677   4.379   0.873   0.081  1.8005 -1.8764 -0.2617
  931MPD2    H313678   4.391   0.660   0.178  2.5001  1.3633  0.4876
  931MPD2     N13679   4.194   0.782   0.566  0.4551  0.0642 -0.2466
  931MPD2    H513680   4.218   0.691   0.605  1.3545  0.4952  0.2270
  931MPD2    N113681   4.274   1.098   0.182 -0.0071  0.2009  0.4501
  931MPD2    H713682   4.317   1.102   0.090  0.4244 -3.0030  0.5075
  932MPD2     C13683   1.587   0.157  11.289  0.2522 -0.1386 -0.1964
  932MPD2    C113684   1.563   0.240  11.398 -0.2555 -0.7899 -0.2623
  932MPD2    C213685   1.670   0.268  11.484 -0.1003  0.4356 -0.1867
  932MPD2    C313686   1.789   0.205  11.468 -0.1681  0.2205  1.1799
  932MPD2    C413687   1.803   0.102  11.375  0.1095  0.2635  0.4055
  932MPD2    C513688   1.703   0.089  11.284 -0.7826 -0.2560  0.2324
  932MPD2     H13689   1.657   0.335  11.568 -2.9072  0.5979 -0.7802
  932MPD2    H113690   1.887   0.034  11.369  0.7863  1.0372  1.1025
  932MPD2    H213691   1.508   0.138  11.217  0.2756  0.2101 -0.3145
  932MPD2    H313692   1.706   0.015  11.205 -0.9594 -2.4437  2.2676
  932MPD2     N13693   1.891   0.245  11.558  0.6660  0.0230  0.0464
  932MPD2    H513694   1.858   0.309  11.629  0.2399  0.0750 -0.2029
  932MPD2    N113695   1.437   0.304  11.400  0.6519  0.4842 -0.0107
  932MPD2    H713696   1.385   0.264  11.322  2.4464  0.8135 -1.3518
  933MPD2     C13697   2.034   4.485   1.901  0.2909 -0.2375  0.2602
  933MPD2    C113698   2.036   4.473   1.768  0.0772 -0.1929 -0.6856
  933MPD2    C213699   1.921   4.509   1.698  0.0010 -0.0363  0.3894
  933MPD2    C313700   1.802   4.546   1.749  0.4219  0.3064 -0.7408
  933MPD2    C413701   1.801   4.551   1.886  0.1368 -0.7734  0.0947
  933MPD2    C513702   1.911   4.523   1.955  0.3831 -0.6798 -0.2677
  933MPD2     H13703   1.919   4.520   1.590  0.9354  0.0010  0.3759
  933MPD2    H113704   1.712   4.583   1.937  0.1783 -0.9274  0.2652
  933MPD2    H213705   2.119   4.454   1.960  0.8364 -0.6400 -0.7535
  933MPD2    H313706   1.902   4.534   2.063 -1.8024  0.5842 -0.5846
  933MPD2     N13707   1.692   4.592   1.673 -0.1588  0.6917 -1.2037
  933MPD2    H513708   1.706   4.592   1.572 -2.0032  0.2861 -1.4462
  933MPD2    N113709   2.157   4.439   1.707  0.3767  0.9011 -0.1067
  933MPD2    H713710   2.240   4.425   1.763  0.5792  0.4436 -0.5250
  934MPD2     C13711   3.209   2.273   1.890 -0.0182  0.4042  0.6753
  934MPD2    C113712   3.266   2.149   1.863 -0.1457  0.0861 -0.5082
  934MPD2    C213713   3.208   2.062   1.779  0.5649  0.4104 -0.2803
  934MPD2    C313714   3.080   2.089   1.729 -0.0375  0.3296 -0.1215
  934MPD2    C413715   3.020   2.214   1.755 -0.0248  0.3522 -0.4188
  934MPD2    C513716   3.084   2.300   1.837  0.3144 -0.7473  0.5831
  934MPD2     H13717   3.264   1.973   1.753  2.6112  1.2898  1.1135
  934MPD2    H113718   2.924   2.249   1.719 -1.0502 -0.6885  1.2723
  934MPD2    H213719   3.250   2.348   1.956 -0.7562  2.3591 -1.0871
  934MPD2    H313720   3.038   2.396   1.860 -1.8398 -0.9878 -2.7080
  934MPD2     N13721   3.006   2.001   1.646 -0.0678 -0.0762 -0.1158
  934MPD2    H513722   2.910   2.025   1.624  0.1514  0.5348 -0.3963
  934MPD2    N113723   3.388   2.120   1.935  0.6033 -0.4884  0.2951
  934MPD2    H713724   3.439   2.039   1.901 -0.3595 -0.8031 -0.3809
  935MPD2     C13725   3.357   1.160   1.249  0.4893 -0.7409  0.5342
  935MPD2    C113726   3.234   1.167   1.187  0.4848  0.4004 -0.1230
  935MPD2    C213727   3.143   1.264   1.222 -0.1199  0.0538  0.0647
  935MPD2    C313728   3.179   1.365   1.317 -0.9550  0.3009  0.1000
  935MPD2    C413729   3.299   1.353   1.375  0.4773  0.5999 -0.2300
  935MPD2    C513730   3.389   1.248   1.352  0.0290  0.3401  0.5918
  935MPD2     H13731   3.049   1.277   1.171 -0.2520  1.0396  0.5542
  935MPD2    H113732   3.330   1.428   1.448  1.1761 -0.0200  0.1101
  935MPD2    H213733   3.432   1.090   1.214  0.7574 -0.3416  0.3047
  935MPD2    H313734   3.486   1.246   1.399  0.5474 -0.8886 -0.5527
  935MPD2     N13735   3.092   1.470   1.353 -0.0578 -0.3904  0.4413
  935MPD2    H513736   3.136   1.539   1.414  1.3958 -1.0334  0.1200
  935MPD2    N113737   3.202   1.068   1.086  0.0770  0.5507  0.7191
  935MPD2    H713738   3.123   1.092   1.028 -0.1426  1.3196  1.3344
  936MPD2     C13739   2.186   3.890  12.364 -0.5238 -0.3673  0.1982
  936MPD2    C113740   2.260   3.832  12.468 -0.4002  0.2005  0.7893
  936MPD2    C213741   2.394   3.852  12.485 -0.3787  0.1185 -0.3046
  936MPD2    C313742   2.457   3.938  12.390  0.1331 -0.0742 -0.2312
  936MPD2    C413743   2.380   3.996  12.287 -0.2462 -0.1554  0.2883
  936MPD2    C513744   2.247   3.967  12.273 -0.2068 -0.3790  0.5631
  936MPD2     H13745   2.443   3.803  12.568  1.2812 -1.3399 -2.1099
  936MPD2    H113746   2.426   4.057  12.211 -1.8205  0.5276 -0.1241
  936MPD2    H213747   2.079   3.870  12.363 -0.7242  0.6827  0.6680
  936MPD2    H313748   2.203   4.020  12.190  1.4728  0.6533  0.3112
  936MPD2     N13749   2.597   3.966  12.384  0.0360  0.2655 -0.7984
  936MPD2    H513750   2.631   4.025  12.308 -0.5489 -0.8525 -1.9184
  936MPD2    N113751   2.208   3.742  12.563 -0.4692  0.1049 -0.3509
  936MPD2    H713752   2.279   3.715  12.629 -0.1089  2.7445  0.3248
  937MPD2     C13753   4.338   0.664  12.084  0.4535  0.0521 -0.1871
  937MPD2    C113754   4.328   0.802  12.083  0.8401 -0.3765 -1.0738
  937MPD2    C213755   4.415   0.865  11.999  0.6525 -0.2467 -0.2741
  937MPD2    C313756   4.480   0.800  11.900  0.6221  0.0403 -0.0924
  937MPD2    C413757   4.476   0.661  11.890 -0.3808 -0.3000 -0.0420
  937MPD2    C513758   4.410   0.596  11.987 -0.1936  0.2707 -0.3047
  937MPD2     H13759   4.393   0.971  12.003 -0.0148 -0.4102  0.5277
  937MPD2    H113760   4.527   0.603  11.814 -2.2524  0.3334 -1.7605
  937MPD2    H213761   4.279   0.613  12.160 -2.2602 -0.8164 -2.8662
  937MPD2    H313762   4.411   0.488  11.990 -0.6751  0.2740  0.0620
  937MPD2     N13763   4.558   0.877  11.808  0.0999 -0.0820 -0.4121
  937MPD2    H513764   4.556   0.976  11.829  0.5371 -0.1801  0.0749
  937MPD2    N113765   4.286   0.873  12.197  0.2316 -0.3378 -0.3233
  937MPD2    H713766   4.322   0.967  12.211 -2.3108  1.0052 -2.8609
  938MPD2     C13767   2.427   1.415   0.665  0.5165  0.9257 -0.5170
  938MPD2    C113768   2.474   1.513   0.746 -0.7710  0.4334  0.7164
  938MPD2    C213769   2.422   1.508   0.877 -0.0191  0.2221  0.2212
  938MPD2    C313770   2.345   1.414   0.922 -0.4594  0.3962  0.1960
  938MPD2    C413771   2.317   1.306   0.846  0.1253  0.0137  0.6340
  938MPD2    C513772   2.345   1.313   0.707  0.4399 -0.4312  0.4589
  938MPD2     H13773   2.459   1.586   0.943 -0.6990 -0.8201  1.8243
  938MPD2    H113774   2.254   1.223   0.877 -0.1869 -0.3351 -0.9393
  938MPD2    H213775   2.448   1.420   0.559  0.7865  1.6781 -0.4256
  938MPD2    H313776   2.315   1.239   0.634  1.4637 -0.0956 -0.2985
  938MPD2     N13777   2.305   1.421   1.057  0.4249  0.1344  0.0867
  938MPD2    H513778   2.336   1.504   1.107  2.0857  1.0750 -2.5147
  938MPD2    N113779   2.558   1.626   0.704  0.4077  0.2880  0.3509
  938MPD2    H713780   2.596   1.683   0.779 -1.2200 -1.6669  2.6733
  939MPD2     C13781   3.826   2.120   1.009 -0.7699 -0.2509 -0.2973
  939MPD2    C113782   3.749   2.229   0.969  0.2737 -0.1643  0.2962
  939MPD2    C213783   3.687   2.228   0.850  0.5413 -0.5590 -0.4352
  939MPD2    C313784   3.704   2.117   0.771 -0.8630 -0.6697 -0.0559
  939MPD2    C413785   3.779   2.009   0.805  0.3779 -0.1387 -0.4523
  939MPD2    C513786   3.846   2.012   0.929  0.4448 -0.3161 -0.4963
  939MPD2     H13787   3.613   2.303   0.823 -0.7915 -2.8344 -3.1051
  939MPD2    H113788   3.791   1.920   0.745  0.4012 -0.6395  0.2995
  939MPD2    H213789   3.876   2.121   1.106 -2.3130  0.3801  0.4800
  939MPD2    H313790   3.911   1.929   0.953 -0.2130 -0.3998  0.9737
  939MPD2     N13791   3.633   2.119   0.648  0.2181 -0.4807 -0.0793
  939MPD2    H513792   3.584   2.208   0.638 -0.3717 -0.6812  0.9323
  939MPD2    N113793   3.761   2.347   1.054  0.4536 -0.4467 -0.7455
  939MPD2    H713794   3.827   2.341   1.131 -0.7239  1.7789  0.4436
  940MPD2     C13795   3.191   4.501  12.564 -0.2678  0.0222 -0.2676
  940MPD2    C113796   3.246   4.419  12.664 -0.9901  1.0402 -0.0390
  940MPD2    C213797   3.286   4.293  12.625 -0.0241  0.0296 -0.4230
  940MPD2    C313798   3.271   4.250  12.490  0.2967  0.1835 -0.3682
  940MPD2    C413799   3.207   4.326  12.398  0.1573  0.4463  0.8579
  940MPD2    C513800   3.169   4.451  12.435 -0.2971  0.5595  0.3898
  940MPD2     H13801   3.339   4.225  12.691  1.7727 -0.7025 -2.6024
  940MPD2    H113802   3.200   4.291  12.296 -0.2032  0.3721  0.9082
  940MPD2    H213803   3.147   4.598  12.584 -1.9366 -0.7411 -0.2594
  940MPD2    H313804   3.118   4.514  12.363 -0.7129 -0.1187  0.0922
  940MPD2     N13805   3.318   4.123  12.449  0.1747 -0.1878 -0.1964
  940MPD2    H513806   3.310   4.095  12.352 -1.7938 -2.6543  0.6901
  940MPD2    N113807   3.261   4.454  12.796 -0.2612 -0.3420 -0.3446
  940MPD2    H713808   3.307   4.382  12.851  2.3025  1.4625 -0.0927
  941MPD2     C13809   1.282   2.763  10.055  0.4406  0.2657  1.1259
  941MPD2    C113810   1.277   2.776  10.194 -0.8487  0.1572 -0.0007
  941MPD2    C213811   1.249   2.665  10.260 -0.3186 -0.1716  0.4741
  941MPD2    C313812   1.210   2.547  10.196 -0.2574  0.7580 -0.4718
  941MPD2    C413813   1.207   2.535  10.057  0.2742  0.2793 -0.1005
  941MPD2    C513814   1.252   2.643   9.989 -0.4044  0.1614  0.0934
  941MPD2     H13815   1.265   2.669  10.367  0.7547 -1.1397  0.3474
  941MPD2    H113816   1.178   2.445  10.004 -2.4903  1.2046 -0.1744
  941MPD2    H213817   1.326   2.843   9.997 -2.0969  0.0436 -1.0989
  941MPD2    H313818   1.264   2.636   9.881  0.9872 -0.5579  0.2890
  941MPD2     N13819   1.175   2.432  10.274 -0.4090 -0.6210 -0.0871
  941MPD2    H513820   1.152   2.345  10.227 -0.1009 -0.2440 -0.9360
  941MPD2    N113821   1.308   2.890  10.278  0.0353 -0.2159  0.9136
  941MPD2    H713822   1.298   2.873  10.377 -0.2649 -1.8071  0.6214
  942MPD2     C13823   1.708   4.108   9.298 -0.1608  0.9971  0.7132
  942MPD2    C113824   1.736   4.174   9.414 -0.3086  0.6229  0.0706
  942MPD2    C213825   1.862   4.179   9.463  0.5782  0.1735 -0.4857
  942MPD2    C313826   1.966   4.111   9.399 -0.3463  0.9476  0.0601
  942MPD2    C413827   1.938   4.031   9.292 -0.3997 -0.3879 -0.3701
  942MPD2    C513828   1.808   4.034   9.242  0.0650 -0.3124  0.1288
  942MPD2     H13829   1.887   4.243   9.547  0.2865  3.5296 -2.9627
  942MPD2    H113830   2.014   3.973   9.242 -2.5620 -1.7939 -2.0014
  942MPD2    H213831   1.607   4.098   9.260 -0.3906  1.2697  1.2425
  942MPD2    H313832   1.777   3.965   9.165 -2.3812  0.8906  0.0172
  942MPD2     N13833   2.099   4.118   9.444 -0.3528 -0.4353 -0.3403
  942MPD2    H513834   2.160   4.052   9.397 -0.7640 -0.6527 -0.5608
  942MPD2    N113835   1.636   4.246   9.485 -0.2967 -0.1504 -1.2723
  942MPD2    H713836   1.658   4.310   9.560  0.2906 -2.0528  0.1702
  943MPD2     C13837   0.156   2.731  10.296  0.5104 -0.1436  0.2898
  943MPD2    C113838   0.172   2.855  10.341 -0.1408  0.1489  0.6593
  943MPD2    C213839   0.259   2.944  10.266 -0.0673  0.0609 -0.4529
  943MPD2    C313840   0.318   2.897  10.143  0.1150 -0.3518  0.0787
  943MPD2    C413841   0.283   2.770  10.101  1.2341  0.6621  0.4737
  943MPD2    C513842   0.202   2.695  10.175  0.1680 -0.1501  0.4142
  943MPD2     H13843   0.284   3.042  10.303 -1.5134  0.9652 -1.8562
  943MPD2    H113844   0.324   2.723  10.012 -1.3051  0.9444 -0.8573
  943MPD2    H213845   0.090   2.658  10.341 -0.1702  1.2165  1.5028
  943MPD2    H313846   0.184   2.591  10.148  0.7029 -0.4245  1.1155
  943MPD2     N13847   0.405   2.982  10.077  0.3843  0.3544 -0.1705
  943MPD2    H513848   0.416   3.076  10.116 -1.1979 -0.2081  1.6511
  943MPD2    N113849   0.102   2.887  10.457 -0.9940  0.8315 -0.2063
  943MPD2    H713850   0.057   2.809  10.504  0.8036  0.5006  0.9593
  944MPD2     C13851   0.432   1.927  11.648 -0.0319  0.7433  0.1925
  944MPD2    C113852   0.345   1.998  11.569 -0.5136  0.1161  0.3179
  944MPD2    C213853   0.332   2.133  11.591 -0.2497  0.2342 -1.0190
  944MPD2    C313854   0.387   2.197  11.698 -0.9181  0.2552 -0.0597
  944MPD2    C413855   0.481   2.131  11.771  0.7584  0.5567  1.1781
  944MPD2    C513856   0.507   2.001  11.740 -0.6683 -1.1773 -0.5677
  944MPD2     H13857   0.259   2.190  11.534 -0.5015  0.2689 -0.6652
  944MPD2    H113858   0.531   2.177  11.856 -0.5792  1.7252  1.3350
  944MPD2    H213859   0.451   1.821  11.639  1.0499  0.8856  0.7413
  944MPD2    H313860   0.584   1.945  11.793  0.3877  1.2769  0.4652
  944MPD2     N13861   0.360   2.336  11.716 -0.1080 -0.2542  0.2454
  944MPD2    H513862   0.341   2.384  11.629 -0.3590  0.5002  0.7248
  944MPD2    N113863   0.258   1.928  11.479  0.3175  0.2217  0.1392
  944MPD2    H713864   0.258   1.826  11.481 -2.6120  0.2181 -0.7408
    1TMC1    C113865   3.913   2.799  14.102 -0.4518  0.3389 -0.7339
    1TMC1    C213866   3.832   2.834  14.002  0.5070  0.0038  0.7699
    1TMC1    C313867   3.830   2.751  13.897  0.3997  0.7163  0.8963
    1TMC1    C413868   4.007   2.696  14.098 -0.6196  0.0133  0.3551
    1TMC1    C513869   4.012   2.635  13.985 -0.2287  0.0815 -1.0047
    1TMC1    C613870   3.923   2.647  13.882 -0.1755  0.2604 -0.4351
    1TMC1     C13871   3.913   2.871  14.225 -0.4632 -0.3369  0.5863
    1TMC1     O13872   4.013   2.849  14.297 -0.0411  0.0527  0.0039
    1TMC1     H13873   3.771   2.924  14.005  0.6191  0.1324 -0.8302
    1TMC1    H113874   4.085   2.675  14.170 -1.1371 -1.7905  0.3927
    1TMC1    H213875   3.905   2.566  13.812 -0.1943 -0.0511 -0.0669
    1TMC1    C713876   4.103   2.525  13.989  1.2424  0.2057 -0.5363
    1TMC1    C813877   3.724   2.747  13.795  0.3020 -0.2281  0.9587
    1TMC1    O113878   4.155   2.475  14.088  0.1274  0.2718  0.4002
    1TMC1    O213879   3.735   2.700  13.684  0.6389 -0.2868 -0.2024
    1TMC1    O313880   4.130   2.489  13.861  0.1109 -0.4200 -0.0252
    1TMC1    H313881   4.106   2.540  13.781  0.4905 -0.3889 -0.1203
    1TMC1    O513882   3.614   2.807  13.839  0.0410  0.1584  0.4296
    1TMC1    H513883   3.618   2.821  13.936 -3.4859  0.1971  0.5536
    2MPD2     C13884   3.664   3.103  14.610 -0.8690 -0.2772 -0.0582
    2MPD2    C113885   3.593   3.122  14.494 -0.2328  0.3498 -0.0412
    2MPD2    C213886   3.631   3.060  14.376  0.2328  0.7151 -1.0037
    2MPD2    C313887   3.746   2.979  14.373  0.6428 -0.1043 -0.2752
    2MPD2    C413888   3.802   2.949  14.496  0.2479 -0.2525  0.2229
    2MPD2    C513889   3.761   3.006  14.616  0.2752  0.5522  0.8250
    2MPD2     H13890   3.585   3.077  14.280 -2.6924 -0.4923  0.1741
    2MPD2    H113891   3.878   2.874  14.509  0.7017  0.3344  0.9937
    2MPD2    H213892   3.624   3.156  14.696  0.1538 -0.5808  0.6014
    2MPD2    H313893   3.807   2.977  14.709  1.9988 -0.0461 -0.2135
    2MPD2     N13894   3.785   2.924  14.251 -1.0190 -0.1825 -0.3820
    2MPD2    H513895   3.716   2.939  14.179 -0.9570  1.3875 -0.1289
    2MPD2    N113896   3.478   3.206  14.500 -0.1394  1.1325  0.2976
    2MPD2    H713897   3.459   3.261  14.583  0.3717  1.6119  0.0949
    3TMC2    C113898   3.318   3.348  14.403  0.7016  0.0362  0.3644
    3TMC2    C213899   3.222   3.365  14.310 -0.1942  0.0911 -0.1608
    3TMC2    C313900   3.193   3.495  14.277  0.2554 -0.0948 -0.2398
    3TMC2    C413901   3.392   3.459  14.445 -0.3275 -0.0617 -0.0105
    3TMC2    C513902   3.361   3.589  14.405  0.2737  0.2262  0.5207
    3TMC2    C613903   3.254   3.608  14.319  0.2113 -0.1010 -0.1428
    3TMC2     C13904   3.396   3.226  14.396 -0.0213  0.4032  0.3107
    3TMC2     O13905   3.377   3.148  14.301 -0.4183  0.3140  1.0146
    3TMC2     H13906   3.172   3.279  14.268 -1.3596  0.8115 -0.2366
    3TMC2    H113907   3.483   3.447  14.504 -0.2864  1.2101  0.1716
    3TMC2    H213908   3.219   3.708  14.295 -1.9766 -0.6250  0.8674
    3TMC2    C713909   3.458   3.689  14.425 -0.2735  0.1182  0.1058
    3TMC2    C813910   3.092   3.517  14.182 -0.3617 -0.0991 -0.5901
    3TMC2    O113911   3.552   3.667  14.500  0.6191  0.1872  0.0946
    3TMC2    O213912   3.099   3.598  14.091  0.1343 -0.4625  0.4179
    3TMC2    O513913   2.997   3.424  14.204 -0.0367  0.4676 -0.2849
    3TMC2    H513914   2.997   3.402  14.300 -2.9633  0.8333 -0.1856
    4TMC2    C113915   3.308   4.492  13.833  0.0968 -0.6592  0.7075
    4TMC2    C213916   3.355   4.584  13.917  0.3265  0.2365  0.7772
    4TMC2    C313917   3.419   4.552  14.034 -0.4632 -0.0535 -0.4580
    4TMC2    C413918   3.311   4.360  13.866 -0.2886 -0.3786  0.5487
    4TMC2    C513919   3.393   4.324  13.976  0.6451 -0.2101 -0.2666
    4TMC2    C613920   3.453   4.420  14.057 -0.0972  0.3168  0.3380
    4TMC2     C13921   3.245   4.544  13.704  0.3087 -0.0885  0.5181
    4TMC2     O13922   3.290   4.651  13.677 -0.2193  0.0738  1.1784
    4TMC2     H13923   3.339   4.687  13.888  1.4449 -0.2537 -1.5665
    4TMC2    H113924   3.266   4.280  13.808  1.9773 -0.7033 -0.7348
    4TMC2    H213925   3.471   4.394  14.161  2.2572 -0.0422 -0.1701
    4TMC2    C713926   3.409   4.188  14.008  0.0665  0.1324  0.7795
    4TMC2    C813927   3.410   4.636  14.153  0.2807  0.6970 -0.1343
    4TMC2    O113928   3.320   4.111  13.986 -0.2058  0.4611  0.8269
    4TMC2    O213929   3.500   4.641  14.238 -0.0562 -0.8096  0.7092
    4TMC2    O513930   3.282   4.687  14.158 -0.0106 -0.2424  0.4299
    4TMC2    H513931   3.226   4.627  14.104  0.9028  0.2075 -1.0102
    5MPD2     C13932   2.848   4.643  13.416  0.1683  0.4838 -0.3760
    5MPD2    C113933   2.812   4.538  13.493 -0.0245  0.4923 -0.0834
    5MPD2    C213934   2.908   4.480  13.574 -0.0584 -0.2229  0.2027
    5MPD2    C313935   3.031   4.535  13.576 -0.1046  0.4845 -0.2421
    5MPD2    C413936   3.063   4.652  13.505 -0.0093  0.1462 -0.0807
    5MPD2    C513937   2.973   4.695  13.409  0.1230  0.4786  0.0032
    5MPD2     H13938   2.885   4.388  13.626  1.1581 -2.6077 -3.4538
    5MPD2    H113939   3.164   4.691  13.498  0.9562 -2.6180 -1.5402
    5MPD2    H213940   2.778   4.682  13.343  0.7280  1.6200 -0.3084
    5MPD2    H313941   3.002   0.038  13.343  0.7572 -0.7509 -1.2108
    5MPD2     N13942   3.124   4.486  13.670  0.5474  0.1489 -0.1008
    5MPD2    H513943   3.099   4.405  13.726 -2.6288  0.4175 -1.1110
    5MPD2    N113944   2.686   4.487  13.471  0.3979  0.3683  0.5799
    5MPD2    H713945   2.632   4.509  13.388  0.3477 -1.1295  0.1987
    6MPD1     C13946   0.996   4.710  12.626  0.3451  0.0500  0.1599
    6MPD1    C113947   0.964   4.630  12.733 -0.1400 -0.8060 -0.2086
    6MPD1    C213948   1.055   4.600  12.833  0.2803 -0.8825 -0.4065
    6MPD1    C313949   1.185   4.657  12.825 -0.1306  0.1545 -0.1288
    6MPD1    C413950   1.222   4.726  12.714  0.1075 -0.1120  0.4437
    6MPD1    C513951   1.126   0.022  12.628  0.3647  0.6124  0.3675
    6MPD1     H13952   1.029   4.539  12.919  0.2677 -1.1072 -0.5681
    6MPD1    H113953   1.323   0.025  12.698 -0.9714  2.9133  0.6488
    6MPD1    H213954   0.926   0.011  12.553  0.8335  1.3185  0.3493
    6MPD1    H313955   1.157   0.085  12.546 -5.2138  1.1984 -1.2564
    6MPD1     N13956   1.280   4.639  12.928 -0.2493  0.0700 -0.5932
    6MPD1    H513957   1.373   4.674  12.906 -0.8730  1.5720 -0.8170
    6MPD1    N113958   0.832   4.607  12.770  0.5897  0.3571  0.5651
    6MPD1    H613959   0.772   4.628  12.690 -1.8912  1.5256  2.7133
    6MPD1    H713960   0.821   4.513  12.807  0.3121 -0.5450 -1.8035
    7MPD2     C13961   1.658   4.228  13.605  0.2780 -0.4113 -0.0576
    7MPD2    C113962   1.732   4.338  13.559 -0.5513 -0.0143  0.8932
    7MPD2    C213963   1.866   4.328  13.574  0.5406  0.2918  0.9853
    7MPD2    C313964   1.929   4.225  13.647  0.6188  0.1016  0.0240
    7MPD2    C413965   1.856   4.122  13.695 -0.2154 -0.0822 -0.2422
    7MPD2    C513966   1.721   4.129  13.675  0.0769  0.1236 -0.3571
    7MPD2     H13967   1.924   4.416  13.547  2.9505 -0.9128  2.2300
    7MPD2    H113968   1.902   4.039  13.747  2.9599  1.2749 -0.9160
    7MPD2    H213969   1.551   4.213  13.592  0.0037  1.1169  0.4322
    7MPD2    H313970   1.654   4.058  13.723  0.5155 -0.3515 -0.4395
    7MPD2     N13971   2.074   4.211  13.649 -0.0505  0.1386  0.5106
    7MPD2    H513972   2.111   4.121  13.680 -0.0253 -0.0999 -0.2103
    7MPD2    N113973   1.687   4.442  13.473  0.3944 -0.1712  0.1029
    7MPD2    H713974   1.758   4.506  13.438  1.6217 -1.0884  0.9001
    8TMC3    C113975   2.297   4.246  13.584 -0.7431  0.5201 -0.1244
    8TMC3    C213976   2.405   4.325  13.612  0.4833  0.0617 -0.1060
    8TMC3    C313977   2.507   4.333  13.519 -0.2505 -0.0768 -0.2905
    8TMC3    C413978   2.297   4.188  13.454  0.1272  0.0589 -0.5374
    8TMC3    C513979   2.399   4.212  13.364 -0.3519  0.0826  0.2364
    8TMC3    C613980   2.498   4.298  13.385 -0.3304 -0.6852 -0.1675
    8TMC3     C13981   2.169   4.305  13.619 -0.7858 -0.3749  0.2927
    8TMC3     O13982   2.160   4.427  13.609 -0.4501  0.6091  0.0323
    8TMC3     H13983   2.403   4.390  13.698 -2.7604  2.0292 -1.6688
    8TMC3    H113984   2.219   4.118  13.425 -0.6115  1.0562 -0.9476
    8TMC3    H213985   2.576   4.314  13.312 -0.3800 -0.2481 -0.1277
    8TMC3    C713986   2.364   4.220  13.224  0.2801  0.3236 -0.3124
    8TMC3    C813987   2.620   4.413  13.565 -0.7624  0.4251  0.8380
    8TMC3    O113988   2.455   4.230  13.136 -0.8773 -0.0380 -0.0603
    8TMC3    O213989   2.638   4.413  13.689  0.5624  0.3511  0.3530
    9TMC3    C113990   1.408   4.549  13.100  0.2851  0.4229  0.2428
    9TMC3    C213991   1.509   4.519  13.014  0.1844  0.1311 -0.1015
    9TMC3    C313992   1.636   4.508  13.071 -0.4103 -0.0452  0.6237
    9TMC3    C413993   1.424   4.542  13.236  0.1334  0.0704 -0.0045
    9TMC3    C513994   1.552   4.524  13.292  0.3576 -0.0913  0.0634
    9TMC3    C613995   1.659   4.519  13.208  0.0890 -0.1219 -0.5751
    9TMC3     C13996   1.271   4.579  13.052 -0.4385 -0.5951  0.2832
    9TMC3     O13997   1.169   4.557  13.124  0.1149 -0.1256 -0.1967
    9TMC3     H13998   1.487   4.489  12.912  0.6915  0.6438 -0.3614
    9TMC3    H113999   1.342   4.555  13.307  2.3642  1.6606  2.3023
    9TMC3    H214000   1.760   4.528  13.247 -0.2253 -0.5654  0.3505
    9TMC3    C714001   1.558   4.459  13.426  0.0138 -0.4196  0.2285
    9TMC3    C814002   1.750   4.470  12.987 -0.1252  0.0554  0.1882
    9TMC3    O114003   1.456   4.400  13.462 -0.1558  0.0991  0.2780
    9TMC3    O214004   1.773   4.531  12.884  0.2243 -0.0043  0.4422
   10MPD2     C14005   2.218   4.256  12.975  0.1288  0.1304  0.1871
   10MPD2    C114006   2.159   4.228  13.094  0.4790 -0.5314  0.2366
   10MPD2    C214007   2.021   4.247  13.109  0.1462 -0.6997 -0.2165
   10MPD2    C314008   1.951   4.320  13.010 -0.3394 -0.1017 -0.5592
   10MPD2    C414009   2.019   4.356  12.893 -0.0319 -0.5724  0.5562
   10MPD2    C514010   2.151   4.324  12.879  0.7408  0.1264 -0.0693
   10MPD2     H14011   1.969   4.241  13.204  0.1896 -1.2295 -0.2230
   10MPD2    H114012   1.971   4.400  12.807 -0.3899  1.7800  1.9474
   10MPD2    H214013   2.325   4.244  12.959  0.2080  1.3043 -0.1779
   10MPD2    H314014   2.209   4.351  12.791 -1.3413  0.1602 -1.4157
   10MPD2     N14015   1.817   4.361  13.046 -0.2540  0.4141  0.7985
   10MPD2    H514016   1.779   4.322  13.132 -0.3090  0.3219  0.7328
   10MPD2    N114017   2.231   4.205  13.210  0.3117 -0.4900  0.1374
   10MPD2    H714018   2.175   4.203  13.294  0.2280  2.2097  0.1361
   11MPD2     C14019   3.657   3.891  14.347  0.9922 -0.6603  0.1204
   11MPD2    C114020   3.530   3.886  14.298  0.4551  0.3754  0.7158
   11MPD2    C214021   3.490   3.977  14.202  0.4361 -0.1480 -0.4294
   11MPD2    C314022   3.577   4.072  14.157 -0.2386 -0.7616 -0.1656
   11MPD2    C414023   3.698   4.076  14.210 -0.0846  0.2460 -0.9822
   11MPD2    C514024   3.739   3.984  14.302  0.1651  0.1555  0.3098
   11MPD2     H14025   3.387   3.984  14.168 -0.1410  0.7668  1.5403
   11MPD2    H114026   3.771   4.146  14.173 -0.3102  1.0746  0.1572
   11MPD2    H214027   3.691   3.825  14.426 -0.7012 -1.4311  0.2042
   11MPD2    H314028   3.844   3.991  14.326  0.5388 -2.1769 -0.6400
   11MPD2     N14029   3.526   4.182  14.081 -0.2324  0.2213  0.4138
   11MPD2    H514030   3.585   4.257  14.049  1.3084 -1.5306 -0.8763
   11MPD2    N114031   3.438   3.796  14.340  0.0353 -0.1242  0.4470
   11MPD2    H714032   3.348   3.805  14.295  0.3003 -2.9004 -0.6492
    1MPD1     C14033   2.191   0.976  16.037  0.1824 -0.3438  0.8151
    1MPD1    C114034   2.099   0.895  16.101  0.3213 -0.1175  0.2507
    1MPD1    C214035   1.998   0.944  16.180  0.3979 -0.1878  0.0413
    1MPD1    C314036   2.016   1.073  16.228  0.2533 -0.1773  0.1257
    1MPD1    C414037   2.119   1.149  16.184 -0.2703 -0.3917  0.1286
    1MPD1    C514038   2.197   1.105  16.085  0.0062 -0.0079  0.6799
    1MPD1     H14039   1.918   0.881  16.216  0.8849  0.1220  1.6544
    1MPD1    H114040   2.129   1.245  16.233 -0.3566 -1.0182  1.3826
    1MPD1    H214041   2.267   0.937  15.970 -0.5394  0.8664 -0.7251
    1MPD1    H314042   2.276   1.172  16.052  0.4218 -0.4080  0.8691
    1MPD1     N14043   1.940   1.125  16.343 -0.3945 -0.3604  0.2174
    1MPD1    H514044   1.964   1.220  16.366  0.6145 -0.2580 -1.2460
    1MPD1    N114045   2.092   0.769  16.049  0.4442  0.3962  0.3377
    1MPD1    H614046   2.178   0.739  16.003 -0.7979 -1.1188 -1.0170
    1MPD1    H714047   2.064   0.698  16.116 -1.1439  0.4832 -0.2222
    2MPD1     C14048   2.237   1.617  17.100  0.5157 -0.0536 -0.1188
    2MPD1    C114049   2.102   1.622  17.119 -0.1000 -0.1963 -0.8317
    2MPD1    C214050   2.023   1.545  17.041  0.2997 -0.6010 -0.1347
    2MPD1    C314051   2.071   1.476  16.934  0.0683  0.7217  0.2026
    2MPD1    C414052   2.204   1.487  16.903  0.3244 -0.6296  0.2822
    2MPD1    C514053   2.291   1.548  16.990 -0.2481 -0.2675 -0.7237
    2MPD1     H14054   1.916   1.549  17.056  0.2243  0.6004 -1.0023
    2MPD1    H114055   2.252   1.459  16.810 -0.5400  2.0444 -0.9378
    2MPD1    H214056   2.303   1.671  17.167 -0.5427  1.8834 -0.6475
    2MPD1    H314057   2.394   1.565  16.961  0.2397  1.2923  1.8824
    2MPD1     N14058   1.968   1.407  16.860  0.0404 -0.0736  0.7319
    2MPD1    H514059   1.876   1.404  16.904 -0.4296  1.5636 -0.1597
    2MPD1    N114060   2.046   1.674  17.238  0.9615  0.0745 -0.4679
    2MPD1    H614061   2.086   1.762  17.268  1.1891 -0.2984  0.3320
    2MPD1    H714062   1.947   1.695  17.224  0.7889  1.3567  2.6155
    3TMC3    C114063   1.868   1.285  16.693 -0.7963  0.0335 -0.5826
    3TMC3    C214064   1.768   1.239  16.776 -0.3805 -0.8588 -0.4862
    3TMC3    C314065   1.679   1.150  16.717  0.2876  0.0352  0.3320
    3TMC3    C414066   1.882   1.232  16.563  0.4834 -0.1122  0.2275
    3TMC3    C514067   1.799   1.135  16.523  0.8869  0.5297 -0.1108
    3TMC3    C614068   1.691   1.091  16.598  0.0523  0.2442  1.0739
    3TMC3     C14069   1.991   1.330  16.748 -0.4473  0.5910 -0.0767
    3TMC3     O14070   2.099   1.315  16.691  0.0395 -0.1877  0.5545
    3TMC3     H14071   1.760   1.264  16.881 -3.7236  0.9980 -1.1491
    3TMC3    H114072   1.959   1.283  16.506 -0.2157 -0.0892 -0.6999
    3TMC3    H214073   1.611   1.028  16.562  0.5210  0.4678 -0.3640
    3TMC3    C714074   1.831   1.062  16.404  0.4826 -0.1401 -0.5920
    3TMC3    C814075   1.606   1.077  16.815  0.2555  0.1609 -0.1562
    3TMC3    O114076   1.774   0.951  16.386 -0.1572 -0.2397 -0.0032
    3TMC3    O214077   1.535   1.140  16.890  0.2281 -0.1475 -0.1782
    4MPD1     C14078   1.417   0.639  17.004 -0.3686 -0.3748  0.1698
    4MPD1    C114079   1.532   0.609  16.933  0.3214 -0.1989 -0.2144
    4MPD1    C214080   1.595   0.707  16.862  0.5896 -0.3576 -0.1672
    4MPD1    C314081   1.552   0.838  16.876 -0.3252 -0.5795 -0.0029
    4MPD1    C414082   1.441   0.868  16.953  0.4891  0.3170 -0.1862
    4MPD1    C514083   1.371   0.766  17.007  0.5378 -0.2592  0.3868
    4MPD1     H14084   1.658   0.681  16.778  2.4669  0.3748  1.0229
    4MPD1    H114085   1.401   0.968  16.968  1.8025  1.1212 -2.0417
    4MPD1    H214086   1.360   0.550  17.028  0.1593 -0.9145 -0.5828
    4MPD1    H314087   1.282   0.773  17.068  1.0728  1.1360  1.0009
    4MPD1     N14088   1.625   0.942  16.812  0.3084  0.1693  0.3021
    4MPD1    H514089   1.689   0.911  16.739 -1.3142 -1.0341 -0.6023
    4MPD1    N114090   1.578   0.481  16.910 -0.0243 -0.1548 -0.3822
    4MPD1    H614091   1.677   0.487  16.888  0.0956  1.9911  0.7417
    4MPD1    H714092   1.570   0.427  16.996  2.0739  0.2972  0.0872
    1TCq1    O114093   2.530   0.558  12.625 -0.3384 -0.1758  0.1958
    1TCq1    C114094   2.400   0.519  12.604 -0.6213  0.2032  0.5805
    1TCq1    O214095   2.315   0.535  12.690  0.3192  0.0930  0.7291
    1TCq1    C214096   2.365   0.520  12.461 -0.1323 -0.1940 -0.0689
    1TCq1    C314097   2.444   0.459  12.363  0.3404 -0.2781 -0.2308
    1TCq1    C414098   2.401   0.446  12.233  0.4020 -0.3228 -0.9802
    1TCq1    C514099   2.276   0.488  12.204 -0.8857 -0.2438  0.6191
    1TCq1    C614100   2.204   0.563  12.290 -0.2941  0.3984 -0.0615
    1TCq1    C714101   2.244   0.576  12.423 -0.7411 -0.1595  0.1615
    1TCq1    C814102   2.061   0.589  12.266  0.0159  0.2409  0.1388
    1TCq1    O414103   1.998   0.626  12.359  0.2839  0.2715 -0.0774
    1TCq1    C914104   2.456   0.345  12.145  0.0219  0.8263  0.3245
    1TCq1    O514105   2.367   0.284  12.083 -0.1736 -0.4849  0.1658
    1TCq1    O614106   2.583   0.315  12.153  0.1719  0.1165  0.0797
    1TCq1    H114107   2.604   0.533  12.565  0.6629  3.1352  0.0380
    1TCq1    H214108   2.528   0.396  12.393 -1.9355 -3.0713  0.2599
    1TCq1    H314109   2.238   0.458  12.107 -2.5857  1.9523  0.6187
    1TCq1    H414110   2.191   0.633  12.499 -0.3793  0.5983 -0.1554
    2MPD1     C14111   1.652   0.486  11.958 -0.2834  0.0754 -0.3904
    2MPD1    C114112   1.763   0.513  11.880 -0.9460 -0.4859 -0.0424
    2MPD1    C214113   1.877   0.549  11.945  0.2451  0.1704 -0.1788
    2MPD1    C314114   1.894   0.559  12.083  0.0243 -0.6930 -0.5101
    2MPD1    C414115   1.781   0.557  12.159 -0.5027  0.4573 -0.4676
    2MPD1    C514116   1.662   0.512  12.095  0.0768  0.0484 -0.1804
    2MPD1     H14117   1.968   0.557  11.886  0.2191  1.8977  0.0231
    2MPD1    H114118   1.796   0.569  12.265 -1.0549 -0.6142 -0.2749
    2MPD1    H214119   1.560   0.447  11.913  0.8901 -0.4910 -2.3009
    2MPD1    H314120   1.577   0.493  12.159  0.9192  0.8070  1.1655
    2MPD1     N14121   2.029   0.568  12.130  0.0131  0.1740  0.0870
    2MPD1    H514122   2.094   0.567  12.052  1.2108 -0.9123  1.1099
    2MPD1    N114123   1.771   0.462  11.748 -0.5319  0.7178  0.3155
    2MPD1    H614124   1.676   0.460  11.710 -0.5217  1.7745  0.2180
    2MPD1    H714125   1.828   0.530  11.699 -1.3580 -0.1367 -1.8469
    1TMC1    C114126   0.318   1.722   0.383 -0.2157  0.3949 -0.3406
    1TMC1    C214127   0.369   1.824   0.308 -0.1084 -0.2218  0.2736
    1TMC1    C314128   0.306   1.844   0.181 -0.1752 -0.2162  0.4103
    1TMC1    C414129   0.221   1.630   0.330  0.6058  0.7588  0.1328
    1TMC1    C514130   0.162   1.661   0.213 -0.1690 -0.5572  1.0925
    1TMC1    C614131   0.206   1.769   0.137  0.3040  0.0424 -0.2781
    1TMC1     C14132   0.398   1.697   0.501 -1.3851  0.2226  0.2851
    1TMC1     O14133   0.473   1.782   0.536 -0.4702 -0.3117  0.4140
    1TMC1     H14134   0.446   1.896   0.336 -0.8287  0.2980  0.9392
    1TMC1    H114135   0.185   1.546   0.389  0.6066  0.1722 -0.6894
    1TMC1    H214136   0.175   1.779   0.034  1.1324 -0.0326 -0.5303
    1TMC1    C714137   0.083   1.560   0.143 -0.7837 -0.1232  0.1264
    1TMC1    C814138   0.348   1.962   0.104 -0.2936  0.2035  0.7886
    1TMC1    O114139   0.041   1.588   0.033  0.5473  0.6789 -0.2863
    1TMC1    O214140   0.277   2.004   0.011  0.6151  0.3989  0.3839
    1TMC1    O314141   0.092   1.438   0.201 -0.2261  0.3950  0.4454
    1TMC1    H314142   0.131   1.442   0.291  0.1842  2.6052  0.1530
    1TMC1    O514143   0.480   1.936   0.090 -0.4507 -0.0385  0.2918
    1TMC1    H514144   0.527   1.900   0.168  1.6053  0.3038 -0.8051
    2MPD1     C14145   0.650   1.351   0.772 -0.7344 -0.1979  0.7146
    2MPD1    C114146   0.548   1.289   0.702  0.1619  0.4292  0.4026
    2MPD1    C214147   0.453   1.367   0.637 -0.6071 -0.7517 -0.1496
    2MPD1    C314148   0.467   1.504   0.640  0.3325  0.1988  0.2901
    2MPD1    C414149   0.571   1.570   0.707 -0.0029  0.5206  0.1459
    2MPD1    C514150   0.661   1.488   0.774 -0.7255 -0.1634 -0.3800
    2MPD1     H14151   0.368   1.312   0.597 -0.3847 -1.8860  0.9377
    2MPD1    H114152   0.585   1.677   0.707  2.6678  0.1594 -0.6068
    2MPD1    H214153   0.720   1.296   0.834 -0.1121 -0.9447 -0.6522
    2MPD1    H314154   0.734   1.534   0.839 -0.4187  0.2933 -1.0436
    2MPD1     N14155   0.381   1.570   0.553 -0.0299 -0.3903 -0.0344
    2MPD1    H514156   0.314   1.507   0.511  0.3037  0.3234 -1.6352
    2MPD1    N114157   0.545   1.150   0.699 -0.3835 -0.1342  0.2513
    2MPD1    H614158   0.451   1.112   0.706 -1.0227  1.6407  1.2552
    2MPD1    H714159   0.606   1.098   0.762 -1.6972 -3.0461 -0.8979
    1MPD1     C14160   3.973   0.277  13.208  0.1866 -0.0121 -0.6550
    1MPD1    C114161   3.848   0.275  13.155 -0.5454  1.4372 -0.4014
    1MPD1    C214162   3.824   0.320  13.031 -0.9437 -0.0208  0.6364
    1MPD1    C314163   3.932   0.354  12.951 -0.0100  0.1612 -0.3548
    1MPD1    C414164   4.061   0.326  12.995 -0.9561  0.3896  0.2055
    1MPD1    C514165   4.084   0.299  13.131  0.0154  0.0978 -0.2415
    1MPD1     H14166   3.722   0.338  12.999 -1.8894 -1.5782  2.7837
    1MPD1    H114167   4.148   0.346  12.934 -1.0389  2.8183  0.8793
    1MPD1    H214168   4.001   0.246  13.309  0.7789  1.4777 -0.3604
    1MPD1    H314169   4.184   0.298  13.173  0.0931  0.5555 -0.4072
    1MPD1     N14170   3.903   0.403  12.821  0.2647 -0.3641  0.1530
    1MPD1    H514171   3.810   0.438  12.800 -0.1230 -1.6276 -0.2467
    1MPD1    N114172   3.745   0.255  13.248  0.1673 -0.2576  0.3359
    1MPD1    H614173   3.759   0.175  13.311  0.2025 -1.3288 -1.0284
    1MPD1    H714174   3.658   0.231  13.202  1.4194 -1.7101 -1.3020
    2MPD1     C14175   2.699   1.144  12.165 -0.5356 -0.0722  0.7430
    2MPD1    C114176   2.814   1.085  12.190 -0.0878 -0.3964  0.3689
    2MPD1    C214177   2.860   1.000  12.086 -0.4692  0.3862 -0.0408
    2MPD1    C314178   2.775   0.965  11.981  0.2799 -0.1640 -0.0738
    2MPD1    C414179   2.657   1.030  11.964  0.0654 -0.2112  0.0243
    2MPD1    C514180   2.617   1.112  12.067  0.6101  0.0195 -0.4777
    2MPD1     H14181   2.961   0.961  12.093 -0.6695  0.3994  2.8956
    2MPD1    H114182   2.582   1.008  11.889  0.0637  2.2304 -0.6732
    2MPD1    H214183   2.658   1.212  12.239  0.1861 -0.3719  1.4158
    2MPD1    H314184   2.525   1.171  12.065  0.6068  0.0335  0.0552
    2MPD1     N14185   2.824   0.862  11.889  0.0744  0.1079  0.3588
    2MPD1    H514186   2.914   0.825  11.920 -0.9534 -2.4682  0.2872
    2MPD1    N114187   2.898   1.142  12.285  0.3440  1.2068 -0.5178
    2MPD1    H614188   2.992   1.105  12.295 -0.0090 -0.6839 -4.1597
    2MPD1    H714189   2.853   1.183  12.367  0.1283 -1.7306  0.8273
    3MPD1     C14190   2.872   0.291  10.946 -1.0504  0.7413  0.5386
    3MPD1    C114191   2.948   0.406  10.932 -0.2174 -0.5483 -0.6550
    3MPD1    C214192   2.949   0.497  11.041 -0.2243 -0.5021 -0.9344
    3MPD1    C314193   2.873   0.479  11.155 -0.1689 -0.4405  0.5811
    3MPD1    C414194   2.798   0.362  11.163 -0.0316 -0.2752 -0.6980
    3MPD1    C514195   2.797   0.267  11.059  0.0270 -0.3236  0.1117
    3MPD1     H14196   3.015   0.582  11.024 -0.0796 -0.4600 -0.1714
    3MPD1    H114197   2.732   0.337  11.245 -1.1224  0.7089 -1.2589
    3MPD1    H214198   2.852   0.224  10.863  4.4239 -0.2677  0.0497
    3MPD1    H314199   2.747   0.172  11.076 -2.7910  0.7854 -2.0245
    3MPD1     N14200   2.889   0.572  11.259 -0.2771  0.5555  0.3666
    3MPD1    H514201   2.969   0.634  11.244  0.4478 -1.0758 -2.4869
    3MPD1    N114202   3.044   0.406  10.834  0.7444 -0.3278 -0.5450
    3MPD1    H614203   3.009   0.359  10.750  0.2304 -0.8977 -0.0115
    3MPD1    H714204   3.070   0.498  10.801  1.4771 -0.3116  0.0960
    4MPD2     C14205   3.685   0.985  12.344  0.3388 -0.4414 -0.2110
    4MPD2    C114206   3.782   0.903  12.304 -0.2142  0.2662  0.5372
    4MPD2    C214207   3.847   0.929  12.186  0.8270 -0.0556 -1.1131
    4MPD2    C314208   3.826   1.047  12.113 -0.5656 -0.2388  0.3569
    4MPD2    C414209   3.727   1.132  12.151 -0.0104 -0.6682 -0.4414
    4MPD2    C514210   3.663   1.097  12.269 -0.0117  0.4269  0.3875
    4MPD2     H14211   3.912   0.847  12.156  2.1391  0.8844 -0.8279
    4MPD2    H114212   3.708   1.216  12.086  0.0897  0.8311  1.4791
    4MPD2    H214213   3.617   0.967  12.427  1.0463 -0.1987  0.4192
    4MPD2    H314214   3.580   1.153  12.309 -0.4096 -0.0487  0.2347
    4MPD2     N14215   3.879   1.064  11.985  0.0556  0.1569 -0.3209
    4MPD2    H514216   3.844   1.141  11.929 -0.6182  2.7195  3.6226
    4MPD2    N114217   3.812   0.777  12.366 -0.1881  0.0946 -0.1590
    4MPD2    H714218   3.877   0.711  12.324 -0.2692  1.0490 -1.7843
    5TMC3    C114219   3.794   0.583  12.482 -1.4065 -0.4570 -0.7257
    5TMC3    C214220   3.834   0.542  12.602  0.3732  0.5185 -0.5245
    5TMC3    C314221   3.933   0.443  12.595  0.1421 -0.1917 -0.3309
    5TMC3    C414222   3.840   0.531  12.359  0.5259  0.2858  0.2304
    5TMC3    C514223   3.928   0.426  12.361 -0.1900 -0.6474 -0.2577
    5TMC3    C614224   3.977   0.385  12.479 -0.5759 -0.0014  0.2960
    5TMC3     C14225   3.754   0.723  12.477 -0.0569 -0.2413 -0.2781
    5TMC3     O14226   3.671   0.764  12.556 -0.1179 -0.0331 -0.1472
    5TMC3     H14227   3.826   0.604  12.691  0.5966 -1.5746  0.9501
    5TMC3    H114228   3.778   0.553  12.273 -0.0793 -0.4934  0.4699
    5TMC3    H214229   4.032   0.292  12.489 -0.8930 -0.3250 -1.0424
    5TMC3    C714230   3.988   0.370  12.242  0.1464  0.2128 -0.0738
    5TMC3    C814231   3.992   0.393  12.713 -0.0650 -0.4689  0.8384
    5TMC3    O114232   4.072   0.283  12.252 -0.3358  0.3754  0.1193
    5TMC3    O214233   4.101   0.336  12.712  0.1342 -0.1726 -0.0488
    6TMC3    C114234   2.857   0.768  11.676  0.3676 -0.5243 -0.6626
    6TMC3    C214235   2.801   0.701  11.572  0.1712  0.5206  0.0506
    6TMC3    C314236   2.885   0.661  11.470 -0.2356  0.5450  0.2462
    6TMC3    C414237   2.989   0.782  11.687 -0.2285  0.3470 -0.8645
    6TMC3    C514238   3.063   0.754  11.583 -0.1537  0.0289 -0.3533
    6TMC3    C614239   3.017   0.693  11.464 -0.7999 -0.1742  0.2715
    6TMC3     C14240   2.768   0.834  11.766 -0.0389  0.1860 -0.5225
    6TMC3     O14241   2.652   0.856  11.725  0.3342 -0.0236 -0.0689
    6TMC3     H14242   2.693   0.694  11.558  0.0789  1.9016 -0.0138
    6TMC3    H114243   3.035   0.845  11.763  0.9192 -0.6756 -0.7287
    6TMC3    H214244   3.090   0.643  11.400 -0.8683  0.8180 -0.5790
    6TMC3    C714245   3.198   0.803  11.577 -0.0720 -1.0158 -0.2909
    6TMC3    C814246   2.821   0.576  11.373 -0.6472 -0.1989  0.6413
    6TMC3    O114247   3.271   0.785  11.673 -0.0862  0.0785 -0.3081
    6TMC3    O214248   2.725   0.512  11.411 -0.3031 -0.1417  0.3342
    7MPD2     C14249   4.155   0.474  11.769  0.0277  0.3431 -0.7334
    7MPD2    C114250   4.094   0.583  11.820  0.1486  0.1622  0.1660
    7MPD2    C214251   4.034   0.570  11.944 -0.5227 -0.0650  0.2544
    7MPD2    C314252   4.030   0.454  12.017  0.5055 -0.6879  0.1666
    7MPD2    C414253   4.096   0.340  11.964 -0.4250 -0.1981  0.1386
    7MPD2    C514254   4.154   0.354  11.844  0.0123 -0.0333 -0.1687
    7MPD2     H14255   3.986   0.658  11.985 -1.0915 -0.5551  0.6498
    7MPD2    H114256   4.096   0.242  12.009  0.2949 -0.7267 -1.0171
    7MPD2    H214257   4.211   0.474  11.677 -1.0535  0.0867 -1.3927
    7MPD2    H314258   4.196   0.262  11.806 -3.1177 -0.3189 -2.9534
    7MPD2     N14259   3.973   0.461  12.142 -0.1190  0.5230  0.2327
    7MPD2    H514260   3.927   0.546  12.171 -0.4614  0.3366  0.2462
    7MPD2    N114261   4.107   0.716  11.771 -0.2163 -0.8528 -0.3565
    7MPD2    H714262   4.060   0.784  11.829  1.0143  0.8207 -1.3324
    8TMC3    C114263   4.119   0.899  11.637 -1.0019  0.1428 -0.2198
    8TMC3    C214264   4.032   0.934  11.541 -0.3167 -0.1919 -0.8343
    8TMC3    C314265   3.922   1.007  11.585 -0.2267 -0.3350 -0.3061
    8TMC3    C414266   4.124   0.952  11.761  0.1321 -0.0438  0.4245
    8TMC3    C514267   4.012   1.024  11.799 -0.0717  0.2096  0.2729
    8TMC3    C614268   3.910   1.058  11.711  0.7012  0.1418  0.6013
    8TMC3     C14269   4.139   0.757  11.646  0.0167 -0.8514  0.2985
    8TMC3     O14270   4.151   0.691  11.541 -0.3925  0.0054  0.3292
    8TMC3     H14271   4.035   0.885  11.444 -1.2721  0.6730 -1.2949
    8TMC3    H114272   4.207   0.926  11.826 -0.0986  2.3175  1.6768
    8TMC3    H214273   3.814   1.102  11.735  0.7120  0.7697 -0.5176
    8TMC3    C714274   3.981   0.990  11.935  0.1834 -0.4148  0.2078
    8TMC3    C814275   3.814   1.020  11.484 -0.2171  0.2809 -0.5256
    8TMC3    O114276   4.045   0.899  11.981  0.0101  0.1441  0.4898
    8TMC3    O214277   3.849   1.048  11.367  0.1537  0.2527  0.3790
    9MPD2     C14278   3.566   1.058  11.333 -0.6210 -0.3529 -1.2374
    9MPD2    C114279   3.571   1.010  11.459 -0.2177 -0.4189  0.0690
    9MPD2    C214280   3.455   0.952  11.506 -0.4415 -0.1265  0.0034
    9MPD2    C314281   3.346   0.933  11.423  0.7289 -0.7579 -0.7133
    9MPD2    C414282   3.342   0.975  11.292 -0.0534  0.2835  0.0091
    9MPD2    C514283   3.453   1.047  11.251  0.2954  0.1568  0.2789
    9MPD2     H14284   3.459   0.920  11.609 -0.7762  0.0403  0.0695
    9MPD2    H114285   3.259   0.966  11.223  1.0249 -2.0342 -0.9795
    9MPD2    H214286   3.651   1.114  11.296 -0.7069 -0.8417 -2.1871
    9MPD2    H314287   3.459   1.087  11.151 -2.7847  1.5236  0.6286
    9MPD2     N14288   3.228   0.866  11.456  0.2558  0.4035  0.0195
    9MPD2    H514289   3.160   0.877  11.382  0.5958  0.0955 -0.3390
    9MPD2    N114290   3.691   1.011  11.544 -0.5306  0.2761  0.0328
    9MPD2    H714291   3.693   0.985  11.642 -1.1504  1.6058  0.3920
    1MPD1     C14292   3.897   4.235  16.159 -0.0222  0.5423  0.4969
    1MPD1    C114293   3.950   4.261  16.286 -0.1856 -0.2601 -0.4204
    1MPD1    C214294   3.939   4.164  16.377  0.6525  0.7140  0.0384
    1MPD1    C314295   3.865   4.047  16.356  0.0878 -0.2560  0.9164
    1MPD1    C414296   3.808   4.025  16.238 -0.2044 -0.0718  0.1275
    1MPD1    C514297   3.829   4.120  16.142  0.9525 -0.4262 -0.0268
    1MPD1     H14298   3.993   4.183  16.469 -0.1340 -0.8956  0.8234
    1MPD1    H114299   3.756   3.931  16.224  0.8854 -0.2412 -2.9481
    1MPD1    H214300   3.907   4.301  16.073 -2.4166 -1.4514 -1.3035
    1MPD1    H314301   3.791   4.092  16.044 -0.3374  1.4643 -0.0578
    1MPD1     N14302   3.828   3.955  16.452  0.2707 -0.5253 -0.2611
    1MPD1    H514303   3.763   3.881  16.429  0.6742 -1.1432  0.5617
    1MPD1    N114304   4.035   4.373  16.302 -0.5097  0.1763  0.0162
    1MPD1    H614305   4.054   4.392  16.401 -1.7067  1.1603  0.0636
    1MPD1    H714306   4.004   4.461  16.261  0.7535  1.8629  2.6696
    2TMC2    C114307   3.781   3.597  16.605 -0.4789  0.1224  0.3158
    2TMC2    C214308   3.881   3.548  16.682  0.5363  0.5306  0.5048
    2TMC2    C314309   3.985   3.619  16.717  0.6330  0.8525  1.5361
    2TMC2    C414310   3.776   3.728  16.566  0.1375 -0.3572  0.1146
    2TMC2    C514311   3.879   3.802  16.615  0.1814  0.0508 -0.4051
    2TMC2    C614312   3.975   3.756  16.699  0.1627  0.2532  0.0876
    2TMC2     C14313   3.665   3.513  16.604  0.0563  0.5725 -0.3053
    2TMC2     O14314   3.672   3.411  16.670  0.5185  0.2487 -0.4775
    2TMC2     H14315   3.892   3.441  16.696  4.1196  0.6499 -1.5172
    2TMC2    H114316   3.678   3.773  16.568  0.1097 -0.5629  3.5575
    2TMC2    H214317   4.053   3.820  16.737  1.1262 -1.4627  1.0270
    2TMC2    C714318   3.901   3.935  16.570  0.4625  0.2366  0.1652
    2TMC2    C814319   4.066   3.555  16.817  0.4653 -0.2296  0.8731
    2TMC2    O114320   4.000   3.996  16.618  0.0811 -0.1490  0.2463
    2TMC2    O214321   4.025   3.465  16.892 -0.3029 -0.7091 -0.0136
    2TMC2    O514322   4.196   3.598  16.810 -0.4046  0.6267  0.2355
    2TMC2    H514323   4.216   3.655  16.733 -0.1516 -0.3516 -0.4114
    3MPD1     C14324   3.157   3.418  16.556 -0.4722  0.2446  0.1338
    3MPD1    C114325   3.199   3.488  16.444 -0.0379  0.2579  0.0917
    3MPD1    C214326   3.331   3.523  16.435 -0.7142 -0.2289 -0.5703
    3MPD1    C314327   3.433   3.489  16.525 -0.0574  0.0276 -0.2051
    3MPD1    C414328   3.390   3.421  16.636 -0.4849 -0.5426  0.0962
    3MPD1    C514329   3.256   3.391  16.654  0.3344  0.5078  0.6610
    3MPD1     H14330   3.357   3.571  16.341  3.4101 -0.6365  0.3624
    3MPD1    H114331   3.461   3.410  16.717  1.6542 -2.5891 -2.0280
    3MPD1    H214332   3.059   3.374  16.572 -1.0846  2.0527  1.2828
    3MPD1    H314333   3.228   3.345  16.748 -0.3582 -1.1892 -0.3654
    3MPD1     N14334   3.563   3.545  16.513  0.0375  0.0494 -0.3231
    3MPD1    H514335   3.580   3.618  16.444 -0.1125  0.7979  0.4244
    3MPD1    N114336   3.100   3.507  16.339  0.4838  0.2281 -0.5004
    3MPD1    H614337   3.121   3.580  16.271  0.9545  1.2456  0.7352
    3MPD1    H714338   3.004   3.501  16.372  1.0075  1.0292  1.1198
    1TMC1    C114339   1.782   3.054  13.166  0.2583 -0.7450 -0.5028
    1TMC1    C214340   1.674   3.041  13.252 -0.2098 -0.3439  0.1355
    1TMC1    C314341   1.561   2.973  13.210 -0.2460  0.1430 -0.4324
    1TMC1    C414342   1.772   3.007  13.036 -0.0629  0.1976 -0.1346
    1TMC1    C514343   1.656   2.943  12.998 -0.1477 -0.3598  0.5908
    1TMC1    C614344   1.554   2.913  13.083 -0.9212 -0.1308  0.4251
    1TMC1     C14345   1.866   3.167  13.187 -0.3252 -0.6802 -0.4119
    1TMC1     O14346   1.846   3.269  13.120  0.1826 -0.5654 -0.1142
    1TMC1     H14347   1.681   3.070  13.356 -2.5772 -0.3397  0.2993
    1TMC1    H114348   1.856   3.009  12.968 -0.4508 -3.3227 -0.7187
    1TMC1    H214349   1.475   2.843  13.059  0.6056 -1.1761 -1.4705
    1TMC1    C714350   1.666   2.868  12.875 -0.0313  0.8282  0.2460
    1TMC1    C814351   1.457   2.948  13.303  0.4062 -0.2165 -0.3181
    1TMC1    O114352   1.770   2.845  12.812  0.0712 -0.1702 -0.2361
    1TMC1    O214353   1.394   2.842  13.290  0.0272 -0.1274 -0.8473
    1TMC1    O314354   1.545   2.850  12.828 -0.2550 -0.3694 -0.4879
    1TMC1    H314355   1.491   2.906  12.887  2.0182  1.0746  0.2335
    1TMC1    O514356   1.453   3.051  13.400 -0.7991 -0.1929 -0.3964
    1TMC1    H514357   1.474   3.136  13.356 -0.5815 -0.6397 -1.1632
    2MPD2     C14358   2.067   3.367  13.275  0.4697  0.3125  0.2155
    2MPD2    C114359   2.039   3.249  13.342  0.6179 -0.2839 -0.2758
    2MPD2    C214360   2.092   3.236  13.469  0.1109 -0.1633 -0.8654
    2MPD2    C314361   2.191   3.324  13.520  0.3681 -0.0047 -0.1052
    2MPD2    C414362   2.204   3.441  13.461 -0.2082  0.2335  0.1400
    2MPD2    C514363   2.149   3.461  13.340 -0.2468  0.9167  0.4222
    2MPD2     H14364   2.069   3.147  13.527  1.4766  0.5163  0.7112
    2MPD2    H114365   2.278   3.518  13.478  0.8522 -0.9036  0.6508
    2MPD2    H214366   2.024   3.383  13.176  0.3091 -1.5233 -0.0102
    2MPD2    H314367   2.175   3.557  13.298  0.4489  0.2695 -0.6334
    2MPD2     N14368   2.261   3.287  13.637  0.2801 -0.4233  0.5232
    2MPD2    H514369   2.245   3.190  13.663  0.0132 -0.1578  1.3410
    2MPD2    N114370   1.937   3.158  13.302 -0.5004 -0.5119  0.2603
    2MPD2    H714371   1.922   3.083  13.369 -1.4653 -0.2176  0.3693
    3TCq1    O114372   2.368   3.398  14.201  0.0096 -0.3979 -0.5413
    3TCq1    C114373   2.336   3.270  14.184 -0.4693  0.1737 -0.6859
    3TCq1    O214374   2.343   3.186  14.273  0.2011  0.0004  0.1891
    3TCq1    C214375   2.390   3.253  14.052  0.2647 -0.6380 -0.6934
    3TCq1    C314376   2.480   3.152  14.033 -0.3359  0.1332 -0.5918
    3TCq1    C414377   2.524   3.124  13.906 -0.9371  0.8009  0.2149
    3TCq1    C514378   2.476   3.195  13.798 -0.2951  0.6334 -0.3326
    3TCq1    C614379   2.382   3.291  13.832 -0.0245  0.2472 -0.6471
    3TCq1    C714380   2.343   3.333  13.953 -0.2108 -0.5653 -0.0399
    3TCq1    C814381   2.322   3.372  13.725  0.2133  0.2189  0.2973
    3TCq1    O414382   2.337   3.492  13.717  0.0580  0.0469 -0.9677
    3TCq1    C914383   2.615   3.014  13.874 -0.4574  0.1043  1.0126
    3TCq1    O514384   2.643   2.994  13.746  0.3011  0.1321 -0.1473
    3TCq1    O614385   2.674   2.966  13.971  0.4781 -0.3691 -0.1045
    3TCq1    H114386   2.408   3.433  14.118  1.2335 -0.1333  0.1587
    3TCq1    H214387   2.513   3.091  14.116 -1.3669 -0.6601 -0.7679
    3TCq1    H314388   2.508   3.169  13.697  0.9595  0.1408  0.1948
    3TCq1    H414389   2.263   3.404  13.969 -1.2630 -1.2994 -2.1289
    1MPD2     C14390   1.609   3.930  15.287  0.1297  0.0974  0.4606
    1MPD2    C114391   1.518   3.829  15.294  0.6506  0.5017  0.3657
    1MPD2    C214392   1.564   3.703  15.329  0.6769 -0.0510 -0.5331
    1MPD2    C314393   1.704   3.682  15.335  0.8279 -0.1832  0.0704
    1MPD2    C414394   1.795   3.787  15.324 -0.1055  0.6121 -0.9978
    1MPD2    C514395   1.744   3.908  15.293  0.2289  0.1854  0.5039
    1MPD2     H14396   1.491   3.623  15.323  0.0055  0.6531 -1.7920
    1MPD2    H114397   1.903   3.777  15.323 -0.2203 -0.7094  0.4935
    1MPD2    H214398   1.572   4.029  15.262 -0.5877 -0.4436 -0.6412
    1MPD2    H314399   1.803   3.999  15.295  1.0416 -0.3504  0.9610
    1MPD2     N14400   1.751   3.551  15.360 -0.3168  0.2157 -0.6079
    1MPD2    H514401   1.848   3.529  15.337 -0.5571 -1.0638 -0.3527
    1MPD2    N114402   1.381   3.850  15.270 -0.5830  0.2894  0.2374
    1MPD2    H714403   1.364   3.943  15.231 -0.7109  0.1183 -0.1188
    2TMC3    C114404   1.148   3.806  15.247 -0.0533  0.1815  0.2041
    2TMC3    C214405   1.047   3.716  15.254  0.0572  0.3004 -0.2531
    2TMC3    C314406   0.943   3.720  15.164  0.9255 -0.3168 -0.4500
    2TMC3    C414407   1.131   3.920  15.174 -0.3774 -0.2706 -0.3566
    2TMC3    C514408   1.023   3.920  15.095 -0.2646  0.3456 -0.1799
    2TMC3    C614409   0.934   3.814  15.079  0.9904 -0.0528  0.3420
    2TMC3     C14410   1.275   3.761  15.294 -0.0823 -0.1427  0.0231
    2TMC3     O14411   1.280   3.644  15.319  0.4056  0.1132 -0.0034
    2TMC3     H14412   1.066   3.628  15.315  1.0203 -0.2527 -1.3558
    2TMC3    H114413   1.199   4.002  15.192 -2.3827  1.5846 -1.2347
    2TMC3    H214414   0.856   3.826  15.005  0.8266  0.7246  0.6375
    2TMC3    C714415   0.974   4.049  15.046 -0.6016  0.2902 -0.4523
    2TMC3    C814416   0.943   3.604  15.082 -0.4358 -0.7929 -0.4491
    2TMC3    O114417   0.854   4.042  15.022  0.4760  0.0368 -0.5688
    2TMC3    O214418   0.857   3.586  14.997 -0.4269 -1.0128 -0.2431
    3TCq1    O114419   1.464   0.263  14.424 -0.3129  0.5233  0.3364
    3TCq1    C114420   1.382   0.303  14.524 -0.3172 -0.4790  0.7020
    3TCq1    O214421   1.267   0.336  14.496  0.0992  0.3815  0.1212
    3TCq1    C214422   1.403   0.204  14.628 -0.1822 -0.1850 -0.7640
    3TCq1    C314423   1.510   0.208  14.714 -0.1793  0.1947  0.2754
    3TCq1    C414424   1.511   0.140  14.832  0.3615 -0.4097 -0.0437
    3TCq1    C514425   1.403   0.065  14.865  0.2732 -0.4373  0.2796
    3TCq1    C614426   1.289   0.073  14.788 -0.8157 -0.3828  0.7146
    3TCq1    C714427   1.289   0.141  14.673 -0.0374 -0.0760 -0.9849
    3TCq1    C814428   1.175   4.720  14.811  0.1043 -0.2392  0.9831
    3TCq1    O414429   1.069   0.010  14.751  0.0635 -0.1493 -0.1927
    3TCq1    C914430   1.635   0.139  14.911  0.8223  0.9852 -0.4116
    3TCq1    O514431   1.626   0.121  15.037  0.6421 -0.0003 -0.2856
    3TCq1    O614432   1.743   0.144  14.849 -0.1905 -0.1988 -0.1372
    3TCq1    H114433   1.551   0.225  14.447 -0.7830 -0.2841  0.7687
    3TCq1    H214434   1.587   0.279  14.690  0.0027 -0.1353 -0.1082
    3TCq1    H314435   1.406   0.004  14.955 -0.8482  0.0077  0.6303
    3TCq1    H414436   1.205   0.126  14.607 -1.0151  0.5132  0.1107
    4MPD2     C14437   0.970   4.546  14.907 -1.4729 -0.3595  0.2445
    4MPD2    C114438   1.102   4.515  14.925  0.2664 -0.1440  0.1957
    4MPD2    C214439   1.132   4.390  14.982  0.3740 -0.4192  0.2439
    4MPD2    C314440   1.044   4.281  14.980 -0.6620 -0.3892 -0.6498
    4MPD2    C414441   0.916   4.322  14.944 -0.4403  0.2111 -0.6858
    4MPD2    C514442   0.876   4.451  14.920 -0.6658  0.2573  0.1204
    4MPD2     H14443   1.237   4.372  15.006  1.5597  2.4505 -2.8782
    4MPD2    H114444   0.840   4.246  14.940  0.5645 -0.7644 -1.2265
    4MPD2    H214445   0.942   4.650  14.897 -0.8681 -0.2693 -0.5089
    4MPD2    H314446   0.773   4.467  14.893 -1.7147 -2.6100  2.3852
    4MPD2     N14447   1.068   4.150  15.036 -0.4002  0.2067 -0.6503
    4MPD2    H514448   1.165   4.135  15.059 -1.5339 -1.9535  2.6299
    4MPD2    N114449   1.201   4.610  14.892 -0.1645  0.1147  0.3684
    4MPD2    H714450   1.298   4.587  14.910 -0.4700 -0.3420  1.4079
    5TMC2    C114451   1.629   3.228  15.134  0.1877 -0.6321  0.1030
    5TMC2    C214452   1.576   3.120  15.196  0.1669 -0.4016  0.6237
    5TMC2    C314453   1.572   3.114  15.331 -0.1540  0.2911  0.2057
    5TMC2    C414454   1.699   3.318  15.209 -0.0715 -0.6730  0.7034
    5TMC2    C514455   1.685   3.323  15.344  1.0016 -0.3730 -0.3107
    5TMC2    C614456   1.615   3.221  15.408 -0.1777  0.4449  0.0201
    5TMC2     C14457   1.516   3.300  15.075 -0.5811 -0.6783 -0.1849
    5TMC2     O14458   1.516   3.421  15.067 -0.2374 -0.5239  0.1527
    5TMC2     H14459   1.541   3.032  15.142  0.1688 -2.0471  3.3209
    5TMC2    H114460   1.722   3.411  15.158  0.5466 -0.2783  1.6964
    5TMC2    H214461   1.593   3.229  15.514 -0.4369  0.3737 -0.0286
    5TMC2    C714462   1.669   3.454  15.409 -0.4169  0.0308 -0.6254
    5TMC2    C814463   1.466   3.040  15.393 -0.3595 -0.6550 -0.5123
    5TMC2    O114464   1.580   3.467  15.494 -0.4299  1.5723 -0.0768
    5TMC2    O214465   1.477   2.919  15.382  0.1126  0.4552 -0.1272
    5TMC2    O514466   1.353   3.114  15.367  0.1859 -0.3869  0.1553
    5TMC2    H514467   1.370   3.210  15.378  2.3090 -0.5065 -2.1347
    6MPD2     C14468   1.034   3.350  14.941 -0.0929  0.4040  0.0528
    6MPD2    C114469   1.110   3.423  15.026 -0.2072 -0.1235  0.0800
    6MPD2    C214470   1.234   3.376  15.053  0.0066  0.8498 -0.4607
    6MPD2    C314471   1.288   3.254  15.004  0.0580  0.0684  0.2778
    6MPD2    C414472   1.206   3.183  14.922 -0.4253  0.1220  0.4239
    6MPD2    C514473   1.086   3.233  14.894  0.4218  0.0679  0.1652
    6MPD2     H14474   1.286   3.423  15.136  1.9733 -0.5286 -0.9247
    6MPD2    H114475   1.241   3.093  14.873  0.4746  0.4596  0.4450
    6MPD2    H214476   0.934   3.378  14.909 -0.6322  2.9144  3.9486
    6MPD2    H314477   1.031   3.195  14.809  1.1277  1.3000 -0.8303
    6MPD2     N14478   1.422   3.213  15.028 -0.1560 -0.2138 -0.1912
    6MPD2    H514479   1.447   3.120  14.994 -0.7658 -0.1378 -0.8521
    6MPD2    N114480   1.063   3.536  15.097  0.5774  0.4970 -0.3322
    6MPD2    H714481   1.126   3.568  15.170 -0.0470  1.5563 -0.2583
  945NH4     N114482   0.843   0.176   8.974  0.3352  0.1077 -0.5238
  945NH4     H214483   0.822   0.131   8.883 -2.8359  0.7547 -0.1084
  945NH4     H314484   0.755   0.165   9.029 -0.9238  0.5395 -2.4601
  945NH4     H414485   0.863   0.274   8.948  1.6344 -0.4631 -1.6859
  945NH4     H514486   0.924   0.130   9.021  0.2714  1.2172  0.6618
  946SOD     NA14487   3.128   3.721   7.202 -0.9072  0.1519 -0.2033
  947SOD     NA14488   3.870   2.712  17.316 -0.0408  0.7561  0.3743
  948SOD     NA14489   4.310   1.816  13.569 -0.2586 -0.0130 -0.0262
  949SOD     NA14490   0.951   1.542  16.097 -0.3137  0.2485 -0.1613
  950SOD     NA14491   3.103   1.219   2.546 -0.5046  0.6644  0.2753
  951SOD     NA14492   1.929   2.460   4.112 -0.6247  0.1295 -0.1518
  952SOD     NA14493   2.062   4.594  12.541 -0.0991  0.1476  0.4455
  953SOL     OW14494   0.638   4.613   6.591 -0.6353 -0.7624  0.3799
  953SOL    HW114495   0.603   4.691   6.634 -0.9065 -0.3496 -0.5965
  953SOL    HW214496   0.695   4.580   6.661  0.8565  0.8967 -0.0671
  954SOL     OW14497   3.705   3.335   4.567 -0.1429  0.0122  0.0788
  954SOL    HW114498   3.752   3.371   4.492 -2.4761  0.1445 -1.3017
  954SOL    HW214499   3.748   3.393   4.630  1.1384 -0.7971 -0.0559
  955SOL     OW14500   3.092   2.087   8.761 -0.1715  0.2576 -0.5512
  955SOL    HW114501   3.062   1.997   8.766 -1.0648  0.7061  2.3536
  955SOL    HW214502   3.029   2.135   8.707 -3.6820 -1.8394  1.6770
  956SOL     OW14503   2.119   1.491   0.132 -0.3388  0.4382 -0.2736
  956SOL    HW114504   2.057   1.539   0.188  0.7033  0.6231  0.7320
  956SOL    HW214505   2.109   1.544   0.053 -0.9662 -0.8464 -1.0481
  957SOL     OW14506   1.306   3.647   1.275  0.5696  0.2308 -0.2149
  957SOL    HW114507   1.231   3.681   1.226  0.2246 -0.3588 -0.0883
  957SOL    HW214508   1.267   3.633   1.361 -1.4554 -0.6676 -1.2905
  958SOL     OW14509   3.439   0.193   5.465 -1.1969 -0.1560  0.0895
  958SOL    HW114510   3.435   0.097   5.469  1.4290 -0.1209  3.1277
  958SOL    HW214511   3.437   0.228   5.554  1.4958 -1.3193  0.6047
  959SOL     OW14512   1.673   1.243   5.189  0.1991  0.5347 -0.5853
  959SOL    HW114513   1.715   1.162   5.215 -0.7441  0.2994  0.2182
  959SOL    HW214514   1.650   1.275   5.276  0.9596  0.0355 -0.2100
  960SOL     OW14515   2.262   4.586   8.594 -0.2415  0.2743  0.0980
  960SOL    HW114516   2.254   4.568   8.500 -0.5949  2.4808 -0.3003
  960SOL    HW214517   2.257   4.681   8.581 -3.0529 -0.0513 -1.2591
  961SOL     OW14518   0.213   1.686   1.895  0.4213 -0.0236  0.2724
  961SOL    HW114519   0.290   1.742   1.889  0.7569 -0.6096 -0.9660
  961SOL    HW214520   0.229   1.612   1.836  1.2987  0.9874 -0.7608
  962SOL     OW14521   3.668   2.529   6.326  0.3777 -0.8025  0.8672
  962SOL    HW114522   3.732   2.474   6.371  1.7790 -0.9271 -1.2800
  962SOL    HW214523   3.696   2.518   6.235 -0.1719  0.3272  0.5614
  963SOL     OW14524   1.277   0.182   0.801  0.0481 -0.5383  0.1560
  963SOL    HW114525   1.188   0.218   0.800  0.7444  1.1044 -0.9205
  963SOL    HW214526   1.309   0.205   0.714  0.1763 -0.1825  0.3007
  964SOL     OW14527   0.152   2.558   8.228  0.1506 -0.1357 -0.1337
  964SOL    HW114528   0.136   2.634   8.172  2.7487  0.7438  0.3414
  964SOL    HW214529   0.202   2.578   8.308  2.0114 -2.6448 -0.6662
  965SOL     OW14530   3.092   2.823   9.886  0.1114 -0.1065  0.2586
  965SOL    HW114531   3.124   2.735   9.864  1.1704  0.1065  0.9273
  965SOL    HW214532   3.166   2.876   9.859  1.7167 -2.0733  0.7431
  966SOL     OW14533   4.060   2.790   8.427  0.4187  0.2002 -0.2730
  966SOL    HW114534   4.136   2.738   8.454 -1.4193 -1.1005  2.4435
  966SOL    HW214535   4.086   2.845   8.353  0.3943  1.2533  0.5030
  967SOL     OW14536   4.310   3.623  16.043 -0.3802  0.0654 -0.4879
  967SOL    HW114537   4.231   3.617  15.989 -1.9470  1.1713  1.7087
  967SOL    HW214538   4.374   3.666  15.986 -0.6976 -0.3103 -1.1380
  968SOL     OW14539   2.636   2.345   3.402  0.2985  0.4677 -0.8479
  968SOL    HW114540   2.637   2.265   3.348  0.0454  0.9389 -1.5467
  968SOL    HW214541   2.541   2.350   3.399  0.2182  0.4803  2.6102
  969SOL     OW14542   4.445   3.795   6.056  0.5171 -0.0682 -0.8288
  969SOL    HW114543   4.373   3.850   6.088  0.3774  0.5914 -2.2713
  969SOL    HW214544   4.432   3.713   6.103  0.1687  1.6793  2.0870
  970SOL     OW14545   4.484   3.044   4.319 -0.3302  0.0373  0.3074
  970SOL    HW114546   4.556   3.098   4.287 -1.4237  0.5981 -1.2239
  970SOL    HW214547   4.415   3.110   4.329  1.5673  1.8220  1.4715
  971SOL     OW14548   0.280   0.556  11.368  0.3756  0.1579 -0.8193
  971SOL    HW114549   0.372   0.558  11.392 -0.2365  1.1110  1.4681
  971SOL    HW214550   0.252   0.643  11.396  1.8656 -0.1139  1.4669
  972SOL     OW14551   2.112   0.253   2.713 -0.1721 -0.9145  0.6365
  972SOL    HW114552   2.087   0.265   2.621  0.3132  0.4056  0.6822
  972SOL    HW214553   2.089   0.336   2.754 -2.1011  0.4027 -3.1403
  973SOL     OW14554   2.738   0.991   1.184 -0.1856 -0.2425  0.5349
  973SOL    HW114555   2.748   1.056   1.254 -1.5389  0.6094 -0.0500
  973SOL    HW214556   2.646   0.965   1.190 -0.0962 -0.6772 -0.0471
  974SOL     OW14557   0.099   1.562   3.992 -0.5980 -0.7152  0.3843
  974SOL    HW114558   0.172   1.589   4.048 -0.9951  1.2750 -0.0560
  974SOL    HW214559   0.127   1.479   3.953  0.0722 -1.2536  2.0027
  975SOL     OW14560   4.082   3.169   9.975 -0.3744  1.2361  0.2282
  975SOL    HW114561   4.130   3.184  10.056 -0.4736 -0.9440  0.7049
  975SOL    HW214562   4.041   3.250   9.946 -0.3416  1.2214  0.1406
  976SOL     OW14563   0.860   2.238  10.144 -0.4034  0.5573 -0.2835
  976SOL    HW114564   0.823   2.276  10.223 -1.8682 -1.9203  0.1992
  976SOL    HW214565   0.860   2.309  10.079  1.4890  1.7893  1.0741
  977SOL     OW14566   0.424   4.219   8.816  0.3538 -0.9124 -0.0557
  977SOL    HW114567   0.414   4.310   8.788  1.3726 -0.2749  1.6691
  977SOL    HW214568   0.485   4.232   8.888  2.9309 -0.2793 -2.3657
  978SOL     OW14569   0.139   1.285   9.549 -0.2635  0.0394  0.0135
  978SOL    HW114570   0.125   1.377   9.573 -1.0362 -0.1008  0.0935
  978SOL    HW214571   0.055   1.259   9.512 -0.2821 -0.0912  0.1476
  979SOL     OW14572   2.240   0.146  16.799  0.4095 -0.4850  0.1496
  979SOL    HW114573   2.244   0.241  16.803  1.3245 -0.3963 -2.5640
  979SOL    HW214574   2.295   0.116  16.872  1.1747  3.0644  1.0187
  980SOL     OW14575   2.646   4.725  16.881  0.2218 -0.0893 -0.4093
  980SOL    HW114576   2.615   4.695  16.795 -0.9907  0.1397 -0.0369
  980SOL    HW214577   2.638   4.644  16.930 -1.5851  0.1949 -0.2538
  981SOL     OW14578   1.481   1.889   2.964 -0.1375 -0.0708 -0.2272
  981SOL    HW114579   1.557   1.919   3.015  1.5611 -1.4009 -1.9753
  981SOL    HW214580   1.416   1.953   2.994  1.0728  1.0454  0.0110
  982SOL     OW14581   0.928   2.174  15.086 -0.3457 -0.2792  0.0276
  982SOL    HW114582   0.932   2.265  15.057  0.2548 -0.3476 -0.0983
  982SOL    HW214583   0.907   2.188  15.178 -1.3512  2.0836 -0.5633
  983SOL     OW14584   1.264   3.788   3.831  0.7420 -0.1896 -0.2615
  983SOL    HW114585   1.257   3.874   3.788 -0.1658 -0.4451 -0.6157
  983SOL    HW214586   1.245   3.810   3.922  1.0807  0.1140 -0.2619
  984SOL     OW14587   0.548   4.627   4.463  0.2566  0.0074  0.3149
  984SOL    HW114588   0.580   4.601   4.376  1.9264 -0.7814  1.1601
  984SOL    HW214589   0.549   4.718   4.433  0.8608 -0.6449 -1.6165
  985SOL     OW14590   3.724   0.709   3.390 -0.0753 -0.3539 -0.2384
  985SOL    HW114591   3.714   0.758   3.309 -0.9308 -1.0801 -0.5814
  985SOL    HW214592   3.805   0.660   3.378  0.6047  0.6178  0.3999
  986SOL     OW14593   2.796   1.082   4.685 -0.3160 -0.5972 -0.8557
  986SOL    HW114594   2.812   1.098   4.592 -0.2001  1.7205 -0.4376
  986SOL    HW214595   2.882   1.098   4.723 -0.7353  1.5304 -0.8040
  987SOL     OW14596   3.277   4.092  10.332 -0.4031 -0.6601 -0.7051
  987SOL    HW114597   3.305   4.036  10.260  0.2369 -1.3342  0.0612
  987SOL    HW214598   3.185   4.068  10.333 -1.1975  2.3610 -0.2359
  988SOL     OW14599   4.671   1.388   5.873 -0.1228  0.6394  0.2055
  988SOL    HW114600   0.027   1.371   5.885  0.5422  3.2395 -1.2567
  988SOL    HW214601   4.668   1.470   5.923 -1.4887  1.7897 -1.7689
  989SOL     OW14602   0.893   0.642  16.402  0.5423 -0.3583 -0.3348
  989SOL    HW114603   0.842   0.709  16.448 -2.1574 -1.2171 -2.0395
  989SOL    HW214604   0.943   0.707  16.351  1.8345 -1.2041 -0.1171
  990SOL     OW14605   2.497   2.685   7.781  0.4902  0.2384  0.7336
  990SOL    HW114606   2.558   2.755   7.804  1.7880 -0.1923 -1.3722
  990SOL    HW214607   2.544   2.606   7.806 -1.1817 -0.7380  0.8291
  991SOL     OW14608   3.946   0.991   9.584  0.2888  0.6971 -0.3458
  991SOL    HW114609   3.853   1.009   9.571  1.0189  2.6023 -2.7074
  991SOL    HW214610   3.945   0.945   9.668  2.5423  0.8598 -0.2223
  992SOL     OW14611   2.153   2.553   4.052 -0.1153 -0.0989  0.3607
  992SOL    HW114612   2.248   2.549   4.055  0.0126  1.3760 -1.7438
  992SOL    HW214613   2.135   2.572   3.960  1.9395  0.7089  0.1389
  993SOL     OW14614   4.522   0.099   2.659  0.0958  0.2041  0.0434
  993SOL    HW114615   4.513   0.118   2.752 -1.0895 -0.4620  0.0589
  993SOL    HW214616   4.522   0.183   2.612 -0.1252 -0.0092 -0.3425
  994SOL     OW14617   3.739   2.850  10.808 -0.0977 -0.2254  0.1741
  994SOL    HW114618   3.729   2.900  10.727  0.2474  1.5776  1.2572
  994SOL    HW214619   3.650   2.860  10.841  0.6874  0.2406  2.1043
  995SOL     OW14620   1.886   2.881   3.719  0.3871 -0.4641  0.8183
  995SOL    HW114621   1.949   2.810   3.706 -2.8384 -3.1672 -0.0434
  995SOL    HW214622   1.815   2.842   3.668 -1.2806  1.4644  1.6862
  996SOL     OW14623   3.686   4.297   2.583  0.4858  0.3562  0.1054
  996SOL    HW114624   3.732   4.351   2.519  2.1183 -1.2559 -0.0818
  996SOL    HW214625   3.754   4.283   2.650  0.8170  2.0572  0.1297
  997SOL     OW14626   1.540   1.339   0.582  0.0820 -0.2432  0.0182
  997SOL    HW114627   1.491   1.419   0.602  1.0985 -0.1267  2.0329
  997SOL    HW214628   1.550   1.355   0.488  2.2868 -0.5130  0.2108
  998SOL     OW14629   2.642   2.440   2.901  0.2082  1.0529 -0.1213
  998SOL    HW114630   2.731   2.426   2.935  0.0426  0.6803  0.1712
  998SOL    HW214631   2.662   2.452   2.808 -0.0321  0.7704 -0.2087
  999SOL     OW14632   2.805   2.400   6.066 -0.5945  0.3987 -0.0000
  999SOL    HW114633   2.799   2.462   5.993  1.1011 -2.5402 -2.6132
  999SOL    HW214634   2.823   2.326   6.009 -1.4043  1.2346 -1.3437
 1000SOL     OW14635   2.556   1.242   1.100  0.3435 -0.1167 -0.4177
 1000SOL    HW114636   2.472   1.288   1.094  1.1200  1.1292 -1.7634
 1000SOL    HW214637   2.523   1.152   1.097  2.5910 -0.9512 -0.1701
 1001SOL     OW14638   4.725   0.977   6.357 -0.4281  0.7349 -0.4542
 1001SOL    HW114639   4.647   0.941   6.401  1.8869 -0.6210  2.5062
 1001SOL    HW214640   4.693   1.061   6.325 -0.1491  1.5307  1.3571
 1002SOL     OW14641   2.394   2.766   7.284  0.0991 -0.3805  0.1195
 1002SOL    HW114642   2.343   2.836   7.243  2.6829  1.0652 -0.6258
 1002SOL    HW214643   2.340   2.693   7.252 -2.6676  1.9530 -0.4849
 1003SOL     OW14644   3.688   0.632   9.340 -1.0034 -0.4698 -0.7818
 1003SOL    HW114645   3.730   0.717   9.356 -0.0764 -0.8766 -1.0557
 1003SOL    HW214646   3.628   0.629   9.415  1.6306  1.5900  1.4104
 1004SOL     OW14647   2.884   1.950  12.275  0.4577  0.4443  0.1485
 1004SOL    HW114648   2.936   2.028  12.294  0.2099  0.4559  0.7416
 1004SOL    HW214649   2.804   1.964  12.324  1.3303  1.5390  1.2506
 1005SOL     OW14650   1.174   0.242   5.307 -0.8555 -0.5099  0.0788
 1005SOL    HW114651   1.157   0.148   5.308 -1.9190 -0.3288 -2.2271
 1005SOL    HW214652   1.251   0.229   5.251 -0.3028  1.3766  0.3984
 1006SOL     OW14653   2.552   3.692   1.989 -0.1099  0.0856 -0.3694
 1006SOL    HW114654   2.550   3.647   1.905 -0.7909  2.2150 -1.4838
 1006SOL    HW214655   2.504   3.630   2.044  3.0053  0.8967  3.2367
 1007SOL     OW14656   1.711   0.122   5.455 -0.2126  0.2153  0.2514
 1007SOL    HW114657   1.671   0.145   5.539 -1.3228 -0.7567 -0.0042
 1007SOL    HW214658   1.766   0.049   5.482 -0.4231  0.0313  0.1859
 1008SOL     OW14659   2.489   1.951   2.107  0.0131  0.3241  0.3062
 1008SOL    HW114660   2.464   1.942   2.015  1.4834 -0.0844 -0.0490
 1008SOL    HW214661   2.436   1.883   2.149  0.1414  0.8795  1.3604
 1009SOL     OW14662   2.612   2.624   4.223  0.1313 -0.4538  0.1022
 1009SOL    HW114663   2.521   2.595   4.228  0.1776 -0.7819 -0.8842
 1009SOL    HW214664   2.631   2.617   4.129 -2.5471  1.5171 -0.5760
 1010SOL     OW14665   4.663   0.037   3.765 -0.1413  0.1781 -0.4728
 1010SOL    HW114666   4.608   0.109   3.796  0.6405  1.3900 -1.8808
 1010SOL    HW214667   0.013   0.075   3.768  0.2643 -1.0685  3.4404
 1011SOL     OW14668   2.385   4.512   2.270  0.4755 -0.1229 -0.1007
 1011SOL    HW114669   2.302   4.496   2.316 -0.1218 -0.6630 -1.3699
 1011SOL    HW214670   2.425   4.435   2.308 -0.1476 -0.4016 -0.0127
 1012SOL     OW14671   0.614   0.472   4.077  0.1422  0.5914 -0.4386
 1012SOL    HW114672   0.581   0.547   4.126  2.5510  2.7835 -2.2183
 1012SOL    HW214673   0.708   0.479   4.096 -0.0927 -0.9478  1.3007
 1013SOL     OW14674   4.328   2.590   5.992  0.0534  0.1349  0.2946
 1013SOL    HW114675   4.397   2.656   5.997  1.8271 -1.6884 -0.2103
 1013SOL    HW214676   4.312   2.591   5.898 -2.9576 -0.7137  0.8181
 1014SOL     OW14677   4.396   3.309   2.864  0.1643 -0.0226 -0.3151
 1014SOL    HW114678   4.459   3.249   2.823 -0.9710 -0.1254 -1.8970
 1014SOL    HW214679   4.445   3.321   2.946  0.1589  3.1546 -0.7820
 1015SOL     OW14680   1.509   1.207   9.560  1.3405 -0.7567 -0.2725
 1015SOL    HW114681   1.567   1.272   9.521  1.0636  0.3105  1.0919
 1015SOL    HW214682   1.502   1.157   9.479  0.3987 -0.6519 -0.2581
 1016SOL     OW14683   3.235   1.254   5.152 -0.4618  0.0515  0.0518
 1016SOL    HW114684   3.175   1.182   5.130 -0.1528  0.2316 -1.3559
 1016SOL    HW214685   3.318   1.209   5.164  0.8638  1.9610 -1.9792
 1017SOL     OW14686   2.683   0.239   0.323 -0.5001 -0.2908  0.5074
 1017SOL    HW114687   2.600   0.218   0.365 -1.3484 -0.0787 -1.0565
 1017SOL    HW214688   2.667   0.331   0.299  0.1615 -0.2782  0.1206
 1018SOL     OW14689   1.577   3.830   5.566 -0.4368 -0.4102 -0.0332
 1018SOL    HW114690   1.654   3.826   5.623 -1.5017  0.1663  1.4373
 1018SOL    HW214691   1.605   3.763   5.504 -0.2900 -0.9560  0.6256
 1019SOL     OW14692   0.845   2.447   3.656 -0.2266  0.6854  0.1548
 1019SOL    HW114693   0.862   2.495   3.575 -0.9554 -1.0328 -1.0069
 1019SOL    HW214694   0.906   2.500   3.708 -1.3153  1.3742  0.7260
 1020SOL     OW14695   4.666   0.635   7.981  0.3322  0.0776  0.0794
 1020SOL    HW114696   4.651   0.714   8.033  0.5613 -1.4984  2.5545
 1020SOL    HW214697   0.018   0.639   7.949  0.7526  1.3152  1.4074
 1021SOL     OW14698   2.103   2.442   1.976  0.0135  0.7917  0.4153
 1021SOL    HW114699   2.027   2.468   1.923  0.4753 -1.0619 -1.1592
 1021SOL    HW214700   2.079   2.472   2.063 -1.6357  1.0059 -0.1062
 1022SOL     OW14701   2.762   2.408   0.794  0.2016  0.3555  0.4094
 1022SOL    HW114702   2.671   2.406   0.825  0.0522  0.4917 -0.0279
 1022SOL    HW214703   2.767   2.502   0.780  1.9453  0.0518 -1.0153
 1023SOL     OW14704   1.328   1.424   4.316  0.1513 -0.0580 -0.3010
 1023SOL    HW114705   1.348   1.337   4.350  0.3060  0.4528  0.9027
 1023SOL    HW214706   1.390   1.468   4.375  0.9266  1.2394 -2.0729
 1024SOL     OW14707   3.025   0.797   5.216 -0.7633 -0.1163 -0.2419
 1024SOL    HW114708   2.985   0.773   5.299 -0.5544  0.6560  0.0807
 1024SOL    HW214709   2.990   0.724   5.165 -2.9549  2.3046 -2.1848
 1025SOL     OW14710   0.111   4.557   2.529  0.4543 -0.0100 -0.0764
 1025SOL    HW114711   0.109   4.650   2.548 -1.4659  0.0973 -0.8147
 1025SOL    HW214712   0.025   4.517   2.541  1.0164 -0.2068  3.1858
 1026SOL     OW14713   3.741   4.349   9.548  0.0610  1.0007 -0.2727
 1026SOL    HW114714   3.772   4.401   9.622 -1.3425 -0.1626  1.1616
 1026SOL    HW214715   3.677   4.407   9.507 -0.2468  0.1453 -0.9999
 1027SOL     OW14716   1.134   2.953   3.704  0.0401  0.0418 -0.0419
 1027SOL    HW114717   1.120   2.931   3.612 -1.9428  0.6883  0.1013
 1027SOL    HW214718   1.123   3.047   3.717 -1.7661 -0.1978  0.1960
 1028SOL     OW14719   2.350   1.046   9.065 -0.4916 -0.7605  0.5517
 1028SOL    HW114720   2.322   0.961   9.030 -0.8177  0.1159 -1.3206
 1028SOL    HW214721   2.290   1.106   9.020 -0.3061  0.4084  1.8591
 1029SOL     OW14722   0.788   1.832  12.553 -0.5158  0.0311 -0.2747
 1029SOL    HW114723   0.797   1.739  12.530  0.9359  0.6336 -2.1087
 1029SOL    HW214724   0.752   1.820  12.641  1.1691 -0.3272  0.3710
 1030SOL     OW14725   2.417   3.061   4.873  0.9443 -0.4911  0.5021
 1030SOL    HW114726   2.355   3.006   4.825  0.3419  1.8709 -1.4003
 1030SOL    HW214727   2.354   3.089   4.940  1.5119 -1.2787  1.3609
 1031SOL     OW14728   1.974   3.014  17.124 -0.2291 -0.1757 -0.4289
 1031SOL    HW114729   1.897   3.057  17.161 -0.4576 -1.2901  0.3994
 1031SOL    HW214730   1.935   2.968  17.049 -0.6370 -0.2633 -0.1649
 1032SOL     OW14731   4.165   2.405   9.224 -0.0634 -0.1480  0.3933
 1032SOL    HW114732   4.120   2.421   9.307 -0.0074  1.2286  0.1629
 1032SOL    HW214733   4.207   2.490   9.214  0.0703 -0.3429 -0.7511
 1033SOL     OW14734   1.368   1.149   4.377  0.4476  0.1020  0.0891
 1033SOL    HW114735   1.440   1.086   4.363  0.0524 -0.4577  0.5606
 1033SOL    HW214736   1.293   1.098   4.346  1.2983 -1.0847 -0.0439
 1034SOL     OW14737   0.197   3.470   3.775 -0.4231 -0.6414 -0.3109
 1034SOL    HW114738   0.249   3.477   3.856 -1.4209 -2.1575  0.4790
 1034SOL    HW214739   0.210   3.548   3.722  1.3873 -0.8866 -0.2317
 1035SOL     OW14740   4.097   0.014   3.045 -0.3461  0.0174 -0.3544
 1035SOL    HW114741   4.072   0.002   3.137  1.8869 -0.8786  0.1550
 1035SOL    HW214742   4.131   0.103   3.060 -1.7449  0.5067 -0.1429
 1036SOL     OW14743   2.500   3.680   3.824  0.3256 -0.4637  0.3283
 1036SOL    HW114744   2.439   3.712   3.757 -0.2162 -1.8328  0.1781
 1036SOL    HW214745   2.440   3.644   3.889  0.5226 -2.3901 -0.5584
 1037SOL     OW14746   0.548   0.790   8.623  0.0076  0.2604 -0.1105
 1037SOL    HW114747   0.518   0.707   8.659  0.7681  0.8722  1.9766
 1037SOL    HW214748   0.581   0.765   8.537 -0.0577  0.3935 -0.1741
 1038SOL     OW14749   2.430   0.710   2.280 -0.0433 -0.0562 -0.0052
 1038SOL    HW114750   2.388   0.792   2.308 -0.0973  0.0333 -0.3487
 1038SOL    HW214751   2.500   0.755   2.232 -0.3433  0.0748 -0.3238
 1039SOL     OW14752   4.558   2.363   5.913 -0.6236  0.1893 -0.2561
 1039SOL    HW114753   4.572   2.458   5.910 -2.2769  0.4885  1.4341
 1039SOL    HW214754   4.588   2.342   5.825  2.0905  0.7992  0.5110
 1040SOL     OW14755   0.326   1.273   4.907  0.1057 -0.0004 -0.2182
 1040SOL    HW114756   0.292   1.313   4.987  1.3815 -1.5642  1.0955
 1040SOL    HW214757   0.408   1.238   4.941  1.6921  4.3642  0.4022
 1041SOL     OW14758   4.359   1.594   6.097  0.2844  0.1200  0.4384
 1041SOL    HW114759   4.315   1.668   6.138 -0.6460  0.1149 -0.5469
 1041SOL    HW214760   4.451   1.598   6.124 -0.0414 -0.3104  1.6402
 1042SOL     OW14761   0.003   1.676   5.366  0.2612 -0.4584  0.3459
 1042SOL    HW114762   4.683   1.753   5.369  1.0690  0.2114 -1.6873
 1042SOL    HW214763   4.681   1.606   5.392  0.2690 -1.9009 -3.5755
 1043SOL     OW14764   4.004   2.749  16.862  0.8121  1.1169  0.3354
 1043SOL    HW114765   3.982   2.656  16.862  0.5278  1.1824  1.2872
 1043SOL    HW214766   4.059   2.759  16.784  1.3165  0.0614  0.5509
 1044SOL     OW14767   3.039   0.835   2.292 -0.3011  0.2896 -0.0036
 1044SOL    HW114768   3.100   0.894   2.337  1.4491 -0.5522 -1.2995
 1044SOL    HW214769   3.074   0.749   2.312 -0.7338 -0.2133 -1.3929
 1045SOL     OW14770   1.138   4.644  15.233  0.4784  0.0892  0.4947
 1045SOL    HW114771   1.099   4.558  15.252  1.6903 -0.5470  0.1036
 1045SOL    HW214772   1.224   4.615  15.203  0.7154  0.8073  0.4897
 1046SOL     OW14773   1.857   1.138   2.879  0.0283  0.0942 -0.0565
 1046SOL    HW114774   1.948   1.140   2.849  0.3525 -0.6542  0.8856
 1046SOL    HW214775   1.817   1.201   2.819  0.2251  0.8613  0.6142
 1047SOL     OW14776   3.666   4.428  15.159  0.8428 -0.4736  0.7424
 1047SOL    HW114777   3.646   4.362  15.226 -1.9363  0.2313  0.6006
 1047SOL    HW214778   3.702   4.499  15.212 -0.5428  0.0337  1.0043
 1048SOL     OW14779   4.530   0.231   6.903  0.3464 -0.0023  0.3559
 1048SOL    HW114780   4.562   0.259   6.989  0.1022 -2.4499  1.2345
 1048SOL    HW214781   4.450   0.184   6.923 -1.1659  2.8317  1.0599
 1049SOL     OW14782   0.896   2.580   7.664  0.6578 -0.3767 -0.0157
 1049SOL    HW114783   0.810   2.582   7.621 -0.7029 -1.2563  2.6351
 1049SOL    HW214784   0.940   2.613   7.586 -0.1083  1.1618  0.2157
 1050SOL     OW14785   3.694   0.629  16.932 -0.3094  0.0984  0.3373
 1050SOL    HW114786   3.662   0.718  16.915 -0.7099  0.1552  1.4403
 1050SOL    HW214787   3.611   0.583  16.927 -0.7729  1.0793 -1.0458
 1051SOL     OW14788   4.348   3.556   3.235  0.4331 -0.2330  0.3325
 1051SOL    HW114789   4.369   3.532   3.325  0.2707 -0.9064  0.1992
 1051SOL    HW214790   4.266   3.506   3.227  0.6394 -0.8639  2.3300
 1052SOL     OW14791   0.239   4.007   5.143  0.4520  0.0824  0.1294
 1052SOL    HW114792   0.144   3.996   5.131  0.5474 -1.5316  0.9043
 1052SOL    HW214793   0.280   3.946   5.082 -1.2830 -1.4010  0.4270
 1053SOL     OW14794   3.503   3.124   1.120 -0.0692 -0.0419 -0.3483
 1053SOL    HW114795   3.532   3.137   1.210  2.5107  3.2072 -1.6054
 1053SOL    HW214796   3.571   3.063   1.092 -0.4311  1.5637 -4.8594
 1054SOL     OW14797   0.802   3.088   6.020 -0.0691  0.0241  0.2532
 1054SOL    HW114798   0.762   3.004   6.043  2.2365 -0.4547  2.4838
 1054SOL    HW214799   0.832   3.132   6.099  1.2353  0.8450 -0.6911
 1055SOL     OW14800   3.755   2.142   8.450 -0.6377  0.0235  0.1310
 1055SOL    HW114801   3.660   2.144   8.454 -0.5878  0.1546  1.1214
 1055SOL    HW214802   3.763   2.150   8.545 -1.3408  2.4615 -0.0330
 1056SOL     OW14803   3.291   3.699   2.775  0.8418  0.4930  0.2653
 1056SOL    HW114804   3.320   3.787   2.800  0.7209  0.9165 -1.0550
 1056SOL    HW214805   3.319   3.698   2.683  2.2050  0.6701  0.6718
 1057SOL     OW14806   2.637   4.273  14.840 -0.1274 -0.0056  0.1778
 1057SOL    HW114807   2.638   4.236  14.928  3.5199  0.5297  0.3615
 1057SOL    HW214808   2.548   4.307  14.838 -0.1739 -0.3149 -3.1095
 1058SOL     OW14809   3.971   3.853   5.985  0.4277 -0.3335 -0.0273
 1058SOL    HW114810   4.024   3.774   5.978 -0.3205 -1.0362  2.4753
 1058SOL    HW214811   3.885   3.832   5.950  0.0273  1.4601 -0.1573
 1059SOL     OW14812   3.581   3.807   1.586  0.2078 -0.1865  0.2325
 1059SOL    HW114813   3.624   3.755   1.519  0.4231 -0.0357  0.2549
 1059SOL    HW214814   3.649   3.823   1.652  0.5622  1.5799 -0.5375
 1060SOL     OW14815   2.818   1.844   9.794  0.2616 -0.4375  0.2921
 1060SOL    HW114816   2.781   1.911   9.852 -0.7500  1.0597 -2.1233
 1060SOL    HW214817   2.902   1.885   9.777 -0.3929  1.0915  0.7735
 1061SOL     OW14818   3.406   4.102  10.810 -0.2248  0.1953  0.6879
 1061SOL    HW114819   3.381   4.108  10.717  1.4625 -1.4560  0.1280
 1061SOL    HW214820   3.423   4.193  10.832 -0.6109  0.4392 -0.0219
 1062SOL     OW14821   0.478   3.411  14.046 -0.3909  0.0328  0.2813
 1062SOL    HW114822   0.537   3.385  13.975 -0.3535 -0.2665  0.4218
 1062SOL    HW214823   0.391   3.405  14.005 -1.0693  0.9640  1.5814
 1063SOL     OW14824   0.477   1.779   0.969 -0.4188 -0.2873 -0.1958
 1063SOL    HW114825   0.466   1.858   0.916 -2.3096 -0.9608 -0.7998
 1063SOL    HW214826   0.509   1.810   1.054 -0.2192 -2.0147  0.3491
 1064SOL     OW14827   3.167   4.178  15.321  0.2359  0.1409 -0.2319
 1064SOL    HW114828   3.148   4.268  15.347  3.4804  0.8727 -0.3698
 1064SOL    HW214829   3.240   4.196  15.261 -0.5120  0.4531 -1.0497
 1065SOL     OW14830   4.209   4.243   5.263  0.1583  0.1694  0.0215
 1065SOL    HW114831   4.218   4.331   5.226 -0.9364  0.2844  0.0438
 1065SOL    HW214832   4.116   4.236   5.282  0.0220 -0.7845 -1.0135
 1066SOL     OW14833   3.307   4.412   8.202 -0.2630 -0.3197 -0.0162
 1066SOL    HW114834   3.259   4.336   8.169  3.4472 -2.2970 -0.9194
 1066SOL    HW214835   3.318   4.481   8.135 -0.3303 -0.9415 -0.6666
 1067SOL     OW14836   3.433   2.367   5.396  0.0755 -0.3078  0.8772
 1067SOL    HW114837   3.496   2.339   5.329  0.9742 -0.6097  1.8548
 1067SOL    HW214838   3.475   2.450   5.420  2.0224 -0.9415 -0.2921
 1068SOL     OW14839   3.357   2.766   9.597  0.4515  0.0496  0.2103
 1068SOL    HW114840   3.262   2.755   9.585  0.0977  0.1559  2.8156
 1068SOL    HW214841   3.377   2.695   9.658  1.5570  2.0376  2.1900
 1069SOL     OW14842   2.451   0.885   5.414 -0.2346  0.1101  0.1682
 1069SOL    HW114843   2.467   0.794   5.436  0.7282  0.2245 -0.0753
 1069SOL    HW214844   2.390   0.917   5.480  1.0071  2.2713  0.2657
 1070SOL     OW14845   0.057   3.219   0.787  0.2857  0.6750  0.0378
 1070SOL    HW114846   0.063   3.126   0.810  0.5474  0.8209  0.5641
 1070SOL    HW214847   0.134   3.238   0.734  0.1378  0.2378 -0.3372
 1071SOL     OW14848   0.124   1.189   9.884  0.1955  0.5766 -0.3068
 1071SOL    HW114849   0.067   1.184   9.960  0.5501 -1.3856 -0.1586
 1071SOL    HW214850   0.126   1.284   9.875  1.4066  0.6139  0.3756
 1072SOL     OW14851   3.214   3.237  11.328  1.1802  0.1754  0.1833
 1072SOL    HW114852   3.177   3.150  11.316  0.8088  0.5071 -1.0957
 1072SOL    HW214853   3.204   3.253  11.422  1.7530 -1.0176  0.4442
 1073SOL     OW14854   2.602   3.674   2.440 -0.2315  0.3315  0.0487
 1073SOL    HW114855   2.677   3.661   2.383  0.7600  1.5427  1.0818
 1073SOL    HW214856   2.549   3.596   2.421 -2.5553  1.8979  0.0636
 1074SOL     OW14857   0.547   1.649   1.625  0.0106 -0.1375 -0.2319
 1074SOL    HW114858   0.533   1.658   1.719  0.3943  0.3256 -0.2214
 1074SOL    HW214859   0.596   1.568   1.634  1.4188  0.7770  0.2740
 1075SOL     OW14860   3.748   2.061  12.131  0.0195 -0.1664 -0.0189
 1075SOL    HW114861   3.842   2.047  12.140  0.0279 -0.2446 -0.2291
 1075SOL    HW214862   3.712   2.063  12.220 -0.0910  3.0151 -0.1339
 1076SOL     OW14863   2.020   1.669  12.686 -0.1542 -1.3582  0.3238
 1076SOL    HW114864   1.984   1.645  12.771 -0.8062  0.8127  0.6675
 1076SOL    HW214865   1.956   1.626  12.628  1.9796  0.2694 -3.2108
 1077SOL     OW14866   3.363   0.743  17.263 -0.2299 -0.1181 -0.8536
 1077SOL    HW114867   3.431   0.780  17.206 -0.1697  0.2400 -0.5486
 1077SOL    HW214868   3.275   0.769  17.235 -0.7267  0.7128  1.4659
 1078SOL     OW14869   4.579   3.368   4.426  0.3278 -0.4862 -0.3614
 1078SOL    HW114870   4.548   3.390   4.514  1.3866 -0.5229  0.0269
 1078SOL    HW214871   4.499   3.331   4.389 -0.2628  0.9695 -0.5146
 1079SOL     OW14872   3.043   1.264   8.437 -0.2864  0.0801  0.0271
 1079SOL    HW114873   2.983   1.213   8.383 -0.8063 -0.2286  0.8943
 1079SOL    HW214874   3.097   1.308   8.371  0.0105  1.2495  1.0465
 1080SOL     OW14875   0.055   2.021  17.417  0.4406 -0.0526 -0.6359
 1080SOL    HW114876   0.072   2.113  17.437  0.7284  0.2107 -2.0609
 1080SOL    HW214877   4.699   2.021  17.434  0.6806 -0.5238  0.7412
 1081SOL     OW14878   4.142   3.075  16.225 -0.4644 -0.7086  1.0563
 1081SOL    HW114879   4.187   3.159  16.231 -0.4567 -0.5020 -1.8393
 1081SOL    HW214880   4.155   3.061  16.131 -2.0290 -1.2561  0.9175
 1082SOL     OW14881   4.162   4.295   1.959  0.2628  0.5213  0.1927
 1082SOL    HW114882   4.217   4.280   2.035  0.0632  2.2733  0.6758
 1082SOL    HW214883   4.199   4.234   1.895  2.4590  1.1724  0.8483
 1083SOL     OW14884   3.920   4.026   1.782  0.5001 -1.1285  0.2661
 1083SOL    HW114885   3.995   3.969   1.802  0.8407 -1.1066 -0.9852
 1083SOL    HW214886   3.958   4.063   1.702  0.1905  1.4875  1.3245
 1084SOL     OW14887   2.554   4.321   5.687 -0.5007  0.1111  0.0649
 1084SOL    HW114888   2.596   4.235   5.691  1.2594  0.8069 -3.4702
 1084SOL    HW214889   2.471   4.298   5.646  0.5189 -0.6570 -1.5813
 1085SOL     OW14890   3.553   2.300   3.541 -0.1038  0.6127  0.1430
 1085SOL    HW114891   3.516   2.309   3.629 -0.8197  1.7324 -0.2692
 1085SOL    HW214892   3.603   2.219   3.547  0.2742  0.8385  0.0813
 1086SOL     OW14893   4.136   4.585   2.456 -0.4674 -0.0947  0.8355
 1086SOL    HW114894   4.055   4.635   2.468 -1.7551 -2.3006  1.2705
 1086SOL    HW214895   4.117   4.511   2.514 -0.6228  0.6719  1.7746
 1087SOL     OW14896   4.206   2.181  14.508 -0.1423 -0.0597 -0.6060
 1087SOL    HW114897   4.281   2.130  14.536 -0.4186 -0.6186 -0.8956
 1087SOL    HW214898   4.197   2.238  14.585 -1.8190 -0.0637 -0.7992
 1088SOL     OW14899   4.227   0.382  15.246  0.3563 -0.1988 -0.4363
 1088SOL    HW114900   4.145   0.335  15.262  0.6556 -0.9735 -1.1975
 1088SOL    HW214901   4.207   0.438  15.171 -0.2244 -1.0577 -0.9282
 1089SOL     OW14902   2.623   3.094   1.684  0.0577  0.1021  0.4462
 1089SOL    HW114903   2.666   3.012   1.660  0.0480  0.6179 -1.2986
 1089SOL    HW214904   2.675   3.159   1.636 -1.0292  1.7927  1.5906
 1090SOL     OW14905   1.451   3.945   6.046  0.3052  0.2712  0.3099
 1090SOL    HW114906   1.537   3.945   6.004  0.2597 -1.4793  0.1991
 1090SOL    HW214907   1.444   3.859   6.088  0.0817  0.2212  0.1701
 1091SOL     OW14908   2.451   3.305  15.216 -0.2238  0.0682 -0.1074
 1091SOL    HW114909   2.437   3.231  15.275 -0.8295  0.2153 -0.0660
 1091SOL    HW214910   2.502   3.257  15.150  0.3074 -0.5281  0.7487
 1092SOL     OW14911   1.699   0.801  15.681  0.2994 -0.1371  0.5975
 1092SOL    HW114912   1.787   0.826  15.708  0.2301 -0.0496  0.7455
 1092SOL    HW214913   1.723   0.797  15.589  0.2484  1.5511  0.5169
 1093SOL     OW14914   1.755   0.809   8.204 -0.1304 -0.5705 -0.2398
 1093SOL    HW114915   1.791   0.841   8.121  1.8343  0.1260  0.8756
 1093SOL    HW214916   1.701   0.884   8.226  0.6752  0.1065 -0.5791
 1094SOL     OW14917   0.677   2.173   8.612  0.3325  0.1691 -0.5435
 1094SOL    HW114918   0.717   2.224   8.682 -1.2367 -1.6550  1.6709
 1094SOL    HW214919   0.717   2.086   8.621 -1.2542 -0.3632  1.2718
 1095SOL     OW14920   3.573   3.879   0.157 -0.1169  0.1623  0.4051
 1095SOL    HW114921   3.489   3.890   0.113  1.4497 -1.1853 -2.9143
 1095SOL    HW214922   3.598   3.797   0.114 -0.3849 -0.1575  0.8558
 1096SOL     OW14923   1.134   1.041  11.775 -0.6038  0.0099  0.3619
 1096SOL    HW114924   1.185   1.108  11.730 -0.4957 -0.0235  0.4366
 1096SOL    HW214925   1.157   0.971  11.714  0.8506  0.7149  0.1209
 1097SOL     OW14926   2.413   2.178   5.856 -0.2197 -0.1206  0.0470
 1097SOL    HW114927   2.439   2.087   5.869 -0.8109 -0.5706 -1.9110
 1097SOL    HW214928   2.428   2.218   5.941 -0.0363  0.1077 -0.0925
 1098SOL     OW14929   4.470   1.998  12.071 -0.8693 -0.6484 -0.0600
 1098SOL    HW114930   4.409   1.992  11.998  0.0775 -0.7293 -0.8368
 1098SOL    HW214931   4.459   1.916  12.119 -3.2204  0.7061  1.7436
 1099SOL     OW14932   3.820   3.504   1.684 -0.3561 -0.7796  0.1031
 1099SOL    HW114933   3.769   3.480   1.606 -0.9776  0.1514  0.2268
 1099SOL    HW214934   3.911   3.519   1.659 -1.2104  3.0127 -0.7047
 1100SOL     OW14935   0.260   3.220  12.358  0.0437 -0.5426  0.5055
 1100SOL    HW114936   0.217   3.230  12.273 -1.1237 -0.7569  1.0666
 1100SOL    HW214937   0.216   3.140  12.386 -0.1372 -0.4304  0.5440
 1101SOL     OW14938   4.528   3.147   8.913 -0.6735  0.5646  0.0479
 1101SOL    HW114939   4.487   3.195   8.985 -0.7180  1.7802 -0.8024
 1101SOL    HW214940   4.471   3.155   8.837 -1.8186 -0.3211  0.8171
 1102SOL     OW14941   2.053   4.523   5.946 -0.6133  0.1809 -0.1950
 1102SOL    HW114942   2.002   4.515   6.027 -3.4804 -0.7434 -2.0967
 1102SOL    HW214943   2.054   4.430   5.925  3.3242  0.4180 -1.0704
 1103SOL     OW14944   3.542   1.818   1.505 -0.1382  0.2438 -0.2353
 1103SOL    HW114945   3.525   1.727   1.528  0.1825  0.5238  1.0722
 1103SOL    HW214946   3.457   1.842   1.469 -0.8586  2.1674  2.8091
 1104SOL     OW14947   1.550   1.411   4.504 -0.4890 -0.1442 -0.0679
 1104SOL    HW114948   1.571   1.488   4.558  0.5075 -0.4345 -0.0520
 1104SOL    HW214949   1.635   1.375   4.480  0.9757  2.8428  0.5557
 1105SOL     OW14950   0.994   0.138  11.176 -0.3737 -0.2365  0.2757
 1105SOL    HW114951   1.006   0.049  11.144 -1.2956 -0.5544  0.7864
 1105SOL    HW214952   0.899   0.130  11.184 -0.3457 -0.4239  0.4161
 1106SOL     OW14953   4.680   2.037   9.912 -0.1885  0.1080  0.0524
 1106SOL    HW114954   4.709   2.037   9.821 -0.1273 -1.0035  0.0689
 1106SOL    HW214955   4.585   2.034   9.901  0.0266 -0.4949 -1.5706
 1107SOL     OW14956   1.988   2.313   5.881  1.3439 -0.2163  0.6127
 1107SOL    HW114957   1.945   2.234   5.916  1.4934 -0.7042 -0.2993
 1107SOL    HW214958   1.963   2.380   5.944  0.1272  2.6101 -2.8531
 1108SOL     OW14959   3.574   4.121   7.933  0.0740  0.5754  0.2734
 1108SOL    HW114960   3.499   4.142   7.877  0.8153 -0.2000 -1.0057
 1108SOL    HW214961   3.535   4.059   7.996  1.3733  0.0464  0.5570
 1109SOL     OW14962   1.377   0.042   9.003  0.3589  0.0440  0.2812
 1109SOL    HW114963   1.432   4.712   9.043  0.5584 -1.6104 -2.8360
 1109SOL    HW214964   1.426   0.069   8.925 -0.2796  0.5951  0.0707
 1110SOL     OW14965   2.260   0.897   6.415 -0.4175 -0.0551 -0.5910
 1110SOL    HW114966   2.306   0.856   6.489  2.7596  0.9406 -2.0243
 1110SOL    HW214967   2.338   0.926   6.367  0.6206 -0.2950  0.9281
 1111SOL     OW14968   0.902   2.980   1.881 -0.1658 -0.2370 -0.2027
 1111SOL    HW114969   0.842   3.054   1.890 -1.7011 -1.6076  0.8720
 1111SOL    HW214970   0.874   2.952   1.794  2.8822 -2.6598 -0.4308
 1112SOL     OW14971   2.602   3.583   9.640  0.0653 -1.1713  0.0113
 1112SOL    HW114972   2.566   3.497   9.620  1.8415 -1.9873  0.2908
 1112SOL    HW214973   2.571   3.578   9.731 -2.8209 -3.2033 -1.1017
 1113SOL     OW14974   3.914   0.518  11.438  0.5391  0.1179 -0.4889
 1113SOL    HW114975   3.895   0.433  11.476  1.2643 -0.9688 -2.5696
 1113SOL    HW214976   4.009   0.509  11.425  0.4671 -0.4165 -0.6474
 1114SOL     OW14977   3.401   1.773   5.008 -0.2032  0.2736 -0.2284
 1114SOL    HW114978   3.398   1.704   4.941 -0.6441 -1.1289  1.2235
 1114SOL    HW214979   3.495   1.786   4.996 -0.2282  0.4018 -0.2854
 1115SOL     OW14980   1.661   2.838  12.189  0.0127  0.0782 -0.2621
 1115SOL    HW114981   1.749   2.820  12.156  1.0671  1.4333  1.7414
 1115SOL    HW214982   1.659   2.924  12.232  0.4558 -1.2856  2.4764
 1116SOL     OW14983   1.960   0.246   6.383  0.3661 -0.1046  0.0724
 1116SOL    HW114984   1.880   0.251   6.332  0.0740 -1.0129  0.4470
 1116SOL    HW214985   2.013   0.176   6.346  1.0742  1.4208 -1.8006
 1117SOL     OW14986   3.147   2.314   6.831  0.7353  0.0698 -0.1775
 1117SOL    HW114987   3.191   2.381   6.778  0.1329 -0.6439 -1.5735
 1117SOL    HW214988   3.210   2.316   6.904 -0.3461 -1.6220  0.8002
 1118SOL     OW14989   3.351   1.389   3.492 -0.3555 -0.4942 -0.3221
 1118SOL    HW114990   3.446   1.394   3.495 -0.3212 -1.9548  1.1789
 1118SOL    HW214991   3.333   1.353   3.405  0.4107  0.2113 -0.7704
 1119SOL     OW14992   2.366   2.831   9.070 -0.0766 -0.0517  0.2073
 1119SOL    HW114993   2.309   2.821   8.994  0.1669  2.6334 -0.3271
 1119SOL    HW214994   2.373   2.736   9.081  1.6885 -0.2222 -2.4426
 1120SOL     OW14995   3.098   3.717   5.639  0.4560 -0.1581 -0.0982
 1120SOL    HW114996   3.151   3.640   5.618 -3.4304 -2.9078  0.0035
 1120SOL    HW214997   3.037   3.709   5.565 -2.6334  2.4400  2.1770
 1121SOL     OW14998   4.289   1.613   5.181 -0.0575 -0.2722  0.2054
 1121SOL    HW114999   4.364   1.559   5.155 -0.0622 -1.8072  3.4173
 1121SOL    HW215000   4.266   1.581   5.268 -0.9620 -0.5279 -0.1357
 1122SOL     OW15001   3.635   0.155   5.748 -0.0185  0.3832  0.2546
 1122SOL    HW115002   3.563   0.217   5.742 -0.3199 -0.1940 -2.3751
 1122SOL    HW215003   3.686   0.171   5.668 -0.2883 -0.2493 -0.0435
 1123SOL     OW15004   4.216   3.570   6.478  0.0873 -0.1329 -0.0912
 1123SOL    HW115005   4.293   3.611   6.439  1.2172 -0.8494  1.3754
 1123SOL    HW215006   4.152   3.626   6.434  0.3769 -0.8870 -1.4988
 1124SOL     OW15007   1.949   0.875  16.733 -0.1185 -0.0364  0.3836
 1124SOL    HW115008   1.984   0.880  16.823  0.6317 -0.3092  0.1092
 1124SOL    HW215009   2.021   0.843  16.679  1.0574  2.9649  0.1659
 1125SOL     OW15010   0.191   2.027   5.563  0.1128  0.2815 -0.2032
 1125SOL    HW115011   0.147   1.976   5.631  0.1772  0.5456  0.0350
 1125SOL    HW215012   0.194   1.962   5.493 -0.6711 -1.0260  0.9757
 1126SOL     OW15013   1.077   4.180   0.654  0.2260  0.1856 -0.4596
 1126SOL    HW115014   1.072   4.141   0.567  2.5107  1.6564 -1.2719
 1126SOL    HW215015   1.171   4.198   0.662 -0.0556  0.9774  0.9590
 1127SOL     OW15016   0.002   1.140   9.082 -0.6583 -0.3515  0.5651
 1127SOL    HW115017   4.713   1.232   9.081 -2.2142 -0.8210 -0.7376
 1127SOL    HW215018   4.658   1.096   9.056 -1.8612  1.9620  0.4035
 1128SOL     OW15019   3.587   1.242  13.892  0.1232  0.0704  0.2636
 1128SOL    HW115020   3.656   1.197  13.842 -0.5523 -0.8690  0.1762
 1128SOL    HW215021   3.529   1.166  13.882  1.9671 -1.2435 -0.4654
 1129SOL     OW15022   4.370   2.142   3.252  0.4822  0.3012 -0.3378
 1129SOL    HW115023   4.292   2.098   3.286  0.3610 -1.0508 -2.3305
 1129SOL    HW215024   4.332   2.221   3.213 -2.7850 -1.1690 -0.1666
 1130SOL     OW15025   2.300   4.046   2.576  0.1461  0.2725 -0.0435
 1130SOL    HW115026   2.324   4.089   2.494  2.8658 -0.3180  0.4605
 1130SOL    HW215027   2.332   3.962   2.543 -0.8070 -0.7754  1.6846
 1131SOL     OW15028   2.891   2.794   4.853 -0.1334 -0.1550 -0.0694
 1131SOL    HW115029   2.812   2.841   4.827 -1.1298 -0.6827  2.0272
 1131SOL    HW215030   2.958   2.845   4.807  0.1221 -1.0346 -0.6825
 1132SOL     OW15031   4.424   4.366   9.162  0.1341 -0.0933  0.2477
 1132SOL    HW115032   4.520   4.377   9.158 -0.0539  1.4897 -0.0140
 1132SOL    HW215033   4.398   4.457   9.148  0.4628  0.2452  1.8829
 1133SOL     OW15034   1.873   2.451   7.393  0.1741 -0.1909  0.2443
 1133SOL    HW115035   1.858   2.357   7.401 -0.0549 -0.4126 -2.9489
 1133SOL    HW215036   1.797   2.478   7.445  1.0390 -0.7969  1.8543
 1134SOL     OW15037   0.899   3.534  15.685  0.0018 -0.2223  0.1281
 1134SOL    HW115038   0.855   3.562  15.604  1.3260  2.2104  0.2800
 1134SOL    HW215039   0.978   3.587  15.684  0.4632 -0.9049  0.5874
 1135SOL     OW15040   1.586   0.932   7.735 -0.2985 -0.0180 -0.0814
 1135SOL    HW115041   1.619   0.922   7.646  2.1259 -1.5554  0.9610
 1135SOL    HW215042   1.675   0.923   7.771 -0.2480 -2.8488 -0.9102
 1136SOL     OW15043   3.465   2.238  13.278 -0.1359 -0.4747 -0.2180
 1136SOL    HW115044   3.523   2.162  13.280 -0.5021 -0.7131  1.3619
 1136SOL    HW215045   3.384   2.195  13.251  0.8191 -1.5497 -1.3366
 1137SOL     OW15046   3.945   3.155  12.279 -0.3338  0.9165  0.2365
 1137SOL    HW115047   3.906   3.208  12.210 -0.5069 -0.0712 -0.4154
 1137SOL    HW215048   4.037   3.149  12.254 -0.0764  0.7599  1.2021
 1138SOL     OW15049   1.264   4.661   6.888  0.0634 -0.1560  0.4553
 1138SOL    HW115050   1.234   4.709   6.965  0.9711  2.7020 -0.9509
 1138SOL    HW215051   1.176   4.653   6.851  0.3720  0.1092 -0.3256
 1139SOL     OW15052   2.384   2.349  13.102 -0.2086 -0.1426 -0.5297
 1139SOL    HW115053   2.416   2.383  13.019 -0.5427 -2.5642 -1.6349
 1139SOL    HW215054   2.410   2.423  13.158  1.3730 -1.9875  1.1756
 1140SOL     OW15055   2.095   1.240   7.251  0.3055  0.3287 -0.2356
 1140SOL    HW115056   2.017   1.229   7.197  0.7303 -0.8382 -0.5952
 1140SOL    HW215057   2.148   1.308   7.210  0.5057  1.3462  1.6939
 1141SOL     OW15058   0.682   2.320   4.416 -0.0362  0.0912 -0.0949
 1141SOL    HW115059   0.612   2.334   4.479 -1.5810 -0.9596 -1.5933
 1141SOL    HW215060   0.637   2.333   4.333 -1.2535  1.0936  0.7218
 1142SOL     OW15061   2.151   2.059   2.339  0.0122 -0.1590 -0.0562
 1142SOL    HW115062   2.078   2.079   2.281 -0.5202 -1.1585  0.2788
 1142SOL    HW215063   2.153   2.144   2.382  0.2704 -0.5564  0.7163
 1143SOL     OW15064   1.379   2.776  11.395  0.6888 -0.0077  0.3229
 1143SOL    HW115065   1.412   2.828  11.322  0.3493  1.4439  1.2106
 1143SOL    HW215066   1.287   2.802  11.395  0.1638 -1.8650 -1.6024
 1144SOL     OW15067   1.719   4.162   3.985 -0.3011  0.3592 -0.3828
 1144SOL    HW115068   1.784   4.137   3.919  1.6050  0.0844  1.6091
 1144SOL    HW215069   1.774   4.189   4.058 -1.0139 -1.1881  0.7298
 1145SOL     OW15070   0.892   0.752   2.298 -0.0975  0.3374 -0.1524
 1145SOL    HW115071   0.967   0.764   2.357 -1.1955 -0.5273  1.4159
 1145SOL    HW215072   0.849   0.678   2.341  0.1512  0.1717 -0.1858
 1146SOL     OW15073   0.260   4.418   7.624  0.1157  0.1806  0.2547
 1146SOL    HW115074   0.279   4.491   7.682 -1.8511  0.5914  0.3880
 1146SOL    HW215075   0.174   4.401   7.663 -0.5214  0.0064 -1.2168
 1147SOL     OW15076   1.426   2.761   1.474  0.1814 -0.1670 -0.0092
 1147SOL    HW115077   1.515   2.747   1.508  0.8215  2.9193 -0.4223
 1147SOL    HW215078   1.417   2.675   1.434 -0.4886 -0.2264  0.2753
 1148SOL     OW15079   0.858   0.957   6.149  0.1554 -0.0192 -0.5703
 1148SOL    HW115080   0.851   1.052   6.143  0.5590 -0.0036 -0.7590
 1148SOL    HW215081   0.928   0.937   6.087 -1.0293 -0.7624 -1.6887
 1149SOL     OW15082   3.705   3.180   3.780 -0.1597 -0.2056 -0.0195
 1149SOL    HW115083   3.626   3.128   3.766  0.9857 -1.9558  0.0068
 1149SOL    HW215084   3.661   3.265   3.777  0.1879 -0.0571 -1.1847
 1150SOL     OW15085   4.601   4.646   9.216  0.3767  0.2429  0.1690
 1150SOL    HW115086   4.525   4.670   9.162  0.8120  0.7352 -0.2337
 1150SOL    HW215087   4.660   4.618   9.146  1.9507  0.5765  1.3705
 1151SOL     OW15088   3.300   3.526   5.552  0.4395 -0.0057  0.1996
 1151SOL    HW115089   3.365   3.460   5.574 -0.8105 -0.9316  1.1216
 1151SOL    HW215090   3.252   3.468   5.493  1.9330  2.0241 -3.0145
 1152SOL     OW15091   4.174   4.680   7.661  0.0631  0.2199 -0.2817
 1152SOL    HW115092   4.240   0.005   7.630  0.0969  0.7736  0.8835
 1152SOL    HW215093   4.115   4.733   7.715  0.3742  0.7236 -0.4278
 1153SOL     OW15094   2.973   4.130   6.806 -0.0043 -0.4708  0.1062
 1153SOL    HW115095   3.010   4.196   6.865  0.1221  0.2172 -0.7505
 1153SOL    HW215096   2.985   4.048   6.854 -1.4729  0.2386  1.7141
 1154SOL     OW15097   1.422   1.181   3.524 -0.5021 -0.4496 -0.1118
 1154SOL    HW115098   1.329   1.191   3.544 -0.9470 -2.2331 -1.3129
 1154SOL    HW215099   1.448   1.267   3.490  0.7525 -0.0825  1.8152
 1155SOL     OW15100   4.688   4.274   8.953 -0.1596  0.1895 -0.2240
 1155SOL    HW115101   4.705   4.311   9.039 -1.0283 -2.7812  1.2298
 1155SOL    HW215102   0.005   4.331   8.898  0.8130  1.9194  2.5444
 1156SOL     OW15103   2.823   0.346   5.060 -0.4507 -0.0706 -0.2386
 1156SOL    HW115104   2.858   0.435   5.064  0.2973 -0.3322 -0.8588
 1156SOL    HW215105   2.735   0.356   5.025 -0.1968  4.0815  0.2661
 1157SOL     OW15106   0.182   2.754   3.915  0.0710  0.0244 -0.3530
 1157SOL    HW115107   0.211   2.833   3.869 -1.4233  0.2720 -0.8639
 1157SOL    HW215108   0.257   2.740   3.973 -1.7287  0.0795  2.0116
 1158SOL     OW15109   2.371   1.180   8.713  0.2028  0.4723 -0.4623
 1158SOL    HW115110   2.332   1.240   8.649 -0.1092  1.2339  0.4504
 1158SOL    HW215111   2.383   1.106   8.653  0.1174  0.3769 -0.3621
 1159SOL     OW15112   1.366   0.052   2.494  0.7369 -0.3749 -0.3021
 1159SOL    HW115113   1.325   0.023   2.412  1.1628  0.1003 -0.6818
 1159SOL    HW215114   1.445   4.735   2.488  1.4675  0.7145 -0.7234
 1160SOL     OW15115   2.670   0.188   4.367  0.5919 -0.0623 -0.0860
 1160SOL    HW115116   2.632   0.127   4.430  0.0134 -0.6113 -0.9700
 1160SOL    HW215117   2.616   0.194   4.288 -2.8074  1.3095  2.3136
 1161SOL     OW15118   1.602   2.966   9.962  0.3790 -0.2806 -0.1171
 1161SOL    HW115119   1.523   2.953  10.014  0.7888  1.5897  0.9938
 1161SOL    HW215120   1.609   3.062   9.965  0.8125 -0.2469 -2.4808
 1162SOL     OW15121   3.589   4.508   9.841 -0.2591 -0.8203  0.1451
 1162SOL    HW115122   3.674   4.526   9.801 -0.2570  0.8887  0.9202
 1162SOL    HW215123   3.607   4.417   9.866 -2.1137 -1.3595 -0.5311
 1163SOL     OW15124   0.081   0.537  11.044 -0.0169  0.1500  0.5596
 1163SOL    HW115125   0.083   0.612  11.104  0.1207 -0.9858  1.9588
 1163SOL    HW215126   4.725   0.522  11.030  0.0309  0.8053 -0.5062
 1164SOL     OW15127   2.616   4.645   4.005 -0.0703  0.3922 -0.4179
 1164SOL    HW115128   2.609   4.590   3.927 -0.1713 -0.2798  0.0694
 1164SOL    HW215129   2.671   4.712   3.964  0.1520  1.3135  1.4028
 1165SOL     OW15130   4.679   2.099   5.008  0.0615  0.3689  0.0093
 1165SOL    HW115131   4.708   2.071   4.922 -0.7216 -0.5403  0.0454
 1165SOL    HW215132   0.029   2.125   5.037  0.9724 -0.2186 -2.2203
 1166SOL     OW15133   1.709   1.967   6.251  0.0256  0.0623  0.0215
 1166SOL    HW115134   1.764   2.045   6.253 -0.1534  0.1820  0.3574
 1166SOL    HW215135   1.757   1.905   6.307 -1.0317 -0.2814  0.5388
 1167SOL     OW15136   4.193   2.088  11.983 -0.0471 -0.0880  0.0221
 1167SOL    HW115137   4.178   2.182  11.970  0.5497  0.3839  2.7477
 1167SOL    HW215138   4.168   2.054  11.897 -1.1730 -1.2486  0.8093
 1168SOL     OW15139   1.030   3.574  17.435  0.4979  0.2550 -0.8476
 1168SOL    HW115140   0.995   3.623  17.509 -1.5672 -1.9437 -0.4016
 1168SOL    HW215141   1.039   3.653  17.382 -1.5899  0.7728 -0.4164
 1169SOL     OW15142   0.740   2.444   1.938 -0.3904  0.2640 -0.0175
 1169SOL    HW115143   0.814   2.383   1.940 -0.6881 -0.0731  0.9574
 1169SOL    HW215144   0.680   2.396   1.994  1.7883 -0.6967  1.5132
 1170SOL     OW15145   3.943   1.461   7.369 -0.4655  0.6404 -0.0121
 1170SOL    HW115146   3.910   1.436   7.455 -0.1340  0.9565  0.2111
 1170SOL    HW215147   3.868   1.506   7.330 -1.5236 -2.3908 -1.3995
 1171SOL     OW15148   2.744   2.187   1.561  0.1168 -0.1879 -0.1063
 1171SOL    HW115149   2.761   2.274   1.523 -0.0787 -0.0048  0.2257
 1171SOL    HW215150   2.680   2.200   1.631  0.0141 -0.9840 -0.0551
 1172SOL     OW15151   4.538   4.665   4.189  0.2008 -0.3034  0.4620
 1172SOL    HW115152   4.539   4.633   4.279 -1.5776  0.8953  0.9226
 1172SOL    HW215153   4.497   4.593   4.141 -2.8302  0.8987  1.2206
 1173SOL     OW15154   1.418   1.322   6.078  0.1537  0.2100 -0.3194
 1173SOL    HW115155   1.351   1.362   6.022 -0.2797  2.0950  1.5606
 1173SOL    HW215156   1.465   1.396   6.116 -0.1193 -0.0668  0.5514
 1174SOL     OW15157   2.866   2.752   8.149  0.2645 -0.5809 -0.4193
 1174SOL    HW115158   2.780   2.789   8.166  1.2652  0.9090  1.4405
 1174SOL    HW215159   2.912   2.828   8.113  1.6500 -1.2849 -0.1688
 1175SOL     OW15160   0.206   4.648   1.739  0.2123  0.3491  0.2220
 1175SOL    HW115161   0.283   4.678   1.787  1.0586  0.8265 -1.4010
 1175SOL    HW215162   0.255   4.582   1.688  0.5935  0.4330  0.4850
 1176SOL     OW15163   3.313   3.619   8.832 -0.1861 -0.6648  0.2137
 1176SOL    HW115164   3.305   3.669   8.751  0.5728 -0.1432  0.4519
 1176SOL    HW215165   3.347   3.534   8.804 -1.8511 -1.4184  0.4801
 1177SOL     OW15166   4.706   1.556   4.440 -0.1457 -0.4575  0.0717
 1177SOL    HW115167   4.626   1.518   4.476 -0.4178 -2.6223 -2.8024
 1177SOL    HW215168   4.673   1.593   4.358 -1.6719 -2.3169 -0.1348
 1178SOL     OW15169   1.598   0.915  17.602  0.5467 -0.3426  0.2863
 1178SOL    HW115170   1.565   0.832  17.638  0.5898 -0.7639 -0.6492
 1178SOL    HW215171   1.637   0.876  17.525 -3.9960 -0.4393 -1.9985
 1179SOL     OW15172   0.379   2.101   9.770  0.0948  0.0557  0.1924
 1179SOL    HW115173   0.436   2.171   9.802  0.9496 -0.5612  0.0086
 1179SOL    HW215174   0.397   2.035   9.837 -1.0456  1.9478  2.3908
 1180SOL     OW15175   0.101   1.578   0.855 -0.3562 -0.3221  0.5442
 1180SOL    HW115176   0.046   1.621   0.921 -1.3815 -2.1541  0.9215
 1180SOL    HW215177   0.189   1.573   0.892  0.3577  1.3037 -0.9434
 1181SOL     OW15178   1.480   1.570   7.799 -0.1597 -0.6011 -0.3857
 1181SOL    HW115179   1.491   1.642   7.737  1.7033  1.3270  2.1808
 1181SOL    HW215180   1.475   1.499   7.736  2.2360 -0.1706 -1.0402
 1182SOL     OW15181   4.028   2.053   9.752 -0.2613 -0.1600 -0.2584
 1182SOL    HW115182   4.067   2.067   9.838  1.0411 -0.3645 -0.8137
 1182SOL    HW215183   4.072   1.973   9.723 -1.4446 -0.9167  0.0368
 1183SOL     OW15184   0.677   0.001   0.317 -0.4174  0.1736 -0.1891
 1183SOL    HW115185   0.702   0.087   0.283 -0.6081  0.4141  0.2893
 1183SOL    HW215186   0.610   4.707   0.257 -0.4319  0.1104 -0.1389
 1184SOL     OW15187   4.373   2.079   5.606 -0.1542 -1.1539 -0.0951
 1184SOL    HW115188   4.383   2.000   5.658  0.5730  0.4498  2.1831
 1184SOL    HW215189   4.294   2.116   5.646 -1.2086 -0.3377 -2.8925
 1185SOL     OW15190   0.640   3.866   4.036  0.5213  0.4752 -0.0246
 1185SOL    HW115191   0.573   3.809   4.073 -1.1753  0.8472 -2.5554
 1185SOL    HW215192   0.721   3.818   4.057 -0.3519 -0.9282  0.1112
 1186SOL     OW15193   4.559   2.671   9.082  0.3519  0.5070  0.1827
 1186SOL    HW115194   4.598   2.593   9.043 -0.6126 -0.4123  1.0483
 1186SOL    HW215195   4.638   2.706   9.122  0.3016  2.9623 -1.8506
 1187SOL     OW15196   0.758   0.627   7.401  0.4544 -0.2028 -1.3435
 1187SOL    HW115197   0.716   0.605   7.484 -2.1099 -1.3048 -2.9177
 1187SOL    HW215198   0.750   0.722   7.401 -3.9603 -0.5805 -1.8247
 1188SOL     OW15199   3.803   4.514   8.405  0.0363  0.1342 -0.0683
 1188SOL    HW115200   3.728   4.456   8.391  2.8940 -3.4653 -0.4595
 1188SOL    HW215201   3.777   4.569   8.479 -0.2536  1.4940 -1.1946
 1189SOL     OW15202   2.209   0.482   8.707 -0.0284  0.3577 -0.1639
 1189SOL    HW115203   2.272   0.467   8.778 -1.0248  1.6189  0.9677
 1189SOL    HW215204   2.148   0.543   8.747 -0.6045  0.1941 -0.7846
 1190SOL     OW15205   0.655   0.306   5.174  0.3885  0.1059 -0.1697
 1190SOL    HW115206   0.656   0.259   5.257  0.8539  2.8855  1.4156
 1190SOL    HW215207   0.671   0.396   5.204 -0.9464 -0.1453  1.3646
 1191SOL     OW15208   0.464   2.386   4.240 -0.2268  0.3033 -0.1849
 1191SOL    HW115209   0.501   2.310   4.195  1.1260  1.0678 -0.3673
 1191SOL    HW215210   0.376   2.354   4.259 -0.4735  0.8362 -0.4249
 1192SOL     OW15211   4.050   0.466   9.683 -0.1347  0.2982  0.7630
 1192SOL    HW115212   3.974   0.421   9.646  0.3720  0.5840 -0.6168
 1192SOL    HW215213   4.116   0.413   9.638  1.1975  1.9310  0.7944
 1193SOL     OW15214   0.946   0.595   7.905  0.0799 -0.0292 -0.1290
 1193SOL    HW115215   0.954   0.548   7.822  0.0614 -0.8923  0.3607
 1193SOL    HW215216   0.907   0.678   7.877  1.4519  0.4166 -0.7453
 1194SOL     OW15217   0.280   0.538   4.862 -0.0181 -0.0658  0.2425
 1194SOL    HW115218   0.239   0.464   4.907 -1.6833  0.9625  0.4334
 1194SOL    HW215219   0.205   0.591   4.834 -1.5048 -2.9362 -1.2053
 1195SOL     OW15220   1.176   4.583   3.120 -0.8133  0.6874 -0.1511
 1195SOL    HW115221   1.179   4.629   3.036 -2.3853 -0.0268 -0.6131
 1195SOL    HW215222   1.241   4.513   3.112 -3.4245 -1.9017  1.4425
 1196SOL     OW15223   2.782   0.808   4.620 -0.1331 -0.1385  0.4382
 1196SOL    HW115224   2.703   0.822   4.567  0.6249 -2.7074 -1.3530
 1196SOL    HW215225   2.792   0.894   4.661 -1.2580  0.1619  0.0891
 1197SOL     OW15226   1.920   0.225   5.955  0.0206 -0.2483  0.5899
 1197SOL    HW115227   1.906   0.263   5.868  0.3546 -1.2685  0.0881
 1197SOL    HW215228   2.016   0.225   5.957  0.0179 -0.2869  0.7383
 1198SOL     OW15229   0.924   3.940  11.321  0.0917 -0.5242  0.2104
 1198SOL    HW115230   0.967   3.871  11.272 -0.8135  0.6626 -2.2676
 1198SOL    HW215231   0.938   4.019  11.268 -0.0826 -1.2611 -0.9377
 1199SOL     OW15232   0.689   1.940  17.631  0.4298 -0.1217 -0.5204
 1199SOL    HW115233   0.687   2.032  17.605  3.4590 -0.5162 -2.1098
 1199SOL    HW215234   0.622   1.940  17.699  1.0963  1.4993  0.1423
 1200SOL     OW15235   4.687   4.419   4.826  0.1516 -0.2428 -0.2606
 1200SOL    HW115236   4.629   4.349   4.797  1.3816 -1.1018 -0.6128
 1200SOL    HW215237   0.019   4.370   4.870 -1.8381 -2.2843  0.6256
 1201SOL     OW15238   0.553   2.623   8.581  0.7986  0.1478  0.6819
 1201SOL    HW115239   0.571   2.686   8.511  1.2283  1.8630  2.3520
 1201SOL    HW215240   0.556   2.536   8.540 -1.5194 -0.0619  0.9429
 1202SOL     OW15241   3.732   3.277   6.174 -0.1145  0.0016 -0.0092
 1202SOL    HW115242   3.733   3.306   6.083 -1.9078  0.7156  0.2181
 1202SOL    HW215243   3.743   3.182   6.168 -3.2979 -0.2693 -1.1266
 1203SOL     OW15244   4.590   0.324   7.181 -0.2035  0.4364  0.4603
 1203SOL    HW115245   4.539   0.263   7.234 -1.2599 -0.1879 -1.2685
 1203SOL    HW215246   4.563   0.402   7.230 -1.9969  0.4932 -0.6384
 1204SOL     OW15247   0.741   0.359  11.394  0.1266  0.1136 -0.5540
 1204SOL    HW115248   0.710   0.347  11.484  0.6954  0.7469 -0.2646
 1204SOL    HW215249   0.746   0.266  11.374  0.4257  0.1636 -0.7223
 1205SOL     OW15250   4.231   0.432   7.493  0.0112  0.4198 -0.5798
 1205SOL    HW115251   4.264   0.522   7.496  1.0690  0.0135 -0.0219
 1205SOL    HW215252   4.247   0.411   7.401 -2.6424  0.3428 -1.0365
 1206SOL     OW15253   2.490   0.055   6.116 -0.1046  0.6252  0.0186
 1206SOL    HW115254   2.541   4.713   6.104  0.0856  0.4682  1.8821
 1206SOL    HW215255   2.413   0.033   6.064  0.5263  0.4645 -0.8497
 1207SOL     OW15256   2.365   4.284  15.331 -0.4318  0.1081  0.4791
 1207SOL    HW115257   2.353   4.249  15.420 -1.3696 -0.5677  0.0829
 1207SOL    HW215258   2.288   4.339  15.316  0.2364  0.4307 -1.8013
 1208SOL     OW15259   1.254   2.990   6.516  0.1099 -0.0732  0.0692
 1208SOL    HW115260   1.295   3.013   6.599  2.8124 -1.1722 -0.9337
 1208SOL    HW215261   1.297   2.905   6.508  1.6477  0.5400  1.7410
 1209SOL     OW15262   3.342   4.704   8.819  0.1349 -0.2373  0.4312
 1209SOL    HW115263   3.265   0.024   8.828 -0.4867 -1.2281  1.4659
 1209SOL    HW215264   3.291   4.632   8.783 -1.1448  1.6114 -1.4918
 1210SOL     OW15265   4.119   1.193   1.526 -0.5670 -0.3354 -0.4692
 1210SOL    HW115266   4.167   1.276   1.530 -1.7778  0.1725  4.0046
 1210SOL    HW215267   4.055   1.210   1.457 -0.6767 -1.6154 -0.6778
 1211SOL     OW15268   0.848   3.246   4.921  0.1467 -0.2763  0.1181
 1211SOL    HW115269   0.848   3.275   5.013  0.3541  0.1759 -0.0290
 1211SOL    HW215270   0.888   3.159   4.928  0.4323 -0.1613 -0.0815
 1212SOL     OW15271   3.757   4.122   9.672  0.1258  0.5199  0.0451
 1212SOL    HW115272   3.753   4.196   9.612  0.3527 -1.6028 -2.5405
 1212SOL    HW215273   3.688   4.066   9.636  1.5478 -1.2337  0.0791
 1213SOL     OW15274   3.390   0.558   1.127 -0.6147  0.1983 -0.3003
 1213SOL    HW115275   3.388   0.464   1.148 -1.0693  0.1460 -0.5831
 1213SOL    HW215276   3.303   0.581   1.158  0.0930  1.7919  0.5035
 1214SOL     OW15277   2.388   0.149   9.430 -0.4708 -0.3445 -0.2422
 1214SOL    HW115278   2.406   0.064   9.471 -1.0083  0.1211  0.9627
 1214SOL    HW215279   2.404   0.130   9.338 -0.6624 -0.0624 -0.3319
 1215SOL     OW15280   3.647   3.057   8.118 -0.0207  0.0918 -0.4675
 1215SOL    HW115281   3.565   3.058   8.167  0.6380 -0.8313  0.6291
 1215SOL    HW215282   3.699   3.047   8.198 -0.7648 -0.7734 -0.1041
 1216SOL     OW15283   2.202   1.325   7.664  0.0994  0.6627 -0.0564
 1216SOL    HW115284   2.179   1.393   7.727 -1.7221 -0.7744  0.8631
 1216SOL    HW215285   2.199   1.376   7.584 -0.3453  0.0505 -0.4315
 1217SOL     OW15286   1.495   2.363  15.126 -0.8958 -0.0520  0.5777
 1217SOL    HW115287   1.497   2.417  15.206  0.5071  1.1988 -0.3115
 1217SOL    HW215288   1.404   2.335  15.126 -1.2931  1.2425  0.6664
 1218SOL     OW15289   0.178   2.692  11.200  0.2676 -0.2521 -0.2907
 1218SOL    HW115290   0.251   2.752  11.189 -1.4947  1.5775 -2.0842
 1218SOL    HW215291   0.181   2.696  11.295 -0.9056 -0.6266 -0.2290
 1219SOL     OW15292   1.525   2.625   8.355  0.3228  0.0315 -0.1335
 1219SOL    HW115293   1.494   2.620   8.445  2.1699  1.9199  0.6301
 1219SOL    HW215294   1.619   2.637   8.368  0.5508  1.2369 -2.8445
 1220SOL     OW15295   4.481   2.829   2.438 -0.3202 -0.7112 -0.3257
 1220SOL    HW115296   4.444   2.819   2.351 -0.1388  2.6379 -0.7606
 1220SOL    HW215297   4.426   2.898   2.476  0.5404 -1.0542  1.5384
 1221SOL     OW15298   1.397   0.326   2.465 -0.6177 -0.4971 -0.0031
 1221SOL    HW115299   1.347   0.389   2.517 -1.9600 -0.3407 -1.4946
 1221SOL    HW215300   1.349   0.245   2.482 -2.2868  0.2144 -1.3379
 1222SOL     OW15301   0.738   0.605  13.444  0.1695 -0.0921 -0.6277
 1222SOL    HW115302   0.825   0.626  13.479  0.1260 -1.1476  0.1205
 1222SOL    HW215303   0.746   0.523  13.396  0.5724 -0.0167 -0.6960
 1223SOL     OW15304   0.187   0.077   3.446 -0.1403 -0.0468  0.2134
 1223SOL    HW115305   0.281   0.082   3.430 -0.2760  0.2664 -0.4941
 1223SOL    HW215306   0.183   4.731   3.492 -1.6102  0.7556  1.5241
 1224SOL     OW15307   1.209   2.491   0.234  0.0226 -0.2535  0.0873
 1224SOL    HW115308   1.195   2.400   0.210 -1.9151 -0.6482  2.7252
 1224SOL    HW215309   1.118   2.520   0.238  0.3951  1.1544 -2.1523
 1225SOL     OW15310   4.286   3.877  13.280  0.4241  0.4888 -0.2667
 1225SOL    HW115311   4.298   3.964  13.319  0.7456  0.2296  0.2157
 1225SOL    HW215312   4.369   3.839  13.309  0.7673  2.3941  1.2736
 1226SOL     OW15313   4.220   1.657  10.917  0.1739  0.0575 -0.1948
 1226SOL    HW115314   4.288   1.590  10.903  0.1383  0.6680 -3.2644
 1226SOL    HW215315   4.243   1.697  11.001 -0.8272 -1.2390  0.6823
 1227SOL     OW15316   4.182   4.376   3.673 -0.4462 -0.0208 -0.1075
 1227SOL    HW115317   4.239   4.415   3.607 -0.8191 -0.1996 -0.5356
 1227SOL    HW215318   4.101   4.375   3.623 -0.1837  1.7895 -0.5744
 1228SOL     OW15319   0.000   3.454  15.357 -0.9431 -0.4634  0.4730
 1228SOL    HW115320   4.719   3.530  15.413  2.5971 -0.6939  1.9800
 1228SOL    HW215321   0.092   3.468  15.336 -0.7832  0.5784  1.8462
 1229SOL     OW15322   0.319   3.025   4.204 -0.2136 -0.8633 -0.3344
 1229SOL    HW115323   0.374   2.968   4.257  0.0732 -2.6523 -2.5329
 1229SOL    HW215324   0.235   2.981   4.213 -1.2199  1.0241 -0.6622
 1230SOL     OW15325   4.490   0.439   0.917 -0.2556  0.1457  0.2701
 1230SOL    HW115326   4.506   0.372   0.983 -0.3641  1.8031  1.9700
 1230SOL    HW215327   4.399   0.436   0.889  0.5148  3.2409 -2.5557
 1231SOL     OW15328   4.537   2.326  17.282 -0.0512  0.4239  0.6096
 1231SOL    HW115329   4.558   2.243  17.240 -3.9875  0.1574 -0.8537
 1231SOL    HW215330   4.536   2.306  17.375 -0.4853 -1.1092  0.2668
 1232SOL     OW15331   4.532   4.004   7.521  0.4328 -0.4370  0.3212
 1232SOL    HW115332   4.563   4.067   7.455 -0.7370  2.5819  2.6323
 1232SOL    HW215333   4.578   3.922   7.507 -0.2346 -0.9031  0.8473
 1233SOL     OW15334   1.264   0.222   0.219 -0.0227  0.2434  0.8271
 1233SOL    HW115335   1.313   0.147   0.254 -0.7379  0.2736  1.8693
 1233SOL    HW215336   1.268   0.198   0.126  0.3006  2.4391  0.2820
 1234SOL     OW15337   0.988   4.497   6.473  0.0684 -0.3952  0.0828
 1234SOL    HW115338   0.911   4.452   6.507 -1.1976  2.4411  0.9533
 1234SOL    HW215339   1.056   4.459   6.530 -0.2326 -2.8934 -1.2377
 1235SOL     OW15340   0.207   3.236   1.066  0.1113  0.5724 -0.1289
 1235SOL    HW115341   0.276   3.243   1.131  0.1137 -1.6282  0.0961
 1235SOL    HW215342   0.198   3.325   1.033  0.8064  0.6567 -0.0825
 1236SOL     OW15343   1.681   1.969   4.589  0.2486 -0.7637  0.4834
 1236SOL    HW115344   1.763   1.982   4.541  0.0992  0.2478  0.4950
 1236SOL    HW215345   1.700   1.888   4.635  0.9546 -0.2436  1.1128
 1237SOL     OW15346   0.844   3.657  14.744 -0.0579  0.2305  0.2496
 1237SOL    HW115347   0.851   3.637  14.837  0.4046  1.1188  0.4024
 1237SOL    HW215348   0.815   3.748  14.743  0.6894  0.4652 -0.8122
 1238SOL     OW15349   1.639   1.409   3.849 -0.3534 -0.0519 -0.3608
 1238SOL    HW115350   1.545   1.408   3.869 -0.4256 -0.7966 -0.7631
 1238SOL    HW215351   1.663   1.488   3.897  0.8912 -0.1090 -0.8991
 1239SOL     OW15352   4.059   0.678   6.375  0.3927 -1.0231 -0.3313
 1239SOL    HW115353   4.039   0.585   6.365 -1.0849 -0.5021 -2.1328
 1239SOL    HW215354   4.114   0.692   6.297  0.5245 -1.1604 -0.2625
 1240SOL     OW15355   0.413   0.438  15.477 -0.1627  0.5038 -0.2529
 1240SOL    HW115356   0.414   0.440  15.572 -0.8254 -0.0937 -0.2368
 1240SOL    HW215357   0.340   0.499  15.473 -0.4107  0.1882 -0.5718
 1241SOL     OW15358   0.787   4.625   3.541  0.2540  0.3698 -0.4641
 1241SOL    HW115359   0.774   4.627   3.636 -1.5392 -1.4780 -0.6528
 1241SOL    HW215360   0.733   4.549   3.520 -0.0335  0.1796  0.9647
 1242SOL     OW15361   2.029   2.388  17.210 -0.2245 -0.0211 -0.5548
 1242SOL    HW115362   1.969   2.457  17.182  0.7282  1.0138 -0.0107
 1242SOL    HW215363   2.111   2.435  17.194 -0.0976  0.2532  0.8909
 1243SOL     OW15364   1.135   3.456   5.146  0.6990  0.0440 -0.2599
 1243SOL    HW115365   1.230   3.465   5.143  0.7777 -0.4798  0.5134
 1243SOL    HW215366   1.108   3.490   5.061  1.9624  0.4745 -0.4840
 1244SOL     OW15367   4.402   0.883   6.286 -0.1485 -0.3730  0.4296
 1244SOL    HW115368   4.426   0.867   6.195  2.9025  1.3164  0.9310
 1244SOL    HW215369   4.307   0.885   6.275  0.3760  2.8366 -3.3862
 1245SOL     OW15370   2.640   2.018  11.736  0.0442 -0.4029 -0.1641
 1245SOL    HW115371   2.687   2.101  11.748 -1.1204 -0.0644  1.8885
 1245SOL    HW215372   2.712   1.956  11.748 -0.6333 -1.8426 -3.4793
 1246SOL     OW15373   4.306   1.033   2.767  0.1422  0.2767 -0.4639
 1246SOL    HW115374   4.357   1.065   2.693 -0.5277  2.0298 -0.1873
 1246SOL    HW215375   4.220   1.060   2.734 -0.0838 -1.1810 -1.0640
 1247SOL     OW15376   4.715   1.483   2.440 -0.1528 -1.1842  0.3076
 1247SOL    HW115377   4.629   1.521   2.419 -0.2764 -0.9118  1.2713
 1247SOL    HW215378   0.019   1.569   2.443 -1.0369 -0.7502  0.1928
 1248SOL     OW15379   0.573   1.777   3.761  0.1749 -0.2497 -0.3713
 1248SOL    HW115380   0.541   1.803   3.847  1.3071 -0.1869  0.0296
 1248SOL    HW215381   0.663   1.764   3.792  0.5251 -2.0501 -2.1220
 1249SOL     OW15382   3.564   3.762  16.359  0.3660 -0.1958 -0.1249
 1249SOL    HW115383   3.524   3.756  16.272  0.1324  0.3821 -0.0581
 1249SOL    HW215384   3.514   3.836  16.392 -2.3929 -1.3310 -1.7298
 1250SOL     OW15385   3.314   0.129   8.287 -0.5535  0.3445 -0.0318
 1250SOL    HW115386   3.295   0.128   8.381 -1.4012  0.9527 -0.1971
 1250SOL    HW215387   3.234   0.174   8.262  0.2701  1.1039 -1.2672
 1251SOL     OW15388   4.580   2.818  11.666  0.3091 -0.0553  0.3439
 1251SOL    HW115389   4.581   2.911  11.690  1.7528  0.0359 -0.0364
 1251SOL    HW215390   4.606   2.779  11.750 -0.9277 -1.9155 -0.1525
 1252SOL     OW15391   3.789   1.827   7.713  0.3637 -0.2825 -0.2104
 1252SOL    HW115392   3.792   1.918   7.684  0.9250 -0.1695  0.2168
 1252SOL    HW215393   3.833   1.834   7.797 -2.0537 -0.8703  1.0963
 1253SOL     OW15394   4.024   3.170   8.412 -0.6586 -0.0819  0.4357
 1253SOL    HW115395   4.042   3.249   8.463 -0.2663 -0.1990  0.4753
 1253SOL    HW215396   4.109   3.127   8.400 -0.7199 -0.8354  2.7434
 1254SOL     OW15397   2.122   0.866   3.469  0.0151 -0.0351 -0.3745
 1254SOL    HW115398   2.091   0.843   3.381  0.7089 -0.8443 -0.4109
 1254SOL    HW215399   2.034   0.887   3.499  0.4913 -1.9136  2.2986
 1255SOL     OW15400   4.597   0.984   1.068 -0.3132 -0.4548  0.3721
 1255SOL    HW115401   4.614   0.890   1.065  2.1966  0.0009  0.4293
 1255SOL    HW215402   4.502   0.993   1.059 -0.1289  1.6238  0.3523
 1256SOL     OW15403   0.536   2.529   4.017  0.5462  0.2600 -0.6189
 1256SOL    HW115404   0.513   2.619   4.040  0.6937  0.7600 -2.4238
 1256SOL    HW215405   0.542   2.491   4.105 -0.8326  0.1105 -0.5998
 1257SOL     OW15406   1.395   2.743   8.603  0.0910  0.3435 -0.1190
 1257SOL    HW115407   1.386   2.648   8.599 -1.1109  0.4832 -0.8917
 1257SOL    HW215408   1.359   2.758   8.691  0.3807  1.9208 -0.2739
 1258SOL     OW15409   2.826   3.175  10.301  0.0509  0.0639 -0.4948
 1258SOL    HW115410   2.745   3.196  10.255  0.3263 -0.8737 -1.4129
 1258SOL    HW215411   2.819   3.221  10.384 -2.1615 -1.2811  0.0513
 1259SOL     OW15412   2.012   0.660   7.484 -0.0308 -0.2583  0.2294
 1259SOL    HW115413   2.037   0.571   7.461 -0.4861 -0.6479  1.2545
 1259SOL    HW215414   1.927   0.636   7.520 -1.6436  0.6086 -2.9140
 1260SOL     OW15415   3.289   2.161   7.300  0.4758 -0.4607 -0.2322
 1260SOL    HW115416   3.302   2.206   7.384 -0.2687  1.0913 -0.9340
 1260SOL    HW215417   3.346   2.086   7.315 -1.3137 -1.3201  2.3380
 1261SOL     OW15418   2.377   2.359   3.421  0.7358  0.4818 -0.1882
 1261SOL    HW115419   2.296   2.324   3.457  1.4604 -1.5664 -0.4967
 1261SOL    HW215420   2.357   2.452   3.422  0.8937  0.5086  0.4477
 1262SOL     OW15421   0.775   2.681   9.555 -0.5278  0.5662 -0.1433
 1262SOL    HW115422   0.735   2.673   9.641 -0.7689  0.5576 -0.2552
 1262SOL    HW215423   0.704   2.722   9.505 -0.8343 -0.4616 -0.5322
 1263SOL     OW15424   2.458   0.066   9.173 -0.3465  0.7504 -0.9360
 1263SOL    HW115425   2.511   0.047   9.096 -0.2796 -0.2958 -0.6339
 1263SOL    HW215426   2.369   0.048   9.141 -0.6721 -0.6592  0.7261
 1264SOL     OW15427   3.915   4.324  16.916  0.1276  0.0195 -0.2957
 1264SOL    HW115428   3.951   4.340  17.003  1.0685  0.9911 -0.8725
 1264SOL    HW215429   3.971   4.257  16.878  0.4709 -0.8868  1.7927
 1265SOL     OW15430   0.468   2.095   2.845 -0.0212  0.6748 -0.5916
 1265SOL    HW115431   0.395   2.090   2.906 -0.2238 -0.4851 -0.9324
 1265SOL    HW215432   0.535   2.138   2.898  0.4834 -1.3168  0.3628
 1266SOL     OW15433   0.092   0.777   7.600  0.1569  0.0209 -0.3096
 1266SOL    HW115434   0.007   0.820   7.613  0.1383 -0.2576  0.4968
 1266SOL    HW215435   0.148   0.851   7.624 -1.3194  0.3779  2.0273
 1267SOL     OW15436   1.138   2.419   3.402  0.1192  0.5630  0.9547
 1267SOL    HW115437   1.048   2.444   3.422 -0.0651  0.6654 -0.0035
 1267SOL    HW215438   1.136   2.464   3.317  0.2839 -0.0864  0.6094
 1268SOL     OW15439   3.769   2.365   5.586 -0.7508 -0.2564 -0.2074
 1268SOL    HW115440   3.795   2.273   5.575  0.8021 -0.0369  1.4806
 1268SOL    HW215441   3.843   2.391   5.641 -1.3131 -1.1808  0.9761
 1269SOL     OW15442   0.573   2.839   5.767  0.7601  0.3086  0.0233
 1269SOL    HW115443   0.481   2.839   5.795  0.4976 -0.0284 -0.8425
 1269SOL    HW215444   0.578   2.912   5.706 -1.5781  0.8136  0.4412
 1270SOL     OW15445   1.711   2.638   4.860 -0.4855 -0.3765 -0.0188
 1270SOL    HW115446   1.710   2.547   4.831 -1.5668 -0.4526  0.2683
 1270SOL    HW215447   1.734   2.691   4.784 -0.2362  0.8570  0.9141
 1271SOL     OW15448   2.186   0.658   1.356 -0.0421 -0.2258  0.1731
 1271SOL    HW115449   2.244   0.621   1.289  0.6868 -0.1758  0.7789
 1271SOL    HW215450   2.228   0.625   1.435 -0.2322  0.6946  0.6514
 1272SOL     OW15451   1.079   2.211   5.993  0.1933 -0.4957 -0.2350
 1272SOL    HW115452   1.135   2.271   6.043 -1.9640  1.2118  0.1177
 1272SOL    HW215453   1.102   2.131   6.039 -0.2380  0.5212  1.7630
 1273SOL     OW15454   2.202   0.573  11.900  1.0506  0.2458 -0.0413
 1273SOL    HW115455   2.279   0.629  11.904 -0.9806  2.9687  0.3679
 1273SOL    HW215456   2.180   0.578  11.807  0.5632  0.9848  0.1188
 1274SOL     OW15457   4.727   1.341   4.817 -0.5429  0.3075  0.1422
 1274SOL    HW115458   0.060   1.385   4.770 -0.3905  0.6360  0.6706
 1274SOL    HW215459   0.041   1.287   4.877  0.4491 -1.4108 -2.2775
 1275SOL     OW15460   3.101   1.383  13.064 -0.1733  0.0782  0.4409
 1275SOL    HW115461   3.007   1.397  13.055 -0.3760 -0.1394  2.2449
 1275SOL    HW215462   3.133   1.463  13.105 -0.1159 -0.7042  1.9052
 1276SOL     OW15463   4.619   3.855   3.749 -0.2373  0.1158  0.3843
 1276SOL    HW115464   4.657   3.767   3.739 -0.2718  0.0918  0.4637
 1276SOL    HW215465   4.626   3.882   3.657  0.7657  0.1950  0.4899
 1277SOL     OW15466   2.371   2.261  17.197  0.4125 -0.1715 -0.0778
 1277SOL    HW115467   2.344   2.181  17.152 -0.3059 -0.9552  1.7711
 1277SOL    HW215468   2.370   2.213  17.279 -0.9374  2.3278  1.3662
 1278SOL     OW15469   1.365   1.320  15.888 -0.2877 -0.0499 -0.0418
 1278SOL    HW115470   1.422   1.391  15.916  0.1540 -1.2061  2.0612
 1278SOL    HW215471   1.413   1.288  15.812  0.2826  1.2302 -0.2199
 1279SOL     OW15472   1.422   1.390   2.452 -0.4532  0.2832  0.0668
 1279SOL    HW115473   1.457   1.467   2.407  0.6422 -0.1478  0.1723
 1279SOL    HW215474   1.400   1.426   2.538  1.4055  1.2598  0.1214
 1280SOL     OW15475   4.183   0.620   5.647 -0.0212 -0.3813 -0.0965
 1280SOL    HW115476   4.187   0.573   5.563 -0.7778  1.8583 -1.3929
 1280SOL    HW215477   4.124   0.688   5.614 -0.5179 -1.1740 -0.8435
 1281SOL     OW15478   2.795   2.899   4.469 -0.5932 -0.0875 -0.0560
 1281SOL    HW115479   2.857   2.826   4.472  0.7936  1.1175  0.4597
 1281SOL    HW215480   2.777   2.906   4.563  0.9197 -0.6475  0.2738
 1282SOL     OW15481   0.736   2.688   2.998 -0.2938 -0.7230 -0.7811
 1282SOL    HW115482   0.767   2.622   3.061 -1.3985 -2.1142 -1.7001
 1282SOL    HW215483   0.659   2.640   2.966 -1.0144 -0.0813  0.0058
 1283SOL     OW15484   3.966   4.270  12.509  0.5724 -0.1375  0.1587
 1283SOL    HW115485   4.028   4.233  12.446  1.1513  0.9395  0.0852
 1283SOL    HW215486   4.027   4.273  12.583  0.4084  1.8123  0.2167
 1284SOL     OW15487   2.423   2.380   1.639  0.2894  0.1774 -0.3259
 1284SOL    HW115488   2.362   2.390   1.566  0.2695  0.8762 -0.2194
 1284SOL    HW215489   2.431   2.472   1.667 -2.5073 -0.2435  1.8603
 1285SOL     OW15490   1.150   2.242   3.817 -0.5123 -0.6380  0.3194
 1285SOL    HW115491   1.055   2.232   3.806 -0.8213 -0.3323  2.6478
 1285SOL    HW215492   1.187   2.237   3.729  0.8166  0.3350  0.8235
 1286SOL     OW15493   3.039   3.502   8.562  1.0431  0.5884  0.4379
 1286SOL    HW115494   3.026   3.555   8.482  1.0883 -1.3951 -0.8840
 1286SOL    HW215495   2.956   3.455   8.567  0.3218  1.7367 -0.4974
 1287SOL     OW15496   2.835   3.070   4.242 -0.5584 -0.2678 -0.1486
 1287SOL    HW115497   2.778   3.141   4.271  0.1386  0.2363 -0.0208
 1287SOL    HW215498   2.811   3.008   4.311  1.7158  0.3058  1.1651
 1288SOL     OW15499   1.807   2.860   0.795 -0.7534  0.2124 -0.0479
 1288SOL    HW115500   1.779   2.848   0.704  1.2596 -1.8545 -0.4092
 1288SOL    HW215501   1.792   2.772   0.829 -1.4854  0.1277 -0.5945
 1289SOL     OW15502   2.100   2.409   4.979  0.3603  0.2322 -0.0964
 1289SOL    HW115503   2.188   2.371   4.980  0.0695 -0.4447 -0.0113
 1289SOL    HW215504   2.050   2.327   4.978  0.3057  0.2346  1.8553
 1290SOL     OW15505   3.138   0.734  11.177  0.0473 -0.6506 -0.4313
 1290SOL    HW115506   3.215   0.678  11.191  1.5363  1.4470 -0.2599
 1290SOL    HW215507   3.158   0.774  11.092 -1.8945 -0.1633 -0.6599
 1291SOL     OW15508   3.076   3.741  16.149  0.0778 -0.3872 -0.1959
 1291SOL    HW115509   3.130   3.803  16.198  2.6604 -1.1048 -2.1620
 1291SOL    HW215510   2.987   3.773  16.166  1.8762  2.9313  2.8765
 1292SOL     OW15511   1.715   4.451   5.173 -0.3121  0.0095  0.2098
 1292SOL    HW115512   1.765   4.421   5.249 -0.5327 -0.6664  0.0939
 1292SOL    HW215513   1.624   4.457   5.203 -1.2444 -1.0727 -2.3963
 1293SOL     OW15514   2.787   0.468   6.235 -0.3834  0.1776  0.0157
 1293SOL    HW115515   2.727   0.423   6.176  1.0151  0.7946 -1.8577
 1293SOL    HW215516   2.795   0.399   6.301  0.3686  1.1319  0.9227
 1294SOL     OW15517   3.095   3.414   3.715  0.0551  0.2611 -0.9942
 1294SOL    HW115518   3.153   3.413   3.638  0.8628 -1.5989 -0.3510
 1294SOL    HW215519   3.038   3.490   3.703  0.6617  0.8621 -0.0924
 1295SOL     OW15520   3.279   2.207  10.088 -0.0241 -0.0080 -0.2250
 1295SOL    HW115521   3.319   2.252  10.162  2.6878 -2.9871  0.1267
 1295SOL    HW215522   3.360   2.162  10.063 -0.3688 -0.3042 -0.8224
 1296SOL     OW15523   0.918   1.933   6.535  1.1028 -0.3145  0.2300
 1296SOL    HW115524   0.882   1.845   6.544  1.7994 -0.8223 -2.1625
 1296SOL    HW215525   0.948   1.950   6.625 -0.4953  1.1395  0.4905
 1297SOL     OW15526   4.378   4.002   4.797  0.2591 -0.0204  0.2645
 1297SOL    HW115527   4.303   3.971   4.746 -1.0578 -2.4445  3.6539
 1297SOL    HW215528   4.326   4.033   4.872  0.8105  2.5636 -0.4319
 1298SOL     OW15529   1.119   3.500   6.318  0.3149  0.0829  0.2793
 1298SOL    HW115530   1.058   3.486   6.246  0.2285  0.3851  0.2926
 1298SOL    HW215531   1.072   3.576   6.354 -0.7558 -1.2254  1.6543
 1299SOL     OW15532   2.025   2.065   4.948 -0.6877  0.3979  0.1013
 1299SOL    HW115533   2.067   2.042   4.865 -1.0711 -1.5747  0.4569
 1299SOL    HW215534   2.066   2.003   5.009 -2.7897  0.0366  1.1411
 1300SOL     OW15535   4.604   3.927   3.020  0.1246  0.1601 -0.0093
 1300SOL    HW115536   4.670   3.858   3.019  0.4691  0.4684  1.3322
 1300SOL    HW215537   4.659   3.997   3.055 -1.3468  0.7303  1.1829
 1301SOL     OW15538   2.932   2.365   5.357  0.2328  0.0374 -0.1175
 1301SOL    HW115539   3.019   2.368   5.397  1.4600 -2.1147 -2.6276
 1301SOL    HW215540   2.928   2.274   5.326 -0.4300  0.1161 -0.2694
 1302SOL     OW15541   1.104   3.849   6.635 -0.0691 -0.3873  0.5504
 1302SOL    HW115542   1.087   3.900   6.556 -0.4466  1.0128  1.5375
 1302SOL    HW215543   1.015   3.842   6.671 -0.0959 -0.1285  0.5307
 1303SOL     OW15544   0.332   2.259   3.894  0.6967  0.1732 -0.5230
 1303SOL    HW115545   0.307   2.328   3.956 -0.0254  0.3051 -0.9681
 1303SOL    HW215546   0.250   2.213   3.879  1.2017 -0.3594 -1.6262
 1304SOL     OW15547   3.839   2.165   4.500  0.3010 -0.7442 -0.0419
 1304SOL    HW115548   3.873   2.144   4.587 -0.3986 -1.1149  0.1420
 1304SOL    HW215549   3.822   2.080   4.460 -0.1084 -0.2553 -0.8989
 1305SOL     OW15550   2.544   4.437  13.979 -0.0023 -0.3181  0.1351
 1305SOL    HW115551   2.449   4.437  13.969  0.3185  2.3314 -2.9687
 1305SOL    HW215552   2.578   4.417  13.892 -0.6561 -1.0448  0.0506
 1306SOL     OW15553   3.812   1.564   3.818  0.1718 -0.1960 -0.0217
 1306SOL    HW115554   3.719   1.575   3.834 -0.0006 -1.8374  0.1227
 1306SOL    HW215555   3.843   1.654   3.809  1.9061 -0.5718  2.1022
 1307SOL     OW15556   4.249   1.176  16.636  0.3056 -0.0086  0.4639
 1307SOL    HW115557   4.246   1.150  16.728 -0.6191  1.9226  0.9658
 1307SOL    HW215558   4.176   1.236  16.623 -0.2281 -0.7724 -0.0737
 1308SOL     OW15559   0.288   1.253  16.420 -0.5170 -0.2019  0.0947
 1308SOL    HW115560   0.351   1.325  16.432 -0.1491 -0.6906  1.0506
 1308SOL    HW215561   0.231   1.276  16.493 -0.3273 -0.4436  0.3166
 1309SOL     OW15562   1.533   4.520   5.630 -0.0866 -0.0536 -0.1560
 1309SOL    HW115563   1.468   4.580   5.593 -0.1445 -0.9847 -1.5365
 1309SOL    HW215564   1.541   4.549   5.721 -1.8167  2.7840 -0.9131
 1310SOL     OW15565   4.629   0.714   1.085  0.5069 -0.3681 -0.1770
 1310SOL    HW115566   4.642   0.642   1.147 -0.8481 -0.9567 -0.5754
 1310SOL    HW215567   4.603   0.666   1.006  0.9692 -1.8613  0.5661
 1311SOL     OW15568   1.831   3.937   1.927  0.3555 -0.8973  0.2124
 1311SOL    HW115569   1.826   3.932   1.831 -0.3072 -2.2583  0.3267
 1311SOL    HW215570   1.741   3.910   1.943  0.0153  0.0798 -0.0175
 1312SOL     OW15571   3.200   2.511   2.454  0.7045 -0.1634  0.3712
 1312SOL    HW115572   3.165   2.434   2.497  0.0095 -0.2137 -0.2878
 1312SOL    HW215573   3.166   2.503   2.365 -1.7017  1.9512  1.1177
 1313SOL     OW15574   2.375   2.415   3.124 -0.2831  0.2401  0.2107
 1313SOL    HW115575   2.394   2.503   3.156 -0.3664 -0.1451  1.3234
 1313SOL    HW215576   2.444   2.409   3.057 -2.3558 -0.4702 -1.8693
 1314SOL     OW15577   1.002   2.753   4.101 -0.3190 -0.4450  0.1597
 1314SOL    HW115578   1.089   2.745   4.140 -0.4250  0.2363  0.5318
 1314SOL    HW215579   0.950   2.758   4.181 -0.1591 -1.3819  0.3295
 1315SOL     OW15580   2.177   2.901   2.465 -0.1859 -0.6373  0.0595
 1315SOL    HW115581   2.082   2.897   2.462 -0.3467  1.3508  2.9943
 1315SOL    HW215582   2.184   2.945   2.550 -0.3209  0.6067 -0.5822
 1316SOL     OW15583   2.024   2.872   9.682  0.1803  0.1506 -0.2089
 1316SOL    HW115584   1.954   2.922   9.640  0.0361 -1.6795 -2.1374
 1316SOL    HW215585   1.989   2.853   9.769  0.4224 -1.2347 -0.4105
 1317SOL     OW15586   3.803   3.851   9.676 -0.0589  0.1349  0.3674
 1317SOL    HW115587   3.887   3.838   9.634 -1.5057 -0.1953 -2.3856
 1317SOL    HW215588   3.811   3.944   9.696 -0.8021  0.2380  0.2187
 1318SOL     OW15589   4.366   0.851   5.634 -0.0823 -0.0670  0.3918
 1318SOL    HW115590   4.380   0.777   5.575  0.0686  0.3512 -0.0880
 1318SOL    HW215591   4.327   0.816   5.714  2.9765 -0.3403  1.7682
 1319SOL     OW15592   4.506   3.001   0.979  0.2539  0.0782  0.3161
 1319SOL    HW115593   4.461   3.068   0.926 -0.1594  0.9681  1.7999
 1319SOL    HW215594   4.568   3.061   1.020 -0.3042  0.9728 -0.1209
 1320SOL     OW15595   0.122   1.973   1.625 -0.5868 -0.1180  0.4054
 1320SOL    HW115596   0.204   1.974   1.674 -0.4659 -1.0911  0.2170
 1320SOL    HW215597   0.147   1.917   1.552  1.8027 -2.0305  2.6854
 1321SOL     OW15598   3.966   1.374   7.963 -0.0223  0.1594  0.4852
 1321SOL    HW115599   3.953   1.466   7.940  1.1098  0.0248 -0.6993
 1321SOL    HW215600   3.935   1.322   7.889  0.4315 -1.4201  1.3976
 1322SOL     OW15601   3.371   0.639   5.894  1.3027  0.0916  0.6000
 1322SOL    HW115602   3.341   0.672   5.978 -1.5651  0.0167 -0.3969
 1322SOL    HW215603   3.309   0.566   5.882 -0.4230  1.7089 -0.3869
 1323SOL     OW15604   3.623   3.800   2.237  0.6286  0.2903 -0.5163
 1323SOL    HW115605   3.639   3.882   2.190 -0.3224 -0.3793 -2.0034
 1323SOL    HW215606   3.704   3.761   2.203  0.0346 -0.0822 -1.4857
 1324SOL     OW15607   3.262   3.795   7.010  0.0065  0.6472  0.0150
 1324SOL    HW115608   3.346   3.820   7.051  0.6389  0.5439 -1.2371
 1324SOL    HW215609   3.290   3.758   6.927  1.6756 -0.7543  1.1952
 1325SOL     OW15610   2.831   4.697  11.669  0.0363 -0.2050 -0.8638
 1325SOL    HW115611   2.869   4.643  11.739  0.4720  1.9862  0.6097
 1325SOL    HW215612   2.826   0.048  11.704  1.3687 -0.0403 -1.0917
 1326SOL     OW15613   1.482   0.739   3.550 -0.3171  0.5797 -0.2559
 1326SOL    HW115614   1.418   0.766   3.485 -1.4726  0.1670  0.7189
 1326SOL    HW215615   1.519   0.824   3.574  0.9002 -0.0826  0.2262
 1327SOL     OW15616   2.588   4.615  12.610 -0.4906  0.3093  0.5538
 1327SOL    HW115617   2.514   4.586  12.558  0.6059 -0.0807 -0.7843
 1327SOL    HW215618   2.604   4.539  12.667 -0.7238  0.0081  0.2149
 1328SOL     OW15619   1.748   0.796   7.029  0.4748  0.0826 -0.1766
 1328SOL    HW115620   1.825   0.745   7.053  0.9332  1.2978  0.9592
 1328SOL    HW215621   1.713   0.748   6.954  2.0342 -0.5137 -0.5073
 1329SOL     OW15622   4.247   1.243   7.895  0.6112 -0.1001  0.0801
 1329SOL    HW115623   4.164   1.285   7.915 -0.2885 -0.6835 -2.4728
 1329SOL    HW215624   4.301   1.322   7.889  0.0787  0.2161 -0.5178
 1330SOL     OW15625   1.930   3.805   7.320  0.1574 -0.8944  0.8416
 1330SOL    HW115626   1.989   3.773   7.252 -2.4171 -2.0913 -0.8203
 1330SOL    HW215627   1.924   3.725   7.372  0.9487 -1.9579 -0.7058
 1331SOL     OW15628   4.111   3.702   4.496  0.7026  0.1800 -0.0449
 1331SOL    HW115629   4.120   3.728   4.405  1.8268  1.2676  0.3654
 1331SOL    HW215630   4.201   3.679   4.520  0.8780 -0.3665 -1.2382
 1332SOL     OW15631   2.271   0.701  10.098 -0.1705  0.3319 -0.2364
 1332SOL    HW115632   2.214   0.778  10.099  0.2266  0.6331 -0.6383
 1332SOL    HW215633   2.256   0.643  10.173  0.6071  1.1943  0.5744
 1333SOL     OW15634   4.716   1.405   5.222  0.1565 -0.2874  0.0521
 1333SOL    HW115635   4.666   1.399   5.303  1.2197 -0.0127  0.7196
 1333SOL    HW215636   4.648   1.446   5.167  1.7265  0.1535 -1.5669
 1334SOL     OW15637   1.306   3.054   1.431  0.5065 -0.2523  0.7865
 1334SOL    HW115638   1.337   3.075   1.342 -0.5530 -2.9419 -0.2034
 1334SOL    HW215639   1.369   2.985   1.452  0.0906 -1.1334 -0.8473
 1335SOL     OW15640   2.511   2.561   1.908 -0.0158  0.7297  0.3109
 1335SOL    HW115641   2.480   2.523   1.989  0.5369  2.1274  1.1897
 1335SOL    HW215642   2.424   2.577   1.872  0.7590  0.1506 -1.8632
 1336SOL     OW15643   0.622   1.447  16.867 -0.1747 -0.6588  0.0541
 1336SOL    HW115644   0.654   1.357  16.871 -1.9065 -1.2983 -0.5520
 1336SOL    HW215645   0.697   1.495  16.902 -0.3764 -0.9657  0.9001
 1337SOL     OW15646   3.715   1.314  11.062  0.2069  0.6223 -0.1542
 1337SOL    HW115647   3.741   1.328  11.153  0.6491 -1.7362  0.0844
 1337SOL    HW215648   3.794   1.271  11.031 -0.1553  0.6005 -1.0339
 1338SOL     OW15649   2.310   2.644   2.461  0.3615 -0.2681  0.0534
 1338SOL    HW115650   2.232   2.676   2.506  2.0302  2.9137  0.6800
 1338SOL    HW215651   2.313   2.706   2.388  0.0597 -0.1912  0.1080
 1339SOL     OW15652   3.230   0.638   5.612 -0.0043 -0.1945  0.0112
 1339SOL    HW115653   3.196   0.611   5.697 -0.0890  0.1970  0.1010
 1339SOL    HW215654   3.181   0.593   5.544 -1.5594  0.5948  0.6095
 1340SOL     OW15655   0.663   2.022   2.098  0.3100  0.4333 -0.3824
 1340SOL    HW115656   0.617   1.956   2.149 -1.3149  0.5260 -1.7565
 1340SOL    HW215657   0.722   1.963   2.051  2.0740  1.6703  0.2429
 1341SOL     OW15658   3.864   2.527  17.177 -0.2631  0.5591 -0.1720
 1341SOL    HW115659   3.774   2.510  17.150  0.0988 -0.1533 -0.9381
 1341SOL    HW215660   3.907   2.512  17.093 -0.2982  2.0976 -0.4663
 1342SOL     OW15661   1.950   4.567   8.533 -0.3081 -0.2824 -0.4994
 1342SOL    HW115662   1.938   4.662   8.525  1.9137  0.1091  0.9522
 1342SOL    HW215663   1.961   4.545   8.440 -0.2446 -0.5716 -0.4249
 1343SOL     OW15664   2.713   2.017   6.373  0.2222 -0.0046 -0.2609
 1343SOL    HW115665   2.723   1.988   6.464 -0.7606  0.6902  0.0633
 1343SOL    HW215666   2.801   2.051   6.356 -0.4462  1.3730 -0.9866
 1344SOL     OW15667   3.078   1.536   4.301  0.2265  0.1402  0.1133
 1344SOL    HW115668   3.137   1.528   4.376  0.0634  1.2508  0.3601
 1344SOL    HW215669   3.019   1.601   4.339 -0.7553  0.4609 -1.9907
 1345SOL     OW15670   0.775   0.439   0.638 -0.2825  0.1691  0.1515
 1345SOL    HW115671   0.843   0.469   0.698 -0.9880  0.3915  0.8331
 1345SOL    HW215672   0.726   0.380   0.696 -0.2127  1.1178  1.1802
 1346SOL     OW15673   3.177   4.163   9.017  0.0353  0.0093  0.0219
 1346SOL    HW115674   3.158   4.086   9.070 -2.7656  0.8115  0.1346
 1346SOL    HW215675   3.256   4.129   8.975 -0.7863 -0.7861 -0.8785
 1347SOL     OW15676   4.597   1.710   5.672  0.5532  0.4004  0.0877
 1347SOL    HW115677   4.514   1.673   5.702  1.1409  0.9853  2.3766
 1347SOL    HW215678   4.582   1.692   5.579  1.0544 -0.6508  0.2126
 1348SOL     OW15679   1.680   2.729   1.608  0.0801  0.6617 -0.3790
 1348SOL    HW115680   1.756   2.690   1.650 -2.2429 -3.5405 -0.1168
 1348SOL    HW215681   1.726   2.788   1.548 -0.0527 -0.4827 -1.6108
 1349SOL     OW15682   1.772   3.505   2.216  0.3471  0.0413 -0.0822
 1349SOL    HW115683   1.677   3.519   2.212 -0.3285 -4.1523  0.6137
 1349SOL    HW215684   1.792   3.598   2.212 -1.9066  0.5018 -0.4984
 1350SOL     OW15685   3.822   1.741  15.079 -0.0580  0.5197  0.3789
 1350SOL    HW115686   3.746   1.715  15.132 -1.3316  1.9344 -0.7901
 1350SOL    HW215687   3.864   1.789  15.151  1.1369  0.0981 -0.0321
 1351SOL     OW15688   0.005   2.814  13.437  0.2612 -0.2694  0.2244
 1351SOL    HW115689   0.079   2.818  13.377 -0.6251  0.3133 -0.8337
 1351SOL    HW215690   4.692   2.892  13.413 -1.4181 -2.2233 -2.6055
 1352SOL     OW15691   1.230   0.325   7.548 -0.0423 -0.0285 -0.2320
 1352SOL    HW115692   1.274   0.287   7.472 -0.0614  0.2428 -0.3772
 1352SOL    HW215693   1.306   0.353   7.598  0.1181 -0.9488  0.0384
 1353SOL     OW15694   4.402   2.111   9.621 -0.4404  0.0832 -0.5592
 1353SOL    HW115695   4.410   2.074   9.709 -1.5741  0.9164 -0.1115
 1353SOL    HW215696   4.489   2.085   9.590 -0.8546 -3.2628  1.0258
 1354SOL     OW15697   1.179   1.274   2.403  0.0550  0.4783  0.5305
 1354SOL    HW115698   1.145   1.327   2.476  1.0169  0.4296  1.0119
 1354SOL    HW215699   1.268   1.294   2.431  0.5984  0.1842 -1.0346
 1355SOL     OW15700   4.274   1.685   7.310 -0.2584 -0.6444  0.5405
 1355SOL    HW115701   4.279   1.669   7.216  1.0611  0.0192  0.4975
 1355SOL    HW215702   4.190   1.731   7.320  0.2985  0.9213 -1.7337
 1356SOL     OW15703   2.991   4.151   5.712 -0.0809  0.0667 -0.4017
 1356SOL    HW115704   3.057   4.084   5.695  0.3586  0.5815 -0.7526
 1356SOL    HW215705   3.003   4.212   5.639 -2.3220 -0.4004 -1.1609
 1357SOL     OW15706   3.916   0.494  16.942  0.0666 -0.3773 -0.1783
 1357SOL    HW115707   3.922   0.491  16.847 -1.3898 -1.4150 -0.2342
 1357SOL    HW215708   3.836   0.546  16.953  0.3815  0.1296 -0.2672
 1358SOL     OW15709   3.546   4.112   2.408 -0.1766  0.2514  0.2947
 1358SOL    HW115710   3.566   4.198   2.444  1.4074  0.6430 -1.4686
 1358SOL    HW215711   3.579   4.055   2.478 -0.8775 -1.1731 -0.5348
 1359SOL     OW15712   0.692   2.730   9.161  0.0588  0.4891 -0.1033
 1359SOL    HW115713   0.729   2.666   9.223 -1.6350  0.2224  0.6393
 1359SOL    HW215714   0.768   2.752   9.108  0.4169 -1.0079 -0.2158
 1360SOL     OW15715   1.543   2.508   8.052  0.3048 -0.2946 -0.1084
 1360SOL    HW115716   1.601   2.465   8.115  2.3431  1.0243 -1.0762
 1360SOL    HW215717   1.512   2.578   8.110 -2.3657 -0.0501 -1.8678
 1361SOL     OW15718   3.395   3.195   0.862 -0.2457  0.0556  0.0068
 1361SOL    HW115719   3.397   3.174   0.955 -0.7859  0.6558  0.1573
 1361SOL    HW215720   3.487   3.217   0.849 -0.3729 -0.6194 -2.1645
 1362SOL     OW15721   4.229   2.054   0.964  0.1307  0.4298  0.1894
 1362SOL    HW115722   4.252   2.145   0.943 -0.5282  0.2252 -1.4020
 1362SOL    HW215723   4.279   2.044   1.045 -1.7350  0.0568  1.2949
 1363SOL     OW15724   2.177   2.773   6.654  0.2111  0.2366  0.0549
 1363SOL    HW115725   2.174   2.868   6.652  2.8136  0.3502  0.5509
 1363SOL    HW215726   2.086   2.745   6.651 -0.1386  1.4456 -0.3353
 1364SOL     OW15727   0.807   3.013   7.792  0.3071  0.2660 -0.8926
 1364SOL    HW115728   0.887   2.970   7.825  0.5630  0.9963 -0.5549
 1364SOL    HW215729   0.810   3.085   7.855 -0.4619 -0.3614 -0.1304
 1365SOL     OW15730   0.752   4.363  11.261  0.3629  0.3608 -0.4569
 1365SOL    HW115731   0.719   4.344  11.349 -1.2235 -0.7260 -1.2978
 1365SOL    HW215732   0.723   4.451  11.237  2.7656  1.8467  2.1332
 1366SOL     OW15733   4.292   3.120   5.631  0.0844  0.2219 -1.0981
 1366SOL    HW115734   4.214   3.065   5.626  0.7145 -0.9229  2.0122
 1366SOL    HW215735   4.312   3.124   5.725 -0.3045 -0.0039 -1.0055
 1367SOL     OW15736   2.028   2.092  11.651  0.4846 -0.0280  0.8131
 1367SOL    HW115737   1.932   2.092  11.658  0.5872 -0.5397  2.2409
 1367SOL    HW215738   2.038   2.179  11.613 -0.3917 -0.0941  0.4105
 1368SOL     OW15739   3.084   0.252   3.394  0.4049 -0.1414  0.0860
 1368SOL    HW115740   3.128   0.213   3.469  2.3036 -1.1850 -1.5565
 1368SOL    HW215741   3.014   0.191   3.369  1.3744 -1.0400 -0.4345
 1369SOL     OW15742   4.300   2.594   7.081  0.2654 -0.1920  0.5412
 1369SOL    HW115743   4.232   2.629   7.139  0.3005 -1.5806  1.4181
 1369SOL    HW215744   4.372   2.653   7.103 -2.8724  2.6838  3.0207
 1370SOL     OW15745   2.303   1.456   2.266 -0.1826 -0.5180  0.0286
 1370SOL    HW115746   2.216   1.418   2.260 -0.3109 -0.0176 -1.1554
 1370SOL    HW215747   2.327   1.472   2.175 -0.4158 -0.4255 -0.0148
 1371SOL     OW15748   0.954   1.285   5.228  0.2803  0.0383  0.0623
 1371SOL    HW115749   0.988   1.316   5.312 -1.6708 -0.0528  0.8902
 1371SOL    HW215750   1.030   1.241   5.190  0.8676  1.8209 -0.8455
 1372SOL     OW15751   0.592   1.381  17.143  0.3304 -0.8209 -0.1961
 1372SOL    HW115752   0.549   1.423  17.068  1.0102 -3.1086 -1.8530
 1372SOL    HW215753   0.674   1.356  17.101  0.5769 -0.2843 -0.0318
 1373SOL     OW15754   4.288   3.660   8.274  0.2620  0.2805 -0.2469
 1373SOL    HW115755   4.249   3.693   8.193 -1.4254 -0.8876  0.1032
 1373SOL    HW215756   4.268   3.732   8.334  4.4519  1.3916 -0.1799
 1374SOL     OW15757   0.034   2.919   0.869 -0.8645  0.0726 -0.6216
 1374SOL    HW115758   4.677   2.930   0.870 -0.7738  1.0291 -1.7138
 1374SOL    HW215759   0.036   2.859   0.943 -3.4801  1.4403  0.5429
 1375SOL     OW15760   2.703   4.105  15.355  0.3282 -0.4997 -0.2425
 1375SOL    HW115761   2.676   4.019  15.324 -0.9625 -0.5157  0.9124
 1375SOL    HW215762   2.657   4.112  15.439  2.0616  3.2022  0.3969
 1376SOL     OW15763   3.429   3.439   1.561  0.1227  0.1684  0.2481
 1376SOL    HW115764   3.455   3.347   1.563  1.7874  0.6670  1.4902
 1376SOL    HW215765   3.375   3.457   1.484  0.1635 -0.8997 -0.0332
 1377SOL     OW15766   2.821   2.453   1.394 -0.1654  0.3507  0.0496
 1377SOL    HW115767   2.888   2.521   1.393  0.6680 -0.4527  3.2240
 1377SOL    HW215768   2.779   2.487   1.315 -0.6334 -2.0331 -0.7472
 1378SOL     OW15769   3.591   2.537   3.407  0.1388  0.1569 -0.3369
 1378SOL    HW115770   3.555   2.451   3.426  0.1541  0.0908 -0.6180
 1378SOL    HW215771   3.574   2.545   3.313  2.2029  1.6159 -0.5982
 1379SOL     OW15772   0.930   1.465   2.839 -0.2684 -0.2622  0.2403
 1379SOL    HW115773   0.869   1.392   2.851  1.5560 -1.6598  1.0060
 1379SOL    HW215774   0.986   1.475   2.916 -1.2377  0.4028  0.8636
 1380SOL     OW15775   2.500   1.614   3.457 -0.6782  1.0257 -0.6828
 1380SOL    HW115776   2.566   1.569   3.511  0.3323  1.8843 -1.1984
 1380SOL    HW215777   2.500   1.557   3.380  0.6424  0.4921 -0.2926
 1381SOL     OW15778   0.995   3.419   2.662 -0.2991 -0.0458  0.1882
 1381SOL    HW115779   0.919   3.363   2.647  0.3724 -0.3296 -2.2320
 1381SOL    HW215780   0.976   3.441   2.753  1.7806 -1.0698  0.8838
 1382SOL     OW15781   3.245   1.153  10.578 -0.1129 -0.1252  0.8912
 1382SOL    HW115782   3.307   1.172  10.507 -0.2818 -0.5639  0.6309
 1382SOL    HW215783   3.304   1.136  10.651  0.9645 -1.2467 -0.2483
 1383SOL     OW15784   2.740   3.808   0.573  0.2617  0.1902 -0.4437
 1383SOL    HW115785   2.667   3.764   0.617  1.5359 -0.8355  0.6176
 1383SOL    HW215786   2.790   3.732   0.545  1.7509  0.3861  1.6410
 1384SOL     OW15787   2.953   3.670  14.685 -0.1893  0.6790  0.4737
 1384SOL    HW115788   2.911   3.735  14.740 -4.6635 -1.1145 -0.8206
 1384SOL    HW215789   2.881   3.627  14.639  0.3625 -1.6707  1.7968
 1385SOL     OW15790   2.828   4.413   8.720  0.3179 -0.0944  0.0754
 1385SOL    HW115791   2.869   4.398   8.805 -2.0130 -0.3894  1.1362
 1385SOL    HW215792   2.821   4.330   8.672  0.5511 -0.6500  1.0191
 1386SOL     OW15793   3.053   1.088   4.773  0.3054 -0.4970  0.2407
 1386SOL    HW115794   3.055   1.036   4.853  1.8948  1.3023  1.3889
 1386SOL    HW215795   3.102   1.168   4.794  0.9233 -0.6509 -0.6072
 1387SOL     OW15796   3.384   3.157   4.550  0.8787 -0.1129  0.4958
 1387SOL    HW115797   3.430   3.212   4.486  0.8120  0.6749  1.1320
 1387SOL    HW215798   3.303   3.151   4.498  0.4338  0.1990  1.1568
 1388SOL     OW15799   0.895   0.057  15.601 -0.1414 -0.0973 -0.0083
 1388SOL    HW115800   0.849   0.139  15.587 -0.6447 -0.5412 -0.8928
 1388SOL    HW215801   0.960   0.065  15.531 -2.7081  2.2815 -2.0830
 1389SOL     OW15802   0.690   2.726  13.701  0.2408  0.0333  0.1832
 1389SOL    HW115803   0.702   2.820  13.715  0.2135  0.1932 -0.8528
 1389SOL    HW215804   0.612   2.732  13.647  0.8523 -0.6171 -0.7697
 1390SOL     OW15805   0.551   4.696   7.550 -0.3269  0.0312 -0.1514
 1390SOL    HW115806   0.605   4.621   7.576 -1.0173 -0.4989 -0.2158
 1390SOL    HW215807   0.514   4.668   7.466 -0.6995 -0.4924  0.1805
 1391SOL     OW15808   4.307   0.472  10.978  0.0432  0.0122 -0.0508
 1391SOL    HW115809   4.221   0.496  10.944 -0.4316 -1.4658  0.0885
 1391SOL    HW215810   4.274   0.425  11.054 -0.5294  0.2788 -0.1358
 1392SOL     OW15811   1.440   3.819  17.355 -0.6560  0.0070 -0.1550
 1392SOL    HW115812   1.454   3.914  17.353 -1.5353  0.1449  0.4249
 1392SOL    HW215813   1.374   3.833  17.422 -0.0935 -0.0926  0.4219
 1393SOL     OW15814   0.912   0.682   6.611  0.4888  0.2975 -0.1522
 1393SOL    HW115815   0.860   0.751   6.569 -0.6804 -0.4876 -0.0018
 1393SOL    HW215816   0.965   0.743   6.662  1.0062  0.2061 -0.5872
 1394SOL     OW15817   4.252   2.153   8.508 -0.3142  1.0293  0.0822
 1394SOL    HW115818   4.210   2.162   8.422  0.1126 -0.9615 -0.3352
 1394SOL    HW215819   4.207   2.083   8.556  0.3218  0.3625 -0.2873
 1395SOL     OW15820   3.428   3.708   8.236 -0.0560  0.4342 -0.0198
 1395SOL    HW115821   3.445   3.624   8.280 -0.3465  0.8022  0.8015
 1395SOL    HW215822   3.448   3.684   8.146  0.2278 -1.7770  0.6328
 1396SOL     OW15823   1.209   0.379   9.323  0.0160  0.0397  0.7569
 1396SOL    HW115824   1.195   0.323   9.248 -0.4681  2.9963 -1.3574
 1396SOL    HW215825   1.143   0.448   9.316  1.5421  1.3241 -0.9421
 1397SOL     OW15826   2.822   1.770  12.084  0.6852  0.2957 -0.3733
 1397SOL    HW115827   2.731   1.796  12.097  0.1590 -1.9622  0.4477
 1397SOL    HW215828   2.865   1.831  12.144  0.0456  0.0605  0.3302
 1398SOL     OW15829   4.423   2.934   9.783 -0.0326  0.4750 -0.2918
 1398SOL    HW115830   4.511   2.965   9.805  0.2331 -0.1746 -0.4441
 1398SOL    HW215831   4.420   2.921   9.688  0.1939 -2.0297  0.0564
 1399SOL     OW15832   1.059   0.990   6.375  0.1350  0.3060 -0.2018
 1399SOL    HW115833   0.975   0.958   6.407  1.0083 -1.9465 -0.1716
 1399SOL    HW215834   1.114   0.987   6.453  0.4666  0.0959 -0.4427
 1400SOL     OW15835   2.263   4.653  11.377 -0.0539  0.3915  0.4177
 1400SOL    HW115836   2.351   4.679  11.352  0.5611  0.9547  3.1859
 1400SOL    HW215837   2.240   4.731  11.428  2.2753  0.6631  1.0580
 1401SOL     OW15838   0.845   4.626   7.482 -0.2505 -0.0460 -0.2006
 1401SOL    HW115839   0.910   4.655   7.418  1.6112 -1.0318  1.2658
 1401SOL    HW215840   0.809   4.545   7.446 -4.1213  1.4960  0.1743
 1402SOL     OW15841   2.893   2.690   6.351 -0.5210 -0.4406 -0.2578
 1402SOL    HW115842   2.807   2.730   6.335 -1.5814 -3.1539 -1.3299
 1402SOL    HW215843   2.921   2.736   6.430 -2.6701  1.9495 -0.8739
 1403SOL     OW15844   3.176   0.911   6.949 -0.2299  0.0156  0.1244
 1403SOL    HW115845   3.121   0.845   6.906 -1.5000  0.2955  1.2969
 1403SOL    HW215846   3.199   0.868   7.031 -0.4058 -0.8570 -0.2819
 1404SOL     OW15847   2.613   1.705   2.914 -0.4238 -0.5384 -0.1774
 1404SOL    HW115848   2.662   1.626   2.939 -0.3220 -0.3889  0.1002
 1404SOL    HW215849   2.560   1.684   2.838 -0.5568 -0.1956 -0.1789
 1405SOL     OW15850   3.476   4.556  15.726  0.7269 -0.0319  0.0545
 1405SOL    HW115851   3.552   4.613  15.718 -0.3005  1.5058  1.1139
 1405SOL    HW215852   3.478   4.497  15.651 -1.3704  0.7445 -0.6040
 1406SOL     OW15853   4.154   4.299   5.633  0.2009  0.1050  0.3661
 1406SOL    HW115854   4.198   4.236   5.690 -0.3163  0.8816  1.6111
 1406SOL    HW215855   4.223   4.359   5.604  2.4303 -1.9847  1.3619
 1407SOL     OW15856   3.943   1.516   4.620  0.8436 -0.1297 -0.0538
 1407SOL    HW115857   3.970   1.536   4.531 -1.0568  0.3912 -0.5153
 1407SOL    HW215858   4.013   1.560   4.668  0.5084 -0.5145  0.8119
 1408SOL     OW15859   3.354   2.962   5.834  0.2116  0.0359 -0.3444
 1408SOL    HW115860   3.427   2.977   5.775  0.0679  1.7253 -0.1082
 1408SOL    HW215861   3.371   2.873   5.863  0.5772  0.1397 -0.2457
 1409SOL     OW15862   2.235   1.677  14.063 -0.4975  0.1799 -0.5352
 1409SOL    HW115863   2.214   1.664  14.155  0.5896  1.1610 -0.1350
 1409SOL    HW215864   2.177   1.752  14.048 -0.2237  0.1213 -1.9162
 1410SOL     OW15865   4.378   2.472   8.898  0.4695 -0.7321  0.3136
 1410SOL    HW115866   4.470   2.459   8.918  0.7645 -0.9438 -1.2153
 1410SOL    HW215867   4.356   2.529   8.972  0.5811  0.6474 -0.7210
 1411SOL     OW15868   4.048   3.392   9.802 -0.4992  0.4770 -0.3926
 1411SOL    HW115869   4.000   3.468   9.771 -0.6703 -0.5469 -2.6045
 1411SOL    HW215870   4.064   3.348   9.719 -0.2562  0.9327 -0.5848
 1412SOL     OW15871   2.209   1.434   3.415 -0.2488 -0.0711  0.6240
 1412SOL    HW115872   2.283   1.430   3.354 -0.4882  1.9527  0.2052
 1412SOL    HW215873   2.136   1.451   3.356  0.7294 -1.0622 -0.8872
 1413SOL     OW15874   1.198   0.310   4.624  0.1676 -0.3202 -1.0537
 1413SOL    HW115875   1.185   0.374   4.554 -2.2078 -0.3893 -0.6506
 1413SOL    HW215876   1.111   0.284   4.655  1.5509 -0.4896  2.7270
 1414SOL     OW15877   4.698   4.687   4.873 -0.3441  0.3658 -0.2982
 1414SOL    HW115878   4.690   4.599   4.837 -0.2690 -0.0946  0.8101
 1414SOL    HW215879   4.618   4.723   4.836 -1.0237  0.2294  1.0102
 1415SOL     OW15880   2.405   3.578   7.194 -0.0209  0.3704  0.2772
 1415SOL    HW115881   2.369   3.496   7.228  1.1302 -1.4874 -3.0276
 1415SOL    HW215882   2.491   3.540   7.179 -0.0224  0.0780  1.0302
 1416SOL     OW15883   1.191   1.092  12.768  0.4182 -0.5537  0.3278
 1416SOL    HW115884   1.096   1.087  12.780  0.6890 -1.7283  1.9188
 1416SOL    HW215885   1.215   1.061  12.855 -2.2135  1.5050  1.8108
 1417SOL     OW15886   2.922   4.350   7.946  0.4388 -0.3267 -0.1840
 1417SOL    HW115887   2.919   4.407   8.023  2.2073  0.4828 -0.7073
 1417SOL    HW215888   2.865   4.279   7.973  0.5143 -0.8685 -1.4704
 1418SOL     OW15889   3.209   3.152   5.726 -0.0791  0.1067  0.1636
 1418SOL    HW115890   3.172   3.095   5.658 -0.9414 -0.9726  1.5425
 1418SOL    HW215891   3.222   3.082   5.789  0.7716 -0.1384 -0.2864
 1419SOL     OW15892   0.247   4.161   7.818  0.1031 -0.3967  0.4537
 1419SOL    HW115893   0.223   4.119   7.901  0.7938  0.8651  1.2854
 1419SOL    HW215894   0.175   4.222   7.805  0.0601 -1.1741 -2.9932
 1420SOL     OW15895   2.251   3.570   4.930 -0.0282 -0.2349  0.4566
 1420SOL    HW115896   2.264   3.512   5.005  0.0118 -1.8578 -0.8048
 1420SOL    HW215897   2.262   3.506   4.860  0.0949  0.0958  0.1767
 1421SOL     OW15898   0.037   0.023  11.600 -0.2223  0.8198 -0.1624
 1421SOL    HW115899   0.063   0.081  11.528  1.6745  1.8928  1.3856
 1421SOL    HW215900   4.698   0.075  11.625  1.1534  1.8521  1.8850
 1422SOL     OW15901   4.634   1.866   2.983 -0.0068  0.1961 -0.0683
 1422SOL    HW115902   4.547   1.891   2.952  0.3068 -0.7141 -1.6838
 1422SOL    HW215903   4.622   1.817   3.064  0.2107  1.6063  0.8183
 1423SOL     OW15904   1.023   2.543   8.471 -0.4259  0.0896 -0.4124
 1423SOL    HW115905   0.958   2.473   8.461  0.3343 -0.2989 -2.5189
 1423SOL    HW215906   1.098   2.484   8.471  1.1178  2.0414 -0.4252
 1424SOL     OW15907   2.155   4.281   4.877 -0.0945  0.2280 -0.0858
 1424SOL    HW115908   2.126   4.190   4.871 -0.7807  0.5548 -1.6624
 1424SOL    HW215909   2.073   4.316   4.911 -1.1392 -0.7739 -1.5477
 1425SOL     OW15910   4.280   3.745   3.960  0.2032 -0.0257 -0.0422
 1425SOL    HW115911   4.316   3.831   3.941 -0.2951 -0.7886 -4.3548
 1425SOL    HW215912   4.341   3.712   4.026 -0.7179 -0.1225  0.7569
 1426SOL     OW15913   4.105   3.214  13.295 -0.0374  0.0151  0.1819
 1426SOL    HW115914   4.024   3.240  13.339 -0.8681  0.0211 -1.3680
 1426SOL    HW215915   4.113   3.293  13.242 -2.5328 -0.9539 -1.6506
 1427SOL     OW15916   3.538   2.221  16.786  0.5011  0.5573 -0.7063
 1427SOL    HW115917   3.626   2.253  16.767 -0.3136  2.4505 -1.3471
 1427SOL    HW215918   3.519   2.283  16.856 -0.0322 -0.5650  0.1401
 1428SOL     OW15919   2.878   2.395   0.034  0.2690 -0.0064 -0.5329
 1428SOL    HW115920   2.951   2.436  17.737 -1.2119  3.5058  0.2452
 1428SOL    HW215921   2.888   2.305   0.002  0.1448 -0.5634  0.9579
 1429SOL     OW15922   2.312   0.226  15.111  0.1040 -0.2765 -0.1059
 1429SOL    HW115923   2.292   0.269  15.028 -2.1259 -0.6692  0.2180
 1429SOL    HW215924   2.392   0.173  15.102 -0.0606 -0.8050  1.5452
 1430SOL     OW15925   0.517   2.268   5.415  0.0835  0.7267  0.0133
 1430SOL    HW115926   0.506   2.243   5.323  3.6168  0.1138 -0.2648
 1430SOL    HW215927   0.612   2.270   5.422  0.0177  2.6084  0.2598
 1431SOL     OW15928   0.572   4.104  11.513  0.1978 -0.5312  0.2634
 1431SOL    HW115929   0.562   4.038  11.581  2.3639 -1.2042 -0.0644
 1431SOL    HW215930   0.499   4.076  11.458 -0.2139 -0.9008  1.0081
 1432SOL     OW15931   2.028   3.021   0.807  0.4701 -0.6946  0.5278
 1432SOL    HW115932   2.092   2.970   0.858  1.1306  1.9088  2.2825
 1432SOL    HW215933   1.963   2.951   0.797  0.9877 -0.7651 -2.4080
 1433SOL     OW15934   2.288   2.823   2.041 -0.3705  0.0920  0.5268
 1433SOL    HW115935   2.199   2.851   2.019 -0.3494 -1.1134 -1.1261
 1433SOL    HW215936   2.292   2.757   1.972  2.5824  1.1661 -0.3243
 1434SOL     OW15937   1.628   3.201   7.519  0.1619  0.6078  0.4882
 1434SOL    HW115938   1.605   3.252   7.441  1.7602 -1.5051 -1.3782
 1434SOL    HW215939   1.544   3.167   7.547  0.2579 -1.9309 -2.3514
 1435SOL     OW15940   0.495   1.334  10.474 -0.3598  0.4537  0.3102
 1435SOL    HW115941   0.532   1.252  10.508  2.0620  0.8893 -1.2376
 1435SOL    HW215942   0.419   1.352  10.529  1.4298 -0.5590  3.1249
 1436SOL     OW15943   3.075   2.089   7.070 -0.3034  0.3880  0.0738
 1436SOL    HW115944   3.091   2.111   7.162  0.4491 -2.4156  0.5874
 1436SOL    HW215945   3.009   2.159   7.060 -0.8111  0.0205  0.7664
 1437SOL     OW15946   2.230   0.934   1.301  0.3696 -0.2144 -0.7618
 1437SOL    HW115947   2.140   0.955   1.278 -0.0385  1.4270  2.4219
 1437SOL    HW215948   2.220   0.843   1.330 -1.0800  0.7222  1.6570
 1438SOL     OW15949   2.289   3.094  12.055 -0.1467 -0.5549 -0.2526
 1438SOL    HW115950   2.310   3.150  11.980  0.2089  0.6985  0.7806
 1438SOL    HW215951   2.256   3.014  12.014 -0.0264  0.3037 -2.0077
 1439SOL     OW15952   2.025   0.548   3.945 -0.5060 -0.4735 -0.0963
 1439SOL    HW115953   1.958   0.483   3.966  0.3826 -1.1482  0.6345
 1439SOL    HW215954   2.104   0.497   3.930 -0.2397 -0.3468  0.9040
 1440SOL     OW15955   1.699   4.228   6.051  0.0673 -0.2551  0.1221
 1440SOL    HW115956   1.694   4.197   6.141 -0.8673  2.3763  0.9795
 1440SOL    HW215957   1.792   4.248   6.057  0.1155 -0.3935 -0.1617
 1441SOL     OW15958   1.617   3.662   1.270  0.0488  0.9224 -0.0439
 1441SOL    HW115959   1.636   3.709   1.189 -2.3507 -0.1924 -1.2558
 1441SOL    HW215960   1.537   3.709   1.295  0.1151  0.5024  0.9587
 1442SOL     OW15961   3.892   0.482   5.908 -0.1268  0.3047 -0.2150
 1442SOL    HW115962   3.823   0.498   5.973  1.0326 -0.0503  1.1040
 1442SOL    HW215963   3.877   0.388   5.892 -0.0091  0.2581 -0.0539
 1443SOL     OW15964   4.520   1.750   7.669  0.7811 -0.1814 -0.6570
 1443SOL    HW115965   4.426   1.760   7.682  1.0492  0.5348  0.7161
 1443SOL    HW215966   4.520   1.691   7.594 -1.5099 -0.8452 -0.1362
 1444SOL     OW15967   4.176   0.170  15.520 -0.4368 -0.1873  0.1601
 1444SOL    HW115968   4.149   0.215  15.441  0.5389 -0.1378 -0.1516
 1444SOL    HW215969   4.151   0.234  15.586 -0.9792 -1.0728  0.8238
 1445SOL     OW15970   1.541   4.106   1.338 -0.0907  0.2697 -0.0724
 1445SOL    HW115971   1.636   4.094   1.343 -0.2858 -0.8146  1.1489
 1445SOL    HW215972   1.536   4.192   1.380 -0.1847  0.2295 -0.0024
 1446SOL     OW15973   4.487   1.368  16.798  0.5427  0.3049 -0.3853
 1446SOL    HW115974   4.549   1.368  16.870  3.9468  0.6400 -3.3054
 1446SOL    HW215975   4.477   1.276  16.775  0.0642  0.4131 -0.6218
 1447SOL     OW15976   3.932   2.939  15.219 -0.3047 -0.7489  0.0570
 1447SOL    HW115977   3.891   3.005  15.274 -0.5518 -1.6943  1.0159
 1447SOL    HW215978   3.878   2.868  15.254  0.8954 -1.7757 -0.1799
 1448SOL     OW15979   3.538   4.344   4.500  0.6295 -0.1238 -0.6038
 1448SOL    HW115980   3.586   4.390   4.568  0.6330  0.6551 -1.1276
 1448SOL    HW215981   3.564   4.256   4.526  0.3234  0.0507  0.3067
 1449SOL     OW15982   1.499   1.931   9.414 -0.2885 -0.2440 -0.6274
 1449SOL    HW115983   1.476   1.839   9.427  0.8692 -0.4503 -0.0734
 1449SOL    HW215984   1.412   1.971   9.416 -0.2347 -0.2646  1.9560
 1450SOL     OW15985   3.617   1.460   6.388 -0.1791 -0.4536 -0.4629
 1450SOL    HW115986   3.634   1.367   6.373  1.2380 -0.2106 -0.3587
 1450SOL    HW215987   3.655   1.482   6.473 -1.5991  2.9450 -0.7192
 1451SOL     OW15988   2.891   4.718   1.501  0.1517  0.1025 -0.1257
 1451SOL    HW115989   2.939   4.723   1.418  0.3389  1.8448  0.0968
 1451SOL    HW215990   2.956   4.664   1.546 -1.3642 -1.5777  0.0672
 1452SOL     OW15991   0.920   0.738   5.896  0.6832  0.0546  0.0528
 1452SOL    HW115992   0.959   0.810   5.944  1.3467 -0.4101  0.2067
 1452SOL    HW215993   0.965   0.734   5.812 -0.1282 -1.1759 -0.3348
 1453SOL     OW15994   1.938   3.146   2.715 -0.4955 -0.0228  0.1459
 1453SOL    HW115995   1.954   3.169   2.806 -3.5209 -0.5042  0.7755
 1453SOL    HW215996   1.849   3.180   2.716 -0.0861  1.0184  0.4944
 1454SOL     OW15997   2.940   3.311   9.682 -0.1057  0.4694 -0.6238
 1454SOL    HW115998   3.015   3.317   9.622  0.7492 -0.1250  0.3981
 1454SOL    HW215999   2.903   3.229   9.650  1.7222 -0.6027  0.0162
 1455SOL     OW16000   4.302   2.808   2.226  0.2519  0.5226  0.6467
 1455SOL    HW116001   4.217   2.852   2.232  0.4087  0.5128  2.9773
 1455SOL    HW216002   4.294   2.735   2.165 -1.0377 -0.1459  1.6331
 1456SOL     OW16003   4.181   3.999   4.569  0.1078 -0.1248 -0.2267
 1456SOL    HW116004   4.143   4.017   4.483 -1.8351  1.4171  0.9555
 1456SOL    HW216005   4.124   3.932   4.606 -0.5683  0.6387  0.1267
 1457SOL     OW16006   2.718   2.271  12.098 -0.1980  0.2620 -0.1079
 1457SOL    HW116007   2.638   2.220  12.085 -0.0333 -0.3625  1.3795
 1457SOL    HW216008   2.682   2.341  12.152 -2.3716 -0.7095 -0.3011
 1458SOL     OW16009   2.574   4.691   7.070 -0.3337 -0.1288  0.1574
 1458SOL    HW116010   2.490   0.000   7.073  1.0597  2.4252 -0.9561
 1458SOL    HW216011   2.607   4.716   7.157 -0.3330 -2.3701  0.7984
 1459SOL     OW16012   2.395   0.264   4.148  1.0183  0.2616  0.0162
 1459SOL    HW116013   2.307   0.227   4.150  1.2431 -0.2948 -0.6779
 1459SOL    HW216014   2.434   0.226   4.069  0.4331  0.8069 -0.5359
 1460SOL     OW16015   2.772   3.840   7.656  0.0137  0.4320 -0.3789
 1460SOL    HW116016   2.788   3.932   7.678  0.1608  0.4373 -0.5145
 1460SOL    HW216017   2.703   3.832   7.722  1.3836  0.2968  1.0419
 1461SOL     OW16018   3.738   1.058  10.209  0.4526 -0.6053  0.2241
 1461SOL    HW116019   3.731   0.980  10.263  1.2442  0.3680  1.7324
 1461SOL    HW216020   3.758   1.122  10.277  1.1231 -1.4794  0.8338
 1462SOL     OW16021   4.615   2.582   0.934  0.0450 -0.4609  0.2195
 1462SOL    HW116022   4.556   2.567   0.860  0.4782 -1.2965  0.0423
 1462SOL    HW216023   4.685   2.519   0.918 -2.5354 -3.3888  0.3228
 1463SOL     OW16024   2.619   3.454   0.584 -0.5644  0.6361  0.1238
 1463SOL    HW116025   2.596   3.396   0.511 -2.0124  0.1396  0.9707
 1463SOL    HW216026   2.701   3.490   0.551 -0.9595  1.5491  0.1532
 1464SOL     OW16027   4.666   3.268  11.819  0.4143  0.1219 -0.4864
 1464SOL    HW116028   4.618   3.236  11.743 -0.2880 -1.9695  0.8404
 1464SOL    HW216029   4.691   3.359  11.801  1.1120  0.2119  0.9430
 1465SOL     OW16030   0.435   0.127  14.037  0.3650 -0.0432 -0.0263
 1465SOL    HW116031   0.418   0.184  13.961 -0.8379  1.3380  1.2817
 1465SOL    HW216032   0.387   0.047  14.014  0.0286  0.2918 -0.5037
 1466SOL     OW16033   2.416   2.480   6.445 -0.1079 -0.6197  0.3316
 1466SOL    HW116034   2.442   2.393   6.477 -0.0898  0.1249  2.3563
 1466SOL    HW216035   2.487   2.492   6.383 -1.8180  1.5957 -1.1771
 1467SOL     OW16036   3.442   4.508   5.913  0.4763 -0.6964  0.0630
 1467SOL    HW116037   3.374   4.453   5.872 -0.4515 -0.5375  1.4086
 1467SOL    HW216038   3.522   4.484   5.866  2.0794 -1.5478  3.2781
 1468SOL     OW16039   2.279   3.887  15.731  0.7485  0.0174  0.4293
 1468SOL    HW116040   2.348   3.828  15.700  1.8031  1.3169  0.2658
 1468SOL    HW216041   2.210   3.823  15.742  0.1004  0.7119  0.3851
 1469SOL     OW16042   1.228   0.244   3.568 -0.0105  0.2346 -0.4822
 1469SOL    HW116043   1.160   0.176   3.570 -0.8187  1.0218 -1.3267
 1469SOL    HW216044   1.225   0.275   3.658 -1.3296  1.0841 -0.8169
 1470SOL     OW16045   2.582   3.300  14.776  0.5312 -0.1865 -0.5982
 1470SOL    HW116046   2.563   3.255  14.694  3.9393 -3.2112  0.2457
 1470SOL    HW216047   2.568   3.227  14.838 -0.0426 -0.2963 -0.8583
 1471SOL     OW16048   4.360   4.405   2.415  0.1866  0.3825 -0.2520
 1471SOL    HW116049   4.331   4.315   2.433 -2.3853  1.1991 -0.2820
 1471SOL    HW216050   4.281   4.457   2.431  0.2214  0.8378 -1.5893
 1472SOL     OW16051   1.540   3.477  17.115 -1.0083 -0.8653 -0.1385
 1472SOL    HW116052   1.459   3.527  17.129 -0.5932 -0.0606 -0.6142
 1472SOL    HW216053   1.594   3.528  17.175 -0.3815 -1.1755 -0.4411
 1473SOL     OW16054   3.342   2.629   8.508  0.0224 -0.6052  0.2192
 1473SOL    HW116055   3.413   2.587   8.557 -0.0810 -0.8879  0.1303
 1473SOL    HW216056   3.348   2.716   8.546 -0.1053  0.3528 -1.9706
 1474SOL     OW16057   0.828   0.763   5.419 -0.0930  0.4637  0.1645
 1474SOL    HW116058   0.885   0.808   5.357 -0.5072  1.1736  0.2891
 1474SOL    HW216059   0.862   0.771   5.508 -0.7517 -1.4485  0.6054
 1475SOL     OW16060   3.967   0.331   5.217 -0.1693 -0.2307  0.3126
 1475SOL    HW116061   3.989   0.238   5.225  1.1403  0.0088 -0.5158
 1475SOL    HW216062   3.942   0.359   5.306 -2.7343 -1.1241 -0.1200
 1476SOL     OW16063   3.712   4.501   4.653 -0.4765 -0.4391  0.1875
 1476SOL    HW116064   3.750   4.500   4.740 -0.7843 -2.2336  0.2906
 1476SOL    HW216065   3.795   4.506   4.606 -0.5650  2.9482  0.3898
 1477SOL     OW16066   0.601   3.522   4.477  0.0514 -0.0048 -0.1579
 1477SOL    HW116067   0.687   3.513   4.437 -0.1339  0.9961 -0.7614
 1477SOL    HW216068   0.607   3.597   4.536 -2.3288  0.0438  0.0568
 1478SOL     OW16069   2.946   1.649   7.732  0.4118 -0.1503  0.2528
 1478SOL    HW116070   2.916   1.711   7.665  1.1133 -0.4179 -0.3069
 1478SOL    HW216071   2.928   1.565   7.690  2.7278 -0.6646  0.3208
 1479SOL     OW16072   3.730   1.423  14.824  0.4725 -0.7453  0.3566
 1479SOL    HW116073   3.809   1.455  14.868 -1.0562  2.1354  0.9918
 1479SOL    HW216074   3.711   1.499  14.769  0.4374 -0.9395  0.0998
 1480SOL     OW16075   0.658   2.821   8.412  0.1606 -0.9105  0.4644
 1480SOL    HW116076   0.721   2.893   8.419 -0.1322 -0.5600 -0.4694
 1480SOL    HW216077   0.694   2.768   8.341  1.2916  1.6185 -0.8261
 1481SOL     OW16078   4.615   3.892   4.857  0.1424  0.3565  0.3594
 1481SOL    HW116079   4.534   3.940   4.841 -0.0960 -0.3902 -0.6196
 1481SOL    HW216080   4.600   3.807   4.817 -1.6108  0.3637  0.9942
 1482SOL     OW16081   1.506   2.711   1.856  0.1780 -0.5819  0.6679
 1482SOL    HW116082   1.482   2.803   1.856  0.7945 -0.4234  0.8047
 1482SOL    HW216083   1.513   2.707   1.761  1.4273  0.5955  0.7174
 1483SOL     OW16084   0.196   1.188   8.794  0.0413  0.2846  0.0916
 1483SOL    HW116085   0.135   1.260   8.779 -0.5716 -0.5258 -1.3070
 1483SOL    HW216086   0.185   1.145   8.709 -2.6282  0.2789  0.4484
 1484SOL     OW16087   3.995   0.418   6.363  0.2574  0.0012 -0.4526
 1484SOL    HW116088   4.011   0.354   6.432 -0.1958  0.6634  0.2719
 1484SOL    HW216089   3.990   0.364   6.284 -1.1413 -3.0088  1.6886
 1485SOL     OW16090   2.562   4.587  13.236  0.2826  0.0172 -0.3726
 1485SOL    HW116091   2.471   4.566  13.213  0.1055  0.6373 -0.2275
 1485SOL    HW216092   2.598   4.570  13.150 -1.7168  2.0828 -1.6281
 1486SOL     OW16093   2.182   2.230   3.604  0.3156 -0.1658 -0.5048
 1486SOL    HW116094   2.222   2.143   3.606  0.2457 -0.1668  0.6542
 1486SOL    HW216095   2.091   2.200   3.607  0.1004  0.2101 -3.6030
 1487SOL     OW16096   2.519   1.290   6.695 -0.0980  0.0881  0.4171
 1487SOL    HW116097   2.453   1.244   6.644  1.0693 -1.0331 -0.0754
 1487SOL    HW216098   2.506   1.256   6.783  2.7121  0.1910  0.8800
 1488SOL     OW16099   4.266   3.992   3.285  0.1977  0.1346  0.0757
 1488SOL    HW116100   4.348   3.969   3.243  1.6947  2.6326  1.5832
 1488SOL    HW216101   4.227   3.905   3.286  0.1008  0.1805  0.9614
 1489SOL     OW16102   0.136   1.020   7.187  0.1149  0.0478  0.4764
 1489SOL    HW116103   0.152   0.941   7.238 -0.2150 -2.4033 -3.2111
 1489SOL    HW216104   0.059   0.991   7.138  0.4226  0.0208  0.0126
 1490SOL     OW16105   2.200   2.067   9.799 -0.1334 -0.4111 -0.0519
 1490SOL    HW116106   2.270   2.024   9.749 -0.0652 -2.0328  1.4431
 1490SOL    HW216107   2.189   2.150   9.753  0.1349 -0.4352 -0.1594
 1491SOL     OW16108   3.433   0.661  12.591 -0.0013  0.0210  0.4621
 1491SOL    HW116109   3.519   0.702  12.596 -0.1706  0.6458 -1.6138
 1491SOL    HW216110   3.381   0.738  12.570 -1.7914 -0.6759  2.4039
 1492SOL     OW16111   1.533   3.187   6.046  0.1119  0.4407  0.2774
 1492SOL    HW116112   1.521   3.230   5.962 -0.9354  1.6872  1.0749
 1492SOL    HW216113   1.519   3.098   6.014 -3.0697  0.5171  1.4809
 1493SOL     OW16114   2.779   1.687  13.023 -0.0149 -0.0914  0.4165
 1493SOL    HW116115   2.814   1.709  13.109  0.1142  0.4474  0.2237
 1493SOL    HW216116   2.821   1.759  12.976 -1.9953  0.8212  0.0433
 1494SOL     OW16117   1.871   2.086  14.099 -0.0582  0.2006 -0.1019
 1494SOL    HW116118   1.832   2.029  14.165 -1.4959  2.6124  1.1576
 1494SOL    HW216119   1.815   2.164  14.095  0.7210  0.7982  0.9829
 1495SOL     OW16120   4.100   4.536   1.485 -0.0659 -0.4167 -0.1688
 1495SOL    HW116121   4.167   4.537   1.553 -0.8389  0.5026  0.5768
 1495SOL    HW216122   4.033   4.595   1.521  1.2286  0.7316  0.3327
 1496SOL     OW16123   0.096   3.488   6.440  0.7280  0.0742  0.5765
 1496SOL    HW116124   0.010   3.457   6.413  0.9588  0.9204 -1.1257
 1496SOL    HW216125   0.155   3.417   6.415 -1.7581 -1.6281 -0.4036
 1497SOL     OW16126   0.293   0.116  11.831  0.1666 -0.5535 -0.1586
 1497SOL    HW116127   0.210   0.095  11.789  0.6558  1.3204 -2.0365
 1497SOL    HW216128   0.350   0.039  11.829 -0.2266 -0.9419  3.9275
 1498SOL     OW16129   0.423   3.365  15.853 -0.2688 -0.8925 -0.1040
 1498SOL    HW116130   0.500   3.399  15.807  0.2811  0.8967  2.1275
 1498SOL    HW216131   0.355   3.431  15.862  0.7506  0.3482 -1.5371
 1499SOL     OW16132   4.005   0.962   2.077 -0.1119  0.1001 -1.0077
 1499SOL    HW116133   4.036   0.915   2.154  0.9190 -0.5653 -1.8353
 1499SOL    HW216134   3.920   0.919   2.068 -0.2335 -0.5675  3.0840
 1500SOL     OW16135   2.021   0.941   5.021  0.0922  0.6363 -0.3494
 1500SOL    HW116136   2.099   0.935   4.965 -0.0298 -0.4703 -0.4024
 1500SOL    HW216137   1.998   1.031   4.996 -3.0322  0.2064  1.0201
 1501SOL     OW16138   3.747   3.029   3.430  0.1144  0.4650 -0.4750
 1501SOL    HW116139   3.717   3.014   3.520 -1.2546  1.7858 -0.7071
 1501SOL    HW216140   3.765   2.937   3.411 -1.0344 -0.0250  0.8280
 1502SOL     OW16141   1.710   3.033   4.368  0.0121  0.2252  0.0682
 1502SOL    HW116142   1.713   3.100   4.300 -2.1852  0.3399  0.0739
 1502SOL    HW216143   1.692   2.953   4.317 -0.1284  1.3177 -1.6068
 1503SOL     OW16144   4.644   3.410   0.934 -0.0315  0.1284 -0.4546
 1503SOL    HW116145   4.690   3.344   0.883  2.4584  0.6726  1.0829
 1503SOL    HW216146   4.587   3.442   0.864  0.7601 -0.1794 -1.2408
 1504SOL     OW16147   2.299   1.931   4.317  0.5624  0.4433 -0.0722
 1504SOL    HW116148   2.326   1.863   4.254 -0.8234 -0.9801  0.8654
 1504SOL    HW216149   2.274   1.879   4.393  2.6499 -0.0702  0.2613
 1505SOL     OW16150   2.354   2.771  12.156  0.5040  0.4809  0.3443
 1505SOL    HW116151   2.367   2.857  12.117  1.5924  0.1656  0.0198
 1505SOL    HW216152   2.270   2.782  12.202  0.3341 -3.9539  1.0456
 1506SOL     OW16153   4.473   0.247   3.414  0.2273 -0.1044 -0.2671
 1506SOL    HW116154   4.540   0.237   3.482 -0.8632  0.6797  0.9130
 1506SOL    HW216155   4.388   0.228   3.455  0.7597 -0.1014  0.8397
 1507SOL     OW16156   0.453   1.636   1.368 -0.6691  0.1123  0.5767
 1507SOL    HW116157   0.493   1.636   1.455  0.4421  0.5017  0.0650
 1507SOL    HW216158   0.500   1.708   1.326 -3.4761  0.2060 -2.3309
 1508SOL     OW16159   4.191   4.721   3.347  0.0252  0.6036  0.2489
 1508SOL    HW116160   4.103   0.011   3.372 -0.9341 -0.9122 -1.4262
 1508SOL    HW216161   4.177   4.630   3.321 -1.5537  1.7829 -2.9891
 1509SOL     OW16162   3.011   2.485   7.190 -0.6520 -0.2930  0.1905
 1509SOL    HW116163   3.045   2.456   7.275 -0.2213  0.3182  0.2253
 1509SOL    HW216164   3.096   2.519   7.163 -0.0690 -1.6300  0.3445
 1510SOL     OW16165   2.030   2.000   0.655  0.1994 -0.0141  0.0138
 1510SOL    HW116166   2.104   2.006   0.714  1.4601  0.5719 -1.6190
 1510SOL    HW216167   2.050   2.063   0.585  1.0155 -0.2689  0.0229
 1511SOL     OW16168   1.672   1.269  13.252 -0.3049  0.0125  0.2454
 1511SOL    HW116169   1.725   1.347  13.233  2.1375 -0.9107  3.2837
 1511SOL    HW216170   1.730   1.207  13.210  0.2296 -0.1328  1.1941
 1512SOL     OW16171   0.592   3.888  12.117 -0.1882 -0.0983 -0.2684
 1512SOL    HW116172   0.643   3.929  12.048 -0.2523  0.1645 -0.1574
 1512SOL    HW216173   0.514   3.864  12.067 -0.7520  1.3165 -0.0475
 1513SOL     OW16174   4.155   2.604   7.590 -0.4922  0.4171 -0.1268
 1513SOL    HW116175   4.087   2.537   7.580  1.8545 -2.0844  0.5954
 1513SOL    HW216176   4.204   2.563   7.662 -2.9195 -0.5146  1.0064
 1514SOL     OW16177   2.533   4.670   2.436 -0.5488  0.1403  0.1110
 1514SOL    HW116178   2.512   4.638   2.348 -2.2718 -2.0290  1.3092
 1514SOL    HW216179   2.459   4.729   2.447 -0.2389  0.3143  1.2354
 1515SOL     OW16180   1.049   3.296   0.912 -0.0524  0.2309 -0.2423
 1515SOL    HW116181   0.968   3.247   0.899 -0.1068  0.6337 -1.4717
 1515SOL    HW216182   1.040   3.325   1.003  1.3944 -2.2642  0.7064
 1516SOL     OW16183   1.777   1.041   9.192  0.0717 -0.2141  0.0453
 1516SOL    HW116184   1.781   1.133   9.166 -1.4659  0.1733  1.1285
 1516SOL    HW216185   1.683   1.042   9.214  0.0699 -2.4277  0.1674
 1517SOL     OW16186   0.094   2.500   5.868 -0.3293 -0.0832 -0.1917
 1517SOL    HW116187   0.089   2.509   5.963 -0.7549 -0.8966 -0.1371
 1517SOL    HW216188   0.111   2.406   5.857  1.9089  0.0405  2.1657
 1518SOL     OW16189   1.336   3.404   9.715 -0.3073  0.2896 -0.8590
 1518SOL    HW116190   1.354   3.496   9.732  1.8041 -0.2611 -0.0667
 1518SOL    HW216191   1.253   3.381   9.758  0.1767  1.7690  0.8800
 1519SOL     OW16192   1.449   1.895   2.682  0.4565  0.3525  0.3058
 1519SOL    HW116193   1.529   1.869   2.637  2.4516  2.2441  2.7171
 1519SOL    HW216194   1.478   1.908   2.773  0.1642 -0.7352  0.5529
 1520SOL     OW16195   1.001   2.569  11.984  0.4553  0.7502  0.0313
 1520SOL    HW116196   1.089   2.599  11.960  0.5140  0.2315 -0.3872
 1520SOL    HW216197   1.022   2.495  12.042  0.9123  0.6174 -0.3042
 1521SOL     OW16198   2.572   0.966   4.072 -0.0204 -0.4603  0.2650
 1521SOL    HW116199   2.543   0.919   3.994  2.4190 -0.8802 -0.3640
 1521SOL    HW216200   2.485   0.996   4.098 -0.6137  0.1986 -2.4861
 1522SOL     OW16201   3.560   3.008   4.032 -0.0952 -0.3027 -0.1495
 1522SOL    HW116202   3.477   3.005   4.080 -0.2505 -0.6530 -0.4368
 1522SOL    HW216203   3.549   2.921   3.994 -0.0020 -0.4575  0.1744
 1523SOL     OW16204   0.308   1.429   3.534  0.3903  0.0292  0.5118
 1523SOL    HW116205   0.277   1.509   3.492 -0.3313 -0.3923  0.2280
 1523SOL    HW216206   0.227   1.393   3.571  0.4774 -0.1804  0.4972
 1524SOL     OW16207   1.670   3.465   3.930  0.6915 -0.3955  0.1981
 1524SOL    HW116208   1.600   3.400   3.923  0.2870  0.0698  0.0006
 1524SOL    HW216209   1.654   3.515   4.010  3.2804  0.1450  0.3783
 1525SOL     OW16210   4.380   4.118   9.092 -0.3594 -0.2223  0.1343
 1525SOL    HW116211   4.290   4.125   9.063 -0.7530 -3.0205  0.6678
 1525SOL    HW216212   4.409   4.206   9.116 -1.5803  0.2219 -0.0490
 1526SOL     OW16213   1.587   1.352   9.035  0.4970  0.5050  0.2171
 1526SOL    HW116214   1.671   1.309   9.017  0.2915 -0.1446  0.8157
 1526SOL    HW216215   1.536   1.305   8.969  0.6929 -0.4086  0.7019
 1527SOL     OW16216   4.075   0.386   2.404  0.0593  0.6478 -0.3591
 1527SOL    HW116217   4.132   0.320   2.443 -0.2177  0.7305  0.1924
 1527SOL    HW216218   4.040   0.434   2.480  0.1770  1.6004 -0.9060
 1528SOL     OW16219   0.714   0.260   2.606 -0.0020  0.7821 -0.3694
 1528SOL    HW116220   0.776   0.229   2.540 -0.5132 -1.3828  0.1534
 1528SOL    HW216221   0.749   0.344   2.635 -0.8001  1.0767 -0.2600
 1529SOL     OW16222   3.294   0.736   9.287 -0.1507  0.1285  0.1260
 1529SOL    HW116223   3.249   0.658   9.317 -0.3756  0.5430  0.8735
 1529SOL    HW216224   3.294   0.794   9.364  0.9352 -0.5162  0.6049
 1530SOL     OW16225   0.939   1.575   7.945 -0.4691 -0.2441  0.4294
 1530SOL    HW116226   0.912   1.666   7.934  0.0432 -0.2686 -1.0500
 1530SOL    HW216227   0.879   1.539   8.010 -1.1349 -2.0434 -1.1620
 1531SOL     OW16228   1.328   1.676  15.982  0.2860 -0.0121  0.3985
 1531SOL    HW116229   1.296   1.766  15.970 -0.0609 -0.5558 -2.6062
 1531SOL    HW216230   1.388   1.672  15.907  1.5866  1.9924  1.3187
 1532SOL     OW16231   2.033   1.858   9.782  0.4844 -0.0137 -0.0890
 1532SOL    HW116232   1.962   1.897   9.832 -1.4577 -2.3723 -0.9878
 1532SOL    HW216233   2.090   1.935   9.774  1.4767 -0.6823  0.6241
 1533SOL     OW16234   0.872   4.410   5.094  0.3465  1.0082  0.1501
 1533SOL    HW116235   0.868   4.441   5.185  0.0273  1.1326  0.0977
 1533SOL    HW216236   0.935   4.471   5.055  1.6264 -1.2453 -1.2536
 1534SOL     OW16237   2.499   3.395  14.471 -0.5831  0.7273 -0.4751
 1534SOL    HW116238   2.448   3.423  14.395 -0.5628 -2.2453 -1.5652
 1534SOL    HW216239   2.431   3.354  14.523  0.0821  0.9598  0.5803
 1535SOL     OW16240   3.299   4.469   7.518 -0.0029  0.1114 -0.8739
 1535SOL    HW116241   3.277   4.559   7.540  0.7623  0.1772 -0.4118
 1535SOL    HW216242   3.206   4.446   7.510  0.1666 -1.1918  0.9199
 1536SOL     OW16243   3.978   3.868  12.607  0.3245 -0.4592  0.0423
 1536SOL    HW116244   3.897   3.819  12.622 -0.4359  0.6825 -0.3086
 1536SOL    HW216245   3.981   3.864  12.511  2.0026 -0.3182  0.0896
 1537SOL     OW16246   2.163   2.144  10.546 -0.5074  0.0947 -0.0903
 1537SOL    HW116247   2.115   2.150  10.629 -0.2992  1.5072 -0.0716
 1537SOL    HW216248   2.209   2.061  10.561  1.0137  1.0640  0.7268
 1538SOL     OW16249   3.465   3.101   9.247  0.0645 -0.4869  0.0361
 1538SOL    HW116250   3.516   3.021   9.260  1.0747 -0.1175 -1.6083
 1538SOL    HW216251   3.383   3.086   9.294  0.5156  0.0080  0.9900
 1539SOL     OW16252   0.169   3.339  11.571  0.2527  0.4556 -0.1135
 1539SOL    HW116253   0.078   3.365  11.587 -0.1001 -1.3281  0.7957
 1539SOL    HW216254   0.145   3.271  11.509  0.3860 -0.2404  0.5938
 1540SOL     OW16255   1.692   1.887   7.379  0.2150 -0.2373 -0.3217
 1540SOL    HW116256   1.666   1.974   7.410 -0.1030 -0.8180  1.0069
 1540SOL    HW216257   1.640   1.882   7.299 -0.3294 -1.2251  0.1012
 1541SOL     OW16258   2.182   0.147   5.620 -0.2191  0.3887  0.1956
 1541SOL    HW116259   2.127   0.071   5.638  3.1600 -1.4451  2.8279
 1541SOL    HW216260   2.224   0.118   5.538 -0.4684  1.3367 -0.2690
 1542SOL     OW16261   2.371   4.360   1.891  0.4104  0.0719 -0.4325
 1542SOL    HW116262   2.438   4.296   1.914  1.4352  0.8737 -1.2272
 1542SOL    HW216263   2.352   4.398   1.977  0.5577 -0.6632 -0.0707
 1543SOL     OW16264   3.104   4.217   0.875 -0.4858  0.1343  0.2547
 1543SOL    HW116265   3.081   4.128   0.904  2.4349 -0.4194  0.8066
 1543SOL    HW216266   3.078   4.273   0.948  0.7151  3.7206 -2.0982
 1544SOL     OW16267   0.339   1.190   3.716 -0.5753 -0.1226 -0.1020
 1544SOL    HW116268   0.358   1.132   3.790  1.0541 -0.1561 -0.5546
 1544SOL    HW216269   0.349   1.279   3.751  0.3914 -0.5326  0.6691
 1545SOL     OW16270   0.793   2.604  17.731  0.1015  0.3718  0.0765
 1545SOL    HW116271   0.755   2.689  17.705  0.7909  0.3235 -1.1054
 1545SOL    HW216272   0.866   2.654   0.018  0.8866 -0.8608  0.1723
 1546SOL     OW16273   2.152   3.687   7.200 -0.1160 -0.2120  0.5671
 1546SOL    HW116274   2.126   3.604   7.240 -0.6121 -0.9171 -1.2337
 1546SOL    HW216275   2.237   3.667   7.162 -2.3283 -2.7607 -3.0254
 1547SOL     OW16276   3.090   3.172  15.203  0.3185  0.1560 -0.0334
 1547SOL    HW116277   3.116   3.129  15.122 -2.1629  0.0895 -0.7883
 1547SOL    HW216278   3.126   3.260  15.189  0.0620  0.4881  1.3591
 1548SOL     OW16279   3.569   2.458   2.122  0.1439  0.1238 -0.4824
 1548SOL    HW116280   3.508   2.390   2.152 -0.8705  0.7529 -1.1152
 1548SOL    HW216281   3.520   2.496   2.049 -0.4071  0.7699  0.2305
 1549SOL     OW16282   3.005   2.793   1.793  0.3338 -0.0777 -0.3058
 1549SOL    HW116283   2.946   2.718   1.785  0.2909 -0.2276  1.3392
 1549SOL    HW216284   2.993   2.819   1.885  1.8500  0.1767 -0.1708
 1550SOL     OW16285   0.553   1.449   9.628  0.0580  0.1642  0.4523
 1550SOL    HW116286   0.558   1.421   9.720  0.7258  1.2666  0.7559
 1550SOL    HW216287   0.496   1.386   9.585 -0.2984  1.4615 -0.9852
 1551SOL     OW16288   1.540   2.590   5.320  0.5190  0.6769  0.1850
 1551SOL    HW116289   1.453   2.558   5.342 -0.5209  2.1531 -1.7470
 1551SOL    HW216290   1.538   2.581   5.224  2.7662 -0.5195  0.2530
 1552SOL     OW16291   3.592   1.597   9.088  0.1551  0.3933 -0.0399
 1552SOL    HW116292   3.662   1.576   9.150 -0.4144 -3.1421 -0.5615
 1552SOL    HW216293   3.602   1.688   9.062  1.3083  0.4097  0.4457
 1553SOL     OW16294   1.109   4.043   5.468 -0.1545 -0.0310 -0.7234
 1553SOL    HW116295   1.063   4.071   5.547  1.5420 -0.7482  0.4973
 1553SOL    HW216296   1.152   4.121   5.434 -1.5951  0.9706 -0.2764
 1554SOL     OW16297   1.972   4.264   1.198 -0.2944  0.0841 -0.4598
 1554SOL    HW116298   1.994   4.356   1.214 -3.2049  0.3588  1.8838
 1554SOL    HW216299   1.882   4.274   1.168  0.0669 -0.2566 -1.6535
 1555SOL     OW16300   0.667   0.730  13.189  0.0268  0.6159  0.2454
 1555SOL    HW116301   0.585   0.681  13.190 -0.2596  1.0910  0.1344
 1555SOL    HW216302   0.705   0.697  13.270 -0.3690  0.7682  0.4973
 1556SOL     OW16303   0.810   0.605   3.698  0.4654  0.1213 -0.0979
 1556SOL    HW116304   0.889   0.599   3.644 -1.0372 -1.0211 -2.1498
 1556SOL    HW216305   0.745   0.621   3.629  3.0237  2.8388 -1.8761
 1557SOL     OW16306   2.148   3.706  11.375  0.0893  0.0003 -0.0453
 1557SOL    HW116307   2.080   3.709  11.442 -0.5640 -0.5826 -0.6671
 1557SOL    HW216308   2.225   3.739  11.420  0.0952  1.6933 -1.2995
 1558SOL     OW16309   2.369   3.490   1.626  0.3675  0.2632  0.0512
 1558SOL    HW116310   2.343   3.577   1.595 -0.5881  0.4180  1.2881
 1558SOL    HW216311   2.318   3.477   1.705  0.7984  1.5085  0.5345
 1559SOL     OW16312   2.201   4.496   2.450  0.7744 -0.0913 -0.2658
 1559SOL    HW116313   2.269   4.468   2.511  0.9282 -0.5692 -0.6515
 1559SOL    HW216314   2.191   4.583   2.487 -2.6329 -1.4183  1.9253
 1560SOL     OW16315   1.951   2.409   8.849 -0.0465  0.4400  0.2652
 1560SOL    HW116316   1.970   2.475   8.783  1.6854  0.5631  0.8790
 1560SOL    HW216317   2.000   2.442   8.925 -0.7213 -1.0066  1.3451
 1561SOL     OW16318   3.874   1.745  17.207 -0.0418  0.1550 -0.3041
 1561SOL    HW116319   3.887   1.678  17.140 -2.0807  0.1823 -0.7284
 1561SOL    HW216320   3.796   1.705  17.246  1.3600 -2.1949  0.1098
 1562SOL     OW16321   0.545   0.726   3.144  0.4180 -0.0441 -0.3247
 1562SOL    HW116322   0.566   0.701   3.234  1.1945 -0.6183 -0.6646
 1562SOL    HW216323   0.550   0.639   3.104 -1.1994 -0.9294  1.3911
 1563SOL     OW16324   0.032   1.161   3.038  0.2997 -0.7296  0.4570
 1563SOL    HW116325   0.030   1.077   3.085 -0.6305 -0.2419  1.2680
 1563SOL    HW216326   0.124   1.155   3.012 -0.2826 -2.4660 -1.2261
 1564SOL     OW16327   4.202   3.770   7.105  0.0389 -0.0803  0.3280
 1564SOL    HW116328   4.202   3.811   7.192 -2.1325  1.0571 -0.2180
 1564SOL    HW216329   4.202   3.675   7.120 -2.0330 -0.2149 -0.5500
 1565SOL     OW16330   4.426   4.216   3.001  0.1427  0.5947  0.2837
 1565SOL    HW116331   4.392   4.143   2.949  2.5773  1.5760 -2.6809
 1565SOL    HW216332   4.504   4.180   3.042  0.3785  1.1942  0.3631
 1566SOL     OW16333   4.548   0.502   5.902  0.0924  0.0473  0.1347
 1566SOL    HW116334   4.573   0.513   5.811 -1.2786  1.0314 -0.1278
 1566SOL    HW216335   4.577   0.411   5.913 -0.8036 -0.0750  1.4786
 1567SOL     OW16336   2.829   3.912  16.141 -0.0812 -0.3626 -0.1881
 1567SOL    HW116337   2.850   3.999  16.108  1.6006  0.0556  1.9915
 1567SOL    HW216338   2.767   3.936  16.211  1.1855 -1.5248  1.3444
 1568SOL     OW16339   0.488   2.211  10.140 -0.0355  0.0893  0.2319
 1568SOL    HW116340   0.534   2.218  10.057 -1.1632  1.5099 -0.2693
 1568SOL    HW216341   0.483   2.305  10.158 -0.0226  0.3403 -1.0916
 1569SOL     OW16342   4.627   0.245   3.149  0.2334 -0.0836  0.2063
 1569SOL    HW116343   4.563   0.226   3.217 -1.3423  1.6868 -0.7454
 1569SOL    HW216344   4.601   0.334   3.125  2.4725 -0.0351 -1.9878
 1570SOL     OW16345   4.599   2.979   9.391  0.0465 -0.2245  0.3295
 1570SOL    HW116346   4.602   3.028   9.473  2.1080 -1.3059  0.9240
 1570SOL    HW216347   4.512   2.994   9.356  0.7871  0.4093 -1.2638
 1571SOL     OW16348   1.781   1.157   3.177  0.2409 -0.3542 -0.3141
 1571SOL    HW116349   1.864   1.150   3.225  1.5951 -0.5719 -2.6356
 1571SOL    HW216350   1.807   1.164   3.085  2.2281  0.4734  0.3021
 1572SOL     OW16351   3.115   0.141  11.038  0.1839 -0.1698 -0.8359
 1572SOL    HW116352   3.058   0.210  11.003 -1.1960 -1.1433 -0.4600
 1572SOL    HW216353   3.053   0.069  11.035 -0.4259  0.3536 -0.7571
 1573SOL     OW16354   1.893   2.966  12.432  0.1381 -0.8784  0.1543
 1573SOL    HW116355   1.835   2.891  12.431 -0.3152 -0.5207 -0.1806
 1573SOL    HW216356   1.967   2.933  12.381  0.2167  0.7348 -0.7637
 1574SOL     OW16357   4.555   2.741  14.273  0.8992 -0.0559 -0.3718
 1574SOL    HW116358   4.520   2.670  14.218 -2.2743 -0.0615  1.7085
 1574SOL    HW216359   4.483   2.803  14.278 -1.7521 -3.0515 -0.8594
 1575SOL     OW16360   1.094   1.709   6.822 -1.1155 -0.0848 -0.5100
 1575SOL    HW116361   1.045   1.751   6.893  4.8433  3.3773  1.5014
 1575SOL    HW216362   1.046   1.626   6.821 -1.0982 -0.0921 -0.6407
 1576SOL     OW16363   1.117   2.672   5.492 -0.4809 -0.0370  0.2915
 1576SOL    HW116364   1.183   2.709   5.433  0.5700 -3.3617 -0.6015
 1576SOL    HW216365   1.041   2.722   5.461 -1.2192 -0.0199  2.1314
 1577SOL     OW16366   3.182   1.610  13.169 -0.0342  0.8419 -0.1445
 1577SOL    HW116367   3.102   1.635  13.213  0.1685 -0.5891  1.0331
 1577SOL    HW216368   3.243   1.678  13.196  0.1992  0.5087  0.1786
 1578SOL     OW16369   3.117   0.401   6.812 -0.0558  0.2972  0.0239
 1578SOL    HW116370   3.150   0.400   6.723  0.1753  3.1959  0.0760
 1578SOL    HW216371   3.178   0.343   6.857 -1.1694  0.4567  1.7755
 1579SOL     OW16372   0.915   3.770   5.715 -0.5744 -0.2199 -0.4684
 1579SOL    HW116373   0.911   3.740   5.624  1.3622 -1.7533 -0.0435
 1579SOL    HW216374   0.822   3.765   5.735 -0.1457  0.1835  1.6013
 1580SOL     OW16375   1.630   2.725   9.828 -0.1386 -0.0227  0.5123
 1580SOL    HW116376   1.637   2.806   9.879  1.9867  0.7995 -1.0906
 1580SOL    HW216377   1.667   2.667   9.894  0.9060 -0.1826 -0.2073
 1581SOL     OW16378   0.792   2.936   4.696  0.1933  0.4115 -0.1295
 1581SOL    HW116379   0.809   2.982   4.614  2.1823  1.7089  0.9917
 1581SOL    HW216380   0.882   2.906   4.712 -0.6115 -2.0985 -0.3615
 1582SOL     OW16381   2.473   3.445   2.415 -0.5253 -0.2499  0.1344
 1582SOL    HW116382   2.385   3.418   2.440 -0.5406 -0.0008  0.3536
 1582SOL    HW216383   2.515   3.362   2.437  1.6752  0.7411 -0.3438
 1583SOL     OW16384   1.351   0.620   9.089 -0.1899 -0.5275  0.2073
 1583SOL    HW116385   1.282   0.555   9.077 -0.1141 -0.0555 -2.9306
 1583SOL    HW216386   1.305   0.700   9.111 -0.5304 -0.6006 -0.2375
 1584SOL     OW16387   2.172   3.210   6.052 -0.5682  0.0179 -0.2865
 1584SOL    HW116388   2.212   3.124   6.035 -1.2036 -0.4512  0.5719
 1584SOL    HW216389   2.201   3.258   5.975 -0.0192 -0.1760 -0.2018
 1585SOL     OW16390   2.779   4.720   5.063 -0.2056 -0.3507  0.0480
 1585SOL    HW116391   2.781   4.695   4.970 -1.3574  0.5378 -0.2211
 1585SOL    HW216392   2.873   4.720   5.082 -0.2463 -1.1056  0.2454
 1586SOL     OW16393   4.441   0.801   7.238 -0.0748  0.1269 -0.2871
 1586SOL    HW116394   4.457   0.736   7.170 -0.9687 -2.8832  2.3705
 1586SOL    HW216395   4.530   0.828   7.261 -0.5157  2.3929 -1.2603
 1587SOL     OW16396   2.337   2.374  14.144  0.1906 -0.5143  0.5950
 1587SOL    HW116397   2.308   2.449  14.197  1.9612  0.5402  0.0988
 1587SOL    HW216398   2.256   2.324  14.141 -0.4258  0.5156  0.1220
 1588SOL     OW16399   0.304   3.089   6.577 -0.2046  0.3102 -0.6229
 1588SOL    HW116400   0.353   3.099   6.495  1.6967  0.3585  0.5289
 1588SOL    HW216401   0.215   3.094   6.541 -0.7056 -1.3652  0.3636
 1589SOL     OW16402   3.493   3.880  10.680 -0.7604  0.6514 -0.0121
 1589SOL    HW116403   3.568   3.853  10.734  0.3159  1.4161 -1.1520
 1589SOL    HW216404   3.424   3.915  10.737 -1.8007 -2.1070  0.4542
 1590SOL     OW16405   4.559   3.002  17.542  0.1957  0.1363 -0.4036
 1590SOL    HW116406   4.597   3.049  17.468 -0.4791  1.9027  0.3671
 1590SOL    HW216407   4.539   3.078  17.597 -1.0733 -1.0762  0.8258
 1591SOL     OW16408   4.199   4.256   0.967  0.0424 -0.1979 -0.1196
 1591SOL    HW116409   4.286   4.277   0.999  0.1141  1.8511 -1.6688
 1591SOL    HW216410   4.186   4.322   0.900  2.3038  2.0975  1.7179
 1592SOL     OW16411   4.123   3.604   5.928 -1.0449  0.0808  0.1048
 1592SOL    HW116412   4.182   3.543   5.973 -0.9328 -0.3340 -0.6103
 1592SOL    HW216413   4.065   3.544   5.881 -0.5343  0.2120 -0.6851
 1593SOL     OW16414   2.437   2.925   1.017  0.1616 -0.1463 -0.4783
 1593SOL    HW116415   2.508   2.987   1.001  0.6517 -0.8717 -1.1568
 1593SOL    HW216416   2.468   2.879   1.095  1.4040 -1.1111 -1.5234
 1594SOL     OW16417   4.249   0.049   2.752 -0.3033 -0.3217  0.5861
 1594SOL    HW116418   4.307   0.106   2.804 -0.8382 -0.7861  1.6993
 1594SOL    HW216419   4.318   4.734   2.712 -0.0156  0.3815  0.1595
 1595SOL     OW16420   4.409   0.666   4.385  0.1726  0.7825  0.6880
 1595SOL    HW116421   4.480   0.695   4.329  0.4171 -2.3097 -0.6221
 1595SOL    HW216422   4.410   0.574   4.356 -1.9932  0.7889  0.5954
 1596SOL     OW16423   4.347   0.548   1.370 -0.2660 -0.2824 -0.0743
 1596SOL    HW116424   4.398   0.468   1.372 -0.3616 -0.3269  0.5526
 1596SOL    HW216425   4.406   0.610   1.326  1.0892 -1.6167 -0.1184
 1597SOL     OW16426   0.021   4.004  11.301 -0.3853  0.2948  0.0201
 1597SOL    HW116427   4.720   3.945  11.237  3.1553 -0.2323 -1.6378
 1597SOL    HW216428   0.062   4.070  11.246 -1.5720  0.8524 -0.1925
 1598SOL     OW16429   0.356   1.910   6.086 -0.0587 -0.0420  0.1509
 1598SOL    HW116430   0.417   1.864   6.029  4.3443  3.2474  2.2396
 1598SOL    HW216431   0.392   1.997   6.070 -1.6633  1.0881  2.6801
 1599SOL     OW16432   3.814   3.930   5.509  0.2460  0.1468  0.2565
 1599SOL    HW116433   3.755   3.922   5.584 -1.1109  0.2364 -0.8168
 1599SOL    HW216434   3.847   4.015   5.537 -4.7105  1.8622  0.8106
 1600SOL     OW16435   0.583   2.852  14.952 -0.1440  0.2085  0.2433
 1600SOL    HW116436   0.644   2.922  14.975 -0.7806  1.7961 -2.9320
 1600SOL    HW216437   0.525   2.905  14.896 -0.1507 -0.3222 -0.2573
 1601SOL     OW16438   4.117   2.738   7.245  0.0386  0.2896  0.1576
 1601SOL    HW116439   4.161   2.805   7.297  0.3904  0.5900 -0.5225
 1601SOL    HW216440   4.043   2.788   7.211 -1.1464 -0.9002  1.0053
 1602SOL     OW16441   2.971   3.899   7.230 -0.5630 -1.4598  0.3135
 1602SOL    HW116442   2.889   3.868   7.269 -0.8998 -0.2616  0.5784
 1602SOL    HW216443   2.980   3.968   7.296 -0.4270  0.7967 -2.0632
 1603SOL     OW16444   3.260   4.621   4.335  0.1405 -0.1662 -0.2779
 1603SOL    HW116445   3.276   4.528   4.347  0.7011 -0.1726 -1.0824
 1603SOL    HW216446   3.346   4.643   4.300 -0.3712  1.4640 -0.5248
 1604SOL     OW16447   4.457   3.273  10.971  0.4424  0.5752 -0.2960
 1604SOL    HW116448   4.375   3.223  10.967 -1.0310  2.9663 -0.0213
 1604SOL    HW216449   4.454   3.302  11.062 -0.1459  1.3957 -0.5771
 1605SOL     OW16450   2.706   2.350   7.745  0.1664 -0.4011 -0.3643
 1605SOL    HW116451   2.693   2.410   7.671  0.2024 -1.2655 -1.0797
 1605SOL    HW216452   2.717   2.406   7.821 -0.5138 -0.2287 -0.3911
 1606SOL     OW16453   2.152   0.904  11.023 -0.2622  0.1072 -0.0359
 1606SOL    HW116454   2.130   0.944  10.939 -0.8434  2.1876  1.1228
 1606SOL    HW216455   2.244   0.929  11.036 -0.2844  0.0218  0.2972
 1607SOL     OW16456   3.143   2.972  11.733 -0.1736  0.0805  0.3500
 1607SOL    HW116457   3.198   2.940  11.804 -2.2587 -1.8416  1.0830
 1607SOL    HW216458   3.158   2.908  11.663  0.6502 -1.9101  2.3556
 1608SOL     OW16459   0.285   4.130   3.875 -0.1831 -0.1884 -0.4459
 1608SOL    HW116460   0.283   4.173   3.960  1.2051 -0.4399 -0.2759
 1608SOL    HW216461   0.341   4.190   3.825  0.6694 -0.4153  0.2427
 1609SOL     OW16462   0.771   3.353  12.608  0.0431 -0.0516 -0.3239
 1609SOL    HW116463   0.717   3.422  12.646  0.6551  0.3136 -0.1222
 1609SOL    HW216464   0.715   3.313  12.541 -0.3026 -0.2311  0.0674
 1610SOL     OW16465   0.190   0.815   8.747 -0.0009 -0.2433 -0.0388
 1610SOL    HW116466   0.116   0.790   8.803  0.7635  0.8073  1.4625
 1610SOL    HW216467   0.189   0.745   8.682 -1.3937  1.3764 -1.7740
 1611SOL     OW16468   1.471   0.893   2.390  0.3291  0.1297  0.1136
 1611SOL    HW116469   1.466   0.824   2.324  1.7812  0.1524 -0.0255
 1611SOL    HW216470   1.520   0.965   2.351  0.7108  0.5413  1.3655
 1612SOL     OW16471   0.626   3.365   0.409  0.4044  0.2551  0.1302
 1612SOL    HW116472   0.640   3.459   0.406  0.0020  0.2740 -1.0740
 1612SOL    HW216473   0.637   3.333   0.319  0.8698 -0.2511  0.3647
 1613SOL     OW16474   4.666   1.770   8.180  0.4536  0.2060  0.4686
 1613SOL    HW116475   4.680   1.840   8.116  0.1291  0.4278  0.6378
 1613SOL    HW216476   4.708   1.815   8.253 -1.2587  0.5108  1.2772
 1614SOL     OW16477   1.303   3.227   1.192 -0.0601  0.9020  0.1182
 1614SOL    HW116478   1.368   3.297   1.181 -1.1537  1.9673  0.3922
 1614SOL    HW216479   1.228   3.280   1.220  0.8214  1.5184  1.3200
 1615SOL     OW16480   2.744   1.521   2.597  0.1755 -0.3591 -0.2583
 1615SOL    HW116481   2.802   1.595   2.612  0.0801  0.2223 -2.7859
 1615SOL    HW216482   2.687   1.561   2.531  3.1665  1.3498 -1.8071
 1616SOL     OW16483   2.224   4.205  15.059  0.0752  0.6081  0.2897
 1616SOL    HW116484   2.272   4.210  14.977  2.0219  0.6211  1.4386
 1616SOL    HW216485   2.284   4.242  15.124 -2.5447  0.8821  2.5688
 1617SOL     OW16486   4.088   3.193   4.069 -0.0616  0.0583  0.3889
 1617SOL    HW116487   4.141   3.115   4.084  1.2910  0.8150 -0.4249
 1617SOL    HW216488   3.998   3.161   4.068 -0.3465  0.8332  0.9049
 1618SOL     OW16489   4.464   4.704  13.525 -0.1080  0.1593 -0.4237
 1618SOL    HW116490   4.553   4.736  13.512  0.5081 -2.0988 -1.7873
 1618SOL    HW216491   4.433   0.012  13.604  3.0410 -0.0181  0.9300
 1619SOL     OW16492   4.636   2.644  15.594  0.1331 -0.1305 -0.3955
 1619SOL    HW116493   4.622   2.739  15.594  4.5850  0.5120  0.7066
 1619SOL    HW216494   4.729   2.641  15.613  0.4732  2.1138 -1.6687
 1620SOL     OW16495   4.516   1.907   4.262  0.4665  0.2841  0.0747
 1620SOL    HW116496   4.485   1.907   4.171 -2.4210 -0.2250  1.0756
 1620SOL    HW216497   4.442   1.885   4.319  0.8351 -0.4723  0.2604
 1621SOL     OW16498   3.396   2.759  15.368 -0.0031  0.8811 -0.8043
 1621SOL    HW116499   3.371   2.847  15.397 -0.4909  0.0569  1.3403
 1621SOL    HW216500   3.349   2.765  15.285  1.2905 -2.3067 -1.7994
 1622SOL     OW16501   3.046   0.170   5.882 -0.4893 -0.0478  0.1514
 1622SOL    HW116502   3.061   0.109   5.954  2.1838  0.2357 -0.1443
 1622SOL    HW216503   2.951   0.156   5.882 -0.4175 -0.4984 -3.4501
 1623SOL     OW16504   0.131   2.120   9.670  0.3315 -0.2293  0.1319
 1623SOL    HW116505   0.218   2.103   9.706  0.3781 -0.3701 -0.0421
 1623SOL    HW216506   0.111   2.194   9.726  1.3237 -0.2797  0.5464
 1624SOL     OW16507   4.574   1.612   8.748  0.3358 -0.6963  0.1236
 1624SOL    HW116508   4.650   1.600   8.805  0.2641 -2.8131 -0.2036
 1624SOL    HW216509   4.519   1.658   8.811 -0.2290  1.8220 -2.2154
 1625SOL     OW16510   4.210   3.553   2.146 -0.1973 -0.3871  0.1257
 1625SOL    HW116511   4.190   3.460   2.149 -3.7633  0.3596 -0.2920
 1625SOL    HW216512   4.305   3.551   2.147 -0.1985 -0.2523  0.9553
 1626SOL     OW16513   0.296   4.387   4.094  0.3862 -0.1957  0.1245
 1626SOL    HW116514   0.285   4.382   4.189  0.7590 -1.1480  0.1200
 1626SOL    HW216515   0.390   4.405   4.093  0.0770  1.3597 -0.7233
 1627SOL     OW16516   2.854   2.439   3.292 -0.2072  0.0601 -0.3320
 1627SOL    HW116517   2.907   2.359   3.300  1.3192  1.0583 -0.3257
 1627SOL    HW216518   2.776   2.414   3.340 -1.3270 -0.2609 -2.3168
 1628SOL     OW16519   0.412   1.022  14.194  0.4932  0.6509 -0.6792
 1628SOL    HW116520   0.481   1.074  14.236 -0.3706 -0.4254  2.0698
 1628SOL    HW216521   0.431   1.047  14.104 -0.7086 -1.9421 -1.6467
 1629SOL     OW16522   0.034   1.322  12.809  0.3590  0.1598  0.5146
 1629SOL    HW116523   0.078   1.400  12.776  0.1687 -0.3890 -1.0432
 1629SOL    HW216524   0.077   1.315  12.894 -2.9173  1.4828  2.2927
 1630SOL     OW16525   1.723   1.391   5.426  0.5468 -0.0403  0.2500
 1630SOL    HW116526   1.788   1.445   5.380 -0.6883  1.3820  0.1874
 1630SOL    HW216527   1.677   1.462   5.469 -0.5786 -1.2605  1.0576
 1631SOL     OW16528   2.234   4.096   9.842 -0.2982 -0.1025  0.3360
 1631SOL    HW116529   2.242   4.004   9.867 -0.7949 -0.6101 -1.3531
 1631SOL    HW216530   2.149   4.113   9.882  0.0174 -1.7849  1.7038
 1632SOL     OW16531   1.310   0.266  10.915 -0.7098  0.0982 -0.4018
 1632SOL    HW116532   1.347   0.352  10.894  1.1201 -0.3648  0.8579
 1632SOL    HW216533   1.216   0.279  10.905 -0.8005 -0.0893  0.2190
 1633SOL     OW16534   4.273   2.532   6.324  0.0044  0.0718 -0.5145
 1633SOL    HW116535   4.195   2.587   6.313 -1.8497 -2.2373  1.1120
 1633SOL    HW216536   4.258   2.465   6.257  0.5560  0.2471 -0.8190
 1634SOL     OW16537   4.731   2.264  11.224  0.0263  0.9469  0.0692
 1634SOL    HW116538   0.052   2.200  11.263 -0.2769  0.6097 -0.0213
 1634SOL    HW216539   0.054   2.287  11.154  1.7994 -2.2767  0.5470
 1635SOL     OW16540   1.174   0.549   2.180 -0.0186 -0.1573  0.5515
 1635SOL    HW116541   1.266   0.524   2.173 -0.6593 -1.8459 -1.6324
 1635SOL    HW216542   1.139   0.474   2.227  0.0327 -0.5269 -0.0019
 1636SOL     OW16543   4.576   0.034   5.440 -0.1624  0.1258  0.2183
 1636SOL    HW116544   4.563   0.089   5.517  1.7683 -1.4816  1.6801
 1636SOL    HW216545   4.650   0.083   5.404  0.0083  0.3129  0.8292
 1637SOL     OW16546   3.947   2.724   2.604 -0.3923 -0.9013  0.3642
 1637SOL    HW116547   3.917   2.691   2.519 -1.1583 -0.6011  0.5207
 1637SOL    HW216548   3.969   2.638   2.639  1.1049 -0.1782  1.2268
 1638SOL     OW16549   2.645   1.887   7.329  0.3366  0.0229  0.6385
 1638SOL    HW116550   2.554   1.901   7.303  0.9432 -0.7023 -1.8535
 1638SOL    HW216551   2.679   1.857   7.245 -0.1394 -1.7130  1.0616
 1639SOL     OW16552   4.036   2.253  10.385  0.1468 -0.0936  0.1478
 1639SOL    HW116553   4.112   2.241  10.328  0.8540 -0.2903  1.1509
 1639SOL    HW216554   4.057   2.195  10.458 -1.2300  0.6232  1.1070
 1640SOL     OW16555   2.995   3.845   6.282 -0.0411  0.9308  0.8207
 1640SOL    HW116556   2.917   3.899   6.270 -1.2996 -0.8014  1.0881
 1640SOL    HW216557   2.970   3.775   6.221  1.9001  0.0683  1.0195
 1641SOL     OW16558   0.777   2.638   0.703 -0.1750  0.1615 -0.0701
 1641SOL    HW116559   0.773   2.659   0.610 -2.0023  1.5115  0.3163
 1641SOL    HW216560   0.872   2.645   0.718  0.1790 -1.9729 -1.3701
 1642SOL     OW16561   3.021   1.782   5.704  0.6540  0.2159 -0.0052
 1642SOL    HW116562   3.099   1.807   5.654  1.2170 -1.5883 -0.0262
 1642SOL    HW216563   3.070   1.752   5.780  2.3867  0.6903 -0.9357
 1643SOL     OW16564   0.462   4.694   8.955  0.4704  0.1275 -0.3719
 1643SOL    HW116565   0.509   0.038   8.970  0.6739 -0.0271 -0.1679
 1643SOL    HW216566   0.492   4.649   9.034  3.9175  0.9366 -1.2314
 1644SOL     OW16567   3.821   3.362   2.206 -0.2940 -0.0812 -0.4939
 1644SOL    HW116568   3.749   3.352   2.144 -1.4623  2.5807  0.4569
 1644SOL    HW216569   3.784   3.415   2.277 -0.5283 -0.1694 -0.5485
 1645SOL     OW16570   0.059   2.037   2.060  0.5407  0.0529  0.2485
 1645SOL    HW116571   4.736   2.093   2.012 -0.0684 -0.5810  0.2779
 1645SOL    HW216572   0.105   1.990   1.991  0.0139  0.0795 -0.1182
 1646SOL     OW16573   1.079   3.262   1.978 -0.4821  1.0123 -0.0356
 1646SOL    HW116574   1.016   3.288   1.910 -3.7803 -4.0755  1.0868
 1646SOL    HW216575   1.133   3.341   1.986  0.5814  0.2131  0.5848
 1647SOL     OW16576   1.873   1.778   4.014 -0.0931  0.4120 -0.6825
 1647SOL    HW116577   1.941   1.713   3.998 -0.2319  0.2802 -0.7355
 1647SOL    HW216578   1.927   1.845   4.056  0.3973 -1.6581  1.9602
 1648SOL     OW16579   3.845   3.168   2.392  0.3887 -0.5337  0.0847
 1648SOL    HW116580   3.867   3.218   2.470 -2.0760 -0.7036  0.8638
 1648SOL    HW216581   3.867   3.224   2.317 -1.1503  0.2694  0.2328
 1649SOL     OW16582   2.405   3.709  13.556 -0.6862 -0.2527 -0.7133
 1649SOL    HW116583   2.475   3.646  13.538 -3.6544 -3.7501  0.1178
 1649SOL    HW216584   2.371   3.680  13.640  0.2129 -2.3230 -1.0543
 1650SOL     OW16585   2.757   4.711   6.747 -0.1080 -0.6197 -0.6954
 1650SOL    HW116586   2.762   4.693   6.841  1.9071 -1.5952 -0.9981
 1650SOL    HW216587   2.840   0.018   6.733  0.5611 -1.4608  0.6028
 1651SOL     OW16588   3.728   4.486  14.910 -0.1445  0.2902 -0.5284
 1651SOL    HW116589   3.699   4.458  14.997  1.2431  1.9772  0.5068
 1651SOL    HW216590   3.745   4.407  14.859 -1.8923 -0.1123 -0.4798
 1652SOL     OW16591   1.057   4.236   8.157 -0.6687  0.0192 -0.1117
 1652SOL    HW116592   1.011   4.318   8.138 -1.7561 -0.0996  2.0660
 1652SOL    HW216593   1.036   4.225   8.250  0.3360 -0.6258  0.0453
 1653SOL     OW16594   0.266   2.478   9.663 -0.3031 -0.0112  1.1140
 1653SOL    HW116595   0.295   2.428   9.739 -0.6383 -2.0395 -0.0982
 1653SOL    HW216596   0.306   2.564   9.678 -0.8704  0.4111  0.2271
 1654SOL     OW16597   3.742   2.367   9.359  0.0170  0.2174  0.2261
 1654SOL    HW116598   3.681   2.363   9.432 -1.5912  1.9076 -1.0442
 1654SOL    HW216599   3.694   2.408   9.287  1.2183  1.9994  0.4485
 1655SOL     OW16600   3.766   2.136   7.703  0.4861  0.2091 -0.3148
 1655SOL    HW116601   3.858   2.145   7.678  1.0280 -1.8034  0.9562
 1655SOL    HW216602   3.765   2.200   7.774  0.0524 -2.0999  1.7707
 1656SOL     OW16603   3.066   0.275   1.782  0.1020 -0.0976 -0.2007
 1656SOL    HW116604   3.107   0.226   1.710  0.8608  1.3280 -0.7296
 1656SOL    HW216605   3.029   0.350   1.737  0.1536  0.5440  0.8235
 1657SOL     OW16606   3.114   2.886  16.093  0.1243  0.2269  0.1961
 1657SOL    HW116607   3.187   2.856  16.147  0.8295  0.2073 -0.7687
 1657SOL    HW216608   3.041   2.875  16.153  0.0347  2.6584  0.5300
 1658SOL     OW16609   2.730   3.302  14.128  0.3712 -0.5262  0.4642
 1658SOL    HW116610   2.711   3.235  14.193 -0.1667 -0.3612  0.4752
 1658SOL    HW216611   2.786   3.368  14.168  0.4188 -0.9009  1.0132
 1659SOL     OW16612   1.237   1.994   9.355 -0.0773  0.1300  0.4254
 1659SOL    HW116613   1.172   2.029   9.417  0.0538 -0.3758  0.8481
 1659SOL    HW216614   1.190   1.922   9.313 -0.0775  0.9239 -0.9041
 1660SOL     OW16615   3.881   3.485   5.601  0.7473 -0.1495 -0.3061
 1660SOL    HW116616   3.954   3.533   5.562 -0.4458 -1.2783 -3.9436
 1660SOL    HW216617   3.927   3.438   5.671 -0.5536  0.7479  1.1766
 1661SOL     OW16618   0.506   3.989  17.702 -0.1275  0.2042 -0.2713
 1661SOL    HW116619   0.411   3.991  17.690 -0.0163 -1.0806 -1.3237
 1661SOL    HW216620   0.524   4.080  17.726  0.8242  0.1914 -0.9405
 1662SOL     OW16621   0.023   4.732   4.493 -0.3037  0.5187 -0.0827
 1662SOL    HW116622   0.079   4.707   4.567  0.3034  3.6733  0.5339
 1662SOL    HW216623   4.689   4.669   4.501  0.4713 -0.1603  1.5932
 1663SOL     OW16624   0.435   0.779  12.499 -0.2984 -0.1780  0.1887
 1663SOL    HW116625   0.373   0.795  12.571 -0.1501 -2.0001  0.7450
 1663SOL    HW216626   0.518   0.800  12.541 -0.4869 -0.6669  0.8154
 1664SOL     OW16627   0.338   0.269  13.825  0.3484 -0.1382  0.1768
 1664SOL    HW116628   0.281   0.252  13.750 -0.3819  0.3962  0.6090
 1664SOL    HW216629   0.344   0.364  13.813  0.0886 -0.1579 -0.1085
 1665SOL     OW16630   0.568   4.556   2.540  0.1049  0.0313  0.6616
 1665SOL    HW116631   0.488   4.505   2.523  0.8015 -0.9628  0.3491
 1665SOL    HW216632   0.531   4.630   2.588  0.6157  1.0261 -0.4893
 1666SOL     OW16633   3.191   0.129   1.552  0.4445  0.1176  0.1501
 1666SOL    HW116634   3.132   0.133   1.477 -0.2163 -2.8768  0.5128
 1666SOL    HW216635   3.250   0.057   1.530  1.4471  0.2550  2.3928
 1667SOL     OW16636   4.620   3.098   6.658 -0.4077  0.3898  0.1955
 1667SOL    HW116637   4.539   3.064   6.696 -0.4724  1.7368  1.2844
 1667SOL    HW216638   4.625   3.191   6.681 -2.8272  0.3334  0.9140
 1668SOL     OW16639   1.881   3.310   5.291  0.3826  0.4027  0.4031
 1668SOL    HW116640   1.836   3.249   5.232 -0.6789  0.1819  1.4398
 1668SOL    HW216641   1.863   3.276   5.379 -0.4186  0.0483  0.1014
 1669SOL     OW16642   3.658   4.000  15.370 -0.6951 -0.2317 -0.1632
 1669SOL    HW116643   3.654   3.918  15.419 -1.1007  0.3041  0.7096
 1669SOL    HW216644   3.596   3.979  15.301 -0.1248  0.4418 -0.8848
 1670SOL     OW16645   1.149   1.210   3.564  0.5832 -0.2437  0.5534
 1670SOL    HW116646   1.091   1.285   3.575  0.7424 -0.0760  0.2163
 1670SOL    HW216647   1.134   1.173   3.652  1.9899 -2.9360 -0.3182
 1671SOL     OW16648   1.143   2.193   4.080 -0.4534 -0.0128 -0.0512
 1671SOL    HW116649   1.188   2.262   4.127  0.2799  0.5237 -1.5407
 1671SOL    HW216650   1.134   2.233   3.993 -1.9717  1.3245  0.7211
 1672SOL     OW16651   1.380   2.903   5.070 -0.3434  0.3638  0.1110
 1672SOL    HW116652   1.356   2.995   5.079  2.4280  0.9846  1.0909
 1672SOL    HW216653   1.358   2.885   4.978 -0.5665 -0.3371  0.3018
 1673SOL     OW16654   0.937   3.945  14.163  0.0585  0.2685  0.3315
 1673SOL    HW116655   0.942   3.951  14.259  0.2586 -2.6378  0.5185
 1673SOL    HW216656   0.912   4.036  14.149 -3.1133 -0.6927 -0.3343
 1674SOL     OW16657   1.037   1.270   4.387  0.7163 -0.0951 -0.2452
 1674SOL    HW116658   1.062   1.179   4.372  0.7950 -0.0030 -0.6592
 1674SOL    HW216659   1.118   1.313   4.359  0.1791 -0.2083 -1.9422
 1675SOL     OW16660   3.223   3.274   7.641  0.1510 -0.6597 -0.4593
 1675SOL    HW116661   3.255   3.184   7.635 -0.8672 -1.2480  2.6245
 1675SOL    HW216662   3.250   3.307   7.727 -3.8596 -1.3350  1.0551
 1676SOL     OW16663   1.515   0.049   3.420  0.0809 -0.5926  0.7058
 1676SOL    HW116664   1.536   4.697   3.394 -0.2914 -0.6175  0.4851
 1676SOL    HW216665   1.468   0.086   3.345  0.1227 -0.5930  0.6797
 1677SOL     OW16666   1.447   3.919   1.572  0.1130  0.0920  0.4726
 1677SOL    HW116667   1.399   3.989   1.616 -1.5502 -0.3125 -0.7130
 1677SOL    HW216668   1.446   3.958   1.485  0.0461  1.6192  1.1591
 1678SOL     OW16669   2.006   1.926  15.813  0.0028 -0.5647 -0.0880
 1678SOL    HW116670   1.932   1.979  15.783 -1.7019 -2.0179  1.5309
 1678SOL    HW216671   1.958   1.845  15.832  0.4034 -0.9303 -0.6304
 1679SOL     OW16672   2.520   3.030   3.824  0.2873  0.1000 -0.7744
 1679SOL    HW116673   2.484   3.020   3.736  0.1104  2.6192 -0.9782
 1679SOL    HW216674   2.559   3.116   3.813  0.3923  0.2749  0.9394
 1680SOL     OW16675   2.014   2.370   8.265  0.1756  0.0756  0.1903
 1680SOL    HW116676   2.011   2.379   8.360  0.6953 -1.8588  0.3874
 1680SOL    HW216677   2.091   2.323   8.234 -0.3076 -1.1732  0.9042
 1681SOL     OW16678   2.940   4.712   0.796  0.2415  0.1502  0.2947
 1681SOL    HW116679   2.923   4.726   0.889 -2.0136  0.0965 -0.1141
 1681SOL    HW216680   2.949   4.617   0.801  2.0449  0.4857  3.2542
 1682SOL     OW16681   0.497   1.834   2.253  0.1786  0.4539  0.0923
 1682SOL    HW116682   0.472   1.756   2.303  0.4555 -0.0924 -0.6152
 1682SOL    HW216683   0.480   1.899   2.321 -2.2612 -1.7194  1.5421
 1683SOL     OW16684   3.633   0.874   8.772 -0.3757  0.4827  0.0825
 1683SOL    HW116685   3.576   0.821   8.717  0.8680 -1.7579  0.9138
 1683SOL    HW216686   3.691   0.805   8.806  1.3844  1.0596 -1.7795
 1684SOL     OW16687   2.769   3.327   8.535  0.6041  0.0506  0.0392
 1684SOL    HW116688   2.696   3.340   8.474  0.2845  1.0162  0.6090
 1684SOL    HW216689   2.720   3.330   8.618  2.1392  0.8021  0.9182
 1685SOL     OW16690   1.781   3.292   0.775 -0.2525  0.6544 -0.0879
 1685SOL    HW116691   1.697   3.335   0.758 -0.6945 -0.4287 -0.6550
 1685SOL    HW216692   1.762   3.206   0.813  0.4641  1.6328  2.4950
 1686SOL     OW16693   0.545   1.405  15.218 -0.1927  0.0493 -0.1024
 1686SOL    HW116694   0.516   1.371  15.303  0.2811 -0.5634 -0.1830
 1686SOL    HW216695   0.467   1.439  15.173  1.2486  2.4848 -0.7668
 1687SOL     OW16696   2.858   3.214   5.133 -0.1848 -0.0322 -0.0284
 1687SOL    HW116697   2.763   3.214   5.145 -0.0766  0.7613  0.8217
 1687SOL    HW216698   2.862   3.128   5.092  0.0742  0.1910 -0.4799
 1688SOL     OW16699   3.357   4.199   9.930  0.2987 -0.5744 -0.2821
 1688SOL    HW116700   3.279   4.143   9.929  0.2340 -0.5735  2.5585
 1688SOL    HW216701   3.416   4.124   9.935  1.0603  0.0443 -0.0457
 1689SOL     OW16702   3.631   1.763  13.532  1.0724  0.1161  0.2165
 1689SOL    HW116703   3.583   1.682  13.517 -0.5098  1.0909  0.0303
 1689SOL    HW216704   3.658   1.745  13.622 -2.0662 -0.8694  0.9578
 1690SOL     OW16705   1.176   3.795   6.196  0.2113 -0.1912  0.1288
 1690SOL    HW116706   1.150   3.753   6.114  2.5062  0.5297 -0.9741
 1690SOL    HW216707   1.265   3.766   6.214  0.3363  0.9744  1.4075
 1691SOL     OW16708   2.260   2.577  14.296  0.2088  0.2822 -0.2290
 1691SOL    HW116709   2.168   2.570  14.321  0.7319  0.4866  1.7472
 1691SOL    HW216710   2.304   2.576  14.381 -1.4099 -1.0810  0.5709
 1692SOL     OW16711   4.191   4.100  11.374  0.4254  0.1953 -0.4304
 1692SOL    HW116712   4.145   4.149  11.442 -0.5934 -0.0779 -0.9370
 1692SOL    HW216713   4.140   4.020  11.361  0.8870 -0.2288  0.3639
 1693SOL     OW16714   4.162   1.744   2.443  0.0828 -0.1264 -0.0837
 1693SOL    HW116715   4.072   1.763   2.470  0.1308 -1.6505  1.1906
 1693SOL    HW216716   4.172   1.817   2.382 -0.2811 -1.5341 -1.8020
 1694SOL     OW16717   3.102   1.030   2.666 -0.0148  0.5882  0.3955
 1694SOL    HW116718   3.019   0.983   2.657  1.0330 -1.0195 -0.8149
 1694SOL    HW216719   3.096   1.046   2.760 -1.7145  0.0556  0.3681
 1695SOL     OW16720   3.271   2.486   9.197 -0.2228  0.0174 -0.1618
 1695SOL    HW116721   3.223   2.563   9.227  0.1235  0.5211 -0.9078
 1695SOL    HW216722   3.205   2.421   9.223 -0.0227 -0.4733 -0.8732
 1696SOL     OW16723   0.511   0.620   5.508  0.3314 -0.0588 -0.3413
 1696SOL    HW116724   0.511   0.713   5.484 -0.2059 -0.1074 -0.5141
 1696SOL    HW216725   0.595   0.590   5.475 -0.2293 -1.0557 -0.8429
 1697SOL     OW16726   0.553   3.888   2.761  0.0308  0.2269  0.5665
 1697SOL    HW116727   0.527   3.973   2.724 -1.5171 -0.2726  0.4934
 1697SOL    HW216728   0.566   3.907   2.853 -0.5422  1.2720  0.4295
 1698SOL     OW16729   1.638   2.264   3.241  0.0763  0.1475 -0.5896
 1698SOL    HW116730   1.611   2.343   3.287 -0.2222 -0.1261 -0.2988
 1698SOL    HW216731   1.588   2.201   3.293  0.2836  0.5960  0.1423
 1699SOL     OW16732   0.286   3.054   0.867 -0.0870  0.7800 -0.2821
 1699SOL    HW116733   0.252   3.128   0.917 -0.6073  0.3919 -0.0486
 1699SOL    HW216734   0.210   2.995   0.867  0.7791 -0.3368  0.8600
 1700SOL     OW16735   3.531   2.658   4.725 -0.0774 -0.1935  0.3067
 1700SOL    HW116736   3.472   2.687   4.795 -1.1607 -0.4354 -0.4972
 1700SOL    HW216737   3.540   2.742   4.680 -0.6254  0.6451  1.7573
 1701SOL     OW16738   3.126   3.165  16.013 -0.0608 -0.1888  0.4162
 1701SOL    HW116739   3.140   3.071  16.006  1.8566  0.1695 -0.4068
 1701SOL    HW216740   3.068   3.165  16.089 -1.1271 -0.2391 -0.3940
 1702SOL     OW16741   0.656   2.396   8.244  0.4324  0.2530 -0.1219
 1702SOL    HW116742   0.632   2.397   8.337 -1.6804  0.2284 -0.6657
 1702SOL    HW216743   0.679   2.304   8.231  3.2083  1.0545 -0.8079
 1703SOL     OW16744   3.743   0.725   3.656 -0.3665  0.1694  0.2198
 1703SOL    HW116745   3.716   0.721   3.564  2.1407 -3.2124 -0.3999
 1703SOL    HW216746   3.770   0.636   3.680  1.1980  0.2334 -1.3155
 1704SOL     OW16747   4.413   3.229   2.169 -0.1369 -0.1666  0.4321
 1704SOL    HW116748   4.396   3.224   2.263 -1.4762  1.6079  0.2637
 1704SOL    HW216749   4.335   3.184   2.137 -0.4096  0.3516  0.3707
 1705SOL     OW16750   0.298   4.661   7.202 -0.0363  0.4133 -0.3377
 1705SOL    HW116751   0.382   4.667   7.246 -0.5085  1.6339  0.3954
 1705SOL    HW216752   0.257   4.580   7.233 -0.4118  0.5329 -0.5172
 1706SOL     OW16753   2.331   2.203   4.234  0.2844  0.2936 -0.4209
 1706SOL    HW116754   2.304   2.124   4.279 -1.7503  0.5755 -1.1235
 1706SOL    HW216755   2.377   2.257   4.299 -1.7214  1.7639 -0.2201
 1707SOL     OW16756   1.611   2.321  11.454  0.5766 -0.4777 -0.4591
 1707SOL    HW116757   1.644   2.282  11.373 -0.3999 -0.2617 -0.9567
 1707SOL    HW216758   1.589   2.406  11.416 -0.6243 -0.8860 -0.6687
 1708SOL     OW16759   0.509   2.060  17.334 -0.7842  0.6602 -0.0578
 1708SOL    HW116760   0.475   2.016  17.412 -3.0709 -0.6282 -1.7863
 1708SOL    HW216761   0.589   2.013  17.310  0.3935  1.2071  2.7335
 1709SOL     OW16762   1.083   3.279  13.900 -0.6785 -0.2378  0.1173
 1709SOL    HW116763   1.130   3.337  13.960 -1.1973  1.7012 -1.3765
 1709SOL    HW216764   1.034   3.227  13.964  1.8902 -0.5511  1.8728
 1710SOL     OW16765   4.194   3.071  15.938 -0.0230 -0.5219  0.2892
 1710SOL    HW116766   4.243   3.075  15.856 -0.7378  0.6341 -0.0899
 1710SOL    HW216767   4.111   3.104  15.904  0.0289 -0.3950  0.2875
 1711SOL     OW16768   2.656   1.836  16.672 -0.2359 -0.6059  0.2111
 1711SOL    HW116769   2.744   1.808  16.697  0.9014  1.7456 -1.1197
 1711SOL    HW216770   2.596   1.778  16.719  0.2861 -1.6910 -0.4616
 1712SOL     OW16771   4.137   0.459   5.001  0.3228  0.3450 -0.1016
 1712SOL    HW116772   4.093   0.437   5.083 -0.6404 -0.6402 -0.8878
 1712SOL    HW216773   4.095   0.396   4.942  1.6607 -2.2238  1.6599
 1713SOL     OW16774   3.721   3.509  12.183  0.1702  0.6245  0.3490
 1713SOL    HW116775   3.742   3.596  12.150  0.8309  0.9570  1.6534
 1713SOL    HW216776   3.626   3.516  12.194  0.0717  0.6222 -0.5391
 1714SOL     OW16777   0.175   0.589   5.734  0.3767  0.3408  0.7672
 1714SOL    HW116778   0.197   0.526   5.665 -0.6270 -0.3042  1.0353
 1714SOL    HW216779   0.080   0.591   5.721  0.6748  1.5680 -1.2509
 1715SOL     OW16780   2.294   3.937   7.900  0.0842 -0.1155 -0.1585
 1715SOL    HW116781   2.215   3.991   7.890  2.0507  2.7192 -0.5343
 1715SOL    HW216782   2.289   3.883   7.821 -0.2753 -2.4525  1.4661
 1716SOL     OW16783   2.448   4.016  14.624  0.6399 -0.1069 -0.5964
 1716SOL    HW116784   2.409   4.088  14.575 -2.8351 -1.7862 -0.3022
 1716SOL    HW216785   2.444   3.940  14.566 -1.8663  0.6492 -1.4047
 1717SOL     OW16786   2.422   2.775   5.660  0.0068 -0.0904 -0.6732
 1717SOL    HW116787   2.384   2.687   5.655 -0.1063 -0.1316  0.8790
 1717SOL    HW216788   2.507   2.758   5.700 -0.3756  0.4155  0.3428
 1718SOL     OW16789   0.086   3.010   5.494  0.1230 -0.4666 -0.0003
 1718SOL    HW116790   4.730   2.995   5.506  0.2093 -0.1216  1.0950
 1718SOL    HW216791   0.124   2.924   5.475 -1.1616 -0.7456 -1.2928
 1719SOL     OW16792   3.623   2.331  13.043 -0.1092  0.2864 -0.4118
 1719SOL    HW116793   3.703   2.347  13.093 -0.1286 -0.2648 -0.2068
 1719SOL    HW216794   3.557   2.339  13.112  0.1768 -1.9838  0.1465
 1720SOL     OW16795   3.209   4.273   4.078 -0.2450 -0.4637  0.8517
 1720SOL    HW116796   3.166   4.307   4.156  0.8428  0.3138  1.1106
 1720SOL    HW216797   3.272   4.214   4.121 -0.8116 -0.4951  1.6363
 1721SOL     OW16798   0.461   4.134   2.673 -0.3101 -0.5156  0.0558
 1721SOL    HW116799   0.405   4.146   2.596 -0.4961 -2.4592 -0.1112
 1721SOL    HW216800   0.406   4.181   2.737  1.5400 -0.5637  1.6746
 1722SOL     OW16801   3.990   3.472  17.748  0.8734 -0.1405 -0.2611
 1722SOL    HW116802   4.007   3.520   0.080 -1.0242 -0.4649  0.3288
 1722SOL    HW216803   3.940   3.397   0.030 -1.3811  0.0202 -3.5390
 1723SOL     OW16804   3.546   2.492   9.200 -0.2992  0.1372 -0.7019
 1723SOL    HW116805   3.537   2.400   9.176  0.5805  0.3844 -1.9986
 1723SOL    HW216806   3.453   2.507   9.216 -0.8922 -2.3429 -1.8974
 1724SOL     OW16807   0.285   1.356   7.793  0.3376 -0.4212  0.3437
 1724SOL    HW116808   0.249   1.370   7.706 -0.4947  2.0339  1.0630
 1724SOL    HW216809   0.213   1.338   7.854 -0.4130  3.3729  0.5981
 1725SOL     OW16810   2.318   0.318  10.065  0.8945 -0.2120  0.4033
 1725SOL    HW116811   2.413   0.322  10.055  0.7228  1.3414 -0.6758
 1725SOL    HW216812   2.296   0.405  10.031  2.4608  0.8949  2.2192
 1726SOL     OW16813   0.552   1.941   4.581 -0.2286  0.1693 -0.3209
 1726SOL    HW116814   0.610   1.971   4.651 -0.2215 -1.9113  0.5529
 1726SOL    HW216815   0.619   1.896   4.530  0.4249  1.7901 -0.9164
 1727SOL     OW16816   3.792   0.955  16.217  0.1803 -0.0218 -0.1095
 1727SOL    HW116817   3.808   1.043  16.182 -1.8004 -0.4793 -2.1293
 1727SOL    HW216818   3.869   0.950  16.274 -0.4843 -0.8475  0.7192
 1728SOL     OW16819   1.129   2.889  17.078  0.1039 -0.3824 -0.4031
 1728SOL    HW116820   1.146   2.967  17.026 -0.4520 -0.1581 -0.2492
 1728SOL    HW216821   1.054   2.928  17.123 -1.0684 -2.4706 -0.5781
 1729SOL     OW16822   0.593   4.170  14.684  0.3323  0.6362  0.4790
 1729SOL    HW116823   0.594   4.091  14.632  0.9170  1.0862 -0.1836
 1729SOL    HW216824   0.685   4.186  14.704 -0.4732  4.0347  1.4915
 1730SOL     OW16825   3.281   2.919  14.199  0.3282 -0.4252  0.0896
 1730SOL    HW116826   3.200   2.950  14.240  0.6719  0.4899  0.0873
 1730SOL    HW216827   3.333   2.992  14.233 -0.8290 -0.2490  1.4849
 1731SOL     OW16828   4.154   0.337  15.726  0.4650  0.2571 -0.0016
 1731SOL    HW116829   4.106   0.376  15.799 -2.1138  1.6951 -2.5041
 1731SOL    HW216830   4.230   0.294  15.765  0.8440  0.8317 -0.0974
 1732SOL     OW16831   1.967   0.642   8.212 -0.0303 -0.5709  0.4563
 1732SOL    HW116832   1.929   0.588   8.144  0.4727  0.4243 -0.6095
 1732SOL    HW216833   1.892   0.700   8.224 -1.0366 -1.8215  0.2121
 1733SOL     OW16834   1.377   3.093   7.574 -0.3652 -0.6315 -0.2634
 1733SOL    HW116835   1.318   3.124   7.505 -0.4255  0.7433  0.4130
 1733SOL    HW216836   1.400   3.007   7.538  2.3961  0.4365 -1.0062
 1734SOL     OW16837   4.655   3.101   8.050  0.7300  0.1385  0.1191
 1734SOL    HW116838   4.628   3.014   8.020 -1.4405  0.8778 -0.0717
 1734SOL    HW216839   0.013   3.100   8.048  0.7515  0.9816  0.9418
 1735SOL     OW16840   3.697   2.847   2.621  0.0025  0.3152 -0.1206
 1735SOL    HW116841   3.723   2.908   2.552  0.6583  1.8484  1.5095
 1735SOL    HW216842   3.779   2.799   2.629 -0.6457 -0.4249  2.1927
 1736SOL     OW16843   3.911   1.864  15.285  0.1567  0.4361 -0.1948
 1736SOL    HW116844   3.910   1.874  15.380  0.0722 -0.8237 -0.0570
 1736SOL    HW216845   3.894   1.952  15.251  0.3371 -0.9356 -3.8236
 1737SOL     OW16846   1.044   0.796   3.971 -0.2207 -0.0752  0.2989
 1737SOL    HW116847   0.984   0.751   4.030 -1.8171  0.0129 -1.2561
 1737SOL    HW216848   1.106   0.725   3.952 -1.8244 -1.3965  0.0753
 1738SOL     OW16849   4.496   1.331   5.666 -0.3712 -0.0191 -0.3714
 1738SOL    HW116850   4.570   1.306   5.722 -0.6661  1.9428  0.9066
 1738SOL    HW216851   4.425   1.299   5.722 -0.7240 -0.8650 -1.3008
 1739SOL     OW16852   2.144   2.650   8.264 -0.4603 -0.3493  0.4195
 1739SOL    HW116853   2.087   2.582   8.227 -0.4571 -0.1903  0.1193
 1739SOL    HW216854   2.146   2.709   8.189 -0.5026  0.2276  0.8767
 1740SOL     OW16855   3.398   3.128   1.838  0.4966  0.1267  0.1676
 1740SOL    HW116856   3.362   3.107   1.924  0.4299  1.0432  0.3611
 1740SOL    HW216857   3.465   3.060   1.825 -1.6976 -1.9097 -0.4669
 1741SOL     OW16858   1.342   1.464   5.176  0.0423 -0.0119 -0.2474
 1741SOL    HW116859   1.423   1.473   5.127 -0.0523 -0.3842 -0.4681
 1741SOL    HW216860   1.287   1.520   5.120  1.5644  0.1774 -1.5340
 1742SOL     OW16861   2.320   2.024   3.594 -0.2717  0.7841  0.0269
 1742SOL    HW116862   2.413   2.018   3.617  0.5976  0.2730 -3.7562
 1742SOL    HW216863   2.313   1.939   3.551  1.2766 -0.1614  1.6430
 1743SOL     OW16864   2.191   0.794   8.966 -0.5879  0.4314 -0.4465
 1743SOL    HW116865   2.102   0.826   8.973  0.2266  2.6409 -0.0630
 1743SOL    HW216866   2.197   0.739   9.044  2.3488 -0.5821 -1.3769
 1744SOL     OW16867   2.677   0.211   2.199  0.9458  0.3369  0.3262
 1744SOL    HW116868   2.602   0.242   2.149 -0.1011 -2.4049  0.2250
 1744SOL    HW216869   2.707   0.150   2.132 -0.2999  0.1210 -0.0160
 1745SOL     OW16870   1.569   3.639   3.245  0.4830 -0.2340 -0.5977
 1745SOL    HW116871   1.541   3.547   3.248 -1.1859  0.2517 -0.9620
 1745SOL    HW216872   1.628   3.644   3.171 -0.3358  2.3041 -1.0820
 1746SOL     OW16873   1.184   1.135   6.145  0.0191 -0.1572  0.7241
 1746SOL    HW116874   1.175   1.230   6.159  0.4110 -0.5229  3.4294
 1746SOL    HW216875   1.150   1.099   6.227 -0.4847  1.8712  1.4269
 1747SOL     OW16876   0.416   2.217   2.620 -0.9281 -0.4573  0.3323
 1747SOL    HW116877   0.453   2.181   2.701  0.7251 -0.5730 -0.4612
 1747SOL    HW216878   0.439   2.309   2.636  0.3254 -0.5190 -1.1677
 1748SOL     OW16879   3.152   3.938   9.139 -0.0264  0.1697 -0.2135
 1748SOL    HW116880   3.231   3.926   9.191 -0.7376 -3.5370 -0.0124
 1748SOL    HW216881   3.161   3.859   9.085  1.6126 -0.1568  0.5391
 1749SOL     OW16882   2.946   0.159   9.547  0.5645 -0.5855  0.1109
 1749SOL    HW116883   3.011   0.228   9.537 -1.0621  0.6456 -1.8269
 1749SOL    HW216884   2.866   0.208   9.528  0.0108 -0.7496  1.9797
 1750SOL     OW16885   4.507   2.031   6.704 -0.3368  0.0249  0.0566
 1750SOL    HW116886   4.552   1.947   6.718 -1.4103 -0.5812 -0.1388
 1750SOL    HW216887   4.430   2.022   6.759 -1.4067 -0.0779 -1.4768
 1751SOL     OW16888   1.263   0.840   5.079  0.3969 -0.3624  0.8987
 1751SOL    HW116889   1.270   0.854   4.985  0.3018  0.7441  1.0579
 1751SOL    HW216890   1.357   0.824   5.091  0.0308 -2.1124  1.4680
 1752SOL     OW16891   4.245   0.908   9.110 -0.0055  0.3075  0.0047
 1752SOL    HW116892   4.270   0.840   9.173  1.3564  1.3988  0.6358
 1752SOL    HW216893   4.160   0.939   9.142  0.5256  2.6565 -0.9169
 1753SOL     OW16894   1.289   0.068   0.482  0.4194 -0.7236 -0.1292
 1753SOL    HW116895   1.319   0.143   0.432  0.8971 -0.8789 -0.0785
 1753SOL    HW216896   1.331   4.735   0.434 -0.9841 -2.8993  1.8139
 1754SOL     OW16897   0.551   0.270  11.168  0.2642  0.2357 -0.3840
 1754SOL    HW116898   0.477   0.320  11.133 -0.1815 -0.6237 -0.6573
 1754SOL    HW216899   0.582   0.314  11.247 -0.1805  0.9749 -0.6194
 1755SOL     OW16900   3.466   0.017   7.167 -0.1936 -0.5472 -0.9173
 1755SOL    HW116901   3.487   0.016   7.260  2.8974  0.8703 -1.5849
 1755SOL    HW216902   3.454   0.111   7.156  1.0701 -0.5701 -2.4771
 1756SOL     OW16903   3.434   1.508   0.436 -0.5670  0.5757  0.0615
 1756SOL    HW116904   3.394   1.449   0.372 -1.7510  2.4931 -0.9778
 1756SOL    HW216905   3.426   1.591   0.390  1.3991  0.7181 -0.0042
 1757SOL     OW16906   2.794   0.098   5.905 -0.0491  0.3217  0.0705
 1757SOL    HW116907   2.705   0.131   5.892 -0.5968 -1.4009 -0.5425
 1757SOL    HW216908   2.774   0.044   5.983 -0.4524  0.4154  0.0331
 1758SOL     OW16909   2.673   4.261   7.016  0.1211 -0.3488 -0.3697
 1758SOL    HW116910   2.618   4.318   6.963  0.1053 -0.5407 -0.5617
 1758SOL    HW216911   2.655   4.307   7.098  2.4504  0.0107 -0.0658
 1759SOL     OW16912   0.777   3.128   4.495  0.7083  0.1486  0.0506
 1759SOL    HW116913   0.686   3.157   4.490  1.9373  3.7858 -0.5333
 1759SOL    HW216914   0.817   3.199   4.544  0.0418  0.9157 -0.5165
 1760SOL     OW16915   4.672   2.305  16.390  0.0588 -0.2334  0.0059
 1760SOL    HW116916   4.720   2.357  16.455  0.8495 -1.2716  0.2576
 1760SOL    HW216917   4.624   2.242  16.443  2.5560 -1.7048  0.5097
 1761SOL     OW16918   4.080   4.239  13.175  0.0837 -0.2346 -0.2879
 1761SOL    HW116919   4.001   4.188  13.156  0.1687 -0.1271 -0.9269
 1761SOL    HW216920   4.049   4.330  13.167 -1.7649 -0.7307  1.2594
 1762SOL     OW16921   2.806   0.469   7.953 -0.0474  0.0425  0.4266
 1762SOL    HW116922   2.811   0.530   7.879  1.4297 -0.1201  0.3918
 1762SOL    HW216923   2.865   0.519   8.009  1.5195  1.1596 -2.1728
 1763SOL     OW16924   1.300   3.124   2.264  0.3667  0.0056 -0.0635
 1763SOL    HW116925   1.308   3.037   2.225 -0.8769 -1.0681  2.0393
 1763SOL    HW216926   1.209   3.145   2.244  0.8029 -0.4919 -2.5166
 1764SOL     OW16927   1.978   0.601  17.336  0.0918 -0.4190 -0.3713
 1764SOL    HW116928   1.939   0.641  17.258 -0.8458 -1.3041 -0.3476
 1764SOL    HW216929   2.058   0.653  17.342 -0.1595 -0.0556 -0.1531
 1765SOL     OW16930   4.442   3.783   7.750  0.1123 -0.0113 -0.1460
 1765SOL    HW116931   4.525   3.766   7.707  0.6638  0.7823  0.6090
 1765SOL    HW216932   4.449   3.699   7.796  0.2474  2.5584  4.4827
 1766SOL     OW16933   1.327   2.242   5.205  0.0571 -0.2442 -0.1095
 1766SOL    HW116934   1.324   2.336   5.223 -1.4545 -0.3085  0.0063
 1766SOL    HW216935   1.295   2.210   5.289 -0.4322  0.1089 -0.1603
 1767SOL     OW16936   0.890   3.881   6.233 -0.0190  0.1322 -0.2668
 1767SOL    HW116937   0.936   3.845   6.157  1.4985 -1.6889  1.5136
 1767SOL    HW216938   0.964   3.920   6.279 -0.2653  1.4379 -0.9913
 1768SOL     OW16939   3.030   3.246   1.570 -0.1817 -0.4684 -0.0812
 1768SOL    HW116940   2.996   3.159   1.550  0.5508 -1.0585  1.2735
 1768SOL    HW216941   3.002   3.267   1.659 -0.1079 -0.5291 -0.0438
 1769SOL     OW16942   0.551   0.675   3.476  0.0621  0.5392 -0.1795
 1769SOL    HW116943   0.456   0.674   3.485  0.0472 -0.9404 -0.3767
 1769SOL    HW216944   0.580   0.585   3.493  0.2397  0.5219 -0.5737
 1770SOL     OW16945   4.186   0.007   8.041 -0.1423 -0.1603  0.0368
 1770SOL    HW116946   4.260   0.034   7.986 -0.0004  0.3120  0.4601
 1770SOL    HW216947   4.233   4.733   8.124 -1.0411  1.9546  0.8367
 1771SOL     OW16948   2.417   1.692   6.085 -0.3111 -0.3570  0.5027
 1771SOL    HW116949   2.335   1.678   6.133 -0.3341  1.3294  0.9353
 1771SOL    HW216950   2.448   1.603   6.103 -0.6509 -0.7074 -0.6670
 1772SOL     OW16951   1.184   1.540  16.173  0.1195  0.0766  0.1601
 1772SOL    HW116952   1.217   1.592  16.100  1.3830  1.0011  1.3815
 1772SOL    HW216953   1.208   1.597  16.246  3.5373  0.3986 -1.2486
 1773SOL     OW16954   4.142   0.393   7.753  0.0875  0.3156 -0.0376
 1773SOL    HW116955   4.163   0.400   7.659 -0.2926  0.6895 -0.0961
 1773SOL    HW216956   4.052   0.425   7.750  0.1934  0.5026 -1.6358
 1774SOL     OW16957   1.145   2.787   1.484 -0.3077  0.4543  0.1533
 1774SOL    HW116958   1.173   2.847   1.414  0.3135 -2.0508 -1.7542
 1774SOL    HW216959   1.230   2.775   1.526  0.7128  0.2146 -1.9301
 1775SOL     OW16960   3.802   2.314   8.133  0.0520  0.3419 -0.1699
 1775SOL    HW116961   3.830   2.402   8.108  1.2346 -0.0959 -0.3787
 1775SOL    HW216962   3.821   2.323   8.226  1.3061  0.2262 -0.4203
 1776SOL     OW16963   3.400   0.796  10.775 -0.2074  0.2251  0.3181
 1776SOL    HW116964   3.464   0.728  10.794  1.4174  1.4409 -0.7588
 1776SOL    HW216965   3.454   0.872  10.796  1.1722 -0.5357 -0.4718
 1777SOL     OW16966   2.663   1.080   5.348 -0.0520 -0.3968  0.1696
 1777SOL    HW116967   2.652   1.113   5.437 -0.6310  2.0165 -0.7785
 1777SOL    HW216968   2.584   1.028   5.336 -0.2906  0.4732 -2.0427
 1778SOL     OW16969   0.555   4.359   7.165 -0.7025  0.1137  0.0360
 1778SOL    HW116970   0.503   4.399   7.095 -1.0614  0.1890  0.3433
 1778SOL    HW216971   0.628   4.330   7.111 -1.3968 -1.3466 -0.0989
 1779SOL     OW16972   2.122   0.121   1.201  0.3125  1.0836  0.7311
 1779SOL    HW116973   2.053   0.108   1.136 -0.3622 -0.8522  1.8595
 1779SOL    HW216974   2.088   0.193   1.253 -0.8531 -0.8789  2.6819
 1780SOL     OW16975   1.607   1.496   9.764  0.0668 -0.1238 -0.6519
 1780SOL    HW116976   1.544   1.566   9.775  0.1981 -0.2444  0.8546
 1780SOL    HW216977   1.610   1.453   9.849  1.7277  1.8360  0.2712
 1781SOL     OW16978   4.473   0.812   6.552 -0.0483 -0.3591  0.2140
 1781SOL    HW116979   4.446   0.814   6.460  0.7241  1.7358  0.0185
 1781SOL    HW216980   4.435   0.896   6.578 -2.9649 -1.9666  1.1356
 1782SOL     OW16981   3.137   3.241   2.578  0.1072 -0.0465  0.4700
 1782SOL    HW116982   3.155   3.150   2.603  1.6817  0.2870  0.5690
 1782SOL    HW216983   3.214   3.258   2.525  0.9580 -0.9984  1.3966
 1783SOL     OW16984   1.073   3.709   5.936  0.5099  0.3144 -0.0916
 1783SOL    HW116985   1.054   3.627   5.892  2.6660 -0.5669  0.6377
 1783SOL    HW216986   1.020   3.766   5.880 -0.8477 -1.6191 -0.7793
 1784SOL     OW16987   4.028   3.269   8.164 -0.3756 -0.2945  0.1505
 1784SOL    HW116988   4.109   3.313   8.190 -0.0616 -0.1688 -1.0564
 1784SOL    HW216989   4.014   3.227   8.249  0.9296 -0.2881  0.3649
 1785SOL     OW16990   4.601   2.557   4.037 -0.0815 -0.1365  0.3160
 1785SOL    HW116991   4.599   2.638   3.987  0.3042 -0.0356  0.4625
 1785SOL    HW216992   4.599   2.487   3.972  0.6314 -1.0843  1.3116
 1786SOL     OW16993   3.438   1.242   9.749  0.4207  0.2649 -0.0876
 1786SOL    HW116994   3.469   1.259   9.660  0.3960  1.0642  0.0482
 1786SOL    HW216995   3.514   1.230   9.806  0.0983  0.0318  0.2951
 1787SOL     OW16996   3.027   3.797   9.355 -0.4389 -0.4065 -0.3722
 1787SOL    HW116997   3.088   3.868   9.338 -0.1859 -0.9601 -1.7313
 1787SOL    HW216998   3.006   3.786   9.262 -1.6630  1.6507 -0.3332
 1788SOL     OW16999   4.180   3.715   2.813  0.2393 -0.0565  0.3648
 1788SOL    HW117000   4.176   3.717   2.717  0.6635 -1.2980  0.3208
 1788SOL    HW217001   4.273   3.699   2.828  0.1256  0.9076  2.0534
 1789SOL     OW17002   4.733   2.713   4.966  0.0188 -0.2489 -0.0546
 1789SOL    HW117003   0.011   2.652   4.895 -0.5411  1.8870 -2.0176
 1789SOL    HW217004   4.645   2.750   4.956 -0.7976 -2.1477  0.0678
 1790SOL     OW17005   2.624   1.864   3.353  0.3916  0.2157  0.3459
 1790SOL    HW117006   2.587   1.888   3.438  1.6229  2.5629  0.2009
 1790SOL    HW217007   2.612   1.769   3.355  0.4289  0.2118  0.3934
 1791SOL     OW17008   2.040   4.289  10.715  0.1640 -0.1924 -0.7747
 1791SOL    HW117009   2.105   4.220  10.724  0.5383  0.4460  1.4380
 1791SOL    HW217010   2.096   4.365  10.699 -2.5411  2.0721  0.2922
 1792SOL     OW17011   0.763   4.714   9.527 -0.2706  0.0661  0.0851
 1792SOL    HW117012   0.697   4.646   9.542  0.3640 -0.2146  1.5867
 1792SOL    HW217013   0.800   4.689   9.442 -1.8956  2.1493 -1.2466
 1793SOL     OW17014   3.303   4.458   7.847 -0.0570 -0.6677 -0.3939
 1793SOL    HW117015   3.395   4.439   7.867 -0.3656  0.8474  2.4553
 1793SOL    HW217016   3.291   4.509   7.928  3.9244 -0.7169  0.2692
 1794SOL     OW17017   2.214   3.513   3.594  0.3065 -0.4141 -0.1161
 1794SOL    HW117018   2.220   3.607   3.576  1.7938 -1.0515 -3.0474
 1794SOL    HW217019   2.213   3.485   3.503  0.5662 -0.4252 -0.1153
 1795SOL     OW17020   2.628   1.726   6.781 -0.0480  0.0614 -0.0722
 1795SOL    HW117021   2.656   1.664   6.848  2.0359 -0.9709 -1.8760
 1795SOL    HW217022   2.654   1.675   6.704  1.6068  1.3341 -0.3688
 1796SOL     OW17023   0.705   3.519  12.869 -0.0197 -0.0935  0.0148
 1796SOL    HW117024   0.786   3.537  12.916  1.5276 -0.4020 -2.4989
 1796SOL    HW217025   0.678   3.432  12.899 -0.0376  0.4831  1.6700
 1797SOL     OW17026   0.642   3.128   5.157 -0.0744 -0.7729 -0.1548
 1797SOL    HW117027   0.665   3.069   5.229 -0.4884  0.3376  0.9040
 1797SOL    HW217028   0.651   3.068   5.083  1.1073 -1.1584  0.3021
 1798SOL     OW17029   2.051   3.720   3.411  0.0177 -0.1252 -0.2133
 1798SOL    HW117030   1.958   3.738   3.398  0.2473  0.9968 -0.3399
 1798SOL    HW217031   2.083   3.796   3.460 -0.0322  0.6999 -1.4659
 1799SOL     OW17032   3.608   0.889   0.530  0.1264 -0.1767  0.4216
 1799SOL    HW117033   3.690   0.929   0.503  0.6123 -0.0725  2.0946
 1799SOL    HW217034   3.618   0.797   0.503  3.0413 -0.5112  2.7016
 1800SOL     OW17035   0.270   1.232   5.624 -0.2116  0.0685  0.4431
 1800SOL    HW117036   0.278   1.307   5.683  0.4404 -0.5992  1.2116
 1800SOL    HW217037   0.216   1.173   5.677 -2.3416  0.5551 -1.1936
 1801SOL     OW17038   3.462   3.662   6.227 -0.1354  0.1521  0.8998
 1801SOL    HW117039   3.390   3.695   6.280 -2.3073  0.3972 -2.1836
 1801SOL    HW217040   3.410   3.617   6.161 -0.9859  1.1563  0.8848
 1802SOL     OW17041   0.840   1.816   3.852  0.2525  0.6602 -0.0890
 1802SOL    HW117042   0.935   1.826   3.846  0.5209 -1.9094  0.0051
 1802SOL    HW217043   0.832   1.734   3.900 -0.5721  1.0049  0.3615
 1803SOL     OW17044   1.148   0.129   6.543 -0.3377 -0.3496 -0.3567
 1803SOL    HW117045   1.191   0.214   6.533 -1.2400  0.1784  0.2115
 1803SOL    HW217046   1.193   0.086   6.471  2.2482 -1.6264  2.0112
 1804SOL     OW17047   0.599   4.353  13.023  0.7412  0.4507  0.5177
 1804SOL    HW117048   0.573   4.262  13.015 -2.1756  1.3468 -0.0270
 1804SOL    HW217049   0.569   4.385  12.938  0.0814 -1.1744  0.1427
 1805SOL     OW17050   2.215   1.618   7.643 -0.2184  0.2428  0.2330
 1805SOL    HW117051   2.304   1.603   7.610 -0.6028 -2.0398  0.2633
 1805SOL    HW217052   2.225   1.617   7.738 -1.3010  1.3918  0.3511
 1806SOL     OW17053   1.215   3.418   5.583  0.5591 -0.2058 -0.2227
 1806SOL    HW117054   1.257   3.492   5.626  1.8508 -1.0741  0.0073
 1806SOL    HW217055   1.200   3.358   5.656 -1.5029 -1.3589 -1.5880
 1807SOL     OW17056   2.138   1.512   4.980  0.5932  0.3317  0.4274
 1807SOL    HW117057   2.165   1.554   5.062  0.4454  1.0086  0.1217
 1807SOL    HW217058   2.145   1.417   4.996  2.0105  0.1173 -1.4519
 1808SOL     OW17059   0.013   3.727   8.005  0.2678 -0.1025 -0.1074
 1808SOL    HW117060   4.711   3.701   8.088 -0.0770  1.0944  0.1108
 1808SOL    HW217061   4.730   3.821   8.007 -1.4961 -0.5328  1.6548
 1809SOL     OW17062   0.764   1.423  12.998 -0.0237 -0.1538 -0.7944
 1809SOL    HW117063   0.795   1.508  12.967  1.7759 -0.2434  0.7506
 1809SOL    HW217064   0.785   1.377  12.916 -1.2666 -1.1122 -0.5682
 1810SOL     OW17065   1.278   0.510   1.911 -0.2031  0.0764  0.2399
 1810SOL    HW117066   1.322   0.594   1.928  0.0648  0.0086 -0.1311
 1810SOL    HW217067   1.191   0.528   1.947  0.3160  1.5336  0.7749
 1811SOL     OW17068   1.355   0.055   4.944  0.1144 -0.4375 -0.7055
 1811SOL    HW117069   1.390   0.129   4.993  2.2626 -0.6137 -1.9606
 1811SOL    HW217070   1.262   0.075   4.950 -0.4463 -2.4426 -2.5356
 1812SOL     OW17071   3.681   1.912   3.949  1.2742 -0.3044  0.8239
 1812SOL    HW117072   3.595   1.879   3.975  0.0907  1.5402 -0.7754
 1812SOL    HW217073   3.688   1.991   4.003  1.2610  0.2408  0.0294
 1813SOL     OW17074   2.701   4.068   0.472 -0.2246 -0.3436  0.1389
 1813SOL    HW117075   2.718   3.974   0.467 -1.0908 -0.5241  0.7366
 1813SOL    HW217076   2.607   4.080   0.484 -0.1868  0.9309 -0.8343
 1814SOL     OW17077   0.360   0.454   3.219 -0.0352  0.1823 -0.1497
 1814SOL    HW117078   0.290   0.413   3.169 -1.1579 -1.3177  2.6629
 1814SOL    HW217079   0.428   0.463   3.152 -1.9624 -2.5938 -2.4662
 1815SOL     OW17080   2.166   0.780   8.081  0.0635 -0.6219  0.0745
 1815SOL    HW117081   2.166   0.866   8.124 -1.3809  0.3066 -1.7526
 1815SOL    HW217082   2.108   0.727   8.135 -1.0115  1.5287  1.0368
 1816SOL     OW17083   1.034   1.407   6.637 -0.3438 -0.0878  0.5610
 1816SOL    HW117084   1.117   1.412   6.589 -0.0691  0.1018  1.0573
 1816SOL    HW217085   1.062   1.353   6.711  0.4271  0.6717  0.8271
 1817SOL     OW17086   2.192   2.173  13.039 -0.0832 -0.2138  0.4221
 1817SOL    HW117087   2.272   2.223  13.056  0.5328 -0.3153 -2.1686
 1817SOL    HW217088   2.187   2.201  12.947  1.0723  0.1921  0.4723
 1818SOL     OW17089   0.050   1.665   2.128 -0.1616 -0.7926  0.2810
 1818SOL    HW117090   0.120   1.600   2.130  0.0324 -0.5821  0.3031
 1818SOL    HW217091   0.063   1.715   2.048 -0.8961 -1.9565 -0.5554
 1819SOL     OW17092   2.621   3.152  14.344  0.3650  0.5880  0.1741
 1819SOL    HW117093   2.554   3.083  14.340 -0.5886  1.4100  2.0445
 1819SOL    HW217094   2.571   3.228  14.373  0.7297  1.1225 -0.6046
 1820SOL     OW17095   0.183   2.903   8.242 -0.2531 -0.1794 -0.3527
 1820SOL    HW117096   0.218   2.857   8.166 -2.1015 -1.2707 -0.5644
 1820SOL    HW217097   0.263   2.907   8.294  0.9804 -1.0399 -2.1626
 1821SOL     OW17098   4.501   2.034   7.556 -0.7061 -0.2481 -0.2016
 1821SOL    HW117099   4.447   2.100   7.512  0.0219 -0.4132 -1.3229
 1821SOL    HW217100   4.521   1.970   7.488 -0.1845 -0.7973  0.4686
 1822SOL     OW17101   4.438   2.183   9.089  0.3227  0.0110  0.2922
 1822SOL    HW117102   4.527   2.149   9.097 -0.4654 -2.1438 -0.0619
 1822SOL    HW217103   4.428   2.250   9.156 -0.0930 -1.5027  1.7504
 1823SOL     OW17104   1.202   2.014   5.794  0.0438 -0.6090 -0.7448
 1823SOL    HW117105   1.255   2.091   5.811 -2.4391  0.9216  0.0200
 1823SOL    HW217106   1.113   2.025   5.826  0.4725 -1.3118  0.6757
 1824SOL     OW17107   3.921   4.147   7.698  0.2520 -0.0211 -0.4628
 1824SOL    HW117108   3.938   4.237   7.725  0.5213 -0.7684  1.8506
 1824SOL    HW217109   3.887   4.114   7.781 -2.2320  2.2710 -0.5909
 1825SOL     OW17110   4.169   2.432   8.204 -0.1386  0.3382 -0.0992
 1825SOL    HW117111   4.231   2.360   8.201 -0.5615 -0.0217 -0.3577
 1825SOL    HW217112   4.087   2.391   8.232 -0.7311  2.0081  0.6206
 1826SOL     OW17113   3.205   4.733   2.783 -0.0138  0.2042 -0.1763
 1826SOL    HW117114   3.170   4.655   2.740 -0.5289  0.4922 -0.2837
 1826SOL    HW217115   3.300   4.724   2.773 -0.1797  0.3540 -1.8946
 1827SOL     OW17116   3.509   0.163   8.113  0.5258 -0.0008  0.1195
 1827SOL    HW117117   3.443   0.170   8.182  1.3622 -1.3736  1.0624
 1827SOL    HW217118   3.564   0.231   8.152  0.4937 -0.0101  0.1801
 1828SOL     OW17119   2.762   2.336   7.369  0.0327  0.1402 -0.6195
 1828SOL    HW117120   2.749   2.426   7.400 -2.8578 -0.9426  1.3981
 1828SOL    HW217121   2.723   2.344   7.282  3.0251 -2.5699 -2.1616
 1829SOL     OW17122   3.547   1.909  14.625  0.0295 -0.5869  0.4179
 1829SOL    HW117123   3.511   1.977  14.568  2.7467  1.2461  0.9056
 1829SOL    HW217124   3.637   1.930  14.602 -0.0358  0.5874  1.2041
 1830SOL     OW17125   4.231   1.776   7.785  0.6019 -0.0027 -0.2810
 1830SOL    HW117126   4.158   1.750   7.729  1.0974 -1.7599 -0.1130
 1830SOL    HW217127   4.185   1.801   7.865  0.8241 -1.8349  0.4190
 1831SOL     OW17128   4.513   4.531   5.315 -0.3120  0.3471 -0.0182
 1831SOL    HW117129   4.535   4.618   5.349 -0.3684  1.6801 -3.4640
 1831SOL    HW217130   4.585   4.475   5.344 -1.0099 -0.7435 -0.4200
 1832SOL     OW17131   0.551   1.391   1.250 -0.4410  1.2148  0.4307
 1832SOL    HW117132   0.586   1.388   1.340 -0.8138 -0.7567  0.5113
 1832SOL    HW217133   0.511   1.478   1.259  0.0655  1.6429 -1.5155
 1833SOL     OW17134   0.189   2.107   8.821  0.4576 -0.1148  0.2047
 1833SOL    HW117135   0.114   2.110   8.761  1.7447  1.0044 -1.3635
 1833SOL    HW217136   0.211   2.200   8.824  0.6557 -0.1581  0.0756
 1834SOL     OW17137   4.559   1.966   8.856 -0.3680  0.0324  0.0996
 1834SOL    HW117138   4.477   1.926   8.827  0.9145 -0.3479 -3.0090
 1834SOL    HW217139   4.550   1.947   8.949 -1.3671  1.2574  0.2483
 1835SOL     OW17140   4.443   3.905   7.044 -0.1046 -0.0468  0.1827
 1835SOL    HW117141   4.384   3.837   7.075 -1.7107  0.9232 -0.7128
 1835SOL    HW217142   4.528   3.865   7.024 -0.0913  0.0866 -0.0321
 1836SOL     OW17143   3.579   3.706   2.864  0.3235 -0.1958  0.2149
 1836SOL    HW117144   3.592   3.793   2.825 -4.2682  1.3662  2.0446
 1836SOL    HW217145   3.590   3.652   2.786  2.0943 -0.1401  0.4392
 1837SOL     OW17146   1.737   0.954  17.161  0.0605 -0.0885  0.7235
 1837SOL    HW117147   1.781   1.039  17.149 -2.9372  1.4533  0.6939
 1837SOL    HW217148   1.701   0.940  17.073  1.6373  1.2814 -0.1538
 1838SOL     OW17149   3.858   4.647   9.209  0.4078  0.4065 -0.1485
 1838SOL    HW117150   3.776   4.679   9.246 -0.5220 -2.5499  0.4273
 1838SOL    HW217151   3.930   4.691   9.254  1.0311  1.0459 -1.7933
 1839SOL     OW17152   2.630   1.445   1.258  0.0078 -0.3808  0.0309
 1839SOL    HW117153   2.721   1.460   1.282  0.4794  0.8954 -2.5671
 1839SOL    HW217154   2.637   1.351   1.244 -0.9804 -0.4061 -0.3159
 1840SOL     OW17155   3.048   3.645  17.035 -0.1996 -0.5682 -0.3021
 1840SOL    HW117156   2.987   3.710  17.069  0.4466  0.0613 -0.3484
 1840SOL    HW217157   3.003   3.631  16.952  1.2045 -1.0695 -0.9825
 1841SOL     OW17158   3.840   3.107   2.886 -0.2401  0.3241  0.1106
 1841SOL    HW117159   3.889   3.028   2.862 -0.5194 -0.3715  1.8413
 1841SOL    HW217160   3.763   3.071   2.929 -0.0467 -0.0350  0.1593
 1842SOL     OW17161   2.736   3.849  15.193  0.5157 -0.0360  0.0050
 1842SOL    HW117162   2.810   3.789  15.186  0.5756 -0.1106  1.3875
 1842SOL    HW217163   2.669   3.782  15.212  1.2752 -1.1189 -1.1023
 1843SOL     OW17164   2.841   3.530   5.005 -0.6079  1.0298  0.4267
 1843SOL    HW117165   2.757   3.508   5.045 -0.6141 -0.8483 -0.6457
 1843SOL    HW217166   2.818   3.576   4.925  2.2307  0.9284 -0.4407
 1844SOL     OW17167   1.954   2.757   9.082 -0.1468  0.2525  0.6348
 1844SOL    HW117168   1.922   2.796   9.163 -2.4836  1.1494 -0.7142
 1844SOL    HW217169   1.900   2.809   9.022  0.8679  3.0192  2.1010
 1845SOL     OW17170   1.065   3.630   1.123 -0.1354  0.0642  0.1542
 1845SOL    HW117171   1.028   3.705   1.076 -2.4201 -0.9412  0.3436
 1845SOL    HW217172   1.140   3.607   1.068 -1.5359  0.3846 -1.8716
 1846SOL     OW17173   0.289   3.705   8.892  0.2000 -0.3243  0.1388
 1846SOL    HW117174   0.238   3.727   8.813  2.3606 -1.3173 -1.5424
 1846SOL    HW217175   0.298   3.789   8.937  0.3701 -0.9137  1.1904
 1847SOL     OW17176   0.189   0.699   7.927 -0.4684  0.3548  0.1032
 1847SOL    HW117177   0.281   0.675   7.912 -0.1495  1.3260  0.5527
 1847SOL    HW217178   0.191   0.771   7.864  1.3738 -1.1714 -1.5956
 1848SOL     OW17179   1.461   3.340   1.450 -0.2072  0.3241 -0.0697
 1848SOL    HW117180   1.436   3.337   1.357 -0.2763  3.5896 -0.1511
 1848SOL    HW217181   1.383   3.370   1.495 -0.3697 -1.6292  0.9553
 1849SOL     OW17182   4.677   1.522   1.690 -0.2019  0.5506  0.3345
 1849SOL    HW117183   4.718   1.528   1.777  0.7030 -0.3754 -0.0261
 1849SOL    HW217184   4.588   1.494   1.711 -0.5102  0.4291 -1.1271
 1850SOL     OW17185   2.936   3.269  11.272 -0.5035 -0.5430  0.8312
 1850SOL    HW117186   3.001   3.336  11.296  0.4215 -2.4772  3.7134
 1850SOL    HW217187   2.989   3.192  11.251 -0.6880 -0.8767  1.5824
 1851SOL     OW17188   3.133   1.795  14.951 -0.3154  0.1475 -0.0820
 1851SOL    HW117189   3.120   1.719  14.895  0.7514 -0.1364  0.0549
 1851SOL    HW217190   3.150   1.863  14.886 -0.1694 -1.3134 -1.5590
 1852SOL     OW17191   4.234   0.867  16.305 -0.2714 -0.1416  0.2284
 1852SOL    HW117192   4.296   0.921  16.354  1.0223  0.3005 -1.8965
 1852SOL    HW217193   4.154   0.869  16.358  0.7702 -0.7908  1.8264
 1853SOL     OW17194   1.209   3.382  17.332 -0.4753  0.6248  0.2802
 1853SOL    HW117195   1.168   3.430  17.404 -0.7145  1.2397 -0.2507
 1853SOL    HW217196   1.217   3.453  17.267  0.3544 -0.3472 -0.6707
 1854SOL     OW17197   3.342   3.527   9.250 -0.0411  0.3581  0.3771
 1854SOL    HW117198   3.310   3.469   9.181 -0.9342  0.6000  0.5843
 1854SOL    HW217199   3.270   3.514   9.312  0.7699  0.9386  1.4408
 1855SOL     OW17200   4.025   2.633   8.747  0.7766 -0.2057 -0.2258
 1855SOL    HW117201   4.071   2.714   8.770 -1.8154  0.3890  2.7473
 1855SOL    HW217202   4.008   2.585   8.827 -1.7554  2.3499  0.7589
 1856SOL     OW17203   0.066   4.226   6.343  0.2777 -0.2186 -0.1995
 1856SOL    HW117204   0.003   4.159   6.318  0.9412 -0.3166 -1.6084
 1856SOL    HW217205   0.080   4.261   6.255  2.1908  4.3897  1.9418
 1857SOL     OW17206   0.235   2.776  13.307  0.5079 -0.2057  0.1690
 1857SOL    HW117207   0.234   2.693  13.260  1.6488  0.7707 -1.5895
 1857SOL    HW217208   0.277   2.829  13.238  0.7058  0.1585  0.5684
 1858SOL     OW17209   1.675   2.516   4.456 -0.3975 -0.1862  0.3143
 1858SOL    HW117210   1.734   2.466   4.512 -0.8603  1.1679  2.0215
 1858SOL    HW217211   1.705   2.606   4.470  0.7421 -0.5657  0.3503
 1859SOL     OW17212   3.739   4.712  11.080 -0.1446 -0.0583  0.1084
 1859SOL    HW117213   3.758   4.677  11.166 -1.7717 -2.0822 -0.3422
 1859SOL    HW217214   3.812   4.673  11.032 -2.1175 -0.7332 -2.3692
 1860SOL     OW17215   1.454   4.544   5.296 -0.2638 -0.2589 -0.8909
 1860SOL    HW117216   1.376   4.507   5.256 -0.0767 -0.7784 -0.7671
 1860SOL    HW217217   1.410   4.587   5.369 -0.5201  2.3679 -2.5995
 1861SOL     OW17218   2.999   1.009   5.652 -0.5281  0.5321  0.0829
 1861SOL    HW117219   2.983   1.094   5.611 -1.3930  0.3574  0.0519
 1861SOL    HW217220   3.069   0.974   5.597 -3.2178 -3.8507 -0.4812
 1862SOL     OW17221   2.175   1.772   5.908  0.1405  0.0417  0.2533
 1862SOL    HW117222   2.130   1.824   5.842 -0.9506  0.2075  1.1414
 1862SOL    HW217223   2.268   1.795   5.911 -0.3943  2.3826 -1.2478
 1863SOL     OW17224   1.763   3.811   3.357 -0.3528 -0.2442  0.4724
 1863SOL    HW117225   1.681   3.770   3.329  0.4305 -2.3157  1.2551
 1863SOL    HW217226   1.733   3.899   3.380 -0.4903 -0.3243  0.5936
 1864SOL     OW17227   4.422   3.033   6.807  0.8187 -0.7634  0.8123
 1864SOL    HW117228   4.420   3.094   6.881  0.3805 -0.3220  0.4322
 1864SOL    HW217229   4.340   2.983   6.812 -0.7250  1.4349 -2.7731
 1865SOL     OW17230   1.068   2.972  14.381  0.2256 -0.0249  0.4303
 1865SOL    HW117231   0.999   2.982  14.446  0.2694  1.3344  0.2485
 1865SOL    HW217232   1.023   2.900  14.337  1.9829 -1.5254  1.0669
 1866SOL     OW17233   2.120   2.417   0.941  0.3513  0.0634 -0.1628
 1866SOL    HW117234   2.186   2.469   0.987  0.1746  0.2705 -0.1384
 1866SOL    HW217235   2.084   2.368   1.015 -0.1101  0.9917  0.2437
 1867SOL     OW17236   1.506   0.593  15.744 -0.1003  0.2455  0.2958
 1867SOL    HW117237   1.445   0.624  15.811  2.5643  2.5738  1.6714
 1867SOL    HW217238   1.570   0.664  15.738  0.8354 -0.6566 -0.4328
 1868SOL     OW17239   2.670   2.532   8.298  0.0354 -0.1637  0.6635
 1868SOL    HW117240   2.666   2.442   8.330 -0.0930  0.3091  2.0008
 1868SOL    HW217241   2.763   2.538   8.280  0.1338 -2.9647  0.3338
 1869SOL     OW17242   4.057   3.271   4.953  0.2506  0.4280  0.0823
 1869SOL    HW117243   4.093   3.342   5.007  0.7396 -0.3281  0.7553
 1869SOL    HW217244   4.127   3.239   4.896 -1.3392 -0.3408 -1.4300
 1870SOL     OW17245   0.020   1.098   4.326 -0.4281 -0.0210  0.4713
 1870SOL    HW117246   4.729   1.113   4.416  2.9025  0.6463  1.4402
 1870SOL    HW217247   0.083   1.027   4.340 -0.6094 -0.4420 -0.8164
 1871SOL     OW17248   0.411   3.932   7.246 -0.2380 -0.1622 -0.3594
 1871SOL    HW117249   0.491   3.897   7.208  0.6898 -1.0629  2.4711
 1871SOL    HW217250   0.451   3.995   7.306 -0.7142 -1.3217  1.1760
 1872SOL     OW17251   1.496   0.216   9.212  0.5179 -0.2711 -0.0827
 1872SOL    HW117252   1.580   0.168   9.213 -0.1315 -1.4179 -0.2578
 1872SOL    HW217253   1.444   0.169   9.147  1.8139 -0.8970 -0.6697
 1873SOL     OW17254   2.227   3.097   3.424 -0.1429  0.0651 -0.2150
 1873SOL    HW117255   2.218   3.147   3.505  0.4783 -0.1577 -0.0127
 1873SOL    HW217256   2.245   3.169   3.363 -0.4824  0.3399  0.0074
 1874SOL     OW17257   3.838   0.568   1.976 -0.0684  0.7011  0.2228
 1874SOL    HW117258   3.829   0.473   1.969 -1.0117  0.5940  2.7643
 1874SOL    HW217259   3.900   0.572   2.048  0.6212  1.9910 -0.4435
 1875SOL     OW17260   1.769   2.445  15.361 -0.1085  0.3393  0.0342
 1875SOL    HW117261   1.785   2.512  15.428  0.7937  2.3495 -2.2269
 1875SOL    HW217262   1.676   2.460  15.347  0.1400 -0.6809 -2.6509
 1876SOL     OW17263   3.478   2.717   5.950 -0.2460 -0.2307 -0.3221
 1876SOL    HW117264   3.412   2.648   5.954 -1.8852  1.1223 -3.9578
 1876SOL    HW217265   3.534   2.676   5.883 -0.3825  0.3097 -0.7660
 1877SOL     OW17266   1.875   4.390  12.354 -0.2200 -0.6060 -0.2722
 1877SOL    HW117267   1.901   4.482  12.349  0.6501 -0.7952  0.6650
 1877SOL    HW217268   1.842   4.388  12.265  0.6404 -0.3048 -0.5939
 1878SOL     OW17269   4.375   3.543   4.236 -0.5090  0.2447  0.3898
 1878SOL    HW117270   4.288   3.546   4.196 -1.7250  0.8706  3.0671
 1878SOL    HW217271   4.358   3.586   4.321  1.6112  0.8578  0.4940
 1879SOL     OW17272   0.083   1.328  13.259  0.1715  0.3213  0.0385
 1879SOL    HW117273   0.052   1.272  13.188  1.6243 -1.9113  1.1535
 1879SOL    HW217274   0.154   1.379  13.220 -0.2087  0.5370 -0.3674
 1880SOL     OW17275   0.750   3.912   3.019 -0.6324  0.0177 -0.1468
 1880SOL    HW117276   0.773   3.838   3.075  1.7898 -0.2046 -1.4347
 1880SOL    HW217277   0.808   3.903   2.943  1.8791  1.8539  1.5341
 1881SOL     OW17278   3.301   3.955   1.789  0.3463  0.1491 -0.0552
 1881SOL    HW117279   3.366   3.989   1.727  2.1572 -0.8460  1.3101
 1881SOL    HW217280   3.348   3.926   1.868 -0.1630  2.0385  0.9341
 1882SOL     OW17281   1.622   0.256  12.260  0.3457 -0.1220  0.2135
 1882SOL    HW117282   1.674   0.306  12.197 -1.1170  0.9607 -0.1306
 1882SOL    HW217283   1.664   0.171  12.245 -1.1016 -1.0159  1.2469
 1883SOL     OW17284   3.898   2.027   8.212  0.0889  0.4957  0.4100
 1883SOL    HW117285   3.907   2.122   8.197  0.1570  0.3304 -0.6088
 1883SOL    HW217286   3.833   2.026   8.281  0.3962  1.3532  0.7129
 1884SOL     OW17287   2.274   4.432  16.357 -0.3008  0.6291  0.5480
 1884SOL    HW117288   2.212   4.373  16.313  0.9360 -1.6283  1.8735
 1884SOL    HW217289   2.222   4.502  16.396  1.4139  1.6737  0.9560
 1885SOL     OW17290   1.016   3.443   5.833 -0.0716  0.2080 -0.9378
 1885SOL    HW117291   1.051   3.355   5.829 -2.4094 -0.6417 -2.3964
 1885SOL    HW217292   0.962   3.458   5.755  1.7419 -0.8467 -2.3662
 1886SOL     OW17293   0.706   2.612  14.507  0.0876 -0.1473  0.0353
 1886SOL    HW117294   0.702   2.666  14.427 -1.3725  0.1560  0.3166
 1886SOL    HW217295   0.802   2.613  14.513  0.0690  1.7302  0.0723
 1887SOL     OW17296   3.790   0.688   7.550 -0.5671  0.2501  0.2441
 1887SOL    HW117297   3.793   0.775   7.590  2.2548  0.8938 -1.4182
 1887SOL    HW217298   3.841   0.707   7.472  1.6839 -0.5905  1.4993
 1888SOL     OW17299   2.447   3.169   7.853 -0.4720 -0.3045  0.2843
 1888SOL    HW117300   2.408   3.150   7.938 -1.4986 -1.7558 -0.4930
 1888SOL    HW217301   2.366   3.155   7.804 -0.6006  2.1074 -0.1821
 1889SOL     OW17302   4.338   2.773   3.061  0.7010 -0.1254 -0.1398
 1889SOL    HW117303   4.266   2.710   3.069 -1.6363  2.7491  1.5592
 1889SOL    HW217304   4.366   2.783   3.152  2.0666 -2.0274 -0.3445
 1890SOL     OW17305   0.681   4.140   4.019 -0.0096 -0.1842 -0.3145
 1890SOL    HW117306   0.623   4.170   3.949 -0.8511 -0.8115  0.1096
 1890SOL    HW217307   0.682   4.046   4.004 -3.3415 -0.2825  0.0276
 1891SOL     OW17308   3.324   3.908   0.031 -0.2111  0.0077  0.1386
 1891SOL    HW117309   3.351   3.897  17.688 -1.3384  0.8546 -0.2883
 1891SOL    HW217310   3.233   3.935   0.024 -0.6932 -1.6383  0.0324
 1892SOL     OW17311   4.689   2.717   9.805 -0.5688  0.3799  0.2524
 1892SOL    HW117312   4.616   2.686   9.859 -3.5019  1.5148 -3.1228
 1892SOL    HW217313   4.700   2.803   9.845 -0.6828 -0.3041  1.7720
 1893SOL     OW17314   4.332   3.970   6.798  0.5730 -0.1462 -0.2246
 1893SOL    HW117315   4.357   3.933   6.882 -2.9926  1.8862  1.7425
 1893SOL    HW217316   4.248   4.004   6.830 -0.1046  0.9133 -3.0915
 1894SOL     OW17317   1.660   3.863   7.206 -0.4594 -0.2325  0.3255
 1894SOL    HW117318   1.755   3.852   7.210 -0.4222  0.5435  1.7880
 1894SOL    HW217319   1.650   3.894   7.297  1.2642  2.0423 -0.2482
 1895SOL     OW17320   1.853   1.167   8.352  0.4649 -0.4666  0.3764
 1895SOL    HW117321   1.831   1.260   8.351 -2.3274 -1.1529 -0.3824
 1895SOL    HW217322   1.773   1.120   8.332 -0.8278  2.1153 -0.5461
 1896SOL     OW17323   4.375   3.085   5.895 -0.0260  0.6434  0.3407
 1896SOL    HW117324   4.328   3.020   5.947 -1.0204  0.7599 -0.4200
 1896SOL    HW217325   4.464   3.060   5.922 -0.1814  1.8608  1.9867
 1897SOL     OW17326   0.186   2.906   4.917  0.2865  0.3458  0.1954
 1897SOL    HW117327   0.223   2.833   4.867  1.1753  0.2829  0.9540
 1897SOL    HW217328   0.124   2.851   4.966 -0.3904  0.6470 -0.3286
 1898SOL     OW17329   2.117   3.473   8.682  0.0510  0.7961  0.5371
 1898SOL    HW117330   2.127   3.414   8.757 -0.2269 -1.1944 -0.9748
 1898SOL    HW217331   2.104   3.549   8.738 -0.9165 -0.1733  1.6219
 1899SOL     OW17332   3.699   3.670   8.938 -0.2321  0.2872  0.3475
 1899SOL    HW117333   3.689   3.625   8.854  0.3368  1.3023 -0.2622
 1899SOL    HW217334   3.785   3.708   8.917 -1.0564  1.6853 -0.4548
 1900SOL     OW17335   0.779   1.575   5.670 -0.3216  0.3998 -0.0459
 1900SOL    HW117336   0.844   1.562   5.739  0.8339  0.1323 -1.1744
 1900SOL    HW217337   0.754   1.667   5.671 -0.4740  0.2962  3.5460
 1901SOL     OW17338   3.865   3.130  10.741 -0.9113  0.3214 -0.2053
 1901SOL    HW117339   3.827   3.110  10.827 -0.2569 -1.1669 -0.2529
 1901SOL    HW217340   3.916   3.051  10.721  1.4045  1.6463  0.4376
 1902SOL     OW17341   4.159   4.162   8.548 -0.1342 -0.6001  0.1390
 1902SOL    HW117342   4.110   4.242   8.527  0.9817 -0.0103 -0.2133
 1902SOL    HW217343   4.251   4.185   8.540 -0.6151  1.0815 -0.7429
 1903SOL     OW17344   4.145   2.742  16.630 -0.7932 -0.3321 -0.1943
 1903SOL    HW117345   4.239   2.729  16.639 -0.6288  1.2021  0.4174
 1903SOL    HW217346   4.145   2.806  16.559  2.5276  0.3424  0.4251
 1904SOL     OW17347   2.345   2.508   5.218  0.1867 -0.7372  0.3479
 1904SOL    HW117348   2.327   2.507   5.312  0.3212 -1.7811  0.3598
 1904SOL    HW217349   2.257   2.489   5.186  0.3624 -0.7422 -0.1433
 1905SOL     OW17350   2.901   3.792   0.801  0.1100 -0.2180  0.0966
 1905SOL    HW117351   2.874   3.824   0.715  0.5065  1.0824  0.4588
 1905SOL    HW217352   2.827   3.731   0.805 -0.6287  0.8011  2.0082
 1906SOL     OW17353   4.730   0.786   3.915  0.0554 -0.2810 -0.1434
 1906SOL    HW117354   4.667   0.833   3.861 -0.9830 -1.6767 -0.1487
 1906SOL    HW217355   4.725   0.700   3.872  1.0750 -0.5718  0.3121
 1907SOL     OW17356   2.915   4.532   5.322 -0.2478  0.2706  0.0554
 1907SOL    HW117357   2.957   4.536   5.236  0.5755 -1.5539  0.3701
 1907SOL    HW217358   2.948   4.616   5.355  0.7771 -0.0991 -0.0096
 1908SOL     OW17359   1.190   4.694   2.874  0.3505  0.1306 -0.2264
 1908SOL    HW117360   1.215   0.046   2.849 -0.2986  0.5405  0.6150
 1908SOL    HW217361   1.253   4.643   2.823  1.5339  2.2424 -0.8515
 1909SOL     OW17362   4.309   1.306   7.373  0.0581 -0.6427 -0.3171
 1909SOL    HW117363   4.307   1.256   7.454 -1.8779 -1.4088 -0.8175
 1909SOL    HW217364   4.390   1.355   7.386 -0.2658  0.0803 -0.9938
 1910SOL     OW17365   3.280   3.863   7.291  0.3383 -0.2981  0.5337
 1910SOL    HW117366   3.372   3.839   7.306  0.8872  0.2055 -2.0610
 1910SOL    HW217367   3.294   3.951   7.323 -2.3332  0.6290 -0.8375
 1911SOL     OW17368   0.417   3.565   7.557  0.0151  0.5421  0.7006
 1911SOL    HW117369   0.426   3.589   7.649 -1.3412  0.9176  0.7412
 1911SOL    HW217370   0.371   3.644   7.526 -0.9822  0.1406  1.1427
 1912SOL     OW17371   2.029   0.570   2.444 -0.7044  0.1510  0.3261
 1912SOL    HW117372   2.074   0.625   2.380 -2.5785  0.6464 -0.5832
 1912SOL    HW217373   1.959   0.633   2.466 -1.8580 -0.6660 -1.0262
 1913SOL     OW17374   0.998   0.831  16.245 -0.0236  0.3715  0.1449
 1913SOL    HW117375   1.034   0.920  16.247  0.8179  0.0436 -0.4884
 1913SOL    HW217376   1.062   0.796  16.182  0.1852  1.3658 -0.2002
 1914SOL     OW17377   4.216   2.404   0.141  0.5896  0.3569  0.5160
 1914SOL    HW117378   4.245   2.348   0.213 -2.5745  0.8604  2.1682
 1914SOL    HW217379   4.218   2.344   0.066  0.7902  0.6862  0.2607
 1915SOL     OW17380   1.379   4.164   0.286 -0.4107 -0.6537  0.0930
 1915SOL    HW117381   1.457   4.194   0.240 -1.3397  3.3880  1.1286
 1915SOL    HW217382   1.407   4.165   0.377  0.4236  1.8573 -0.1936
 1916SOL     OW17383   2.352   0.349   8.382 -0.6303 -0.4964  0.3341
 1916SOL    HW117384   2.373   0.414   8.449  1.6552 -1.7899  0.8789
 1916SOL    HW217385   2.271   0.382   8.343 -1.0499 -0.7831  0.9495
 1917SOL     OW17386   3.005   0.415   8.810 -0.3082 -0.4957  0.3829
 1917SOL    HW117387   2.930   0.359   8.831 -1.1588  0.5862  0.2650
 1917SOL    HW217388   3.033   0.445   8.896 -0.6087  2.6403 -0.6290
 1918SOL     OW17389   0.597   2.654   9.785 -0.5813 -0.1474  0.0736
 1918SOL    HW117390   0.568   2.730   9.835  0.8297 -0.5363  1.4917
 1918SOL    HW217391   0.612   2.598   9.861  0.7464 -2.2313 -1.6959
 1919SOL     OW17392   2.022   3.091  11.943 -0.0701 -0.6392  0.2267
 1919SOL    HW117393   2.057   3.003  11.959  2.2094 -0.0097 -1.2268
 1919SOL    HW217394   2.095   3.132  11.989  2.5696 -1.6328 -2.9991
 1920SOL     OW17395   2.587   3.988  10.897 -0.1067  0.0343  0.6670
 1920SOL    HW117396   2.549   3.964  10.982 -3.4009 -0.8567 -1.0199
 1920SOL    HW217397   2.581   4.083  10.892  2.4073  0.1917  0.6472
 1921SOL     OW17398   1.649   4.285   7.398 -0.1856  0.7742 -0.2909
 1921SOL    HW117399   1.603   4.318   7.475  2.2148  1.5306  0.8526
 1921SOL    HW217400   1.738   4.296   7.434 -1.2367 -1.0782  2.8533
 1922SOL     OW17401   3.116   2.500   4.796  0.0013  0.2003  0.0872
 1922SOL    HW117402   3.047   2.513   4.861  0.5624  0.7794  0.5656
 1922SOL    HW217403   3.073   2.510   4.711 -0.6308 -0.8482  0.2786
 1923SOL     OW17404   0.532   0.996   5.084  0.6098 -0.0141 -0.0519
 1923SOL    HW117405   0.553   1.031   4.997  2.1938 -1.3735 -0.2326
 1923SOL    HW217406   0.472   0.928   5.055 -1.3021  1.3847  0.6436
 1924SOL     OW17407   2.325   0.917   9.429  0.2675  0.1291 -0.3648
 1924SOL    HW117408   2.296   0.977   9.498 -0.0922 -2.3090  1.5931
 1924SOL    HW217409   2.410   0.951   9.402  0.0109  0.7167 -0.4403
 1925SOL     OW17410   2.712   3.315   4.410 -0.1257 -0.4489  0.2485
 1925SOL    HW117411   2.720   3.385   4.476 -1.5987 -0.3179  0.2813
 1925SOL    HW217412   2.720   3.366   4.329  2.2003 -0.2552  0.5775
 1926SOL     OW17413   4.305   3.990  17.257  0.1501 -0.1624  0.6200
 1926SOL    HW117414   4.237   3.968  17.320  1.2521 -1.8670  1.2084
 1926SOL    HW217415   4.334   3.907  17.221  0.6603 -0.0379  0.7403
 1927SOL     OW17416   0.031   4.533   6.627 -0.3226  0.0989 -0.4805
 1927SOL    HW117417   4.735   4.529   6.717  1.2764 -0.0107  0.1038
 1927SOL    HW217418   0.095   4.603   6.637 -1.7353  1.3160  0.1417
 1928SOL     OW17419   4.412   4.404   9.552  0.1949 -0.4473 -0.0874
 1928SOL    HW117420   4.412   4.350   9.472 -0.7518  0.4005 -0.6576
 1928SOL    HW217421   4.356   4.477   9.526 -0.4971 -1.0221 -0.2551
 1929SOL     OW17422   0.892   2.980   5.760  0.3056 -0.5814 -0.2124
 1929SOL    HW117423   0.852   2.987   5.846 -1.5752 -1.3815 -1.0181
 1929SOL    HW217424   0.852   3.051   5.711  2.5345 -1.0650 -2.7632
 1930SOL     OW17425   3.130   4.105   1.266  0.1080  0.3716  0.0092
 1930SOL    HW117426   3.099   4.026   1.311  0.8859 -0.4115 -0.8118
 1930SOL    HW217427   3.048   4.154   1.262  0.4016  0.9416  1.2506
 1931SOL     OW17428   0.408   1.512   9.214  0.1615 -0.3948 -0.5790
 1931SOL    HW117429   0.452   1.449   9.271 -2.3697 -0.0790  1.7193
 1931SOL    HW217430   0.350   1.457   9.163  1.5953 -3.6554  1.3284
 1932SOL     OW17431   4.129   3.585   5.316 -0.5562  0.4546 -0.1613
 1932SOL    HW117432   4.117   3.652   5.383  0.6760  0.5274 -0.0209
 1932SOL    HW217433   4.206   3.624   5.274  0.6850 -1.1506  0.6344
 1933SOL     OW17434   0.102   3.975   8.425 -0.3189  0.3891 -0.0180
 1933SOL    HW117435   0.128   4.013   8.509 -1.0867 -1.7472  1.1644
 1933SOL    HW217436   0.101   4.059   8.379  0.3167  0.6210  0.3771
 1934SOL     OW17437   0.407   0.835   9.500  0.6491 -0.1431 -0.5530
 1934SOL    HW117438   0.492   0.865   9.532  0.7940  0.5179 -1.5671
 1934SOL    HW217439   0.382   0.896   9.431  1.4713  0.6360 -0.1607
 1935SOL     OW17440   4.613   4.169   6.797 -0.8006 -0.5119 -0.1479
 1935SOL    HW117441   4.625   4.075   6.791 -1.0684 -0.4521 -1.4345
 1935SOL    HW217442   4.572   4.162   6.883  0.2187  0.8766  0.4666
 1936SOL     OW17443   2.759   2.079   6.926 -0.7319 -0.0823 -0.0126
 1936SOL    HW117444   2.809   2.148   6.970 -0.4692 -0.8344  0.8539
 1936SOL    HW217445   2.711   2.123   6.855  0.2374 -0.5093 -0.9357
 1937SOL     OW17446   1.500   4.333   7.633  0.1823 -0.0630  0.4448
 1937SOL    HW117447   1.443   4.409   7.620  1.4770  1.1443  1.7890
 1937SOL    HW217448   1.510   4.346   7.727  1.9797 -0.8710  0.3444
 1938SOL     OW17449   2.195   1.393  16.423  0.7497  0.3420  0.3197
 1938SOL    HW117450   2.162   1.480  16.400 -0.1322  0.1549  0.8873
 1938SOL    HW217451   2.194   1.387  16.519  1.9988 -0.9038  0.2522
 1939SOL     OW17452   2.701   1.431   3.544 -0.0375  0.0047  0.0274
 1939SOL    HW117453   2.746   1.419   3.628  0.5606  0.7691 -0.1782
 1939SOL    HW217454   2.753   1.376   3.485  0.6973  1.3180 -0.5521
 1940SOL     OW17455   0.183   2.819   3.096  0.1810  0.3023  0.2410
 1940SOL    HW117456   0.133   2.887   3.142  1.1811  1.7841 -0.8696
 1940SOL    HW217457   0.272   2.849   3.079 -0.5084  2.2883  0.1275
 1941SOL     OW17458   2.277   2.265  12.511  0.3041 -0.2819  0.5409
 1941SOL    HW117459   2.198   2.256  12.564  0.4146  1.4083  0.9756
 1941SOL    HW217460   2.247   2.306  12.430 -0.0268 -0.3487  0.6316
 1942SOL     OW17461   3.676   0.884  13.622  0.6828 -0.0896 -0.3902
 1942SOL    HW117462   3.631   0.848  13.546 -0.8706 -0.6284  0.7668
 1942SOL    HW217463   3.642   0.825  13.690 -1.4673 -0.9461 -2.2294
 1943SOL     OW17464   2.152   0.201   3.752 -0.0983 -0.0274  0.2943
 1943SOL    HW117465   2.058   0.197   3.769 -0.3822 -0.4830 -1.3186
 1943SOL    HW217466   2.164   0.223   3.660 -1.2345  3.2325  0.9254
 1944SOL     OW17467   4.123   3.780   5.037  0.0696 -0.3505  0.4744
 1944SOL    HW117468   4.191   3.746   5.096  0.6491 -2.6092 -1.5016
 1944SOL    HW217469   4.142   3.731   4.957 -2.1141 -0.9792  0.3329
 1945SOL     OW17470   2.079   3.417  10.863 -0.4648  0.2082 -0.3196
 1945SOL    HW117471   2.124   3.354  10.918 -0.1055  0.2157 -0.5992
 1945SOL    HW217472   2.159   3.462  10.833  1.0719 -2.0620  0.3758
 1946SOL     OW17473   0.869   2.593   3.415 -0.1495 -0.1824  0.0825
 1946SOL    HW117474   0.893   2.685   3.407  2.4297 -0.8357  0.3718
 1946SOL    HW217475   0.786   2.600   3.367 -0.6522 -2.0054  0.6645
 1947SOL     OW17476   3.119   0.480   2.379 -0.1968  0.2337  0.1256
 1947SOL    HW117477   3.044   0.430   2.346  0.8134  0.2763 -2.2740
 1947SOL    HW217478   3.179   0.405   2.386 -0.4076  0.3214  2.7074
 1948SOL     OW17479   4.181   3.880   8.399  0.2382  0.1952 -0.7094
 1948SOL    HW117480   4.144   3.953   8.350 -0.7160  0.2409  0.0835
 1948SOL    HW217481   4.216   3.922   8.477  0.6906  0.7441 -1.2116
 1949SOL     OW17482   2.482   1.596   8.394  0.2231  0.3588 -0.4988
 1949SOL    HW117483   2.527   1.672   8.356 -0.8136  0.8340 -0.7569
 1949SOL    HW217484   2.538   1.572   8.468  0.5702 -0.8629 -1.1555
 1950SOL     OW17485   4.392   3.041   3.627 -0.2199  0.4807  0.0932
 1950SOL    HW117486   4.305   3.048   3.589 -1.0609 -1.9238  1.6436
 1950SOL    HW217487   4.367   2.991   3.704 -0.2732  3.4801  2.0421
 1951SOL     OW17488   4.310   1.688   4.400 -0.1377 -0.2718 -0.4575
 1951SOL    HW117489   4.246   1.701   4.470 -1.6016 -1.2511 -1.5986
 1951SOL    HW217490   4.254   1.697   4.322 -0.7644 -1.4153 -0.1238
 1952SOL     OW17491   3.556   4.521   9.455  0.2407 -0.1488  0.0062
 1952SOL    HW117492   3.597   4.607   9.445 -0.1802  0.0830  0.2468
 1952SOL    HW217493   3.468   4.558   9.461  1.1792  1.4813  3.6648
 1953SOL     OW17494   1.205   3.865  17.083 -0.1413 -0.6253 -0.2626
 1953SOL    HW117495   1.182   3.899  16.997 -0.8048  2.4353  1.0984
 1953SOL    HW217496   1.300   3.871  17.072 -0.4958  1.0016 -2.3427
 1954SOL     OW17497   0.368   3.558   2.017 -0.3315  0.7448 -0.5865
 1954SOL    HW117498   0.368   3.535   2.110  1.8612  1.0871 -0.4922
 1954SOL    HW217499   0.286   3.607   2.011 -2.1520 -2.3750 -1.2008
 1955SOL     OW17500   3.409   4.087   7.651  0.2778  0.5598 -0.1745
 1955SOL    HW117501   3.397   4.100   7.557 -0.1341  1.2936 -0.0185
 1955SOL    HW217502   3.472   4.014   7.653 -0.9597 -0.5730 -2.6852
 1956SOL     OW17503   1.698   1.176   7.807 -0.6091  0.0787  0.5698
 1956SOL    HW117504   1.637   1.102   7.806 -0.1031 -0.3087 -0.5301
 1956SOL    HW217505   1.654   1.244   7.756  1.3268 -0.2479 -1.4990
 1957SOL     OW17506   4.438   1.367  11.002  0.4898  0.1581  0.6536
 1957SOL    HW117507   4.350   1.346  11.034 -1.2059  2.4241 -2.5374
 1957SOL    HW217508   4.474   1.409  11.080  0.9554 -0.6263  0.8655
 1958SOL     OW17509   0.088   2.758   7.280 -0.4986 -0.2029  0.0341
 1958SOL    HW117510   0.149   2.709   7.225  0.9093  0.7563  0.7526
 1958SOL    HW217511   0.089   2.835   7.222 -0.2094  0.0469  0.3719
 1959SOL     OW17512   3.317   2.187   3.460 -0.4548 -0.4456  0.2142
 1959SOL    HW117513   3.350   2.180   3.371 -0.3134  2.4824  0.0628
 1959SOL    HW217514   3.392   2.218   3.510  1.0677  0.9342 -2.9509
 1960SOL     OW17515   2.936   3.008  12.232 -0.6031 -0.3023  0.2450
 1960SOL    HW117516   2.852   2.963  12.244 -1.3167 -0.2774 -4.5847
 1960SOL    HW217517   2.925   3.047  12.145  1.9100  0.0436  0.0800
 1961SOL     OW17518   0.020   1.661   1.103 -0.7738 -0.2535 -0.5460
 1961SOL    HW117519   0.073   1.604   1.159  0.8900 -0.4828 -2.3817
 1961SOL    HW217520   4.668   1.629   1.115 -0.2316 -0.9592  1.6939
 1962SOL     OW17521   0.799   4.042   1.801 -0.0260  0.2467  0.5731
 1962SOL    HW117522   0.890   4.056   1.828  1.1966  0.9450 -3.9054
 1962SOL    HW217523   0.745   4.048   1.880 -0.4881  0.7902  0.2216
 1963SOL     OW17524   2.864   4.427  14.899 -0.0220 -0.7812 -0.1027
 1963SOL    HW117525   2.782   4.387  14.870 -0.5060  0.7640 -0.8641
 1963SOL    HW217526   2.916   4.362  14.947  0.0398 -1.0468 -0.5314
 1964SOL     OW17527   1.692   2.555   6.727  0.0408 -0.2457  0.2032
 1964SOL    HW117528   1.728   2.569   6.815  0.6305  1.7247 -0.3603
 1964SOL    HW217529   1.715   2.465   6.705 -0.4814 -0.6493  1.2625
 1965SOL     OW17530   2.507   2.159  17.630 -0.0460 -0.3336 -0.0572
 1965SOL    HW117531   2.470   2.245  17.611  0.5168 -0.2400 -0.7349
 1965SOL    HW217532   2.558   2.185  17.707 -2.7180  1.3654  1.1511
 1966SOL     OW17533   3.881   3.784   2.136  0.1246  0.0849 -0.1846
 1966SOL    HW117534   3.916   3.722   2.071 -1.7574  0.5332 -1.6215
 1966SOL    HW217535   3.906   3.870   2.101  2.0853 -1.6031 -2.9566
 1967SOL     OW17536   0.685   2.789  16.758 -0.2483 -0.4698 -0.0116
 1967SOL    HW117537   0.762   2.796  16.702 -1.1799  2.0451 -0.9978
 1967SOL    HW217538   0.630   2.727  16.711  0.8106 -0.4019 -1.3316
 1968SOL     OW17539   3.871   1.678   2.266  0.2044 -0.2184 -0.1278
 1968SOL    HW117540   3.890   1.709   2.177  0.4936  0.5444  0.2011
 1968SOL    HW217541   3.952   1.690   2.315 -0.4816 -0.6117  1.1026
 1969SOL     OW17542   2.393   1.684   7.224  0.0191 -0.3172 -0.3143
 1969SOL    HW117543   2.431   1.647   7.304  0.5232 -1.5368 -1.1166
 1969SOL    HW217544   2.406   1.778   7.235 -1.2395 -0.3011  1.1431
 1970SOL     OW17545   4.439   2.249  10.063  0.5037  0.1895 -0.1227
 1970SOL    HW117546   4.526   2.211  10.049 -0.3184 -0.3873 -3.4667
 1970SOL    HW217547   4.461   2.335  10.026  3.7340 -0.5639  0.0350
 1971SOL     OW17548   2.020   0.149   7.230  0.0791  0.2350  0.3374
 1971SOL    HW117549   2.027   0.133   7.136  1.2901  0.3373  0.4130
 1971SOL    HW217550   2.100   0.106   7.260 -0.9463 -0.9533  1.3496
 1972SOL     OW17551   1.035   0.596   8.694 -0.2041 -0.2301 -0.2222
 1972SOL    HW117552   0.964   0.535   8.674 -0.2967 -0.0976 -0.2996
 1972SOL    HW217553   0.992   0.681   8.706 -0.7684 -0.4255 -0.8656
 1973SOL     OW17554   0.056   0.524  16.576  0.0850  0.2442 -1.0201
 1973SOL    HW117555   0.136   0.556  16.617 -0.1695  0.9073 -1.0414
 1973SOL    HW217556   4.730   0.595  16.577  0.8740  0.9456 -2.9858
 1974SOL     OW17557   4.315   3.319   9.375  0.2100  0.0769  0.4893
 1974SOL    HW117558   4.306   3.399   9.427 -1.1787 -1.5490  2.7571
 1974SOL    HW217559   4.277   3.257   9.437 -1.1718 -2.8020 -3.2455
 1975SOL     OW17560   4.379   3.617  13.356 -0.5164 -0.2162  0.0371
 1975SOL    HW117561   4.301   3.634  13.303  0.9269 -0.6693 -2.2261
 1975SOL    HW217562   4.346   3.636  13.444 -2.8896  0.3297 -0.9788
 1976SOL     OW17563   0.027   0.665   1.515 -0.6711  0.0675  0.5069
 1976SOL    HW117564   0.086   0.719   1.463  0.9572  0.3027  2.6030
 1976SOL    HW217565   0.006   0.597   1.451 -0.3301 -0.3676  0.8619
 1977SOL     OW17566   3.265   3.107  15.690 -0.7848  0.7005  0.0044
 1977SOL    HW117567   3.201   3.172  15.718 -2.2166 -1.9094  2.8433
 1977SOL    HW217568   3.215   3.026  15.688 -0.2630  0.3537  0.7850
 1978SOL     OW17569   0.549   0.111   6.712 -0.3158 -0.1510  0.2032
 1978SOL    HW117570   0.494   0.154   6.646 -2.2942 -1.5014  0.9545
 1978SOL    HW217571   0.485   0.109   6.784 -1.0764 -2.7961 -0.5483
 1979SOL     OW17572   2.383   0.791   8.756  0.2922  0.9973 -0.6249
 1979SOL    HW117573   2.456   0.764   8.812 -1.1188  0.3230  0.8893
 1979SOL    HW217574   2.310   0.791   8.818 -0.9757  2.1988 -2.1190
 1980SOL     OW17575   1.276   0.707   4.555  0.3432 -0.4976 -0.4593
 1980SOL    HW117576   1.330   0.638   4.593  1.0180  0.6488  0.6663
 1980SOL    HW217577   1.235   0.731   4.638 -0.1210  1.0162 -1.1268
 1981SOL     OW17578   2.350   2.916   8.426 -0.4398  0.2242 -0.4895
 1981SOL    HW117579   2.359   2.882   8.337  1.0646 -0.5254 -0.0316
 1981SOL    HW217580   2.438   2.941   8.452 -1.0815  0.7531  1.1979
 1982SOL     OW17581   1.548   3.592   6.652 -0.2604  0.1374 -0.7520
 1982SOL    HW117582   1.559   3.616   6.744 -0.2121 -0.4673 -0.5984
 1982SOL    HW217583   1.490   3.664   6.628  2.4359  2.1123 -1.3684
 1983SOL     OW17584   2.492   0.168   8.240 -0.0287 -0.1541 -0.3839
 1983SOL    HW117585   2.423   0.225   8.273  0.6808  0.5337 -0.0932
 1983SOL    HW217586   2.560   0.235   8.236  0.4883 -0.6294  0.4436
 1984SOL     OW17587   4.067   1.354   5.823  0.1369 -0.6783  0.0834
 1984SOL    HW117588   4.126   1.326   5.893 -0.0676  0.1566  0.5801
 1984SOL    HW217589   4.065   1.443   5.856 -2.3518 -0.6061 -0.2854
 1985SOL     OW17590   1.597   3.990   7.430 -0.9683  0.4783 -0.6721
 1985SOL    HW117591   1.630   4.080   7.423  0.7587 -0.3124 -2.7465
 1985SOL    HW217592   1.534   4.014   7.497 -1.2153 -0.4451 -0.5726
 1986SOL     OW17593   1.793   0.378  13.327  0.6998 -0.3024 -0.2229
 1986SOL    HW117594   1.755   0.389  13.414 -0.3506  2.0615 -1.0013
 1986SOL    HW217595   1.846   0.457  13.317 -1.7544  1.1992 -1.2800
 1987SOL     OW17596   0.613   1.048   4.788  0.0861 -0.0198 -0.5928
 1987SOL    HW117597   0.607   0.959   4.752  0.0375 -0.4345  0.4511
 1987SOL    HW217598   0.582   1.100   4.714  2.1986 -1.1107 -2.2615
 1988SOL     OW17599   2.803   1.740  15.230  0.0754  0.0531 -0.0165
 1988SOL    HW117600   2.810   1.645  15.221 -2.6980  0.2578 -4.1492
 1988SOL    HW217601   2.888   1.750  15.273  0.7515 -0.4976 -1.2456
 1989SOL     OW17602   3.011   2.962   1.584  0.6649  0.5677  0.3266
 1989SOL    HW117603   2.993   2.894   1.649  2.6766 -2.1701 -1.9807
 1989SOL    HW217604   3.103   2.943   1.569  0.3002  0.1281 -1.3246
 1990SOL     OW17605   4.199   4.054   5.019 -0.1491 -0.2782 -0.5457
 1990SOL    HW117606   4.146   3.975   5.034  0.7013 -0.6750  0.4733
 1990SOL    HW217607   4.187   4.117   5.090 -1.8118 -2.5955  1.2647
 1991SOL     OW17608   1.369   4.426   0.770 -0.6944  0.2966 -0.5593
 1991SOL    HW117609   1.424   4.473   0.833 -0.0212 -1.5506  0.2289
 1991SOL    HW217610   1.382   4.336   0.801 -2.0117  0.3077  0.0224
 1992SOL     OW17611   2.034   3.534  17.461  0.3364  0.1280 -0.1088
 1992SOL    HW117612   2.038   3.521  17.366  0.0617  0.3001 -0.1426
 1992SOL    HW217613   2.105   3.597  17.472  0.0242  0.1987  1.4137
 1993SOL     OW17614   1.006   3.353   1.182  0.3222  0.4367  0.4769
 1993SOL    HW117615   0.989   3.325   1.271 -0.6956  1.0996  0.4890
 1993SOL    HW217616   1.010   3.449   1.189  0.4333  0.3180  1.9977
 1994SOL     OW17617   1.949   0.070   3.946  0.0522  0.1048 -0.1757
 1994SOL    HW117618   1.870   0.043   3.899 -1.1228  0.3567  1.6653
 1994SOL    HW217619   1.907   0.073   4.032 -0.4045  2.1939 -0.4691
 1995SOL     OW17620   1.244   2.227   2.763 -1.1757 -0.1586  0.4519
 1995SOL    HW117621   1.293   2.233   2.845 -0.0802 -0.0075 -0.2185
 1995SOL    HW217622   1.195   2.147   2.783 -1.1696  0.1592  1.7127
 1996SOL     OW17623   0.610   1.143   1.059  0.2955  0.6947 -0.1865
 1996SOL    HW117624   0.701   1.128   1.083 -0.1928 -0.7112  0.8137
 1996SOL    HW217625   0.588   1.230   1.094 -0.5873  0.8703 -1.1680
 1997SOL     OW17626   1.641   4.254   5.656 -0.1730 -0.1562  0.1221
 1997SOL    HW117627   1.615   4.346   5.647 -1.6492 -0.7848 -2.0484
 1997SOL    HW217628   1.557   4.212   5.636  0.7469 -1.0949 -1.7781
 1998SOL     OW17629   0.777   4.453   4.740  0.5572 -0.0271 -0.1974
 1998SOL    HW117630   0.708   4.392   4.765  0.9261 -0.1024  0.6188
 1998SOL    HW217631   0.727   4.503   4.675  0.3074 -0.0093  0.0083
 1999SOL     OW17632   4.106   1.804   5.759 -0.3137  0.0968 -0.1693
 1999SOL    HW117633   4.197   1.778   5.750  0.1879  0.8150  2.9330
 1999SOL    HW217634   4.074   1.761   5.679  1.4715 -0.6690 -0.4692
 2000SOL     OW17635   0.789   4.601  11.795  0.2890 -0.0100 -0.1612
 2000SOL    HW117636   0.695   4.616  11.795  0.3329  0.2434 -1.2460
 2000SOL    HW217637   0.805   4.677  11.851 -0.4503  0.0515 -0.0408
 2001SOL     OW17638   1.724   1.971   3.093 -0.3268 -0.2587  0.8114
 2001SOL    HW117639   1.751   1.923   3.171  1.2816 -0.8778 -0.1285
 2001SOL    HW217640   1.805   1.984   3.043 -0.5120  1.1206  0.8523
 2002SOL     OW17641   2.748   0.499   1.780 -0.0380 -0.0116  0.0379
 2002SOL    HW117642   2.706   0.423   1.819  0.7907 -0.6131 -0.2472
 2002SOL    HW217643   2.809   0.515   1.852 -1.5209 -2.5167  1.8612
 2003SOL     OW17644   1.719   0.614  15.134 -0.4759 -0.3996 -0.3293
 2003SOL    HW117645   1.774   0.655  15.067  2.0751 -1.0796  1.3431
 2003SOL    HW217646   1.725   0.520  15.120  1.3422 -0.3500  0.0179
 2004SOL     OW17647   3.089   3.134  13.481  0.1087 -0.2491 -0.0322
 2004SOL    HW117648   3.008   3.095  13.449 -0.8367  2.2012 -0.6582
 2004SOL    HW217649   3.062   3.167  13.567 -1.0821 -1.7281  0.1719
 2005SOL     OW17650   3.748   0.861  13.907  0.6053  0.1461 -0.1869
 2005SOL    HW117651   3.661   0.886  13.876  0.8127  0.5238 -0.4668
 2005SOL    HW217652   3.776   0.940  13.954  0.7952  0.5478 -0.9881
 2006SOL     OW17653   4.117   1.235   2.137  0.0114 -0.2382  0.2780
 2006SOL    HW117654   4.036   1.286   2.141 -0.1018 -0.4363  0.4749
 2006SOL    HW217655   4.078   1.149   2.122 -0.8920  0.1811  0.2176
 2007SOL     OW17656   1.233   0.332   5.028 -0.6069 -0.0121  0.3656
 2007SOL    HW117657   1.321   0.339   5.067 -0.4907 -1.3351  0.3320
 2007SOL    HW217658   1.221   0.419   4.990 -1.5703 -0.1838  0.2775
 2008SOL     OW17659   4.155   0.518  17.065  0.5159 -0.0231  0.3666
 2008SOL    HW117660   4.191   0.451  17.007  0.5888  0.0815  0.2908
 2008SOL    HW217661   4.064   0.528  17.036  0.9919  2.1039 -0.4270
 2009SOL     OW17662   3.289   3.036   6.487  0.5389 -0.4726  0.2833
 2009SOL    HW117663   3.246   2.960   6.448  1.7777 -2.1784  2.2895
 2009SOL    HW217664   3.254   3.025   6.576 -0.6198  1.4962  0.0730
 2010SOL     OW17665   2.667   4.477   5.213  0.4318 -0.1940  0.6511
 2010SOL    HW117666   2.634   4.502   5.299 -0.4537 -0.1183  0.2964
 2010SOL    HW217667   2.746   4.528   5.226  0.2085  0.3544 -0.1775
 2011SOL     OW17668   4.087   4.066   7.233 -0.5837 -0.0986 -0.4090
 2011SOL    HW117669   4.138   4.002   7.282  1.6651  0.7982 -1.5332
 2011SOL    HW217670   4.126   4.150   7.258 -2.4024  0.6332 -0.0002
 2012SOL     OW17671   1.422   0.138   5.903 -0.0638 -0.3878  0.3144
 2012SOL    HW117672   1.343   0.091   5.876 -0.8363  2.0383 -1.6635
 2012SOL    HW217673   1.385   0.216   5.946 -2.0486 -1.5893  0.7827
 2013SOL     OW17674   3.560   2.297   7.022 -0.1102  0.6464 -1.1036
 2013SOL    HW117675   3.617   2.373   7.013  0.7881  0.2021  0.7684
 2013SOL    HW217676   3.474   2.324   7.055  0.5602 -1.7674  2.6715
 2014SOL     OW17677   1.849   3.480   2.784  0.2974  0.1601 -0.1556
 2014SOL    HW117678   1.857   3.519   2.697 -0.5024  0.4397 -0.1031
 2014SOL    HW217679   1.940   3.461   2.806  0.0829 -0.4957  0.1586
 2015SOL     OW17680   4.460   2.392   6.458 -0.0542 -0.1261 -0.2494
 2015SOL    HW117681   4.405   2.455   6.410  0.5164 -0.5547 -1.4766
 2015SOL    HW217682   4.453   2.323   6.391 -0.7352  0.8213 -1.1470
 2016SOL     OW17683   4.462   2.749   4.999  0.0744  0.3749  0.1918
 2016SOL    HW117684   4.420   2.754   4.914  1.4948  0.9261 -0.4851
 2016SOL    HW217685   4.433   2.827   5.046  0.7665  1.5791 -1.3711
 2017SOL     OW17686   1.132   4.361   6.888 -0.4017  0.1282 -0.5894
 2017SOL    HW117687   1.123   4.390   6.979  2.8742  0.0584 -0.2392
 2017SOL    HW217688   1.226   4.381   6.878 -0.2301 -1.4254 -2.0590
 2018SOL     OW17689   4.075   0.161   2.141 -0.2081 -0.5392  0.3100
 2018SOL    HW117690   4.056   0.255   2.141 -1.5567 -0.8137 -0.9928
 2018SOL    HW217691   4.166   0.160   2.171 -0.0705 -0.6716 -0.1144
 2019SOL     OW17692   1.469   3.141   3.664 -0.5082  0.0968 -0.3393
 2019SOL    HW117693   1.438   3.137   3.573 -0.7239 -2.1926 -0.1867
 2019SOL    HW217694   1.499   3.051   3.677  0.4167  0.7141  1.7184
 2020SOL     OW17695   0.112   3.514   3.185  0.1367  0.2482 -0.9738
 2020SOL    HW117696   0.111   3.455   3.109  1.8054  2.3896 -2.6631
 2020SOL    HW217697   0.151   3.465   3.256 -0.1684  3.5637  1.4812
 2021SOL     OW17698   0.198   0.974   9.274  0.4187 -0.0342  0.1080
 2021SOL    HW117699   0.150   1.030   9.212  0.8427  0.9816  0.6928
 2021SOL    HW217700   0.264   0.925   9.225  1.1293  1.3189 -0.3085
 2022SOL     OW17701   1.532   3.711   6.982 -0.7163  0.6011  0.3027
 2022SOL    HW117702   1.561   3.620   6.988 -0.5045  0.3833 -3.6456
 2022SOL    HW217703   1.564   3.753   7.062 -0.8101  2.8628 -0.8577
 2023SOL     OW17704   0.421   0.355  17.165  0.3517  0.0467  0.3855
 2023SOL    HW117705   0.362   0.309  17.224 -0.0770 -2.4126 -1.9588
 2023SOL    HW217706   0.417   0.449  17.185 -2.2032  0.0650 -0.2547
 2024SOL     OW17707   0.758   4.338   5.373  0.5564  0.0678 -0.0006
 2024SOL    HW117708   0.764   4.263   5.432  0.6818  0.4613  0.4814
 2024SOL    HW217709   0.666   4.361   5.358  0.3911 -1.2974 -1.0543
 2025SOL     OW17710   4.082   2.789  15.968 -0.1620 -0.5121  0.2093
 2025SOL    HW117711   4.089   2.741  15.886 -0.5097  0.4129 -0.3685
 2025SOL    HW217712   3.995   2.828  15.956  0.5711  1.2298  0.4800
 2026SOL     OW17713   0.206   4.464  14.536  0.3408 -0.4316  0.3659
 2026SOL    HW117714   0.200   4.531  14.468 -0.7333 -0.7153  0.1869
 2026SOL    HW217715   0.252   4.513  14.604 -0.0081 -1.5739  1.4178
 2027SOL     OW17716   3.736   4.233   5.828 -0.5340 -0.5559 -0.3406
 2027SOL    HW117717   3.731   4.326   5.850 -0.9589 -0.5309 -0.5402
 2027SOL    HW217718   3.822   4.217   5.865 -0.6604  0.8092  0.5505
 2028SOL     OW17719   0.196   3.314   1.837  0.0726  0.2305 -0.0908
 2028SOL    HW117720   0.150   3.346   1.914  2.6036 -0.2561  1.6160
 2028SOL    HW217721   0.274   3.370   1.835  1.4853 -1.7684 -1.8940
 2029SOL     OW17722   4.681   1.985   7.996 -0.6536  0.3618 -0.1556
 2029SOL    HW117723   4.727   1.960   7.916 -1.5811  0.3328 -0.6832
 2029SOL    HW217724   4.591   1.962   7.974 -0.9369 -0.7877  2.1612
 2030SOL     OW17725   1.975   3.204  14.633 -0.4270  0.2284  0.1193
 2030SOL    HW117726   1.884   3.234  14.642  0.1267  1.4149  1.6746
 2030SOL    HW217727   2.019   3.234  14.712  1.4103 -1.1249 -0.3749
 2031SOL     OW17728   0.978   2.557   6.647  0.5134 -0.0848  0.4005
 2031SOL    HW117729   0.895   2.511   6.637 -0.2120  1.5866 -1.2786
 2031SOL    HW217730   0.967   2.640   6.694  0.8513 -1.3065  2.6368
 2032SOL     OW17731   2.861   3.229   5.885  0.3942 -0.5373  0.0394
 2032SOL    HW117732   2.898   3.186   5.808  1.8421  2.5486 -0.9970
 2032SOL    HW217733   2.876   3.163   5.953 -0.6791 -0.7603  0.0620
 2033SOL     OW17734   0.745   1.474   4.611  0.2292  0.3784  0.2103
 2033SOL    HW117735   0.697   1.494   4.691  0.5830  2.0217  0.0100
 2033SOL    HW217736   0.671   1.458   4.552  0.9819 -0.3598 -0.5482
 2034SOL     OW17737   2.438   4.213   8.219 -0.6464 -0.1468 -0.3093
 2034SOL    HW117738   2.451   4.122   8.194 -0.5248  0.4759 -2.5442
 2034SOL    HW217739   2.354   4.232   8.176  1.2943  0.8921 -3.5865
 2035SOL     OW17740   2.358   0.092   7.096 -0.0826 -0.6773 -0.3469
 2035SOL    HW117741   2.377   0.170   7.149 -4.4807  0.0975  0.1093
 2035SOL    HW217742   2.304   0.126   7.025 -1.2331  0.6945  1.1583
 2036SOL     OW17743   0.964   1.819   1.698 -1.0861 -0.1002  0.2659
 2036SOL    HW117744   1.035   1.882   1.690 -0.7597 -0.7201 -1.7798
 2036SOL    HW217745   0.983   1.763   1.622 -1.0366 -0.1775  0.3343
 2037SOL     OW17746   0.464   3.680   6.586  0.3820 -0.6412 -0.7679
 2037SOL    HW117747   0.382   3.640   6.615 -0.1149  1.2762  0.4587
 2037SOL    HW217748   0.523   3.616   6.627 -0.1037 -0.6582 -0.0978
 2038SOL     OW17749   0.401   1.817   7.534  0.3551 -0.4998  0.0738
 2038SOL    HW117750   0.347   1.893   7.510  1.5814  0.1963 -0.4357
 2038SOL    HW217751   0.469   1.850   7.593  0.1893  1.1219 -0.6404
 2039SOL     OW17752   1.473   3.711   7.979 -0.2658 -0.1374 -0.0895
 2039SOL    HW117753   1.512   3.629   7.947  1.8447  1.2091 -0.9584
 2039SOL    HW217754   1.455   3.757   7.897 -1.4178 -1.9456 -0.8761
 2040SOL     OW17755   1.186   2.450   4.206  0.1889  0.2003 -0.2509
 2040SOL    HW117756   1.102   2.471   4.248 -0.9143 -2.6384 -1.0541
 2040SOL    HW217757   1.226   2.428   4.289  1.6336  1.4422 -0.6228
 2041SOL     OW17758   2.282   3.665   3.202 -1.1817  0.9144  0.4895
 2041SOL    HW117759   2.279   3.581   3.247  0.9309  0.0288 -1.0431
 2041SOL    HW217760   2.348   3.640   3.137 -0.4630  1.6182  0.9525
 2042SOL     OW17761   4.228   0.802   4.674  0.2603 -0.2122  0.7345
 2042SOL    HW117762   4.305   0.850   4.641 -0.7420  1.1564  0.4083
 2042SOL    HW217763   4.237   0.791   4.768 -1.8539 -1.7201  0.7481
 2043SOL     OW17764   3.762   3.429   1.230  0.3284  0.4195  0.5803
 2043SOL    HW117765   3.775   3.371   1.155 -2.3514  0.8839 -0.2307
 2043SOL    HW217766   3.776   3.370   1.304  1.4878  0.3170  0.2785
 2044SOL     OW17767   3.376   0.530   7.902  0.3534  0.0646  0.2628
 2044SOL    HW117768   3.324   0.458   7.938  2.2136 -0.8196  1.2246
 2044SOL    HW217769   3.398   0.585   7.977 -0.9479  1.2390 -0.2222
 2045SOL     OW17770   1.263   3.853   4.089  0.2262 -0.1445  0.0636
 2045SOL    HW117771   1.318   3.820   4.159  1.6125  2.6768  0.2998
 2045SOL    HW217772   1.194   3.883   4.148  0.0160  1.1138 -0.8313
 2046SOL     OW17773   0.390   1.228   9.644 -0.1203 -0.3170 -0.1841
 2046SOL    HW117774   0.294   1.222   9.643 -0.1803  0.7913 -1.8130
 2046SOL    HW217775   0.416   1.210   9.554  1.2586  1.4618 -0.1325
 2047SOL     OW17776   1.924   2.961   2.517  0.6063 -0.4186  0.3259
 2047SOL    HW117777   1.837   2.959   2.477 -0.1319 -2.7896  2.0281
 2047SOL    HW217778   1.927   3.017   2.595 -1.7102 -0.0003  0.1056
 2048SOL     OW17779   1.369   0.166  13.270 -0.0184 -0.1300  0.2062
 2048SOL    HW117780   1.361   0.182  13.176  1.0005 -0.3506  0.0858
 2048SOL    HW217781   1.464   0.161  13.281  0.3517  1.7286 -2.1794
 2049SOL     OW17782   2.731   4.354  11.577  0.6572  0.1795  0.0534
 2049SOL    HW117783   2.653   4.302  11.599  0.7110 -2.0793 -5.1269
 2049SOL    HW217784   2.692   4.442  11.577  1.7473  0.6626 -1.2334
 2050SOL     OW17785   2.246   0.381   6.088 -0.2644  0.1173  0.5404
 2050SOL    HW117786   2.327   0.405   6.042 -0.2996  0.2302  0.5363
 2050SOL    HW217787   2.219   0.303   6.041 -0.9946  0.2963  0.6611
 2051SOL     OW17788   2.906   3.942   5.290  0.1021 -0.1559  0.1523
 2051SOL    HW117789   2.868   4.030   5.282  0.2233  0.1309  2.9208
 2051SOL    HW217790   2.998   3.969   5.292  0.6333 -1.8567 -1.3208
 2052SOL     OW17791   1.609   2.023   9.749  0.1681  0.0629  0.4729
 2052SOL    HW117792   1.639   2.067   9.670 -0.3457 -1.7364 -0.7216
 2052SOL    HW217793   1.688   2.029   9.802  1.9218 -0.7067 -2.0658
 2053SOL     OW17794   2.716   0.382  17.658 -0.0242 -0.0475  0.3012
 2053SOL    HW117795   2.715   0.287  17.645 -2.2273  0.1285 -0.7207
 2053SOL    HW217796   2.805   0.407  17.635 -0.3941  1.7541  0.8699
 2054SOL     OW17797   0.431   3.504   8.735 -0.6952  0.8611 -0.4831
 2054SOL    HW117798   0.363   3.567   8.758  0.8792  3.4471 -2.9209
 2054SOL    HW217799   0.418   3.490   8.641  1.2879  0.4335 -0.6996
 2055SOL     OW17800   4.711   1.339   0.942 -0.5575  0.3056 -0.1263
 2055SOL    HW117801   4.654   1.312   0.870  0.0460 -0.7958 -0.1961
 2055SOL    HW217802   0.012   1.424   0.920  0.5549 -0.4275 -1.0268
 2056SOL     OW17803   2.602   1.328  17.188 -0.2354 -0.4939  0.0011
 2056SOL    HW117804   2.513   1.355  17.213 -0.2643 -2.7175  2.3148
 2056SOL    HW217805   2.591   1.281  17.105 -0.5431  1.4013 -1.0125
 2057SOL     OW17806   4.012   4.668   8.609  0.5722  0.4964 -0.3621
 2057SOL    HW117807   3.917   4.664   8.619  1.0651 -4.1358  2.5275
 2057SOL    HW217808   4.029   0.010   8.660 -3.1485  1.9022 -1.3398
 2058SOL     OW17809   1.230   2.504   0.545  0.1064 -0.0685  0.3835
 2058SOL    HW117810   1.288   2.565   0.499 -0.5246  0.5606  0.4237
 2058SOL    HW217811   1.170   2.475   0.476 -1.3551  2.0347  0.7749
 2059SOL     OW17812   3.390   4.387   3.908  0.3900 -0.0899 -0.3250
 2059SOL    HW117813   3.347   4.473   3.900 -1.0007 -0.6915  0.8141
 2059SOL    HW217814   3.323   4.348   3.964 -0.1938  0.8783 -0.3445
 2060SOL     OW17815   3.547   1.513  13.757  0.0538 -0.0304 -0.1907
 2060SOL    HW117816   3.477   1.539  13.817 -0.7424 -2.0043 -0.2359
 2060SOL    HW217817   3.533   1.419  13.743 -2.5643  0.1284  1.2132
 2061SOL     OW17818   0.350   2.920   6.158 -0.4494 -0.0737  0.5733
 2061SOL    HW117819   0.416   2.904   6.091 -1.2360 -0.4001 -0.1293
 2061SOL    HW217820   0.272   2.872   6.131  0.8645 -2.4152  1.0213
 2062SOL     OW17821   0.610   3.175   4.763  0.6240 -0.0314 -0.0566
 2062SOL    HW117822   0.686   3.199   4.816  0.2395  1.2823 -0.1075
 2062SOL    HW217823   0.544   3.192   4.830  2.4688  0.0943  1.7227
 2063SOL     OW17824   4.333   0.875   7.825  0.0750  0.0422  0.5218
 2063SOL    HW117825   4.267   0.894   7.757  0.6835  1.9049  0.4609
 2063SOL    HW217826   4.337   0.780   7.812  0.2517  0.1133  0.0646
 2064SOL     OW17827   1.342   4.726   5.515  0.1698 -0.3235  0.4637
 2064SOL    HW117828   1.282   4.701   5.586 -0.0000  0.2557  0.5248
 2064SOL    HW217829   1.285   0.010   5.441  0.7183 -1.0988 -0.1776
 2065SOL     OW17830   0.399   0.919  11.968 -0.4446  0.0740  0.8496
 2065SOL    HW117831   0.362   1.006  11.984  0.1439  0.2201  1.4111
 2065SOL    HW217832   0.449   0.908  12.049  1.6712 -1.6084 -0.6936
 2066SOL     OW17833   3.132   3.434   1.058 -0.0629 -0.0761 -0.0743
 2066SOL    HW117834   3.104   3.518   1.021  0.8137  0.1001 -0.3215
 2066SOL    HW217835   3.064   3.379   1.018  0.0912 -0.8464  0.7402
 2067SOL     OW17836   1.910   4.405   6.849  0.1321  0.4218  0.0873
 2067SOL    HW117837   1.959   4.469   6.901  0.7118 -0.6542  0.8575
 2067SOL    HW217838   1.978   4.342   6.825 -0.3193  0.1298 -0.4129
 2068SOL     OW17839   3.530   0.638  11.645 -0.2756  1.0272  0.9286
 2068SOL    HW117840   3.456   0.663  11.590  0.7898 -0.3098 -1.1142
 2068SOL    HW217841   3.583   0.603  11.574 -1.5708 -0.4430  0.6714
 2069SOL     OW17842   3.645   1.687   0.713  0.4230  0.2571  0.8532
 2069SOL    HW117843   3.710   1.640   0.661  0.2554  0.1937  0.7029
 2069SOL    HW217844   3.630   1.760   0.653  1.2427  1.5156  2.1729
 2070SOL     OW17845   3.931   2.539   9.020 -1.0094  0.3969 -0.1311
 2070SOL    HW117846   3.991   2.471   9.051 -1.0860 -0.4885 -1.9017
 2070SOL    HW217847   3.872   2.489   8.965  0.0313 -0.5295 -0.4127
 2071SOL     OW17848   0.226   3.187   9.388 -0.0920  0.3416 -0.1713
 2071SOL    HW117849   0.313   3.147   9.389  0.3713  1.3828  0.9287
 2071SOL    HW217850   0.176   3.110   9.358 -1.7262  1.2180  0.3261
 2072SOL     OW17851   1.461   2.290   5.514 -0.0745 -0.2868  0.0053
 2072SOL    HW117852   1.527   2.281   5.583 -0.4381  0.3484  0.4367
 2072SOL    HW217853   1.462   2.204   5.474  1.9705  0.5582 -1.7083
 2073SOL     OW17854   2.188   1.080   9.624 -0.1550  0.4765  0.0442
 2073SOL    HW117855   2.242   1.133   9.683  0.6519  1.1343 -1.2765
 2073SOL    HW217856   2.194   0.992   9.661  1.5346  0.8424  0.6658
 2074SOL     OW17857   3.151   3.174   1.197 -0.0192 -0.0069  0.0729
 2074SOL    HW117858   3.202   3.222   1.262  0.3506 -1.6914  1.0179
 2074SOL    HW217859   3.167   3.229   1.120 -1.2372 -0.8453 -0.7949
 2075SOL     OW17860   0.837   3.207   5.390  0.1997 -0.0247  0.3803
 2075SOL    HW117861   0.784   3.261   5.331  0.7828  0.2594  0.1081
 2075SOL    HW217862   0.919   3.204   5.340  0.2345  1.2447  0.3612
 2076SOL     OW17863   1.676   4.699   6.472 -0.5466  0.2543  0.2370
 2076SOL    HW117864   1.583   4.695   6.494 -1.4998  0.6320 -3.5650
 2076SOL    HW217865   1.724   4.665   6.547 -2.7935 -1.0916  1.0687
 2077SOL     OW17866   3.612   1.231   9.158 -0.1535 -0.2634  0.1517
 2077SOL    HW117867   3.590   1.147   9.118  1.4919 -0.3251 -0.6441
 2077SOL    HW217868   3.647   1.193   9.238  2.2588  0.5771 -0.5072
 2078SOL     OW17869   0.179   0.175   8.999  0.1852  0.1148 -0.6929
 2078SOL    HW117870   0.154   0.171   8.907  0.6606 -0.2074 -0.8120
 2078SOL    HW217871   0.275   0.165   9.001  0.1712  0.1799  0.6653
 2079SOL     OW17872   2.671   0.341   3.268 -0.1172  0.3766 -0.6148
 2079SOL    HW117873   2.653   0.251   3.241  0.9204  0.8268 -2.8367
 2079SOL    HW217874   2.741   0.352   3.203 -1.0204 -1.2539 -1.8703
 2080SOL     OW17875   0.331   1.150   3.003  0.1122 -0.5095  0.2170
 2080SOL    HW117876   0.394   1.109   3.062 -0.1688 -0.8167  0.3084
 2080SOL    HW217877   0.340   1.241   3.030  1.4996 -0.6756  0.2902
 2081SOL     OW17878   2.073   3.237   0.286 -0.0437 -0.1688  0.2033
 2081SOL    HW117879   2.050   3.201   0.200  3.5327 -0.5045 -0.5885
 2081SOL    HW217880   1.996   3.227   0.342  0.4578  0.3361  0.9883
 2082SOL     OW17881   4.230   1.411   9.480 -0.7971 -0.3363 -0.6977
 2082SOL    HW117882   4.317   1.379   9.507 -0.9872 -0.7152 -0.5247
 2082SOL    HW217883   4.193   1.330   9.445  0.0267 -2.6688  3.6991
 2083SOL     OW17884   0.071   1.426   0.610 -0.2179 -0.4445  0.1332
 2083SOL    HW117885   0.045   1.464   0.694 -0.4697 -1.8260  0.6845
 2083SOL    HW217886   4.731   1.369   0.606 -0.5204  0.0393 -0.8365
 2084SOL     OW17887   2.020   2.701   1.553  0.0800  0.0708 -0.4750
 2084SOL    HW117888   2.059   2.773   1.601  2.7892 -2.4137  1.0682
 2084SOL    HW217889   1.973   2.755   1.490  0.7955  2.6382  1.2249
 2085SOL     OW17890   1.075   2.625   6.374  0.2046  0.5824  0.4398
 2085SOL    HW117891   1.018   2.593   6.304 -0.5999  0.5960  1.0966
 2085SOL    HW217892   1.012   2.630   6.446 -1.0855 -1.1730 -0.5658
 2086SOL     OW17893   3.178   0.370   3.811 -0.8115  0.5642  0.0237
 2086SOL    HW117894   3.177   0.437   3.743 -1.6969  0.8093  0.2707
 2086SOL    HW217895   3.114   0.404   3.874  0.5294  0.9723  1.1696
 2087SOL     OW17896   1.193   1.596   8.039 -0.4493 -0.1000  0.0000
 2087SOL    HW117897   1.191   1.641   8.123 -3.2871 -2.7347  1.3402
 2087SOL    HW217898   1.113   1.544   8.044 -1.2283  1.0368 -0.6998
 2088SOL     OW17899   3.457   1.981   7.632 -0.4691 -0.3649 -0.4669
 2088SOL    HW117900   3.395   1.960   7.703 -0.7772  2.5373  0.1319
 2088SOL    HW217901   3.500   1.897   7.623  1.1595  0.3309  0.8140
 2089SOL     OW17902   3.459   1.187  10.394 -0.2789  0.2388  0.0324
 2089SOL    HW117903   3.534   1.146  10.437 -3.0014 -2.4171  2.2094
 2089SOL    HW217904   3.492   1.272  10.366 -1.6335  0.1714 -1.8081
 2090SOL     OW17905   3.957   3.713   8.462 -0.0430 -0.4712 -0.2819
 2090SOL    HW117906   4.030   3.774   8.447 -0.9235  0.8439  0.7551
 2090SOL    HW217907   3.926   3.708   8.371 -1.3332  0.4743  0.0931
 2091SOL     OW17908   2.385   1.866   3.912  0.2185  0.2557 -0.3212
 2091SOL    HW117909   2.463   1.922   3.909 -1.5227  2.6361 -0.8170
 2091SOL    HW217910   2.372   1.857   3.817 -0.3787 -0.9290 -0.1344
 2092SOL     OW17911   2.377   2.121  14.832  0.1883 -0.8055  0.2979
 2092SOL    HW117912   2.295   2.076  14.853  0.2543 -1.2277 -0.3271
 2092SOL    HW217913   2.437   2.061  14.876  0.1667 -1.5283 -0.6595
 2093SOL     OW17914   0.186   0.501   2.256 -0.4318 -0.3063 -0.2445
 2093SOL    HW117915   0.094   0.512   2.232 -0.0988  0.9764 -0.9083
 2093SOL    HW217916   0.196   0.564   2.327  0.5690 -0.1307 -0.5376
 2094SOL     OW17917   1.156   3.643   2.583 -0.1883  0.5151 -0.3996
 2094SOL    HW117918   1.081   3.585   2.569 -1.3538  2.1480 -0.9421
 2094SOL    HW217919   1.200   3.592   2.651 -2.4581 -0.3294  0.4187
 2095SOL     OW17920   0.694   2.262  16.530  0.3461  0.3366 -0.1217
 2095SOL    HW117921   0.673   2.302  16.446  0.1136 -3.5569 -1.9335
 2095SOL    HW217922   0.612   2.219  16.552 -0.6791  2.5294  0.3511
 2096SOL     OW17923   4.107   2.930   3.394  0.1062  0.1943 -0.3603
 2096SOL    HW117924   4.145   2.857   3.345 -0.2713  1.1273 -2.0375
 2096SOL    HW217925   4.082   2.883   3.473 -2.0023  0.7634 -0.6888
 2097SOL     OW17926   1.324   3.858  11.121  0.4223  0.4170  0.1942
 2097SOL    HW117927   1.340   3.912  11.043  0.3817 -0.0047 -0.1078
 2097SOL    HW217928   1.235   3.825  11.112  0.8024 -0.5905  0.1377
 2098SOL     OW17929   0.404   2.550   0.129 -0.2772  0.4044  0.0966
 2098SOL    HW117930   0.320   2.588   0.155 -0.2382  0.8753 -0.4659
 2098SOL    HW217931   0.397   2.581   0.039 -1.2256 -0.1733 -0.0182
 2099SOL     OW17932   0.463   2.215   5.099 -0.3719 -0.3590  0.5876
 2099SOL    HW117933   0.371   2.189   5.111 -0.3550 -0.0724  1.3562
 2099SOL    HW217934   0.470   2.213   5.004  0.3960 -0.6098  0.6522
 2100SOL     OW17935   0.953   1.986   3.558  0.3765 -0.3420  0.3224
 2100SOL    HW117936   1.038   2.028   3.543  0.1440  0.7797  2.2041
 2100SOL    HW217937   0.918   2.044   3.625  0.4185 -0.5223  0.5005
 2101SOL     OW17938   1.511   2.097   8.556  0.2153 -0.2348  0.0584
 2101SOL    HW117939   1.511   2.002   8.549  0.9619 -0.1267 -1.3644
 2101SOL    HW217940   1.583   2.118   8.497  1.4016 -2.3976  0.7808
 2102SOL     OW17941   3.610   3.464  15.192 -0.2090 -0.4645 -0.0333
 2102SOL    HW117942   3.521   3.501  15.192 -0.9798 -2.3096 -1.2875
 2102SOL    HW217943   3.584   3.398  15.257  1.7775  0.6280  1.8621
 2103SOL     OW17944   0.041   1.255  10.149  0.4846  0.0421  0.1457
 2103SOL    HW117945   0.013   1.205  10.226 -0.4313 -0.7671 -0.7034
 2103SOL    HW217946   0.136   1.258  10.162  0.2207 -0.5515  2.1297
 2104SOL     OW17947   1.550   4.246   2.538  0.1281 -0.3085  0.5248
 2104SOL    HW117948   1.510   4.160   2.551 -0.7247 -0.0770 -0.5292
 2104SOL    HW217949   1.482   4.299   2.495  0.5949 -1.6556 -1.8439
 2105SOL     OW17950   2.161   2.044  16.011 -0.4551  0.1573 -0.6877
 2105SOL    HW117951   2.081   2.062  16.061  0.9447 -2.5343  2.4839
 2105SOL    HW217952   2.128   1.991  15.938 -0.2843 -1.4743  0.4385
 2106SOL     OW17953   0.682   0.817  12.576 -0.4238  0.0476 -0.2322
 2106SOL    HW117954   0.693   0.890  12.515  0.6982  0.4644  0.4599
 2106SOL    HW217955   0.775   0.792  12.580 -0.5942 -0.6105 -0.4332
 2107SOL     OW17956   2.124   3.690   2.147  0.3418 -0.3344 -0.2415
 2107SOL    HW117957   2.124   3.703   2.242 -3.1034 -0.7457 -0.1776
 2107SOL    HW217958   2.195   3.626   2.145 -1.1118 -1.8846 -1.9967
 2108SOL     OW17959   1.162   2.666  15.478  0.3184 -0.0114  0.0707
 2108SOL    HW117960   1.135   2.687  15.567  2.4676 -0.5462  0.8579
 2108SOL    HW217961   1.257   2.671  15.489  0.0766 -1.0341  2.6267
 2109SOL     OW17962   1.454   2.510   2.755  0.4480  0.3547  0.0008
 2109SOL    HW117963   1.387   2.562   2.710 -0.5865 -1.6348 -0.7446
 2109SOL    HW217964   1.517   2.491   2.686  0.2681  0.3278 -0.1557
 2110SOL     OW17965   3.790   2.086  14.573 -0.2415  0.2908 -0.4540
 2110SOL    HW117966   3.818   2.149  14.506  2.3451 -0.4969 -0.1159
 2110SOL    HW217967   3.867   2.091  14.630 -1.0304 -1.2109  0.7234
 2111SOL     OW17968   2.129   0.982   7.612  0.4600  0.5715 -0.9847
 2111SOL    HW117969   2.055   0.947   7.660  3.1863 -2.5038  0.9332
 2111SOL    HW217970   2.204   0.969   7.670  0.7630  2.4132 -0.9638
 2112SOL     OW17971   4.456   0.795   2.056  0.3679  0.9436 -0.9525
 2112SOL    HW117972   4.378   0.743   2.078  1.0426  0.7188  0.9733
 2112SOL    HW217973   4.506   0.737   1.999  0.2758  0.4734 -0.5634
 2113SOL     OW17974   0.795   0.815   7.111  0.5493  0.3414 -0.6955
 2113SOL    HW117975   0.796   0.895   7.164 -1.6073 -0.4594  0.5735
 2113SOL    HW217976   0.837   0.752   7.169  2.5983  0.5275 -2.0020
 2114SOL     OW17977   1.770   2.011   9.073 -0.4265 -0.0021 -0.3291
 2114SOL    HW117978   1.822   2.065   9.014 -1.9417 -2.5802 -4.0369
 2114SOL    HW217979   1.719   2.077   9.119 -0.3966  0.7250 -1.3442
 2115SOL     OW17980   0.140   1.960   2.318  1.0453 -0.4129  0.0162
 2115SOL    HW117981   0.108   1.993   2.234 -1.4055  0.5961  1.3365
 2115SOL    HW217982   0.128   1.866   2.307  1.5052 -0.4010 -0.5609
 2116SOL     OW17983   2.402   3.711   9.103  0.5714  0.0450  0.4367
 2116SOL    HW117984   2.421   3.784   9.044 -0.5700 -1.5286 -1.8816
 2116SOL    HW217985   2.478   3.728   9.159 -0.1883 -1.9122  2.0963
 2117SOL     OW17986   2.235   1.864   9.319  0.2902  0.1594  0.0886
 2117SOL    HW117987   2.177   1.839   9.391  2.3982 -1.7225  1.1305
 2117SOL    HW217988   2.180   1.938   9.292 -1.3845 -1.8905 -2.1215
 2118SOL     OW17989   2.581   3.042  14.633  0.5483  0.0347  0.5017
 2118SOL    HW117990   2.630   3.082  14.561  2.4372 -1.7544  0.7857
 2118SOL    HW217991   2.646   2.986  14.677  0.4669 -0.2414  0.2669
 2119SOL     OW17992   3.107   4.700   9.480  0.2485 -0.1958  0.0140
 2119SOL    HW117993   3.046   0.031   9.508 -1.1949 -0.7451 -1.7761
 2119SOL    HW217994   3.117   4.646   9.558 -1.9360 -1.5608 -0.6331
 2120SOL     OW17995   1.630   3.696   3.666 -0.2471 -0.4934  0.0802
 2120SOL    HW117996   1.636   3.601   3.675  0.4133 -0.4448  0.1703
 2120SOL    HW217997   1.576   3.704   3.588 -1.3836 -0.0315  0.9188
 2121SOL     OW17998   1.650   2.222   5.704 -0.2044 -0.3761 -0.5117
 2121SOL    HW117999   1.695   2.204   5.786  1.2073  0.6406 -1.0864
 2121SOL    HW218000   1.696   2.156   5.652  2.2397  1.4352 -0.5931
 2122SOL     OW18001   2.651   4.370  11.980  0.2555  0.4776 -0.1178
 2122SOL    HW118002   2.660   4.465  11.974 -1.1294  0.5458 -0.9968
 2122SOL    HW218003   2.556   4.370  11.968  0.1200 -0.0146  0.9977
 2123SOL     OW18004   0.263   0.956   7.859  0.2560  0.0532 -0.5138
 2123SOL    HW118005   0.311   1.038   7.854  1.3525 -0.5773 -0.3513
 2123SOL    HW218006   0.271   0.940   7.765  0.0806 -0.2000 -0.4857
 2124SOL     OW18007   4.330   2.759   4.739  0.6263 -0.6202  0.6466
 2124SOL    HW118008   4.337   2.687   4.676 -0.1198 -0.0191 -0.1387
 2124SOL    HW218009   4.407   2.813   4.721  0.6229 -0.5024  0.9887
 2125SOL     OW18010   0.521   2.282   6.925  0.2226 -0.1199 -0.1370
 2125SOL    HW118011   0.527   2.354   6.988 -0.3957 -1.8481  1.8818
 2125SOL    HW218012   0.511   2.214   6.991  0.1606 -0.4103 -0.4449
 2126SOL     OW18013   2.033   2.329   8.552 -0.0822 -0.2070 -0.3928
 2126SOL    HW118014   2.109   2.294   8.599 -0.4365  0.5077  0.7169
 2126SOL    HW218015   2.028   2.421   8.580  1.4929 -0.5251  0.9689
 2127SOL     OW18016   4.337   3.163   4.849  0.0991 -0.4055  0.1532
 2127SOL    HW118017   4.339   3.087   4.908  1.8165 -1.1790 -0.9149
 2127SOL    HW218018   4.425   3.187   4.877 -0.5937  1.9851  0.2780
 2128SOL     OW18019   3.982   3.614   2.348  0.2749  0.2342 -0.3287
 2128SOL    HW118020   3.934   3.683   2.303 -0.4745  0.0321  0.1627
 2128SOL    HW218021   4.001   3.549   2.280 -0.7376  0.1277 -0.5117
 2129SOL     OW18022   1.565   1.530   6.134  0.0887 -0.3102 -0.7530
 2129SOL    HW118023   1.511   1.609   6.142 -2.5399 -2.2667  1.2008
 2129SOL    HW218024   1.633   1.547   6.070  2.4590  0.7727  2.0629
 2130SOL     OW18025   4.702   3.470   9.961 -0.1088  0.6281 -0.3946
 2130SOL    HW118026   0.052   3.507   9.956 -0.2516  0.8345 -1.3478
 2130SOL    HW218027   4.661   3.513  10.036 -1.1635  3.9137 -2.8617
 2131SOL     OW18028   0.596   3.855   7.948 -0.2106 -0.1671 -0.1551
 2131SOL    HW118029   0.678   3.806   7.937  0.4120  0.5848  1.1690
 2131SOL    HW218030   0.577   3.888   7.860 -1.6898 -1.8688 -0.4824
 2132SOL     OW18031   3.497   1.756   9.330 -0.6578 -0.1587  0.1494
 2132SOL    HW118032   3.471   1.801   9.249  2.3057  0.3683 -0.5084
 2132SOL    HW218033   3.472   1.820   9.397  1.8534 -0.3618  1.2754
 2133SOL     OW18034   3.303   4.700  10.786  0.4036  0.1523 -0.1144
 2133SOL    HW118035   3.207   4.692  10.789  0.4543  0.1022  1.1632
 2133SOL    HW218036   3.319   4.629  10.724 -1.8878 -0.0328 -0.5160
 2134SOL     OW18037   2.347   4.144  15.631 -0.6179  0.3724  0.1613
 2134SOL    HW118038   2.278   4.210  15.637 -1.0207 -0.5315  5.4299
 2134SOL    HW218039   2.305   4.070  15.675  0.0904  0.0054  0.2199
 2135SOL     OW18040   0.251   2.064   6.726  0.4479  0.2304  0.4797
 2135SOL    HW118041   0.194   2.140   6.735  0.7650  0.7592 -1.9572
 2135SOL    HW218042   0.210   2.030   6.646  1.7041  0.9299 -0.4610
 2136SOL     OW18043   1.299   4.232   8.497  0.1752  0.4728 -0.4830
 2136SOL    HW118044   1.352   4.191   8.429  2.0234  1.2160  0.5030
 2136SOL    HW218045   1.343   4.197   8.575 -1.5363 -1.5517 -0.4460
 2137SOL     OW18046   2.067   0.543   9.960  0.2897  0.0907  0.6699
 2137SOL    HW118047   2.101   0.535   9.871 -0.5192 -0.3459  0.4007
 2137SOL    HW218048   2.054   0.638   9.964  0.5894  0.0453  3.1429
 2138SOL     OW18049   3.522   0.986   4.790 -0.5628  0.4793 -0.0356
 2138SOL    HW118050   3.522   1.060   4.851  2.4238  1.1489 -0.8762
 2138SOL    HW218051   3.612   0.992   4.758 -0.3625 -0.0164  0.4211
 2139SOL     OW18052   3.751   2.529   3.033 -0.2786 -0.7706  0.3870
 2139SOL    HW118053   3.665   2.550   2.997  1.0167  1.1952 -1.5700
 2139SOL    HW218054   3.796   2.487   2.959 -0.6405 -1.7813  0.7411
 2140SOL     OW18055   2.356   1.314   2.507 -1.2803 -0.1214 -0.3711
 2140SOL    HW118056   2.276   1.266   2.487 -1.4974 -0.7929  2.0701
 2140SOL    HW218057   2.358   1.364   2.426  3.2686  0.2652 -0.0564
 2141SOL     OW18058   2.855   2.632   5.514  0.5651  0.4638  0.4562
 2141SOL    HW118059   2.896   2.552   5.482  0.2632  0.8126 -0.8262
 2141SOL    HW218060   2.768   2.604   5.487  1.1981 -2.4474  1.4622
 2142SOL     OW18061   3.526   1.060  10.739 -0.0642  0.0123 -0.1259
 2142SOL    HW118062   3.584   1.006  10.686  1.0396  1.7965 -0.7528
 2142SOL    HW218063   3.567   1.054  10.826  1.0597  1.9335 -0.5301
 2143SOL     OW18064   1.806   1.585   1.432 -0.0941  0.5329  0.9869
 2143SOL    HW118065   1.839   1.505   1.472  0.3338 -0.7929 -2.0101
 2143SOL    HW218066   1.813   1.561   1.340 -1.0610  0.6560  0.8735
 2144SOL     OW18067   3.025   0.921   4.248  0.2085  0.2566  0.2535
 2144SOL    HW118068   3.028   0.939   4.342 -1.1238 -1.2617  0.5851
 2144SOL    HW218069   2.931   0.940   4.240  0.5802  2.7159  1.4794
 2145SOL     OW18070   3.699   1.671   4.181 -0.3737 -0.2868 -0.0074
 2145SOL    HW118071   3.660   1.694   4.266 -0.3202 -1.1244  0.2504
 2145SOL    HW218072   3.621   1.664   4.127  0.5566  1.7955 -1.5944
 2146SOL     OW18073   0.100   0.420   6.048 -0.0349  0.2527  0.2361
 2146SOL    HW118074   0.136   0.431   5.960 -1.0554  0.4027 -0.1554
 2146SOL    HW218075   0.130   0.490   6.105  1.3159 -2.0448  2.3711
 2147SOL     OW18076   1.657   0.959   2.746  0.9299  0.0683  0.2308
 2147SOL    HW118077   1.639   0.921   2.832 -4.8823 -1.2584 -1.5571
 2147SOL    HW218078   1.750   0.942   2.735  0.7773  0.3139 -1.4490
 2148SOL     OW18079   1.197   2.545   2.082  0.1960  0.1590 -0.2981
 2148SOL    HW118080   1.244   2.610   2.134  1.0622 -1.2640  0.6954
 2148SOL    HW218081   1.271   2.493   2.050  1.1047  0.4692  1.3233
 2149SOL     OW18082   2.542   4.531   4.981  0.2758  0.2414 -0.2148
 2149SOL    HW118083   2.572   4.528   5.072 -1.1966 -1.6458  0.2210
 2149SOL    HW218084   2.575   4.447   4.949 -2.5863 -1.1825  0.5451
 2150SOL     OW18085   0.005   4.392   3.257 -0.1552  0.0142 -0.1529
 2150SOL    HW118086   0.100   4.384   3.260 -0.2520 -0.7821  0.7380
 2150SOL    HW218087   4.735   4.430   3.169 -1.5621  0.5193  0.1858
 2151SOL     OW18088   2.427   0.938  14.966  0.4897 -0.5332 -0.2876
 2151SOL    HW118089   2.512   0.925  14.925  0.0455 -0.1217 -1.3326
 2151SOL    HW218090   2.436   1.032  14.986  0.5768  0.0326 -3.0669
 2152SOL     OW18091   2.922   3.314   1.267  0.3371 -0.1797 -0.0611
 2152SOL    HW118092   2.880   3.310   1.181  0.8034  3.3740 -0.4675
 2152SOL    HW218093   2.993   3.251   1.256 -0.5661 -1.2927  0.4334
 2153SOL     OW18094   1.749   0.728  15.409  0.0798  0.2291  0.4988
 2153SOL    HW118095   1.842   0.730  15.430  0.3403  2.1672 -0.8228
 2153SOL    HW218096   1.742   0.706  15.316  2.6529  1.3058  0.0545
 2154SOL     OW18097   2.878   0.013   0.544 -0.4262  0.0599 -0.3223
 2154SOL    HW118098   2.887   0.008   0.639  0.3821 -1.0976 -0.4639
 2154SOL    HW218099   2.907   4.665   0.514  0.0057  0.6422 -1.6128
 2155SOL     OW18100   1.964   4.323  14.073  0.3084  0.5010  0.3733
 2155SOL    HW118101   1.878   4.324  14.032 -0.8025  1.9439  2.7077
 2155SOL    HW218102   2.020   4.266  14.020 -0.7565 -0.3445  0.1779
 2156SOL     OW18103   2.270   0.105   7.770  0.1790 -0.4431  0.3273
 2156SOL    HW118104   2.347   0.091   7.825  0.5585  0.5865  0.0615
 2156SOL    HW218105   2.273   0.201   7.772  1.1244 -0.4424 -0.8498
 2157SOL     OW18106   1.957   3.285  17.505 -0.5154 -0.4574 -0.0006
 2157SOL    HW118107   1.878   3.307  17.456 -1.3888  0.0503  1.6352
 2157SOL    HW218108   2.015   3.361  17.497 -0.8739 -0.3091 -1.1934
 2158SOL     OW18109   0.167   3.336   8.205 -0.2224 -0.2839  0.3606
 2158SOL    HW118110   0.162   3.257   8.151 -0.0979  0.9107 -1.4291
 2158SOL    HW218111   0.246   3.321   8.257  0.1933  2.6400  0.5837
 2159SOL     OW18112   0.261   2.354   2.922 -0.0120 -0.1949 -0.0857
 2159SOL    HW118113   0.241   2.339   2.830  0.6044  0.7334 -0.3684
 2159SOL    HW218114   0.202   2.288   2.960 -0.7351  0.5796  0.1257
 2160SOL     OW18115   4.299   0.975   1.389 -0.2003 -0.1603  0.7451
 2160SOL    HW118116   4.232   0.937   1.332 -0.5578  0.9263  0.4474
 2160SOL    HW218117   4.260   1.057   1.418 -0.2403  0.5669 -1.4053
 2161SOL     OW18118   4.628   2.868   1.744  0.1410  0.0745  0.0626
 2161SOL    HW118119   4.708   2.889   1.793 -0.4243  0.2069  0.9329
 2161SOL    HW218120   4.620   2.775   1.765 -1.5481  0.2221  0.1020
 2162SOL     OW18121   2.854   3.106   9.241 -0.1263  0.0876 -0.4148
 2162SOL    HW118122   2.898   3.178   9.197 -0.2217  0.3822 -0.0316
 2162SOL    HW218123   2.777   3.092   9.186  0.3759  1.2701 -1.4254
 2163SOL     OW18124   3.230   2.172   9.654 -0.3504  0.0593  0.5567
 2163SOL    HW118125   3.279   2.177   9.572  2.4986  0.7910  2.2969
 2163SOL    HW218126   3.304   2.185   9.714 -0.1674  0.3437  0.2688
 2164SOL     OW18127   0.880   2.910   7.244 -0.3567  0.2240  0.2204
 2164SOL    HW118128   0.872   2.895   7.338  1.1976 -1.6396  0.0502
 2164SOL    HW218129   0.797   2.958   7.232 -0.4826  0.0503  0.3977
 2165SOL     OW18130   4.672   1.090   2.573 -0.0431  0.2473  0.3078
 2165SOL    HW118131   4.633   1.092   2.661 -1.1603  3.2431 -0.2662
 2165SOL    HW218132   0.001   1.158   2.576 -1.3524  1.4571  2.0975
 2166SOL     OW18133   0.472   2.875   5.159  0.5785 -0.8863 -0.4033
 2166SOL    HW118134   0.524   2.897   5.081  0.3781  2.4687  0.4075
 2166SOL    HW218135   0.442   2.787   5.134  0.6720 -0.6983 -1.1901
 2167SOL     OW18136   3.896   0.770   2.797  0.2347  0.1983 -0.4186
 2167SOL    HW118137   3.877   0.855   2.756  0.5718  0.5356  0.1166
 2167SOL    HW218138   3.914   0.796   2.888 -0.7533  0.1577 -0.2077
 2168SOL     OW18139   2.907   3.235  14.855  0.0156 -0.0105 -0.1815
 2168SOL    HW118140   2.895   3.151  14.900 -3.9906  0.6701 -0.0435
 2168SOL    HW218141   2.824   3.274  14.883  0.1871  1.4785 -1.7430
 2169SOL     OW18142   0.091   0.764   1.942 -0.2926 -0.0192  0.1978
 2169SOL    HW118143   0.063   0.828   1.876  0.9505 -1.4843 -1.7501
 2169SOL    HW218144   0.107   0.684   1.892  0.9965 -1.3689  2.7998
 2170SOL     OW18145   2.869   2.287  10.145 -0.2302  0.0251  0.0118
 2170SOL    HW118146   2.822   2.303  10.227 -0.3252 -2.4235  0.4489
 2170SOL    HW218147   2.850   2.370  10.102 -1.4054 -0.6910 -0.8365
 2171SOL     OW18148   1.256   2.788   8.001  0.2318 -0.6047 -0.3709
 2171SOL    HW118149   1.345   2.812   8.027 -0.9553  2.2469  1.0878
 2171SOL    HW218150   1.283   2.750   7.917  0.2032 -0.5615 -0.3996
 2172SOL     OW18151   3.796   3.361  10.305 -0.0431  0.2677 -0.4182
 2172SOL    HW118152   3.785   3.338  10.397  2.8937  2.0437  0.3820
 2172SOL    HW218153   3.706   3.352  10.274  0.5146  0.3028 -2.0748
 2173SOL     OW18154   1.856   4.656   8.269 -0.0290  0.0302 -0.0680
 2173SOL    HW118155   1.815   4.615   8.193  0.9364 -3.3329  1.2079
 2173SOL    HW218156   1.790   4.715   8.305  0.6479  0.6909  0.0848
 2174SOL     OW18157   2.415   2.842   2.979  0.0769 -0.0758 -0.0993
 2174SOL    HW118158   2.452   2.930   2.969  0.2349 -0.0727  0.4918
 2174SOL    HW218159   2.433   2.823   2.887 -1.4050 -1.1174 -0.1811
 2175SOL     OW18160   0.133   0.143   3.184  0.1603  0.1086  0.3612
 2175SOL    HW118161   0.053   0.180   3.222 -2.0395 -2.3001 -1.9269
 2175SOL    HW218162   0.187   0.126   3.261 -0.1278  1.0608  0.7728
 2176SOL     OW18163   3.259   1.993  13.479 -0.2595 -0.1723  0.3551
 2176SOL    HW118164   3.274   1.995  13.573 -1.5903  2.2814  0.5107
 2176SOL    HW218165   3.333   1.952  13.434 -2.8083 -1.5387 -2.6302
 2177SOL     OW18166   0.911   0.945   5.046  0.4449 -0.0846 -0.1690
 2177SOL    HW118167   0.920   0.993   4.964  0.6102 -0.9742 -0.6600
 2177SOL    HW218168   0.836   0.985   5.090  0.2528  1.6623 -2.0931
 2178SOL     OW18169   0.550   1.697   2.524  0.7189 -0.4793 -0.3003
 2178SOL    HW118170   0.550   1.666   2.615  0.2702 -0.2945 -0.2378
 2178SOL    HW218171   0.512   1.785   2.528 -0.2582 -0.9139 -0.0715
 2179SOL     OW18172   2.984   3.112  11.955 -0.0804  0.6791 -0.1130
 2179SOL    HW118173   3.016   3.053  11.886 -1.8171  0.3578 -0.6561
 2179SOL    HW218174   3.069   3.121  11.998 -0.7853 -1.6976  1.7753
 2180SOL     OW18175   0.333   3.529  13.565 -0.7259  0.4571  0.1133
 2180SOL    HW118176   0.252   3.480  13.548  0.0040 -0.5225 -0.5349
 2180SOL    HW218177   0.356   3.484  13.646  0.8787  0.1612 -0.5022
 2181SOL     OW18178   3.642   0.406   4.706 -0.1349 -0.3919 -0.5512
 2181SOL    HW118179   3.711   0.341   4.690  0.5389 -0.0497  0.9209
 2181SOL    HW218180   3.566   0.386   4.651 -1.0726 -1.1709  1.0167
 2182SOL     OW18181   2.817   3.111   4.659  0.2325 -0.0925  0.0934
 2182SOL    HW118182   2.908   3.085   4.671 -0.5981 -2.2272  1.8062
 2182SOL    HW218183   2.811   3.143   4.569  1.8384  0.8605  0.3103
 2183SOL     OW18184   1.335   1.974   2.443 -0.5132  0.0351 -0.1160
 2183SOL    HW118185   1.336   1.960   2.538  0.1217 -1.8735 -0.3934
 2183SOL    HW218186   1.242   1.961   2.423  0.0045 -1.3662 -1.6184
 2184SOL     OW18187   4.713   2.849   6.263 -0.1416 -0.6868  0.3088
 2184SOL    HW118188   0.011   2.915   6.323 -2.4841  0.0203  0.9156
 2184SOL    HW218189   4.681   2.785   6.326 -1.1704 -1.4024 -0.9415
 2185SOL     OW18190   1.486   0.937  15.749  0.3803  0.3705 -0.0972
 2185SOL    HW118191   1.562   0.879  15.748 -0.8123 -1.2418  0.5851
 2185SOL    HW218192   1.531   1.019  15.729  0.6993  0.2052 -0.0499
 2186SOL     OW18193   2.647   2.291   3.688 -0.0817 -0.0835 -0.4650
 2186SOL    HW118194   2.563   2.264   3.726 -1.1464  2.3581 -1.0590
 2186SOL    HW218195   2.627   2.315   3.598  1.3576 -3.8454 -1.7467
 2187SOL     OW18196   1.703   3.558   5.568  0.3136 -0.0242 -0.2280
 2187SOL    HW118197   1.687   3.506   5.646  1.9687  0.9440  0.7649
 2187SOL    HW218198   1.796   3.580   5.579 -0.7575  3.8198  1.0054
 2188SOL     OW18199   2.241   2.578  17.097 -0.7807  0.5280  0.2116
 2188SOL    HW118200   2.327   2.550  17.064 -0.4454  0.0881  1.4694
 2188SOL    HW218201   2.245   2.674  17.088 -2.2616  0.4138 -1.6209
 2189SOL     OW18202   4.144   3.487   6.884  0.2218  0.3380  0.3458
 2189SOL    HW118203   4.060   3.533   6.885  0.0739  0.0562  1.4220
 2189SOL    HW218204   4.131   3.393   6.894 -1.2359  0.4515 -0.4999
 2190SOL     OW18205   0.466   0.547   8.690 -0.4264 -0.0160 -0.0754
 2190SOL    HW118206   0.455   0.467   8.640 -2.5070 -0.4697  1.0816
 2190SOL    HW218207   0.436   0.515   8.775  1.5263 -1.8655 -0.1060
 2191SOL     OW18208   0.482   3.665   6.090  0.5837 -0.4187 -0.3418
 2191SOL    HW118209   0.437   3.736   6.045 -1.6587 -2.0214 -0.6561
 2191SOL    HW218210   0.509   3.704   6.173  0.6530  1.3782 -1.2137
 2192SOL     OW18211   2.389   0.300  16.405 -0.6048 -0.3461  0.0991
 2192SOL    HW118212   2.427   0.387  16.396 -0.2922 -0.7551 -2.6166
 2192SOL    HW218213   2.467   0.247  16.423  0.1014  0.4314 -0.6896
 2193SOL     OW18214   1.317   4.373  14.213  1.4076 -0.4194 -0.2504
 2193SOL    HW118215   1.276   4.293  14.247 -0.5021  0.1626 -1.2161
 2193SOL    HW218216   1.263   4.437  14.258  1.7726 -1.5860  1.8523
 2194SOL     OW18217   1.664   3.209  11.250 -0.3035  0.3811  0.4759
 2194SOL    HW118218   1.745   3.239  11.209 -0.8198  3.2886  1.5841
 2194SOL    HW218219   1.594   3.216  11.185 -1.6644 -1.7991  1.6932
 2195SOL     OW18220   2.212   2.831   0.876  0.6381 -0.4613  0.2803
 2195SOL    HW118221   2.261   2.753   0.851 -0.1394 -0.4214 -1.3817
 2195SOL    HW218222   2.282   2.882   0.915 -0.5988  1.5075 -0.0961
 2196SOL     OW18223   3.589   4.057   2.134 -0.0790 -0.4740  0.1349
 2196SOL    HW118224   3.598   4.094   2.222 -1.0459 -1.4528  0.6408
 2196SOL    HW218225   3.499   4.082   2.114  0.3750  0.8717 -0.2752
 2197SOL     OW18226   4.069   1.933  11.788 -0.1033 -0.4264  0.2139
 2197SOL    HW118227   4.027   2.008  11.745  0.3896  0.2294  0.8744
 2197SOL    HW218228   3.989   1.882  11.775 -0.7640  0.7909 -0.5455
 2198SOL     OW18229   4.284   0.001   6.123 -0.4254  0.2884 -0.2863
 2198SOL    HW118230   4.263   0.084   6.080 -2.5715 -0.3033 -0.3934
 2198SOL    HW218231   4.376   0.021   6.142  0.1073 -0.2213 -2.3457
 2199SOL     OW18232   4.576   4.317   6.575  0.1302 -0.2345 -0.1225
 2199SOL    HW118233   4.600   4.263   6.651  1.5531  0.3553 -0.1527
 2199SOL    HW218234   4.639   4.388   6.583 -0.5924  0.7130 -2.8351
 2200SOL     OW18235   0.063   3.128  11.383 -0.1602  0.3124  0.5804
 2200SOL    HW118236   0.042   3.038  11.410  3.9827 -0.6619  0.6747
 2200SOL    HW218237   0.059   3.126  11.288 -1.4516 -1.0429  0.6567
 2201SOL     OW18238   4.631   2.656   2.694 -0.3826  0.1831 -0.3653
 2201SOL    HW118239   4.571   2.725   2.723 -0.6025 -1.1565  2.4159
 2201SOL    HW218240   4.590   2.634   2.610 -2.0236  1.7340  0.0179
 2202SOL     OW18241   1.680   2.301   2.980  0.1842  0.0578 -0.7379
 2202SOL    HW118242   1.715   2.218   2.946 -0.6031 -0.1574 -1.0244
 2202SOL    HW218243   1.643   2.281   3.066  0.1746 -1.3297 -1.0701
 2203SOL     OW18244   0.527   1.543   7.817 -0.0163  0.3557  0.7727
 2203SOL    HW118245   0.449   1.497   7.848  0.6176 -1.5208 -0.3933
 2203SOL    HW218246   0.537   1.605   7.889  0.2381 -0.6728  1.6370
 2204SOL     OW18247   3.602   1.964   2.909  0.3391 -0.3492 -0.2136
 2204SOL    HW118248   3.666   1.893   2.914 -0.0862 -0.7726 -0.9779
 2204SOL    HW218249   3.527   1.935   2.960  1.2450  1.6754  2.2865
 2205SOL     OW18250   1.645   0.061   5.205 -0.3349  0.6683 -0.0534
 2205SOL    HW118251   1.618   4.709   5.227  0.6435  0.2754 -0.4226
 2205SOL    HW218252   1.680   0.089   5.290 -1.2641 -2.0490  1.2449
 2206SOL     OW18253   1.757   2.661   5.456 -0.8159 -0.3979  0.1127
 2206SOL    HW118254   1.791   2.584   5.500 -0.4618  0.0146  0.5694
 2206SOL    HW218255   1.674   2.638   5.415  0.3895  0.7639 -2.9901
 2207SOL     OW18256   1.231   2.621   8.844 -0.8653  0.4975  0.0409
 2207SOL    HW118257   1.187   2.538   8.861 -2.0019  1.4209  1.7039
 2207SOL    HW218258   1.306   2.605   8.902 -0.2671  2.1108 -0.2855
 2208SOL     OW18259   0.317   1.157   2.537 -0.4450  0.2900  0.1269
 2208SOL    HW118260   0.243   1.204   2.574  1.1009  1.5390  1.6421
 2208SOL    HW218261   0.310   1.072   2.582  3.7249 -1.2501 -2.0655
 2209SOL     OW18262   1.556   0.483   4.477  0.3563  0.2306  0.1399
 2209SOL    HW118263   1.481   0.485   4.418 -0.5718  0.4349  1.3130
 2209SOL    HW218264   1.628   0.492   4.415  0.5285 -1.6076  0.0629
 2210SOL     OW18265   4.704   3.153   1.168  0.5828  0.2739 -0.0625
 2210SOL    HW118266   0.032   3.172   1.101 -0.1135 -1.5475 -1.2834
 2210SOL    HW218267   4.666   3.238   1.189  1.4535  1.1201 -1.9538
 2211SOL     OW18268   2.308   0.713   9.202  0.4351 -0.0832  0.0662
 2211SOL    HW118269   2.331   0.642   9.263  0.9635 -0.9780 -1.1904
 2211SOL    HW218270   2.322   0.791   9.257  0.5896  0.8604 -1.3138
 2212SOL     OW18271   3.852   1.906  14.879 -0.1221  0.0788 -0.0651
 2212SOL    HW118272   3.941   1.881  14.854 -0.1190 -0.3166  0.3524
 2212SOL    HW218273   3.826   1.844  14.947  0.9912 -1.2231 -0.8322
 2213SOL     OW18274   4.162   1.133   9.459 -0.0348 -0.1819  0.2175
 2213SOL    HW118275   4.092   1.085   9.505  0.4899  0.1695  1.3857
 2213SOL    HW218276   4.233   1.071   9.476  0.2632 -0.4749 -2.1960
 2214SOL     OW18277   2.375   1.141   3.060  0.6126 -0.2664  0.1685
 2214SOL    HW118278   2.358   1.047   3.051  0.5811 -0.3061  0.6249
 2214SOL    HW218279   2.305   1.168   3.121  0.2802 -1.6222  0.4079
 2215SOL     OW18280   0.183   3.474  16.396  0.2328 -0.2348 -0.0793
 2215SOL    HW118281   0.267   3.483  16.442  0.2192 -0.5360  0.0014
 2215SOL    HW218282   0.202   3.499  16.306 -0.6031  0.8096  0.0288
 2216SOL     OW18283   3.083   3.083   8.981  0.2184  0.0300  0.2610
 2216SOL    HW118284   3.135   3.010   8.946 -1.0577 -1.0328  0.5745
 2216SOL    HW218285   3.043   3.117   8.901  0.6251  2.1817  0.9705
 2217SOL     OW18286   0.437   1.009   8.499 -0.2782 -0.7189  0.3046
 2217SOL    HW118287   0.464   0.943   8.563  0.5313  1.9828  2.7811
 2217SOL    HW218288   0.345   1.017   8.522 -0.3433 -1.0663  0.1550
 2218SOL     OW18289   2.923   3.967   8.955 -0.2560  0.4610  0.1438
 2218SOL    HW118290   2.879   3.935   9.034 -2.2294 -0.6052 -1.3903
 2218SOL    HW218291   3.009   3.933   8.981 -0.6252  1.5675  2.7783
 2219SOL     OW18292   4.111   0.158  13.840  0.4647  0.0341  0.1369
 2219SOL    HW118293   4.135   0.102  13.767 -2.6467 -0.9607 -0.1255
 2219SOL    HW218294   4.161   0.239  13.829  0.7431 -0.2556 -0.6700
 2220SOL     OW18295   3.244   2.578   4.075 -0.4419 -0.0122  0.7270
 2220SOL    HW118296   3.203   2.494   4.094 -1.2310  0.0463 -0.7188
 2220SOL    HW218297   3.336   2.553   4.065 -0.3195  0.2633  1.1278
 2221SOL     OW18298   0.158   0.853   6.525 -0.0144  0.4055  0.3467
 2221SOL    HW118299   0.076   0.806   6.543 -0.0208  0.3018  0.0451
 2221SOL    HW218300   0.127   0.908   6.453 -1.7040  1.8318  2.1584
 2222SOL     OW18301   3.406   0.341   5.083 -0.4113 -0.0915 -0.5291
 2222SOL    HW118302   3.372   0.261   5.042 -0.9126 -0.2545  0.2049
 2222SOL    HW218303   3.356   0.347   5.164  2.7129 -0.9411  1.4446
 2223SOL     OW18304   2.737   3.879   7.372  0.3903  0.1132 -0.1703
 2223SOL    HW118305   2.643   3.885   7.354  0.7604 -0.3507 -2.3225
 2223SOL    HW218306   2.737   3.822   7.449 -1.9323  1.8276  1.1015
 2224SOL     OW18307   3.199   4.015   7.834  0.1191  0.0595  0.0324
 2224SOL    HW118308   3.283   4.038   7.794  0.3402 -0.0863  0.4135
 2224SOL    HW218309   3.144   4.093   7.824  0.2032  0.2150  0.7389
 2225SOL     OW18310   0.122   2.821   2.063  0.1863  0.7624  0.2391
 2225SOL    HW118311   0.187   2.805   1.994  0.6609  1.0898  0.6119
 2225SOL    HW218312   0.176   2.811   2.141 -3.3861  2.9724  3.0099
 2226SOL     OW18313   4.651   2.774   3.846 -0.1434 -0.1846  0.2087
 2226SOL    HW118314   0.007   2.769   3.867  0.5430  1.6972 -2.3656
 2226SOL    HW218315   4.636   2.725   3.766 -0.0554  0.9154 -0.4850
 2227SOL     OW18316   2.441   3.304   4.188  0.0091 -0.6411  0.2369
 2227SOL    HW118317   2.522   3.335   4.149 -0.6050  0.9777  0.2402
 2227SOL    HW218318   2.409   3.226   4.141 -0.0420  0.3736 -1.4201
 2228SOL     OW18319   1.883   1.375   3.597 -0.9749  0.5351 -0.1350
 2228SOL    HW118320   1.926   1.454   3.629  0.1469 -0.1772  0.1272
 2228SOL    HW218321   1.898   1.313   3.669 -0.1509 -0.0441 -0.8062
 2229SOL     OW18322   1.476   1.830   1.757  0.0672  0.2933  0.3384
 2229SOL    HW118323   1.527   1.909   1.747 -1.0930  1.1700  1.2710
 2229SOL    HW218324   1.404   1.834   1.695  1.3701 -1.8555 -1.3117
 2230SOL     OW18325   3.031   1.717   2.871  0.4862  0.0413  0.5504
 2230SOL    HW118326   2.973   1.710   2.947  0.5840 -0.4836  0.5759
 2230SOL    HW218327   2.972   1.740   2.799  0.2524  0.9249  1.0295
 2231SOL     OW18328   1.675   0.139  13.245 -0.0415 -0.0801 -0.1483
 2231SOL    HW118329   1.734   0.128  13.170 -0.3235  1.4196 -0.5990
 2231SOL    HW218330   1.708   0.218  13.288 -2.7823  1.6104 -1.1296
 2232SOL     OW18331   4.608   3.357   6.355  0.1539  0.1110 -0.0751
 2232SOL    HW118332   4.555   3.278   6.346  3.5232 -2.0062 -1.3816
 2232SOL    HW218333   4.648   3.349   6.269 -3.0344  1.2589 -1.6679
 2233SOL     OW18334   0.364   4.382   9.071 -0.3302 -0.4703 -0.2312
 2233SOL    HW118335   0.416   4.461   9.087 -1.1499 -0.3075  1.7069
 2233SOL    HW218336   0.428   4.315   9.094 -1.2617 -0.3304  2.8140
 2234SOL     OW18337   3.380   1.132   0.727  0.1257 -0.4996 -0.2401
 2234SOL    HW118338   3.344   1.127   0.639  0.4117  3.1093 -0.5623
 2234SOL    HW218339   3.464   1.163   0.694 -0.8429  1.5949 -0.7589
 2235SOL     OW18340   2.265   3.931  14.841  0.3503  0.2131 -0.5211
 2235SOL    HW118341   2.342   3.956  14.790  0.4168 -2.5525 -1.7927
 2235SOL    HW218342   2.298   3.855  14.890 -0.2582  2.2834  3.0883
 2236SOL     OW18343   4.146   0.918   4.113 -0.2504  0.1647  0.0630
 2236SOL    HW118344   4.174   0.915   4.204  0.0518  0.5611 -0.0165
 2236SOL    HW218345   4.051   0.904   4.116 -0.3326  1.2052  1.7475
 2237SOL     OW18346   4.651   3.656   5.943  0.0328  0.3440  0.7749
 2237SOL    HW118347   4.578   3.709   5.975  2.6489  4.6259 -0.2647
 2237SOL    HW218348   4.699   3.657   6.027 -0.7580  1.1803  1.2181
 2238SOL     OW18349   4.085   1.553   8.986  0.2418 -0.4675  0.2394
 2238SOL    HW118350   4.020   1.576   9.053  0.3900 -1.6987  0.8253
 2238SOL    HW218351   4.086   1.631   8.931  0.3097 -0.6492 -0.0164
 2239SOL     OW18352   1.337   1.532   3.842 -0.6029 -0.1038 -0.2004
 2239SOL    HW118353   1.407   1.596   3.825  0.5547 -0.6181  2.5495
 2239SOL    HW218354   1.279   1.543   3.768  0.2384 -0.2181 -0.8811
 2240SOL     OW18355   4.313   4.149   7.937 -0.0064 -0.7661 -0.4219
 2240SOL    HW118356   4.261   4.094   7.879  0.6400 -1.0099 -0.7781
 2240SOL    HW218357   4.395   4.142   7.888 -0.6548 -0.3059 -1.5838
 2241SOL     OW18358   3.168   0.424   5.856  0.2886 -0.7655 -0.6165
 2241SOL    HW118359   3.203   0.351   5.906 -0.9085 -0.9038  0.0190
 2241SOL    HW218360   3.074   0.404   5.857  0.1887 -0.0163  4.3892
 2242SOL     OW18361   1.602   1.225   4.889 -0.4292 -0.3356  0.3446
 2242SOL    HW118362   1.559   1.198   4.808  0.4762 -0.5166 -0.0704
 2242SOL    HW218363   1.557   1.174   4.957  3.5469 -4.4498 -0.1796
 2243SOL     OW18364   1.875   3.455   8.497 -0.2338  0.0305  0.1443
 2243SOL    HW118365   1.958   3.429   8.458  0.0262  2.8289 -1.1387
 2243SOL    HW218366   1.886   3.550   8.498  1.4837 -0.1677 -0.3382
 2244SOL     OW18367   2.729   3.536  12.234  0.0912  0.6477 -0.1007
 2244SOL    HW118368   2.803   3.595  12.221 -0.3027  1.5334  1.7349
 2244SOL    HW218369   2.765   3.460  12.186 -1.3126 -1.0080  1.4870
 2245SOL     OW18370   1.858   3.030   6.566 -0.3636  0.5289 -0.3229
 2245SOL    HW118371   1.858   3.102   6.502  1.4821  2.6894  2.1070
 2245SOL    HW218372   1.776   2.988   6.542  0.1957 -1.2651  0.8619
 2246SOL     OW18373   3.251   2.229   4.668  0.2627  0.6686 -0.0952
 2246SOL    HW118374   3.226   2.209   4.758  3.5948 -1.2052  0.4305
 2246SOL    HW218375   3.316   2.160   4.658 -0.8900 -0.3489 -0.6030
 2247SOL     OW18376   3.488   1.478   8.155  0.0594 -0.7665  0.2818
 2247SOL    HW118377   3.535   1.410   8.107  0.0773 -0.3132 -0.3418
 2247SOL    HW218378   3.493   1.457   8.248 -0.5741 -0.4773  0.3827
 2248SOL     OW18379   3.982   2.484   9.453 -0.1336  0.4093 -0.0677
 2248SOL    HW118380   4.004   2.419   9.520  2.5036  2.1039  0.7323
 2248SOL    HW218381   3.911   2.438   9.409 -1.0324  1.0340  0.7394
 2249SOL     OW18382   0.055   4.038   9.006 -0.2132 -0.1660  0.1630
 2249SOL    HW118383   0.026   4.127   8.984  0.0129 -0.0121  0.4776
 2249SOL    HW218384   4.709   3.993   8.991 -1.3892  2.2491 -0.6181
 2250SOL     OW18385   1.820   3.260   6.032 -0.2576  0.1661  0.3841
 2250SOL    HW118386   1.838   3.184   5.976 -1.7570  1.9177 -2.4753
 2250SOL    HW218387   1.724   3.260   6.039 -0.2974  1.2706 -0.2447
 2251SOL     OW18388   0.648   0.214  14.944 -0.2743  0.2544  0.0713
 2251SOL    HW118389   0.735   0.225  14.905 -0.1487 -0.4930  0.1472
 2251SOL    HW218390   0.669   0.287  15.003  0.7133  0.5132 -0.6000
 2252SOL     OW18391   3.171   0.820  14.780  0.3660  0.0490 -0.1213
 2252SOL    HW118392   3.218   0.815  14.697 -0.3152  1.6543 -0.6039
 2252SOL    HW218393   3.188   0.731  14.812 -0.8030  0.1958  0.9262
 2253SOL     OW18394   4.503   1.313   9.739  0.0752 -0.4541 -0.7574
 2253SOL    HW118395   4.557   1.234   9.738  1.8182  0.7130  1.1222
 2253SOL    HW218396   4.557   1.380   9.696 -0.3750 -0.5696 -1.5046
 2254SOL     OW18397   1.591   3.459   8.459  0.1410 -0.2166  0.0446
 2254SOL    HW118398   1.570   3.366   8.453 -1.4826  0.1113  0.5373
 2254SOL    HW218399   1.681   3.446   8.489  0.2153 -1.2701 -0.6447
 2255SOL     OW18400   2.297   1.741   0.441  0.0328 -0.0951 -0.3002
 2255SOL    HW118401   2.230   1.676   0.460  0.7096 -0.9537 -0.8490
 2255SOL    HW218402   2.375   1.685   0.450  1.1074  1.4892  0.1552
 2256SOL     OW18403   0.537   1.778   4.077 -0.2453 -0.1948  0.0675
 2256SOL    HW118404   0.575   1.857   4.117 -0.3586 -0.6097  0.9931
 2256SOL    HW218405   0.613   1.726   4.051 -1.0368 -0.9520 -0.6951
 2257SOL     OW18406   2.185   0.379  17.019 -0.6605  0.3595 -0.6779
 2257SOL    HW118407   2.090   0.375  17.025 -0.6997  1.8606 -0.2638
 2257SOL    HW218408   2.183   0.369  16.924 -1.1818 -1.0414 -0.5194
 2258SOL     OW18409   1.266   2.593   3.975 -0.2321 -0.2911 -0.1091
 2258SOL    HW118410   1.220   2.576   4.057  1.5488  3.7175  1.6890
 2258SOL    HW218411   1.331   2.662   3.985 -1.9108  1.2388  0.1509
 2259SOL     OW18412   4.109   1.946   2.279  0.0641 -0.3221  0.1376
 2259SOL    HW118413   4.090   1.941   2.186  0.9184 -2.6223  0.0991
 2259SOL    HW218414   4.186   2.003   2.286 -0.2373  0.1881 -0.7162
 2260SOL     OW18415   2.880   1.754   3.103  0.5147 -0.1073  0.1895
 2260SOL    HW118416   2.956   1.779   3.155  0.9007 -0.2735 -0.2950
 2260SOL    HW218417   2.848   1.681   3.156  2.7044  0.3251  2.1032
 2261SOL     OW18418   4.700   1.674   1.441 -0.1928  0.6883 -0.3737
 2261SOL    HW118419   4.695   1.596   1.386  1.1538  0.4704 -0.1902
 2261SOL    HW218420   4.698   1.636   1.529  1.2545  0.8069 -0.2967
 2262SOL     OW18421   3.778   2.741   3.375 -0.4944 -0.1610 -0.3510
 2262SOL    HW118422   3.804   2.727   3.284  3.4955 -0.4132  0.8454
 2262SOL    HW218423   3.716   2.669   3.383 -0.8840 -0.0370 -2.3950
 2263SOL     OW18424   2.841   1.559  16.642 -0.1906  0.2691 -0.1686
 2263SOL    HW118425   2.859   1.484  16.699  1.3730 -0.1137 -1.1693
 2263SOL    HW218426   2.801   1.520  16.564  1.6476 -1.5202 -0.2369
 2264SOL     OW18427   1.533   1.904   5.233 -0.0848 -0.2538  0.3768
 2264SOL    HW118428   1.535   1.824   5.181 -1.2230 -1.6553  2.5230
 2264SOL    HW218429   1.582   1.954   5.167  0.6168 -1.1564  0.2059
 2265SOL     OW18430   0.510   4.504  11.681 -0.2247  0.5319  0.0125
 2265SOL    HW118431   0.437   4.549  11.639 -0.9393 -0.6006  0.0780
 2265SOL    HW218432   0.493   4.522  11.773 -2.1865  1.1390 -0.4660
 2266SOL     OW18433   1.411   0.986   6.049  0.0616 -0.1365  0.5954
 2266SOL    HW118434   1.480   1.041   6.088 -2.5509  1.7785  2.5089
 2266SOL    HW218435   1.335   1.044   6.048 -1.8123 -2.5982  0.0423
 2267SOL     OW18436   2.756   3.175  13.197 -0.1096 -0.1261  0.2295
 2267SOL    HW118437   2.717   3.202  13.114 -0.4510  1.6508  0.9662
 2267SOL    HW218438   2.709   3.229  13.260 -2.3727  1.1603 -2.5662
 2268SOL     OW18439   1.394   3.206  14.044  0.8636  0.1599 -0.2344
 2268SOL    HW118440   1.454   3.190  14.118  0.3450 -0.3796  0.0707
 2268SOL    HW218441   1.327   3.142  14.067  1.2746 -0.6273 -1.2368
 2269SOL     OW18442   1.042   1.082   2.183 -0.7522  0.3740  0.6565
 2269SOL    HW118443   0.999   1.096   2.268 -0.3324  1.3958  0.7041
 2269SOL    HW218444   1.049   0.987   2.173  2.1552  0.6698 -0.0466
 2270SOL     OW18445   4.578   0.072   1.774  0.0079 -0.4276 -0.5451
 2270SOL    HW118446   4.654   0.113   1.732 -0.4824  0.5567 -0.4566
 2270SOL    HW218447   4.557   0.141   1.837 -0.9077 -0.0873 -1.2296
 2271SOL     OW18448   0.091   2.968   9.277  0.1291 -0.4618  0.2360
 2271SOL    HW118449   0.108   2.874   9.267 -0.0431 -0.3541 -1.0082
 2271SOL    HW218450   0.005   2.958   9.318  0.4274 -4.1599 -0.0072
 2272SOL     OW18451   3.651   1.522  12.796 -0.6063  0.1282 -0.1804
 2272SOL    HW118452   3.619   1.583  12.730 -1.6642  0.0692  0.2726
 2272SOL    HW218453   3.667   1.439  12.753 -0.7065 -0.6799  1.3474
 2273SOL     OW18454   0.240   4.692  12.391 -0.5459 -0.2522  0.2353
 2273SOL    HW118455   0.212   4.601  12.400 -2.8907  0.4574  0.2077
 2273SOL    HW218456   0.252   4.727  12.480 -0.5877 -1.9110  0.8959
 2274SOL     OW18457   0.925   3.236   6.660 -0.5285 -0.2196  0.1277
 2274SOL    HW118458   0.900   3.233   6.567 -1.0431 -0.6310  0.2787
 2274SOL    HW218459   0.965   3.321   6.677  0.4522 -0.3600 -1.4493
 2275SOL     OW18460   3.845   0.460   1.353 -0.0390  0.0359 -0.0654
 2275SOL    HW118461   3.912   0.528   1.360 -0.6674  0.7411 -0.8123
 2275SOL    HW218462   3.834   0.456   1.258  0.7461  0.9947 -0.1956
 2276SOL     OW18463   1.510   1.025   2.095  0.1176 -0.0731 -0.4374
 2276SOL    HW118464   1.456   0.956   2.056 -0.6792  0.1545  0.2630
 2276SOL    HW218465   1.444   1.086   2.129  0.7621 -0.4788  1.4832
 2277SOL     OW18466   0.016   0.673  11.295 -0.2173 -0.2414  0.0753
 2277SOL    HW118467   4.668   0.632  11.298 -0.4343  0.4524  3.4951
 2277SOL    HW218468   0.058   0.596  11.333 -0.0608  0.9907  2.3752
 2278SOL     OW18469   1.221   1.275  11.652 -0.1681  1.0710 -0.2827
 2278SOL    HW118470   1.262   1.320  11.726  2.3071 -1.3333 -0.2275
 2278SOL    HW218471   1.136   1.319  11.650 -0.7340  0.0548  1.7800
 2279SOL     OW18472   0.799   3.214   7.976  0.2086 -0.8397 -0.3499
 2279SOL    HW118473   0.828   3.302   7.997  0.6031 -1.0903  0.1656
 2279SOL    HW218474   0.758   3.174   8.052  1.6827 -3.7594 -1.0815
 2280SOL     OW18475   4.692   1.029   6.077 -0.2975  0.2214 -0.7010
 2280SOL    HW118476   4.643   1.012   5.997 -0.6659  0.2984 -0.4905
 2280SOL    HW218477   0.009   0.952   6.060  1.1884  1.0313  0.3836
 2281SOL     OW18478   2.441   4.074   7.316  0.3144 -0.3689 -0.4433
 2281SOL    HW118479   2.393   4.031   7.387 -0.4852 -0.7559 -1.2241
 2281SOL    HW218480   2.505   4.111   7.377  3.2778 -2.2636 -2.4421
 2282SOL     OW18481   3.126   1.978  15.238 -0.7045  0.3516  0.2052
 2282SOL    HW118482   3.210   1.959  15.196 -1.0068 -2.3306  0.7881
 2282SOL    HW218483   3.075   1.985  15.157  2.1882  0.2290 -1.6270
 2283SOL     OW18484   2.185   1.963  12.536  0.0787  0.0849  0.4568
 2283SOL    HW118485   2.207   2.028  12.602  0.1121  0.9695 -0.4110
 2283SOL    HW218486   2.268   1.918  12.523  0.3875  0.1974  2.0420
 2284SOL     OW18487   0.169   2.833   2.424  0.3623  0.6498  0.0929
 2284SOL    HW118488   0.089   2.786   2.401  2.2168 -1.3154 -2.2235
 2284SOL    HW218489   0.155   2.839   2.519 -0.5996 -0.9259  0.0443
 2285SOL     OW18490   0.172   1.257  16.157  0.3801  0.4081 -0.1280
 2285SOL    HW118491   0.083   1.222  16.150  1.2605 -1.8292 -0.1847
 2285SOL    HW218492   0.191   1.248  16.250  1.7769  2.2853 -0.2198
 2286SOL     OW18493   0.032   1.591  10.524 -0.5456  0.4218  0.7838
 2286SOL    HW118494   0.077   1.676  10.523 -0.8524  0.5791  0.4777
 2286SOL    HW218495   4.693   1.609  10.578 -2.6641 -1.9064 -1.4801
 2287SOL     OW18496   3.100   2.775   6.815 -0.6542 -0.0401 -0.4002
 2287SOL    HW118497   3.020   2.757   6.767 -1.2346  0.5684  0.3400
 2287SOL    HW218498   3.072   2.808   6.900  1.2274 -0.3870  0.3548
 2288SOL     OW18499   1.218   4.140   9.285  0.0536 -0.4438 -0.2679
 2288SOL    HW118500   1.297   4.127   9.338  0.6974  0.5480 -1.0040
 2288SOL    HW218501   1.179   4.054   9.301  2.1123 -1.4196 -0.4694
 2289SOL     OW18502   4.476   2.021  12.698  0.0425  0.3710 -0.1039
 2289SOL    HW118503   4.469   2.096  12.639  1.9135  1.6111  1.2287
 2289SOL    HW218504   4.496   1.952  12.634  0.1128  0.6543 -0.3901
 2290SOL     OW18505   3.194   2.923   7.965  0.1108  0.3185  0.2622
 2290SOL    HW118506   3.127   2.945   8.031 -0.4671  0.0179 -0.2257
 2290SOL    HW218507   3.254   2.994   7.986  0.6245  0.3542 -1.4101
 2291SOL     OW18508   1.468   4.200  14.866  0.1515  0.2210 -0.5665
 2291SOL    HW118509   1.458   4.182  14.772 -0.2771 -0.0509 -0.4670
 2291SOL    HW218510   1.451   4.294  14.866  0.6961  0.3195 -0.3343
 2292SOL     OW18511   4.336   3.273   4.332 -0.1515  0.0121  0.3568
 2292SOL    HW118512   4.342   3.355   4.283 -1.1305  0.9302  1.7666
 2292SOL    HW218513   4.242   3.270   4.353 -0.2520 -0.1266 -0.1072
 2293SOL     OW18514   1.153   3.757   7.129  0.0396  0.6135 -0.3048
 2293SOL    HW118515   1.216   3.802   7.186  0.6523  2.7715 -2.6697
 2293SOL    HW218516   1.217   3.727   7.063 -3.0086 -0.6736 -2.6806
 2294SOL     OW18517   4.678   2.460   7.947  0.1807  0.1966  0.7183
 2294SOL    HW118518   4.659   2.393   7.882 -2.5399  0.8643  0.8496
 2294SOL    HW218519   4.591   2.491   7.972  0.5451  2.0033 -0.1925
 2295SOL     OW18520   4.584   3.415   4.047  0.2247 -0.1770 -0.0182
 2295SOL    HW118521   4.553   3.458   4.126  1.1166 -1.6513  1.1259
 2295SOL    HW218522   4.540   3.331   4.054 -1.1647  0.4981 -0.7220
 2296SOL     OW18523   3.739   3.748   1.857  0.1934 -0.1562  0.0949
 2296SOL    HW118524   3.823   3.709   1.879  0.0261 -0.2840  0.5096
 2296SOL    HW218525   3.694   3.682   1.805  1.7080 -0.5729 -0.6711
 2297SOL     OW18526   2.860   1.688   5.924 -0.7846 -0.0268  1.2598
 2297SOL    HW118527   2.836   1.642   6.005 -0.5292 -0.4548  1.0931
 2297SOL    HW218528   2.955   1.675   5.932 -0.2405  1.5058 -3.1182
 2298SOL     OW18529   3.131   1.314   8.154  0.1309 -0.5615 -0.5898
 2298SOL    HW118530   3.056   1.288   8.100  0.6422 -1.8245 -0.6793
 2298SOL    HW218531   3.118   1.409   8.150 -1.4792 -0.7680 -0.3906
 2299SOL     OW18532   2.744   2.430   6.513  0.8840  0.2163  0.1331
 2299SOL    HW118533   2.710   2.499   6.570  1.0332  0.5689 -0.1962
 2299SOL    HW218534   2.807   2.392   6.574 -0.0537  0.4545  1.2401
 2300SOL     OW18535   0.961   3.741  17.633  0.2867  0.1604  0.1990
 2300SOL    HW118536   0.996   3.743  17.722 -0.6486 -1.4926  0.6026
 2300SOL    HW218537   0.876   3.783  17.652  0.0659 -1.2526  2.4138
 2301SOL     OW18538   0.493   1.452   4.500 -0.1423 -0.0797  0.1155
 2301SOL    HW118539   0.491   1.541   4.534  1.4486 -0.0057 -0.0126
 2301SOL    HW218540   0.428   1.448   4.430 -1.2310 -0.2556  1.1192
 2302SOL     OW18541   0.832   0.430   8.893  0.3638 -0.3444 -0.3698
 2302SOL    HW118542   0.828   0.515   8.938  0.2462  0.1516 -1.3198
 2302SOL    HW218543   0.766   0.441   8.824  1.1242 -1.1740 -1.2211
 2303SOL     OW18544   3.450   1.348   2.938  0.3142  0.3165 -0.5875
 2303SOL    HW118545   3.419   1.433   2.903 -2.1719 -0.5294 -0.4808
 2303SOL    HW218546   3.364   1.313   2.964  1.3179 -1.1513  0.7071
 2304SOL     OW18547   0.089   1.484   8.113  0.0943  0.2731 -0.0041
 2304SOL    HW118548   0.143   1.544   8.062 -1.9280 -0.0166 -2.4893
 2304SOL    HW218549   0.156   1.418   8.133  0.0428  0.2220  0.0004
 2305SOL     OW18550   0.410   4.552   5.817 -0.1944  0.2597  0.1341
 2305SOL    HW118551   0.380   4.588   5.900  1.0052 -0.7089  0.9910
 2305SOL    HW218552   0.474   4.620   5.796  0.8321 -1.6867 -2.9623
 2306SOL     OW18553   3.578   2.858   9.260  0.4786  1.0877 -0.3503
 2306SOL    HW118554   3.643   2.807   9.211 -2.2326 -2.0659 -0.5866
 2306SOL    HW218555   3.585   2.808   9.341 -0.4902  0.1140 -0.8748
 2307SOL     OW18556   1.250   1.722   6.046  0.2132 -0.0213 -0.0087
 2307SOL    HW118557   1.336   1.732   6.007  0.0511 -1.8014 -0.8491
 2307SOL    HW218558   1.277   1.721   6.138  1.0985  0.9068 -0.2654
 2308SOL     OW18559   0.370   0.722   2.418 -0.0185  0.3329  0.1913
 2308SOL    HW118560   0.307   0.752   2.353 -1.3168  0.3948  1.4795
 2308SOL    HW218561   0.439   0.788   2.405  0.4395 -0.0296  0.7529
 2309SOL     OW18562   1.547   0.307   8.252 -0.3127 -0.2438  0.5105
 2309SOL    HW118563   1.548   0.270   8.164  0.7935 -0.0385  0.4401
 2309SOL    HW218564   1.498   0.385   8.227 -0.2487  0.2349  1.8912
 2310SOL     OW18565   2.322   4.231  12.569 -0.1941 -0.0790 -0.2085
 2310SOL    HW118566   2.252   4.167  12.561 -0.1653 -0.0411 -0.7334
 2310SOL    HW218567   2.384   4.188  12.628  0.3109  0.9917  0.0486
 2311SOL     OW18568   0.246   4.327   6.513  0.5404 -0.2521  0.0048
 2311SOL    HW118569   0.180   4.283   6.459 -0.4344  1.2235 -0.0009
 2311SOL    HW218570   0.200   4.408   6.535 -0.8848 -1.0354 -0.0421
 2312SOL     OW18571   1.264   1.145   7.991  0.0908 -0.3795  0.2602
 2312SOL    HW118572   1.343   1.193   8.013  0.4753 -0.9966  0.2255
 2312SOL    HW218573   1.280   1.102   7.907  1.4173 -0.7750  0.7193
 2313SOL     OW18574   0.137   2.610   6.618  1.0050  0.5614  0.6623
 2313SOL    HW118575   0.199   2.683   6.607  0.3511  0.5509 -3.1098
 2313SOL    HW218576   0.162   2.564   6.538 -1.2098 -1.4739  1.1446
 2314SOL     OW18577   4.628   1.649   2.734  0.2549 -0.1152 -0.0168
 2314SOL    HW118578   4.568   1.672   2.663  0.2452  0.2749  0.1199
 2314SOL    HW218579   4.671   1.734   2.745 -1.7554  0.4701  3.0206
 2315SOL     OW18580   4.342   1.594   7.559 -0.4996  0.3627  0.1288
 2315SOL    HW118581   4.263   1.640   7.530  1.0514  2.9266 -0.0278
 2315SOL    HW218582   4.325   1.504   7.531 -0.8529 -0.4436  2.9967
 2316SOL     OW18583   0.683   3.465   5.666  0.5265 -0.3378 -0.6827
 2316SOL    HW118584   0.590   3.462   5.645  0.2628  2.4162  0.1526
 2316SOL    HW218585   0.704   3.543   5.614 -1.0656 -0.2879 -1.2582
 2317SOL     OW18586   3.469   1.452   9.305  0.3475 -0.3212  0.4146
 2317SOL    HW118587   3.410   1.527   9.309 -0.1550 -0.6937 -0.0356
 2317SOL    HW218588   3.520   1.485   9.230 -1.5630  0.1790 -0.6739
 2318SOL     OW18589   3.004   0.319   9.141  0.3793 -0.4471  0.1459
 2318SOL    HW118590   2.943   0.245   9.142  1.5098 -1.3869 -0.5969
 2318SOL    HW218591   3.045   0.310   9.228 -0.6999  1.3196  0.8341
 2319SOL     OW18592   3.879   3.214  13.742 -0.1955  0.0192 -0.0324
 2319SOL    HW118593   3.799   3.198  13.791 -1.0798 -3.2721 -2.5884
 2319SOL    HW218594   3.942   3.213  13.814 -0.3472 -1.5788  0.0776
 2320SOL     OW18595   4.723   2.596  17.006  0.3928  0.7109 -0.1558
 2320SOL    HW118596   0.063   2.650  17.017  1.3921 -0.8504  0.4366
 2320SOL    HW218597   4.665   2.646  17.063 -0.0750 -1.4071  1.2219
 2321SOL     OW18598   4.136   2.974   2.981 -0.2321  1.1163  0.4798
 2321SOL    HW118599   4.218   2.925   2.990  0.9190  2.8327 -0.8600
 2321SOL    HW218600   4.116   2.954   2.890 -0.1628 -0.2936  0.7632
 2322SOL     OW18601   2.214   3.014   9.897 -0.0680 -1.2564 -0.3449
 2322SOL    HW118602   2.124   2.981   9.897 -0.5350  0.0464 -1.4893
 2322SOL    HW218603   2.251   2.937   9.940 -1.8479 -0.9406  1.7734
 2323SOL     OW18604   3.716   3.082  10.300 -0.0852  0.3648  0.2126
 2323SOL    HW118605   3.744   3.101  10.210  0.4409 -2.0532 -0.1498
 2323SOL    HW218606   3.783   3.130  10.348  0.3240 -0.6087  0.6253
 2324SOL     OW18607   2.323   1.441   5.206 -0.5093  0.0065  0.5736
 2324SOL    HW118608   2.407   1.396   5.201 -0.3936  0.1204  1.4206
 2324SOL    HW218609   2.260   1.375   5.236 -0.0218 -0.2304  1.0708
 2325SOL     OW18610   2.635   2.259   9.673 -0.0706  0.5586  0.1722
 2325SOL    HW118611   2.562   2.235   9.732  0.4505  0.8643  0.9400
 2325SOL    HW218612   2.665   2.173   9.644 -1.0506 -0.0865  1.0603
 2326SOL     OW18613   4.528   1.801   7.337 -0.2859 -0.4639  0.4197
 2326SOL    HW118614   4.510   1.829   7.247  1.3612  1.2437  0.6500
 2326SOL    HW218615   4.437   1.796   7.367 -0.7145 -0.3341 -0.8496
 2327SOL     OW18616   4.034   0.748  17.492 -0.4555  0.2199 -0.0037
 2327SOL    HW118617   4.093   0.766  17.419  1.7018 -0.1388  1.6543
 2327SOL    HW218618   4.035   0.836  17.529 -0.9902  0.9506 -1.7304
 2328SOL     OW18619   2.615   1.080   5.003 -0.3340  0.3782  0.3777
 2328SOL    HW118620   2.564   1.086   4.923 -0.2202  0.0767  0.2825
 2328SOL    HW218621   2.590   0.991   5.027  1.8699 -0.4264 -0.3152
 2329SOL     OW18622   2.324   2.557   1.034 -0.0927 -0.0599  0.0094
 2329SOL    HW118623   2.338   2.626   1.098  1.3496 -0.1314 -0.2465
 2329SOL    HW218624   2.325   2.611   0.954 -2.2817  1.6559  1.1126
 2330SOL     OW18625   2.155   4.251   4.608 -0.6186  0.3291 -0.3618
 2330SOL    HW118626   2.206   4.174   4.634 -0.1991  0.5967 -0.4152
 2330SOL    HW218627   2.154   4.306   4.686  0.4580 -2.0641  1.3356
 2331SOL     OW18628   3.533   3.242  15.326  0.2263 -0.2525  0.0136
 2331SOL    HW118629   3.441   3.217  15.334  0.4941 -0.7436  1.5444
 2331SOL    HW218630   3.568   3.166  15.280  1.1254 -0.2351  0.6682
 2332SOL     OW18631   2.673   4.049   6.652  0.2940 -0.5854 -0.5564
 2332SOL    HW118632   2.613   3.983   6.617 -0.9687  1.2539 -1.8886
 2332SOL    HW218633   2.728   4.007   6.718 -0.1830 -0.4821 -0.0940
 2333SOL     OW18634   1.394   2.057   3.323  0.1029  0.1169 -0.3377
 2333SOL    HW118635   1.438   2.116   3.384  1.6554 -2.8081  1.3525
 2333SOL    HW218636   1.327   2.007   3.369  0.8388  0.3058  0.9204
 2334SOL     OW18637   2.520   1.346   4.623  0.3485  0.5918  0.2245
 2334SOL    HW118638   2.608   1.384   4.627 -0.3475  2.2023  0.0466
 2334SOL    HW218639   2.464   1.418   4.596  2.2710  2.2617  0.6486
 2335SOL     OW18640   3.616   3.881   7.684  0.3687  1.0221 -0.7023
 2335SOL    HW118641   3.689   3.849   7.631  0.4908  0.7210 -0.3475
 2335SOL    HW218642   3.561   3.803   7.693 -2.7917  3.2258 -0.9275
 2336SOL     OW18643   3.440   4.213   6.142  0.3303  0.2588 -0.4807
 2336SOL    HW118644   3.423   4.196   6.049 -0.2422  0.2519 -0.3734
 2336SOL    HW218645   3.384   4.152   6.189 -0.4443  0.2059 -1.4760
 2337SOL     OW18646   2.052   2.738   7.681 -0.3542  0.2352 -0.0426
 2337SOL    HW118647   1.989   2.756   7.611 -0.5284  1.9347  0.5369
 2337SOL    HW218648   2.133   2.766   7.638 -0.2815 -3.1396 -2.1567
 2338SOL     OW18649   4.452   0.096   4.513 -0.3666 -0.1401 -0.2150
 2338SOL    HW118650   4.388   0.053   4.456  1.4284 -2.1972 -0.6779
 2338SOL    HW218651   4.417   0.185   4.522  0.4246  0.1465 -0.0465
 2339SOL     OW18652   0.554   3.894   1.924 -0.3805  0.1687  0.1800
 2339SOL    HW118653   0.539   3.826   1.859  3.3144  0.4495 -1.0176
 2339SOL    HW218654   0.496   3.960   1.886  0.6930  1.9556  1.5866
 2340SOL     OW18655   0.594   3.923   2.392  0.1083 -0.1245  0.2610
 2340SOL    HW118656   0.661   3.857   2.373 -0.1174 -0.8406  1.9402
 2340SOL    HW218657   0.518   3.865   2.398 -0.6957  0.9253 -0.0312
 2341SOL     OW18658   3.725   3.170  13.956 -0.1566  0.3479 -0.1066
 2341SOL    HW118659   3.745   3.209  14.040  1.4435  1.2837 -0.9308
 2341SOL    HW218660   3.629   3.174  13.964 -0.0189 -0.2736  1.8413
 2342SOL     OW18661   0.074   4.602   7.845  0.4952 -0.0482  0.5344
 2342SOL    HW118662   0.046   4.675   7.900  0.9975 -0.0883  0.8427
 2342SOL    HW218663   0.158   4.634   7.811  0.4175  0.1546  0.5311
 2343SOL     OW18664   1.503   1.667   0.284 -0.2714  0.1297  0.0789
 2343SOL    HW118665   1.504   1.573   0.300  0.2747 -0.3822 -3.0212
 2343SOL    HW218666   1.518   1.702   0.372  0.8682 -0.5337  0.1469
 2344SOL     OW18667   4.105   0.343  14.480  0.2595 -0.7863  0.7683
 2344SOL    HW118668   4.097   0.350  14.385 -1.9785  1.8674  1.1665
 2344SOL    HW218669   4.039   0.279  14.506 -0.9680  1.0650  2.1940
 2345SOL     OW18670   0.567   3.875   0.186  0.4430  0.1000  0.3766
 2345SOL    HW118671   0.566   3.909   0.096  3.2082  1.9621  1.0353
 2345SOL    HW218672   0.477   3.899   0.206  0.8559  2.0144 -0.0517
 2346SOL     OW18673   1.667   2.005   6.569 -0.2591 -0.4104  0.1300
 2346SOL    HW118674   1.658   1.910   6.567  0.7842 -0.4831 -0.8955
 2346SOL    HW218675   1.730   2.022   6.499  0.6550 -2.2747  0.5341
 2347SOL     OW18676   1.447   1.797   9.118  0.4651 -0.1723 -0.1416
 2347SOL    HW118677   1.511   1.791   9.047  0.4809 -0.1472 -0.1298
 2347SOL    HW218678   1.496   1.796   9.201 -2.8029 -1.8198  1.7662
 2348SOL     OW18679   1.731   0.541   5.302  0.0813  0.0477 -0.0503
 2348SOL    HW118680   1.755   0.453   5.329 -1.5503  0.1853  1.8716
 2348SOL    HW218681   1.704   0.582   5.385 -0.0398 -1.6081  0.7212
 2349SOL     OW18682   2.426   2.170  16.233 -0.1878 -0.0684 -0.0348
 2349SOL    HW118683   2.382   2.124  16.305  1.2027 -1.1982  0.0893
 2349SOL    HW218684   2.483   2.229  16.282 -0.1929 -1.0673  1.1715
 2350SOL     OW18685   0.150   0.301   4.925 -0.6423  0.0905 -0.4958
 2350SOL    HW118686   0.194   0.235   4.980 -1.1066 -0.8154 -1.2121
 2350SOL    HW218687   0.195   0.278   4.844 -0.2063 -0.8548  0.0083
 2351SOL     OW18688   3.056   2.914  10.164  0.0117  0.0682  0.1626
 2351SOL    HW118689   3.072   2.889  10.073 -0.6980 -0.9660  0.3166
 2351SOL    HW218690   3.000   2.838  10.182 -1.0565  0.9929  0.7275
 2352SOL     OW18691   0.252   3.790   6.347  0.0572 -0.1473 -0.9018
 2352SOL    HW118692   0.342   3.814   6.370  1.2213 -2.2909 -3.2675
 2352SOL    HW218693   0.203   3.795   6.429  2.3185 -0.1216  0.4335
 2353SOL     OW18694   2.826   0.552   4.352  0.1374 -0.3590  0.2132
 2353SOL    HW118695   2.819   0.638   4.394  0.1550  0.5188 -1.5831
 2353SOL    HW218696   2.765   0.570   4.281  1.2647 -0.3084 -0.7509
 2354SOL     OW18697   2.225   3.779   7.690  0.1150 -0.6254  0.9796
 2354SOL    HW118698   2.130   3.766   7.684  0.1955 -1.2718  1.1366
 2354SOL    HW218699   2.260   3.691   7.705  1.4057 -0.5075 -1.3297
 2355SOL     OW18700   0.238   1.671   7.979  0.1947 -0.4150  0.3663
 2355SOL    HW118701   0.235   1.674   7.883  0.5084  0.9329  0.3955
 2355SOL    HW218702   0.254   1.762   8.005 -3.4512 -0.4894  2.7535
 2356SOL     OW18703   2.621   2.601  14.751 -0.8501  0.0494  0.0928
 2356SOL    HW118704   2.585   2.643  14.673 -2.5977 -2.2000 -0.2983
 2356SOL    HW218705   2.649   2.514  14.723 -1.5517  0.1338 -0.8843
 2357SOL     OW18706   0.149   3.641  10.053 -0.3251 -0.3419  0.0990
 2357SOL    HW118707   0.183   3.647  10.143 -0.0362 -1.3377  0.0590
 2357SOL    HW218708   0.231   3.603  10.021  0.1105 -0.9227  1.8668
 2358SOL     OW18709   2.913   1.755   9.013 -0.3242 -0.1073  0.0005
 2358SOL    HW118710   2.960   1.677   9.041  0.3742  0.1871 -0.3537
 2358SOL    HW218711   2.932   1.753   8.919 -0.2550  1.0423 -0.0136
 2359SOL     OW18712   4.012   0.845  16.483  0.4363 -0.3440 -0.4396
 2359SOL    HW118713   4.019   0.760  16.440  0.4769 -1.1051  1.0817
 2359SOL    HW218714   4.034   0.833  16.575 -0.4492  1.4054  0.0070
 2360SOL     OW18715   2.640   2.645   3.762  0.4286  0.1262 -0.4555
 2360SOL    HW118716   2.676   2.559   3.739 -0.6199  0.0977 -1.9459
 2360SOL    HW218717   2.674   2.707   3.699  1.2369  1.1774  1.0107
 2361SOL     OW18718   3.776   1.930   4.365 -0.5072  0.4616  0.6341
 2361SOL    HW118719   3.691   1.885   4.370  1.0981 -2.5996  0.0794
 2361SOL    HW218720   3.828   1.853   4.342 -2.7980 -1.0366  0.4025
 2362SOL     OW18721   1.131   3.788  14.057  0.3535  0.1877 -0.0227
 2362SOL    HW118722   1.085   3.765  13.977 -0.1180 -0.4647  0.4356
 2362SOL    HW218723   1.076   3.855  14.098 -0.7280 -0.9122  0.3140
 2363SOL     OW18724   3.570   1.722   2.001  0.2457  0.4020 -0.2953
 2363SOL    HW118725   3.529   1.636   2.006  0.8894  0.1408  0.4092
 2363SOL    HW218726   3.558   1.744   2.093 -2.1797  1.7258 -0.9177
 2364SOL     OW18727   2.136   1.448  10.241 -0.3334  0.1357 -0.1224
 2364SOL    HW118728   2.067   1.412  10.296 -1.8357  0.1917 -1.9889
 2364SOL    HW218729   2.198   1.375  10.240 -1.2789 -0.6777  2.6104
 2365SOL     OW18730   3.285   2.800  15.096  0.1632 -0.5539 -0.3264
 2365SOL    HW118731   3.362   2.782  15.043 -0.2001 -0.0263 -1.0297
 2365SOL    HW218732   3.217   2.823  15.033  0.1789  0.0103 -0.1383
 2366SOL     OW18733   4.240   1.764   8.077 -0.6417  0.3124  0.2336
 2366SOL    HW118734   4.297   1.687   8.081  0.5207  1.1843  0.3655
 2366SOL    HW218735   4.172   1.750   8.144 -0.2452  1.1412  0.8094
 2367SOL     OW18736   2.940   4.713  10.895  0.8864 -0.4826  0.5461
 2367SOL    HW118737   2.984   4.631  10.872 -0.8836 -1.2669 -0.0543
 2367SOL    HW218738   2.906   4.736  10.808 -3.9169 -1.9881  2.0398
 2368SOL     OW18739   2.511   3.437   1.858  0.1559  0.2204  0.2832
 2368SOL    HW118740   2.496   3.467   1.768 -1.2797 -0.3539  0.3352
 2368SOL    HW218741   2.423   3.432   1.895  0.1720 -2.1359  0.0219
 2369SOL     OW18742   1.973   2.072   3.566  0.3952 -0.4643  0.1680
 2369SOL    HW118743   2.014   2.079   3.480  1.8367  0.6764  0.9375
 2369SOL    HW218744   1.914   2.145   3.547 -2.6852 -3.0236 -0.1748
 2370SOL     OW18745   3.241   3.838  13.892 -0.0018 -0.3137  0.0982
 2370SOL    HW118746   3.209   3.808  13.977 -1.4072 -0.8560 -0.6122
 2370SOL    HW218747   3.285   3.922  13.904  0.1524 -0.1210 -1.7851
 2371SOL     OW18748   1.022   2.309   5.272 -0.2398 -0.0402 -0.2041
 2371SOL    HW118749   1.102   2.273   5.309 -0.4157  0.6662  0.8494
 2371SOL    HW218750   1.008   2.246   5.201 -0.0202 -0.4476  0.1194
 2372SOL     OW18751   1.260   0.598   3.946 -0.0168 -0.1532 -0.0295
 2372SOL    HW118752   1.332   0.594   4.009 -0.5428 -2.8578  0.4062
 2372SOL    HW218753   1.276   0.683   3.904  1.4867 -0.2403  0.3604
 2373SOL     OW18754   2.500   1.137   8.150 -0.5101  0.4361  0.5051
 2373SOL    HW118755   2.523   1.066   8.210 -0.5951 -1.1456 -1.3430
 2373SOL    HW218756   2.406   1.142   8.171 -0.2628 -0.4690  1.8518
 2374SOL     OW18757   3.187   1.128   2.342  0.1030 -0.1882 -0.3983
 2374SOL    HW118758   3.249   1.075   2.292  0.0953 -0.0955 -0.5046
 2374SOL    HW218759   3.148   1.181   2.273  2.6523  2.0013 -0.1582
 2375SOL     OW18760   0.675   1.650   8.560 -0.0175 -0.5508  0.4435
 2375SOL    HW118761   0.715   1.638   8.646  2.4760  2.0303 -0.3466
 2375SOL    HW218762   0.723   1.582   8.511 -1.9366 -0.7409 -1.1419
 2376SOL     OW18763   1.800   2.106   5.967 -0.3266 -0.6405 -0.8159
 2376SOL    HW118764   1.848   2.034   6.008  1.7905  0.4483 -1.3898
 2376SOL    HW218765   1.707   2.104   5.988 -0.6800  1.1590 -2.2341
 2377SOL     OW18766   1.584   3.496   5.818  0.2061 -0.4505 -0.1150
 2377SOL    HW118767   1.557   3.407   5.796  1.8873 -1.2591  1.1201
 2377SOL    HW218768   1.509   3.526   5.870 -0.4806  0.0965 -1.4166
 2378SOL     OW18769   1.737   2.271  11.695 -0.0744 -0.0013  0.1492
 2378SOL    HW118770   1.692   2.304  11.617  1.4961 -0.4025 -0.9364
 2378SOL    HW218771   1.687   2.301  11.771  0.0087  0.0265  0.1936
 2379SOL     OW18772   3.865   1.540   0.615  0.0834  0.1934  0.3171
 2379SOL    HW118773   3.954   1.540   0.651 -0.3167 -1.6682  1.3012
 2379SOL    HW218774   3.854   1.451   0.582 -1.3872 -0.0030  1.3084
 2380SOL     OW18775   4.324   4.547   5.538 -0.2648  0.3750  0.4174
 2380SOL    HW118776   4.377   4.514   5.465 -0.0298 -0.3443  0.9179
 2380SOL    HW218777   4.375   4.517   5.613 -0.1405  2.1933  1.0573
 2381SOL     OW18778   2.748   3.538   5.435 -0.8955  0.0898  0.4723
 2381SOL    HW118779   2.742   3.633   5.422 -2.0688  0.1479  1.4296
 2381SOL    HW218780   2.670   3.524   5.489  0.5522 -2.4507  1.8756
 2382SOL     OW18781   1.164   2.120   9.614 -0.2139 -0.1300  0.3492
 2382SOL    HW118782   1.132   2.206   9.644 -1.0290 -0.3062 -0.0096
 2382SOL    HW218783   1.250   2.139   9.577 -0.4970 -3.5771 -2.0622
 2383SOL     OW18784   2.663   3.823   8.808  0.0133 -0.0492  0.4782
 2383SOL    HW118785   2.721   3.871   8.750  1.1451 -0.1701  1.5052
 2383SOL    HW218786   2.642   3.885   8.878 -0.7218 -0.0932  0.2951
 2384SOL     OW18787   0.619   0.517  15.323  0.6131 -0.4725 -0.5044
 2384SOL    HW118788   0.539   0.491  15.367  0.8165  1.5965  1.0913
 2384SOL    HW218789   0.673   0.439  15.310 -0.4465 -1.0754 -1.2090
 2385SOL     OW18790   1.974   0.200   8.032 -0.5154 -0.4261 -0.4599
 2385SOL    HW118791   2.046   0.217   8.092 -1.7287 -1.0503  1.1577
 2385SOL    HW218792   1.929   0.285   8.032 -1.6836 -1.0434 -0.8215
 2386SOL     OW18793   3.595   1.510  17.192  0.0947 -0.3955 -0.4714
 2386SOL    HW118794   3.561   1.599  17.202 -2.8109 -1.6643  0.9824
 2386SOL    HW218795   3.651   1.499  17.269 -0.9649  1.6360  0.6120
 2387SOL     OW18796   3.630   3.788   6.407 -0.0457  0.2645 -0.0280
 2387SOL    HW118797   3.703   3.744   6.452  0.7776 -0.8667 -2.5050
 2387SOL    HW218798   3.601   3.716   6.352 -0.3237  0.2839  0.0958
 2388SOL     OW18799   1.645   2.483   7.530 -0.2028 -0.0969  0.6534
 2388SOL    HW118800   1.625   2.465   7.622  0.1735  1.3105  1.0119
 2388SOL    HW218801   1.558   2.472   7.490  0.6169  1.3427 -1.5625
 2389SOL     OW18802   0.234   2.346   6.855 -0.3548 -0.6008  0.7065
 2389SOL    HW118803   0.294   2.342   6.930  1.4175  0.9480 -0.6192
 2389SOL    HW218804   0.145   2.344   6.891 -0.2700  0.1645  0.9563
 2390SOL     OW18805   0.402   3.538   8.448  0.3475 -0.9867  0.4442
 2390SOL    HW118806   0.309   3.562   8.440  0.4559 -0.7196 -0.0027
 2390SOL    HW218807   0.394   3.455   8.401  0.9616  1.1422 -3.3845
 2391SOL     OW18808   3.157   4.128   8.436 -0.0315 -0.0639 -0.3009
 2391SOL    HW118809   3.207   4.116   8.355  0.4733  0.0914 -0.0102
 2391SOL    HW218810   3.225   4.160   8.495 -1.8551 -0.9978  2.2699
 2392SOL     OW18811   0.923   4.443  16.442  0.0082  0.3144  0.0302
 2392SOL    HW118812   1.014   4.416  16.437 -0.2728 -0.3079 -1.7026
 2392SOL    HW218813   0.909   4.467  16.351 -3.8452  0.9765  0.7790
 2393SOL     OW18814   1.077   2.832   4.806 -0.2444  0.0284  0.2417
 2393SOL    HW118815   1.167   2.826   4.775  0.2767  2.5324  1.2795
 2393SOL    HW218816   1.050   2.743   4.830  3.4363 -1.3309 -0.5505
 2394SOL     OW18817   3.017   3.481   2.589 -0.1145  0.1000 -0.2238
 2394SOL    HW118818   3.054   3.392   2.580  2.1890  1.0191  0.0569
 2394SOL    HW218819   3.015   3.492   2.494 -0.0180 -0.6664 -0.3184
 2395SOL     OW18820   4.337   1.731  11.437 -0.4075 -0.4269 -0.1673
 2395SOL    HW118821   4.360   1.823  11.441  1.4006 -1.0233  3.1527
 2395SOL    HW218822   4.261   1.736  11.496 -0.9933  4.0337 -1.3324
 2396SOL     OW18823   4.148   2.705  11.353  0.9725 -0.3003  0.4145
 2396SOL    HW118824   4.218   2.760  11.318 -1.2652  0.3173 -3.0947
 2396SOL    HW218825   4.153   2.727  11.446  0.1044 -0.7971  0.5784
 2397SOL     OW18826   2.311   1.979   0.776 -0.4607 -0.6561  0.3934
 2397SOL    HW118827   2.302   2.073   0.760 -0.1879 -0.6366  0.3646
 2397SOL    HW218828   2.395   1.962   0.733 -0.8128 -3.1748  0.6861
 2398SOL     OW18829   1.563   1.620   7.075 -0.1682 -0.0807 -0.4590
 2398SOL    HW118830   1.469   1.606   7.077  0.1917 -2.5809 -1.1036
 2398SOL    HW218831   1.598   1.577   7.153 -0.5318 -0.3470 -0.4410
 2399SOL     OW18832   0.855   2.129   2.901 -0.5000 -0.2029  0.4295
 2399SOL    HW118833   0.811   2.046   2.885 -2.1395  0.8382 -0.5336
 2399SOL    HW218834   0.836   2.187   2.827  0.9866 -0.6394 -0.2955
 2400SOL     OW18835   3.248   3.437  10.162  0.5335 -0.2608 -0.3419
 2400SOL    HW118836   3.336   3.417  10.195  0.4151  1.6526  1.1291
 2400SOL    HW218837   3.218   3.346  10.154  2.2985 -0.7936 -1.0719
 2401SOL     OW18838   2.295   2.763   9.682 -0.1868 -0.0165 -0.4600
 2401SOL    HW118839   2.208   2.801   9.695  0.1562 -0.3470  2.8929
 2401SOL    HW218840   2.323   2.815   9.607  1.9413 -1.0554 -0.3635
 2402SOL     OW18841   3.536   3.992   1.406  0.3787  0.4113 -0.1808
 2402SOL    HW118842   3.627   3.973   1.384  0.9023  0.7034  1.7489
 2402SOL    HW218843   3.536   3.957   1.495  2.4577  2.2317  0.5202
 2403SOL     OW18844   3.744   4.411   7.273 -0.6442 -0.1072 -0.1322
 2403SOL    HW118845   3.650   4.427   7.261 -0.4445  1.2446  0.0639
 2403SOL    HW218846   3.759   4.326   7.232 -1.4796 -0.1355 -0.3877
 2404SOL     OW18847   3.168   2.707  10.852 -0.2405  0.0947  0.7776
 2404SOL    HW118848   3.164   2.620  10.812  1.1889 -0.2840  1.4773
 2404SOL    HW218849   3.159   2.678  10.943  3.1458  0.4832  1.2287
 2405SOL     OW18850   4.205   3.487   0.394 -0.1135  0.0995  0.0376
 2405SOL    HW118851   4.280   3.478   0.335  0.2777  0.9733  0.4026
 2405SOL    HW218852   4.206   3.581   0.414 -0.0060 -0.0979  0.9607
 2406SOL     OW18853   3.456   0.418   6.150 -0.1978  0.1287 -0.2955
 2406SOL    HW118854   3.449   0.419   6.246 -5.0457 -1.7430 -0.6435
 2406SOL    HW218855   3.440   0.324   6.151  1.2608 -0.1244 -0.2657
 2407SOL     OW18856   2.742   3.405   2.626  0.0781 -0.3722  0.9708
 2407SOL    HW118857   2.723   3.385   2.535 -1.8299  0.6492  1.1517
 2407SOL    HW218858   2.823   3.456   2.628 -1.6592  2.3004  2.3431
 2408SOL     OW18859   1.524   0.863   5.200  0.3029  0.3701 -0.0343
 2408SOL    HW118860   1.479   0.840   5.281 -0.3760  0.3852 -0.4032
 2408SOL    HW218861   1.604   0.901   5.237  1.2474 -0.6252 -1.0263
 2409SOL     OW18862   4.082   1.043  17.507 -0.2764 -0.2279  0.0062
 2409SOL    HW118863   4.066   1.076  17.419  0.2998 -2.0630 -0.7905
 2409SOL    HW218864   4.031   1.103  17.562  1.7120 -0.1094  1.7258
 2410SOL     OW18865   3.681   0.394   8.222 -0.0255  0.3472  0.0559
 2410SOL    HW118866   3.736   0.471   8.235 -0.5569  0.9856 -1.4334
 2410SOL    HW218867   3.595   0.435   8.208 -0.8339 -1.8881 -1.5917
 2411SOL     OW18868   1.937   3.794  11.533 -0.7988  0.6923 -0.0399
 2411SOL    HW118869   1.855   3.825  11.494 -0.3546  2.2595  0.2882
 2411SOL    HW218870   1.902   3.771  11.619 -1.2821 -0.9507 -0.6783
 2412SOL     OW18871   2.583   1.116   8.881 -0.2851  0.1584 -0.0761
 2412SOL    HW118872   2.522   1.080   8.945  1.8682 -0.5384  1.5936
 2412SOL    HW218873   2.521   1.144   8.813 -0.2349 -0.5492 -0.4170
 2413SOL     OW18874   3.985   1.006   7.446  0.0720  0.4191  0.3189
 2413SOL    HW118875   3.952   1.070   7.382 -0.6901 -0.2167  0.0767
 2413SOL    HW218876   4.080   1.012   7.441  0.1049  0.7188  1.2759
 2414SOL     OW18877   0.755   0.868   3.348 -0.1706 -0.5642 -0.1446
 2414SOL    HW118878   0.662   0.844   3.356 -0.3115 -0.1968 -0.6921
 2414SOL    HW218879   0.800   0.794   3.307 -1.2700 -0.3613 -1.7572
 2415SOL     OW18880   2.770   4.524   2.561 -0.6887 -0.0777  0.0715
 2415SOL    HW118881   2.688   4.561   2.528 -1.1164 -1.0289  0.0848
 2415SOL    HW218882   2.794   4.474   2.484  0.6473  0.9908 -0.1940
 2416SOL     OW18883   3.259   3.010   4.847 -0.5505 -0.3858  0.3226
 2416SOL    HW118884   3.336   2.958   4.873  0.6509  1.1931 -0.0426
 2416SOL    HW218885   3.269   3.091   4.896 -1.5976 -1.3680  2.1784
 2417SOL     OW18886   0.749   4.245  16.555  0.6799  0.8480 -0.0536
 2417SOL    HW118887   0.704   4.312  16.607 -1.2951 -1.1545  0.7881
 2417SOL    HW218888   0.824   4.299  16.528  1.0398  0.6866  0.6394
 2418SOL     OW18889   2.357   0.570  14.243  0.0819  0.0718  0.6444
 2418SOL    HW118890   2.267   0.574  14.210  0.2868  3.9860  0.5396
 2418SOL    HW218891   2.371   0.657  14.280 -0.8574  0.2147  0.6780
 2419SOL     OW18892   3.947   1.745   9.287  0.1177  0.2304  0.4320
 2419SOL    HW118893   3.883   1.674   9.284  0.9182 -0.3318 -3.3927
 2419SOL    HW218894   4.025   1.701   9.255  0.5866  0.1562  1.6741
 2420SOL     OW18895   1.792   3.713   6.233  0.0868  0.6476 -0.2949
 2420SOL    HW118896   1.868   3.731   6.288 -0.0937  0.0902  0.1401
 2420SOL    HW218897   1.752   3.635   6.274  1.9370 -1.4211 -2.4378
 2421SOL     OW18898   0.887   4.226   8.835  0.0020 -0.8577  0.2626
 2421SOL    HW118899   0.932   4.234   8.751 -0.9380  0.6003 -0.0907
 2421SOL    HW218900   0.898   4.133   8.853 -0.6230 -0.6869  1.5132
 2422SOL     OW18901   2.530   3.930   9.049 -0.0018  0.1922 -0.6876
 2422SOL    HW118902   2.511   4.022   9.062  0.2110 -0.0947  1.5815
 2422SOL    HW218903   2.612   3.924   9.098 -0.1612  1.1118 -0.3071
 2423SOL     OW18904   4.273   2.754   1.909  0.3523  0.0777 -0.1225
 2423SOL    HW118905   4.261   2.830   1.852  0.6253  0.3738  0.2137
 2423SOL    HW218906   4.289   2.804   1.989 -1.6748  0.9842 -0.2768
 2424SOL     OW18907   0.214   1.636   8.587 -0.0383 -0.3002 -0.0844
 2424SOL    HW118908   0.258   1.575   8.527  1.4362 -0.7902  1.4800
 2424SOL    HW218909   0.293   1.682   8.617 -0.2601 -0.3707  0.5955
 2425SOL     OW18910   1.457   0.319   7.120 -0.6595 -0.0060  0.2305
 2425SOL    HW118911   1.440   0.283   7.033  1.7206 -3.1917  1.0902
 2425SOL    HW218912   1.549   0.344   7.118  0.1097 -2.9300 -0.3048
 2426SOL     OW18913   2.807   4.019   6.134  0.2501  0.2816  0.6878
 2426SOL    HW118914   2.742   4.077   6.173 -1.9793 -1.5010 -0.3963
 2426SOL    HW218915   2.745   3.965   6.085  2.4458 -1.2163 -0.4579
 2427SOL     OW18916   4.572   3.012   5.280  0.0780 -0.6054 -0.1952
 2427SOL    HW118917   4.531   3.026   5.366  2.9942 -1.3840  1.3319
 2427SOL    HW218918   4.637   2.944   5.294  2.0519  1.0209 -1.4792
 2428SOL     OW18919   4.676   0.672   2.188  0.4138 -0.2686  0.7525
 2428SOL    HW118920   4.680   0.645   2.097  1.6014 -2.1196  1.3580
 2428SOL    HW218921   4.636   0.759   2.188  0.4939 -0.2497 -0.9771
 2429SOL     OW18922   0.578   4.271  13.833 -0.6147 -0.2755  0.3657
 2429SOL    HW118923   0.566   4.343  13.770  1.4370  0.6993  1.1002
 2429SOL    HW218924   0.537   4.317  13.906 -0.0996 -0.1591  0.5750
 2430SOL     OW18925   0.331   1.850  13.302  0.1565 -0.0823 -0.2169
 2430SOL    HW118926   0.331   1.839  13.397  0.0541  1.7960  0.0042
 2430SOL    HW218927   0.253   1.805  13.269  0.1493 -3.1026  3.8136
 2431SOL     OW18928   4.008   2.302   5.233  0.2904 -1.0681 -0.0655
 2431SOL    HW118929   4.008   2.397   5.249 -0.8028 -0.8949 -1.0718
 2431SOL    HW218930   4.091   2.277   5.273  0.2421 -0.9619  0.1006
 2432SOL     OW18931   2.683   3.747   4.146 -0.1961  0.3827  0.2452
 2432SOL    HW118932   2.634   3.782   4.072  0.8194 -1.3098 -1.2001
 2432SOL    HW218933   2.645   3.784   4.226 -0.6082 -0.5097  0.4539
 2433SOL     OW18934   3.863   3.462   9.322 -0.0372  0.5188 -0.1181
 2433SOL    HW118935   3.822   3.449   9.408 -1.1863  1.5936 -0.5052
 2433SOL    HW218936   3.791   3.501   9.272  0.9400  2.0396 -0.3151
 2434SOL     OW18937   0.500   0.077   5.875 -0.3255  0.3178  0.1793
 2434SOL    HW118938   0.427   0.125   5.914 -1.0031  0.8194 -1.7214
 2434SOL    HW218939   0.575   0.103   5.929  0.7110 -0.1944 -1.0109
 2435SOL     OW18940   1.444   4.059   1.822  0.0596  0.4168  0.2575
 2435SOL    HW118941   1.510   4.119   1.787  0.9320 -1.5073 -1.3844
 2435SOL    HW218942   1.381   4.119   1.861  0.1643  0.7768 -0.1261
 2436SOL     OW18943   3.952   0.837   3.056  0.1604  0.6177  0.4099
 2436SOL    HW118944   3.970   0.794   3.140 -1.7540 -0.0185  0.4903
 2436SOL    HW218945   4.041   0.862   3.032 -0.1854 -0.6154 -2.1198
 2437SOL     OW18946   4.516   2.671  16.216  0.2302 -0.3067 -0.1747
 2437SOL    HW118947   4.448   2.726  16.176 -1.0736 -1.1574  0.8769
 2437SOL    HW218948   4.585   2.736  16.202  1.5724 -1.3686  1.6187
 2438SOL     OW18949   4.209   4.230   7.002  0.6271  0.0772  0.0166
 2438SOL    HW118950   4.299   4.197   7.005  0.3228 -0.9753 -2.1638
 2438SOL    HW218951   4.206   4.279   7.083  0.7501 -0.9313  0.6313
 2439SOL     OW18952   3.922   2.663  10.033 -0.5721 -0.3266 -0.2766
 2439SOL    HW118953   3.839   2.708  10.050 -0.2470 -0.0045  0.4616
 2439SOL    HW218954   3.895   2.579   9.996  0.0283 -1.4769  1.9235
 2440SOL     OW18955   0.321   3.004   7.068  0.0451 -0.2160 -0.0961
 2440SOL    HW118956   0.371   3.077   7.030  0.7488  0.1005  1.4186
 2440SOL    HW218957   0.263   2.989   6.994  0.7644 -2.3535 -0.2228
 2441SOL     OW18958   1.432   2.742   0.506  0.5488  0.5243 -0.8654
 2441SOL    HW118959   1.382   2.823   0.517 -2.0205 -0.9955 -1.3877
 2441SOL    HW218960   1.497   2.778   0.446  0.5288  2.5684  0.3311
 2442SOL     OW18961   2.041   2.713   2.733  0.2264 -0.1177 -0.6426
 2442SOL    HW118962   1.961   2.761   2.712 -0.0506  0.6235  2.0982
 2442SOL    HW218963   2.080   2.774   2.796 -0.8757  1.0301 -1.0862
 2443SOL     OW18964   4.446   0.138   2.920 -1.0012 -0.0892  0.0322
 2443SOL    HW118965   4.438   0.099   3.007  1.4715  0.3727  0.4526
 2443SOL    HW218966   4.403   0.222   2.934 -2.5251 -0.6602 -1.1407
 2444SOL     OW18967   1.306   4.724   7.759 -0.0590  0.2994  0.4403
 2444SOL    HW118968   1.353   0.002   7.842  1.2071 -0.0547 -0.2071
 2444SOL    HW218969   1.288   4.630   7.762 -0.2716  0.3322  0.2124
 2445SOL     OW18970   1.203   0.473   0.357 -0.2828 -0.2753 -0.8457
 2445SOL    HW118971   1.233   0.450   0.444 -0.0514  2.0684 -0.3171
 2445SOL    HW218972   1.207   0.383   0.325  0.0991 -0.5216 -0.1077
 2446SOL     OW18973   1.686   1.455  17.046  0.5279  0.2721  0.2063
 2446SOL    HW118974   1.641   1.515  16.987 -1.3402 -2.0226 -0.7133
 2446SOL    HW218975   1.704   1.517  17.117  1.9418  0.4826 -0.3345
 2447SOL     OW18976   2.052   3.978   2.538  0.3224  0.1553 -0.2207
 2447SOL    HW118977   2.117   4.018   2.595  3.5929 -1.1378 -3.0839
 2447SOL    HW218978   1.982   4.043   2.538 -0.2936 -0.5038 -0.3375
 2448SOL     OW18979   4.123   3.477  17.519 -0.3041 -0.4586  0.1012
 2448SOL    HW118980   4.076   3.462  17.601  0.3923  0.0431  0.5891
 2448SOL    HW218981   4.078   3.403  17.478 -0.9962  0.0693 -0.0945
 2449SOL     OW18982   1.687   1.367   9.429 -0.5035 -0.1335 -0.1676
 2449SOL    HW118983   1.749   1.357   9.501 -1.2157 -0.4081  0.4058
 2449SOL    HW218984   1.745   1.352   9.354 -0.8044 -0.8548 -0.2593
 2450SOL     OW18985   1.999   1.022   8.167  0.0580 -0.8815  0.2615
 2450SOL    HW118986   2.010   1.060   8.079  2.0445 -0.1735  0.7982
 2450SOL    HW218987   1.941   1.082   8.214 -0.1069  0.1910 -1.2883
 2451SOL     OW18988   0.276   0.732  11.143 -0.2196  0.4500  0.0118
 2451SOL    HW118989   0.254   0.677  11.218  0.4615  1.2007  0.7698
 2451SOL    HW218990   0.348   0.789  11.170  0.8988  0.0033 -2.0227
 2452SOL     OW18991   1.694   1.114   0.377 -0.0542  0.6084  0.0090
 2452SOL    HW118992   1.616   1.168   0.377 -0.4028  0.1070 -1.6771
 2452SOL    HW218993   1.673   1.056   0.303  0.3409 -0.1859  0.5122
 2453SOL     OW18994   2.340   3.953   8.684 -0.0014 -0.1166 -0.2088
 2453SOL    HW118995   2.272   4.016   8.661 -1.3503 -1.4850  0.0573
 2453SOL    HW218996   2.417   4.010   8.678 -1.6267  2.2037  0.7821
 2454SOL     OW18997   4.360   2.818   1.138 -0.3222  0.2831  0.3228
 2454SOL    HW118998   4.427   2.869   1.091  0.4107 -1.2657 -0.3365
 2454SOL    HW218999   4.408   2.768   1.205  2.6473  3.0480  0.2687
 2455SOL     OW19000   3.073   1.268   0.879  0.0266 -0.4478 -0.3307
 2455SOL    HW119001   3.148   1.322   0.902 -1.1435  0.3214  1.6070
 2455SOL    HW219002   3.014   1.296   0.949 -0.9245  0.7150 -1.5830
 2456SOL     OW19003   2.436   3.744   7.393  0.6802 -0.0477 -0.2360
 2456SOL    HW119004   2.430   3.692   7.313  0.1603 -2.7738  1.5660
 2456SOL    HW219005   2.493   3.688   7.445  0.8653 -0.0424 -0.4315
 2457SOL     OW19006   2.166   2.142   5.195  0.7637 -0.2184 -0.3572
 2457SOL    HW119007   2.196   2.169   5.282  1.5385  2.7419 -1.5624
 2457SOL    HW219008   2.070   2.133   5.199  0.6430  1.4044  0.7746
 2458SOL     OW19009   0.240   3.511   4.200 -0.1466  0.0743  0.7574
 2458SOL    HW119010   0.255   3.424   4.165 -0.3026 -1.2024  3.8246
 2458SOL    HW219011   0.177   3.489   4.268  0.7611  2.6362  2.4679
 2459SOL     OW19012   3.966   4.695   5.928 -0.6155  0.1844  0.3177
 2459SOL    HW119013   4.002   4.684   6.015  1.4100 -0.4530 -0.6029
 2459SOL    HW219014   3.928   4.608   5.914  2.1406 -0.6446 -2.1885
 2460SOL     OW19015   0.110   4.055   9.270  0.0787 -0.3695 -0.3922
 2460SOL    HW119016   0.179   3.995   9.297  0.7100 -0.7715 -2.9359
 2460SOL    HW219017   0.084   4.030   9.181  0.0453  1.0750 -0.7949
 2461SOL     OW19018   1.130   3.349  12.145 -0.6116  0.1439 -0.3461
 2461SOL    HW119019   1.206   3.299  12.118 -1.2354  0.5773 -2.8946
 2461SOL    HW219020   1.132   3.344  12.241 -1.2122  0.3244 -0.3178
 2462SOL     OW19021   0.450   2.744  13.513  0.4409 -0.0961 -0.5897
 2462SOL    HW119022   0.419   2.754  13.603  3.5816  2.2947  0.2406
 2462SOL    HW219023   0.394   2.805  13.466 -1.1579 -1.5661 -0.5814
 2463SOL     OW19024   0.603   0.155   5.400  0.1369 -0.2960  0.1451
 2463SOL    HW119025   0.520   0.188   5.436  1.3633  2.5428  0.3687
 2463SOL    HW219026   0.621   0.075   5.450 -1.8508 -0.3041  0.8644
 2464SOL     OW19027   3.959   2.518  11.342 -0.4927 -0.2481  0.0401
 2464SOL    HW119028   4.029   2.583  11.343 -1.4153  0.7478 -0.5088
 2464SOL    HW219029   3.901   2.556  11.276  0.1052 -0.0886 -0.3888
 2465SOL     OW19030   4.320   3.263   5.377  0.5251  0.0788 -0.4911
 2465SOL    HW119031   4.330   3.354   5.405 -2.6172  0.3455 -0.2239
 2465SOL    HW219032   4.301   3.220   5.460 -0.1506 -0.5495 -0.9732
 2466SOL     OW19033   1.220   1.291   1.856  0.2002 -0.4338 -0.1385
 2466SOL    HW119034   1.138   1.337   1.877  0.3369 -0.6425  0.8489
 2466SOL    HW219035   1.259   1.279   1.942  1.7903  0.8772 -0.6690
 2467SOL     OW19036   2.327   4.256  14.819 -0.2274 -0.5584 -0.5383
 2467SOL    HW119037   2.367   4.255  14.732 -0.3337 -1.5922 -0.5760
 2467SOL    HW219038   2.249   4.213  14.785  0.8279 -2.3732 -0.6486
 2468SOL     OW19039   4.411   1.192   0.503  0.0868 -0.6612 -0.4712
 2468SOL    HW119040   4.472   1.123   0.528 -0.6562 -1.0065  0.3584
 2468SOL    HW219041   4.340   1.151   0.452  0.4209 -1.1526 -0.5382
 2469SOL     OW19042   2.383   2.547   2.773 -0.3769 -1.0250  0.1638
 2469SOL    HW119043   2.411   2.638   2.768  0.1027 -1.1319  0.9395
 2469SOL    HW219044   2.449   2.509   2.831 -0.5926 -2.6856 -0.6748
 2470SOL     OW19045   4.057   3.785  12.930 -0.3215 -0.5628  0.3496
 2470SOL    HW119046   4.012   3.701  12.922 -1.0151 -0.3485  1.9323
 2470SOL    HW219047   4.013   3.843  12.868 -0.4306 -0.3518  0.6231
 2471SOL     OW19048   0.522   3.253   4.435 -0.4922 -0.2153  0.2232
 2471SOL    HW119049   0.485   3.261   4.347  1.7243 -0.2099 -0.6960
 2471SOL    HW219050   0.561   3.336   4.462 -0.7115 -0.5036  1.4249
 2472SOL     OW19051   0.641   2.808   0.882  0.6336 -0.0058 -0.3904
 2472SOL    HW119052   0.676   2.765   0.804  0.4596 -0.0131 -0.4637
 2472SOL    HW219053   0.680   2.895   0.881 -1.6251  1.0192 -0.0021
 2473SOL     OW19054   1.923   2.797  12.095  0.2790 -0.1346 -0.0174
 2473SOL    HW119055   1.936   2.704  12.078  1.2170  0.0151 -0.1007
 2473SOL    HW219056   1.997   2.826  12.149  0.9884 -2.0219  0.0151
 2474SOL     OW19057   4.305   0.272   1.739  0.2173 -0.1188 -0.2100
 2474SOL    HW119058   4.245   0.260   1.665  1.0255  1.6774 -1.1592
 2474SOL    HW219059   4.322   0.365   1.725 -0.9383  0.0625 -0.4052
 2475SOL     OW19060   1.575   0.987   3.953 -0.1634 -0.0985  0.2301
 2475SOL    HW119061   1.598   1.068   4.000  0.5390  0.2949 -0.7759
 2475SOL    HW219062   1.567   0.920   4.021  1.0931 -0.8172 -0.3261
 2476SOL     OW19063   1.213   0.612  10.876  0.1521  0.6231 -0.2376
 2476SOL    HW119064   1.306   0.604  10.896  0.5550  1.6487 -1.7448
 2476SOL    HW219065   1.177   0.599  10.964  2.7305 -1.5124  0.5246
 2477SOL     OW19066   4.526   0.999   8.976 -0.2097 -0.4027  0.0426
 2477SOL    HW119067   4.541   0.931   8.911 -0.4192 -1.5327  1.1804
 2477SOL    HW219068   4.442   0.969   9.010 -0.4242 -1.2541 -1.2414
 2478SOL     OW19069   2.959   3.658   7.639  0.2608  0.0347 -0.1696
 2478SOL    HW119070   2.897   3.731   7.646 -1.6381 -1.6159  0.0139
 2478SOL    HW219071   3.042   3.704   7.652  0.6643 -0.6092 -0.4841
 2479SOL     OW19072   0.906   1.079   4.812  0.3850  0.1105 -0.1654
 2479SOL    HW119073   0.812   1.067   4.797  0.5614  2.5147 -3.1816
 2479SOL    HW219074   0.910   1.159   4.760  1.0509 -0.8571 -1.6097
 2480SOL     OW19075   2.602   0.361   7.675  0.5915 -0.1260 -0.1721
 2480SOL    HW119076   2.674   0.344   7.736  0.7952 -2.8846 -1.1660
 2480SOL    HW219077   2.586   0.455   7.681 -1.6522 -0.5033 -0.1626
 2481SOL     OW19078   1.927   2.001   4.482  0.4406 -0.3755 -0.4398
 2481SOL    HW119079   1.968   1.924   4.521 -0.5452  0.6113  2.5650
 2481SOL    HW219080   1.922   1.975   4.390 -0.7083  0.0586 -0.5022
 2482SOL     OW19081   0.856   3.131   1.548 -0.3126  0.1018 -0.0251
 2482SOL    HW119082   0.761   3.121   1.541 -0.1022 -2.6087  0.9411
 2482SOL    HW219083   0.877   3.045   1.585  1.8698  1.1262  1.1239
 2483SOL     OW19084   3.935   0.552   7.117 -0.1331  0.2939 -0.2326
 2483SOL    HW119085   3.871   0.482   7.125 -0.0555  0.4969  2.2701
 2483SOL    HW219086   4.014   0.506   7.088  1.2782  1.2732  2.0551
 2484SOL     OW19087   2.103   4.559   6.448 -0.0521  0.0382  0.0192
 2484SOL    HW119088   2.085   4.466   6.435  0.1944 -0.0017 -0.0304
 2484SOL    HW219089   2.023   4.581   6.496  0.4262  2.6428 -0.3630
 2485SOL     OW19090   2.997   1.739   2.445  0.0681  0.0515 -0.4622
 2485SOL    HW119091   3.074   1.741   2.502  0.9995 -1.3985 -1.6852
 2485SOL    HW219092   2.925   1.759   2.505 -0.6494 -2.1919 -0.5900
 2486SOL     OW19093   4.518   4.210   5.672 -0.0104  0.5268 -0.4547
 2486SOL    HW119094   4.484   4.124   5.647  2.6913 -0.3095 -1.2656
 2486SOL    HW219095   4.611   4.192   5.680 -0.7412 -3.5754 -0.9803
 2487SOL     OW19096   0.726   0.067   9.808 -0.0974 -0.0143 -0.1908
 2487SOL    HW119097   0.802   0.097   9.858  0.0710  1.4589 -1.3441
 2487SOL    HW219098   0.771   0.036   9.729 -1.8631  0.0711 -1.2168
 2488SOL     OW19099   1.305   3.048   9.280  0.3996 -0.0600  1.0027
 2488SOL    HW119100   1.229   3.072   9.331  0.4803  0.9808  0.6401
 2488SOL    HW219101   1.265   3.038   9.193 -1.9493  2.7219  1.7938
 2489SOL     OW19102   4.627   3.345   7.917  0.2331 -0.4720 -0.2035
 2489SOL    HW119103   4.629   3.251   7.936 -3.0397 -0.6495 -0.8419
 2489SOL    HW219104   4.574   3.374   7.991 -0.6776 -1.8254 -0.3143
 2490SOL     OW19105   3.050   3.442   9.097 -0.3728  0.3228  0.2803
 2490SOL    HW119106   3.103   3.365   9.116 -0.8195 -0.3338 -1.1648
 2490SOL    HW219107   2.974   3.395   9.063  0.3305  0.6390 -1.7034
 2491SOL     OW19108   4.462   4.405   3.759 -0.1879  0.0146 -0.5561
 2491SOL    HW119109   4.371   4.378   3.746 -0.0522  0.0313 -1.4842
 2491SOL    HW219110   4.471   4.452   3.676 -1.2876 -2.1721 -1.9012
 2492SOL     OW19111   3.268   2.847   1.814  0.1495 -0.8172 -0.2118
 2492SOL    HW119112   3.269   2.895   1.897 -3.3914 -0.2303 -0.5324
 2492SOL    HW219113   3.173   2.838   1.815 -0.3954  4.5442 -1.6887
 2493SOL     OW19114   1.762   2.432   8.200  0.0010 -0.3765 -0.5005
 2493SOL    HW119115   1.743   2.517   8.240  1.0303 -0.1697 -0.4541
 2493SOL    HW219116   1.855   2.427   8.221  0.4239  0.1446 -2.2330
 2494SOL     OW19117   3.564   1.743   7.605 -0.0864 -0.2502  0.7994
 2494SOL    HW119118   3.563   1.659   7.559 -0.5836 -1.1337  2.4012
 2494SOL    HW219119   3.653   1.747   7.639  0.7790  0.5837 -1.6048
 2495SOL     OW19120   3.152   2.718   7.790 -0.3719 -0.1952  0.2444
 2495SOL    HW119121   3.195   2.772   7.857  1.0390  0.9075 -1.5554
 2495SOL    HW219122   3.188   2.633   7.812 -0.5456 -0.2260  0.4190
 2496SOL     OW19123   0.982   0.457   7.632  0.3523 -0.1879 -0.0192
 2496SOL    HW119124   0.887   0.465   7.635  0.3912  1.1706 -2.1896
 2496SOL    HW219125   0.993   0.440   7.538  1.0214  2.7406 -0.4857
 2497SOL     OW19126   3.711   0.874   3.172 -0.0804 -0.1187 -0.1680
 2497SOL    HW119127   3.642   0.882   3.107 -1.5171 -2.2403  1.1256
 2497SOL    HW219128   3.790   0.881   3.119 -0.5461 -2.0356 -1.1161
 2498SOL     OW19129   4.034   1.766  16.306 -0.2142  0.1665  0.2785
 2498SOL    HW119130   3.965   1.795  16.365  0.5629 -1.4277  1.9388
 2498SOL    HW219131   4.060   1.852  16.270 -1.3704  0.1250 -0.6708
 2499SOL     OW19132   1.204   1.850   5.224  0.2264  0.0736  0.3605
 2499SOL    HW119133   1.248   1.898   5.153  0.4970 -0.7864 -0.0631
 2499SOL    HW219134   1.119   1.830   5.184  0.8288 -0.1335 -0.8385
 2500SOL     OW19135   3.655   2.039  10.737  0.3467  0.5001  0.3074
 2500SOL    HW119136   3.599   2.087  10.798  1.0260 -1.8561  2.8124
 2500SOL    HW219137   3.735   2.091  10.735  1.7334 -1.6808 -0.7083
 2501SOL     OW19138   2.863   4.612  12.186 -0.2771  0.1764 -0.3974
 2501SOL    HW119139   2.907   4.684  12.232  1.4123 -1.1539  0.0861
 2501SOL    HW219140   2.786   4.661  12.159  0.6114  0.6487 -2.0991
 2502SOL     OW19141   0.876   2.864   3.305  0.2470  0.0518 -0.0294
 2502SOL    HW119142   0.793   2.903   3.278  0.6058  1.6772  1.2210
 2502SOL    HW219143   0.928   2.882   3.226 -0.6021 -2.7615 -1.2329
 2503SOL     OW19144   0.705   3.132   3.345 -0.4167  0.0719 -0.5638
 2503SOL    HW119145   0.798   3.133   3.322 -0.3705  0.3146 -0.3647
 2503SOL    HW219146   0.711   3.174   3.430 -0.5343  2.0692 -1.5521
 2504SOL     OW19147   3.827   2.856  15.973 -0.3215  0.3585 -0.3071
 2504SOL    HW119148   3.778   2.774  15.965  1.2702 -0.6223  0.1719
 2504SOL    HW219149   3.804   2.880  16.063 -0.1151 -0.6026 -0.0004
 2505SOL     OW19150   4.297   4.410   6.241  0.6330 -0.5256  0.4570
 2505SOL    HW119151   4.282   4.385   6.332 -1.9713  0.7238  0.3742
 2505SOL    HW219152   4.274   4.503   6.248 -2.1481 -1.1696 -0.3008
 2506SOL     OW19153   3.516   0.052   2.731 -0.0646 -0.1057  0.0999
 2506SOL    HW119154   3.605   0.024   2.748  0.3219 -0.2429 -2.0886
 2506SOL    HW219155   3.486   0.082   2.816 -0.7488  4.4433 -1.7257
 2507SOL     OW19156   2.427   2.084  11.539  0.3426  0.2405  0.3925
 2507SOL    HW119157   2.373   2.017  11.582 -2.1205  1.7534 -0.3465
 2507SOL    HW219158   2.511   2.050  11.569 -0.1207 -2.3081 -1.1767
 2508SOL     OW19159   4.350   3.396   3.485 -0.1645 -0.2660  0.2144
 2508SOL    HW119160   4.273   3.349   3.454  0.4465 -2.0330  1.4275
 2508SOL    HW219161   4.358   3.357   3.572 -1.9530 -0.7226  0.1589
 2509SOL     OW19162   4.551   3.708  15.904 -0.3837 -0.0868 -0.1880
 2509SOL    HW119163   4.495   3.784  15.893  2.2720  2.0128  0.9960
 2509SOL    HW219164   4.624   3.718  15.842  0.4389  2.5047  1.2300
 2510SOL     OW19165   1.468   3.438   1.215  0.0047 -0.0850 -0.1202
 2510SOL    HW119166   1.409   3.505   1.249  0.4849 -0.7332  2.0040
 2510SOL    HW219167   1.545   3.493   1.203 -0.2354 -0.3062 -2.6772
 2511SOL     OW19168   1.614   0.256   8.893  0.1013  0.0867 -0.3037
 2511SOL    HW119169   1.614   0.309   8.972  0.0652  0.8686 -0.8278
 2511SOL    HW219170   1.606   0.320   8.822  2.5817 -1.7366 -2.2602
 2512SOL     OW19171   3.055   3.435   2.305  0.5003 -0.0309  0.5036
 2512SOL    HW119172   3.125   3.492   2.272  1.7038 -1.8362 -0.0440
 2512SOL    HW219173   3.098   3.353   2.282 -1.0558 -0.9309  0.8529
 2513SOL     OW19174   2.856   0.313   6.800 -0.2186  0.3330 -0.1822
 2513SOL    HW119175   2.893   0.244   6.744  1.2340  1.8778 -1.1135
 2513SOL    HW219176   2.939   0.335   6.842 -1.0503  2.5338  0.2911
 2514SOL     OW19177   2.404   1.562   8.742 -0.2787  0.0827  0.8060
 2514SOL    HW119178   2.493   1.543   8.713  0.0967  2.5332  0.3101
 2514SOL    HW219179   2.359   1.512   8.674  1.4900  0.1279 -0.3822
 2515SOL     OW19180   4.167   0.271   4.228 -0.3400 -0.1119 -0.6288
 2515SOL    HW119181   4.149   0.257   4.321  1.0525 -0.9731 -0.4930
 2515SOL    HW219182   4.232   0.201   4.227 -0.5379 -0.3275  0.8968
 2516SOL     OW19183   3.270   1.220   6.117  0.2167  0.0909  0.1077
 2516SOL    HW119184   3.187   1.264   6.132 -0.6613 -1.2656 -0.7748
 2516SOL    HW219185   3.327   1.296   6.104 -0.4792  0.2003 -2.3045
 2517SOL     OW19186   2.852   2.597   9.497 -0.6640 -0.2878  0.2088
 2517SOL    HW119187   2.821   2.559   9.415 -2.2469 -1.7674  1.4878
 2517SOL    HW219188   2.778   2.563   9.548 -0.8746  0.6209  0.5205
 2518SOL     OW19189   2.920   3.915   8.244 -0.1773  0.0657  0.4935
 2518SOL    HW119190   3.016   3.921   8.242 -0.2626  0.8840 -0.6115
 2518SOL    HW219191   2.898   3.979   8.311 -0.5257 -2.5501  2.9119
 2519SOL     OW19192   4.034   0.269   4.493 -0.1179 -0.2905  0.0351
 2519SOL    HW119193   3.956   0.237   4.539 -1.0612 -0.3461 -1.6013
 2519SOL    HW219194   4.050   0.351   4.539 -1.3636  2.0246 -3.7206
 2520SOL     OW19195   0.330   1.784  15.343  0.3990  0.0374 -0.2103
 2520SOL    HW119196   0.374   1.774  15.258 -2.1082  1.3075 -1.6400
 2520SOL    HW219197   0.266   1.853  15.325  1.0394  0.6737 -0.0427
 2521SOL     OW19198   2.798   0.725   7.777  0.0235 -0.7915 -0.1571
 2521SOL    HW119199   2.817   0.816   7.799 -2.0370 -0.2290 -0.7011
 2521SOL    HW219200   2.806   0.726   7.682  0.6578  0.2010 -0.0910
 2522SOL     OW19201   3.133   2.779   9.286 -0.1335  0.1960  0.2731
 2522SOL    HW119202   3.122   2.750   9.376  0.1868  1.5973  0.7673
 2522SOL    HW219203   3.082   2.729   9.223 -0.9244  1.6659 -0.2742
 2523SOL     OW19204   3.877   3.182  15.321  0.3784 -0.3214 -0.0560
 2523SOL    HW119205   3.792   3.144  15.299  0.9806 -0.7110 -1.7226
 2523SOL    HW219206   3.891   3.155  15.412  2.4488  0.9821  0.0065
 2524SOL     OW19207   4.026   0.093   6.434  0.2002  0.0976 -0.6363
 2524SOL    HW119208   4.012   0.106   6.341 -0.6362  1.4050 -0.3339
 2524SOL    HW219209   3.941   0.102   6.478 -0.1305  0.9457 -1.4543
 2525SOL     OW19210   3.967   2.117  15.194 -0.3512 -0.0224  0.4620
 2525SOL    HW119211   4.030   2.173  15.240  0.5736 -0.2676 -0.5023
 2525SOL    HW219212   4.026   2.056  15.149 -1.4142 -1.5002  1.0725
 2526SOL     OW19213   0.837   2.160   3.715 -0.4927 -0.4895  0.5135
 2526SOL    HW119214   0.753   2.137   3.754 -0.2006 -0.5634  1.0922
 2526SOL    HW219215   0.829   2.253   3.693  0.0244 -0.8985 -1.4330
 2527SOL     OW19216   1.894   1.185  10.437 -0.1957  0.1131  0.4173
 2527SOL    HW119217   1.829   1.190  10.507  0.6539 -0.8431  1.2708
 2527SOL    HW219218   1.959   1.132  10.484  0.8113  0.9149 -0.0832
 2528SOL     OW19219   4.389   4.568   1.599  0.0276 -0.4187  0.2151
 2528SOL    HW119220   4.377   4.473   1.591  0.7323 -0.4129 -0.8821
 2528SOL    HW219221   4.379   4.578   1.694  1.4607 -3.3136  0.6987
 2529SOL     OW19222   0.937   1.345   1.518  0.1155  0.1097 -0.0660
 2529SOL    HW119223   0.906   1.322   1.606 -0.9425  3.5356  0.4580
 2529SOL    HW219224   0.863   1.399   1.490  0.4879  0.3387 -0.6152
 2530SOL     OW19225   3.918   3.943   3.876 -0.4161  0.7079 -0.5467
 2530SOL    HW119226   3.975   3.891   3.820  1.6418  1.5280  0.7784
 2530SOL    HW219227   3.863   3.999   3.820  0.2223  0.6076 -1.2767
 2531SOL     OW19228   1.994   4.363   2.282 -0.3367  0.6182 -0.3851
 2531SOL    HW119229   2.029   4.285   2.240  0.8824  1.4418 -0.8940
 2531SOL    HW219230   2.077   4.398   2.315 -0.5601  1.6037 -0.8541
 2532SOL     OW19231   2.800   4.046   4.442 -0.3535  0.5124 -0.1157
 2532SOL    HW119232   2.828   3.997   4.365  0.1131 -0.1808  0.4856
 2532SOL    HW219233   2.874   4.106   4.445 -1.1741  1.5509 -0.5451
 2533SOL     OW19234   1.076   4.170   6.158 -0.4679 -0.3436 -0.2449
 2533SOL    HW119235   1.170   4.155   6.146 -0.3771  0.2276 -0.2165
 2533SOL    HW219236   1.059   4.253   6.202 -0.7064 -1.5328  1.9074
 2534SOL     OW19237   4.021   4.391   2.978 -0.0074  0.0047 -0.9245
 2534SOL    HW119238   4.082   4.330   3.019  0.5008  0.6151 -0.7824
 2534SOL    HW219239   4.092   4.449   2.952 -0.1507  0.6400  0.1147
 2535SOL     OW19240   2.065   1.237   0.548 -0.1050 -0.1776 -0.0520
 2535SOL    HW119241   2.062   1.241   0.644  2.0753 -0.8860  0.0563
 2535SOL    HW219242   2.098   1.149   0.530 -0.6703 -0.6259  1.1338
 2536SOL     OW19243   0.954   3.140  10.760 -0.1040 -0.3834 -0.2373
 2536SOL    HW119244   0.965   3.199  10.685 -0.6188 -1.5997 -1.2706
 2536SOL    HW219245   1.045   3.157  10.787 -0.0255 -3.0124  1.1586
 2537SOL     OW19246   0.402   3.421   5.587 -0.2637 -0.6529 -0.0031
 2537SOL    HW119247   0.335   3.352   5.589 -0.3153 -0.5574  2.1108
 2537SOL    HW219248   0.449   3.407   5.505  1.1062  2.2680  0.2921
 2538SOL     OW19249   3.134   2.054   5.765  0.2814 -0.3320 -0.7204
 2538SOL    HW119250   3.109   2.076   5.675  0.2565 -0.0937 -0.6550
 2538SOL    HW219251   3.088   1.971   5.776  1.3303 -0.8043  0.2204
 2539SOL     OW19252   1.770   3.931   6.080  0.0757  0.0519 -0.0724
 2539SOL    HW119253   1.726   3.976   6.152 -0.1197  1.9815 -1.3809
 2539SOL    HW219254   1.765   3.845   6.120 -0.9724  0.6020  0.9609
 2540SOL     OW19255   2.883   1.389   7.210 -0.5502 -0.1037 -0.3443
 2540SOL    HW119256   2.914   1.330   7.279 -2.6886 -1.6020 -0.6617
 2540SOL    HW219257   2.964   1.382   7.158 -2.1332 -1.5382 -2.6263
 2541SOL     OW19258   3.574   0.551   2.422  0.2715 -0.3153  0.5039
 2541SOL    HW119259   3.659   0.508   2.431 -0.4489 -2.2470 -2.0354
 2541SOL    HW219260   3.546   0.539   2.513 -3.4910  1.5624 -0.4377
 2542SOL     OW19261   0.844   2.480   9.221 -0.4202  0.1393  0.1347
 2542SOL    HW119262   0.870   2.484   9.129  1.0018 -0.4264  0.5089
 2542SOL    HW219263   0.769   2.420   9.218  0.8499 -1.5532  1.5546
 2543SOL     OW19264   2.809   0.269   8.916 -0.1150  0.3281  0.3147
 2543SOL    HW119265   2.812   0.182   8.956 -1.1617 -1.7074 -4.0679
 2543SOL    HW219266   2.769   0.253   8.831  1.7993 -2.5893 -0.0517
 2544SOL     OW19267   2.199   2.233   5.706 -0.0422  0.6010  0.0053
 2544SOL    HW119268   2.120   2.278   5.737  0.5270  2.8462 -1.8103
 2544SOL    HW219269   2.257   2.236   5.782 -0.2196  0.7477  0.1347
 2545SOL     OW19270   3.109   2.214  14.999 -0.1027  0.2469 -0.0778
 2545SOL    HW119271   3.042   2.146  14.994 -0.7559  1.0406 -2.1904
 2545SOL    HW219272   3.192   2.168  14.997  0.0645  0.6372 -1.5780
 2546SOL     OW19273   0.636   2.816   5.384 -0.5149 -0.1573  0.4228
 2546SOL    HW119274   0.564   2.830   5.323  0.0752 -1.6300 -0.6215
 2546SOL    HW219275   0.622   2.723   5.402 -0.9739  0.2943  2.3343
 2547SOL     OW19276   1.489   1.352   7.647  0.4698  0.0322  0.6320
 2547SOL    HW119277   1.454   1.277   7.598  0.0012  0.2797  0.5810
 2547SOL    HW219278   1.568   1.363   7.594  1.6785 -2.5893  1.9248
 2548SOL     OW19279   1.627   3.517   7.502 -0.4950 -0.2326 -0.2122
 2548SOL    HW119280   1.594   3.444   7.450  0.3550 -2.6621  2.6566
 2548SOL    HW219281   1.585   3.589   7.455  0.4258  2.0037  2.3517
 2549SOL     OW19282   3.287   3.161   1.488  0.0529  0.2497 -0.1475
 2549SOL    HW119283   3.210   3.202   1.527 -0.4454  1.2794 -2.2508
 2549SOL    HW219284   3.270   3.067   1.501 -2.0016  0.4293 -1.6265
 2550SOL     OW19285   3.083   2.175  15.433 -0.3788  0.0706 -0.0851
 2550SOL    HW119286   3.100   2.103  15.373 -1.6558  0.6105 -1.0734
 2550SOL    HW219287   3.146   2.244  15.412  1.2823 -1.5439 -0.3758
 2551SOL     OW19288   4.197   3.620   3.514 -0.3590  0.4691  0.0903
 2551SOL    HW119289   4.288   3.592   3.500 -1.0674 -0.5318 -2.6066
 2551SOL    HW219290   4.204   3.624   3.609 -1.3309 -0.5531  0.2093
 2552SOL     OW19291   2.075   0.541  16.255  0.0859  0.1104 -0.9663
 2552SOL    HW119292   2.048   0.568  16.343 -0.8945 -1.5414 -0.7664
 2552SOL    HW219293   1.994   0.549  16.205 -0.3328  0.1729 -0.2732
 2553SOL     OW19294   3.796   0.920  11.148 -0.0778  0.6260  0.2789
 2553SOL    HW119295   3.813   0.986  11.215 -1.1836  1.2290 -0.0448
 2553SOL    HW219296   3.774   0.839  11.195 -0.1366 -0.7810 -2.1622
 2554SOL     OW19297   1.230   2.129   6.491  0.0326 -0.0546  0.1335
 2554SOL    HW119298   1.263   2.209   6.449 -1.4977  0.0312 -0.8883
 2554SOL    HW219299   1.176   2.169   6.559 -0.0096 -0.5196  0.3756
 2555SOL     OW19300   0.936   4.307   3.663 -0.1062 -0.4665  0.0048
 2555SOL    HW119301   0.946   4.219   3.700 -1.4194 -0.5422  0.1894
 2555SOL    HW219302   0.983   4.308   3.580 -0.2228 -0.0545 -0.0558
 2556SOL     OW19303   0.675   3.055   4.195 -0.0866 -0.0159 -0.1895
 2556SOL    HW119304   0.603   3.021   4.248 -0.4254  0.6369 -0.2438
 2556SOL    HW219305   0.636   3.093   4.116  1.4360 -0.4062 -1.1399
 2557SOL     OW19306   3.463   2.278  14.655 -0.9498 -0.1440 -0.4588
 2557SOL    HW119307   3.543   2.323  14.628  1.2632 -1.1427  4.5122
 2557SOL    HW219308   3.496   2.219  14.723  0.2398 -1.0658 -1.8130
 2558SOL     OW19309   3.956   3.328   6.310  0.6737 -0.0189  0.2591
 2558SOL    HW119310   3.917   3.325   6.397 -2.5638 -0.7167 -1.2156
 2558SOL    HW219311   3.875   3.331   6.259  1.9795 -1.3665 -1.9128
 2559SOL     OW19312   4.533   1.022   1.586 -0.1096  0.3406  0.6632
 2559SOL    HW119313   4.496   0.998   1.501 -0.4578 -0.3041  0.9932
 2559SOL    HW219314   4.586   1.099   1.564 -0.4323  0.6486  0.9669
 2560SOL     OW19315   2.381   0.147   3.346 -0.0002 -0.2893 -0.0559
 2560SOL    HW119316   2.409   0.181   3.431  3.5931 -2.2474 -0.4569
 2560SOL    HW219317   2.301   0.199   3.346  0.6766  0.7364 -0.9839
 2561SOL     OW19318   4.250   1.265   9.770  0.2012 -0.0354 -0.1672
 2561SOL    HW119319   4.247   1.182   9.721 -0.0121 -1.2901  1.9709
 2561SOL    HW219320   4.333   1.304   9.742  0.2294 -0.2868 -0.4453
 2562SOL     OW19321   2.511   3.806   5.162 -0.2540 -0.2904  0.3005
 2562SOL    HW119322   2.437   3.820   5.221 -2.2675 -1.2381 -2.0255
 2562SOL    HW219323   2.528   3.895   5.132  0.4115 -0.8534 -1.0160
 2563SOL     OW19324   1.386   4.233   5.342  0.1865  0.1610 -0.4760
 2563SOL    HW119325   1.431   4.237   5.427  1.0438  0.0428 -0.9270
 2563SOL    HW219326   1.417   4.153   5.300 -1.3503 -0.5453 -0.2537
 2564SOL     OW19327   2.119   2.945  17.341  0.2851 -0.6596  0.4887
 2564SOL    HW119328   2.140   2.854  17.321 -0.4504 -0.7360  0.0761
 2564SOL    HW219329   2.070   2.975  17.265  1.3052  2.2823  0.9741
 2565SOL     OW19330   3.227   3.430  15.493  0.0522 -0.2096 -0.2498
 2565SOL    HW119331   3.277   3.404  15.571 -0.5534 -1.2684 -0.2077
 2565SOL    HW219332   3.227   3.525  15.507 -0.1509 -0.4654  1.5936
 2566SOL     OW19333   3.845   1.438   7.618  0.1429  0.4636 -0.6158
 2566SOL    HW119334   3.751   1.431   7.632  0.4090  0.8404  1.4746
 2566SOL    HW219335   3.880   1.360   7.661  0.7948  0.0430 -1.9219
 2567SOL     OW19336   2.553   2.614   5.849  0.3633 -0.6807  0.0274
 2567SOL    HW119337   2.501   2.607   5.929  0.1569  1.7728  0.1146
 2567SOL    HW219338   2.532   2.534   5.801  0.1522 -0.0683 -0.9007
 2568SOL     OW19339   1.094   0.299   3.327  0.7180 -0.0759 -0.0510
 2568SOL    HW119340   1.143   0.283   3.408 -0.0705  0.2455  0.4906
 2568SOL    HW219341   1.068   0.208   3.313 -1.3384  0.9679 -2.8708
 2569SOL     OW19342   1.409   1.900  13.419  0.5774 -0.4121 -0.1968
 2569SOL    HW119343   1.400   1.840  13.345 -2.3054  1.5200 -1.4447
 2569SOL    HW219344   1.492   1.946  13.406  0.1095  0.3571 -0.4902
 2570SOL     OW19345   2.998   0.182  14.954 -0.3275 -0.6401  0.0770
 2570SOL    HW119346   3.051   0.254  14.921 -0.3408  0.2646  2.0334
 2570SOL    HW219347   2.924   0.193  14.894  1.5901 -0.4340 -2.2210
 2571SOL     OW19348   3.171   0.011   5.204  0.3612  0.3186  0.0782
 2571SOL    HW119349   3.127   4.680   5.154 -1.2931  0.7961  0.8843
 2571SOL    HW219350   3.121   0.010   5.285  0.5257  1.2835  0.1997
 2572SOL     OW19351   0.488   3.314  12.501  0.3745 -0.4089 -0.1414
 2572SOL    HW119352   0.420   3.268  12.452  0.8091 -1.6308  0.3941
 2572SOL    HW219353   0.466   3.404  12.477 -0.3796 -0.6770 -0.4658
 2573SOL     OW19354   2.346   4.451   4.507  0.8243 -0.4213  0.0235
 2573SOL    HW119355   2.342   4.368   4.461 -1.0003 -0.9956  1.2453
 2573SOL    HW219356   2.414   4.496   4.456  2.3382 -2.1259  0.5572
 2574SOL     OW19357   4.646   1.895  15.605 -0.1195  0.1747 -0.3308
 2574SOL    HW119358   4.627   1.974  15.554  1.6331  0.0886 -1.1270
 2574SOL    HW219359   0.004   1.901  15.613 -0.0176 -2.2257  0.3138
 2575SOL     OW19360   3.790   1.382  14.030  0.4901  0.1855  0.2223
 2575SOL    HW119361   3.712   1.433  14.052  1.2488  1.9737 -1.2270
 2575SOL    HW219362   3.768   1.354  13.941  1.1749 -1.6764  0.6360
 2576SOL     OW19363   3.665   4.074   6.298  0.0500  0.0005 -0.2257
 2576SOL    HW119364   3.584   4.104   6.257 -0.1963  0.3535  0.5348
 2576SOL    HW219365   3.648   3.980   6.308 -1.4472  0.2449 -0.4486
 2577SOL     OW19366   1.723   4.734  12.246 -0.1373 -0.3930 -0.4829
 2577SOL    HW119367   1.806   4.710  12.287 -0.2004 -1.5696 -1.0449
 2577SOL    HW219368   1.666   4.695  12.313  0.0163  0.5503  0.1959
 2578SOL     OW19369   0.650   2.292   3.047  0.7013 -0.0566  0.3196
 2578SOL    HW119370   0.623   2.216   3.098  1.6564  1.4677  3.1055
 2578SOL    HW219371   0.733   2.262   3.011 -0.5947 -2.9592 -0.2451
 2579SOL     OW19372   1.971   4.420   7.293 -0.6154  0.3880  0.3892
 2579SOL    HW119373   1.979   4.325   7.286 -1.4040  0.3887 -0.6401
 2579SOL    HW219374   2.034   4.456   7.231  0.2395 -1.2492  0.3261
 2580SOL     OW19375   2.005   0.354   8.600 -0.3838 -0.0268  0.2298
 2580SOL    HW119376   1.974   0.381   8.687 -0.7467  0.2404  0.0195
 2580SOL    HW219377   2.091   0.394   8.595  0.5653 -1.8424  2.0235
 2581SOL     OW19378   4.119   4.313   9.614  0.2548  0.5392  0.3147
 2581SOL    HW119379   4.051   4.297   9.549  1.1393  2.0215 -0.9585
 2581SOL    HW219380   4.195   4.344   9.565  0.9289 -1.0380  0.3428
 2582SOL     OW19381   1.946   1.752   2.509 -0.2952 -0.1711  0.2309
 2582SOL    HW119382   1.975   1.739   2.418 -3.1741  0.2720 -0.7585
 2582SOL    HW219383   2.011   1.806   2.554  1.6077 -0.3514 -2.2888
 2583SOL     OW19384   1.548   1.003   3.675  0.2486  0.0206 -0.1289
 2583SOL    HW119385   1.500   1.082   3.650 -0.3606  0.1425  1.4329
 2583SOL    HW219386   1.550   1.003   3.770  0.3791  0.8126 -0.1329
 2584SOL     OW19387   3.707   3.044   5.942  0.1332 -0.1721  0.2886
 2584SOL    HW119388   3.665   3.032   5.857  0.1822  2.3831 -0.0871
 2584SOL    HW219389   3.798   3.039   5.913  0.1804 -1.4442  0.6495
 2585SOL     OW19390   1.276   1.015   1.906  0.7050  0.6039  0.4107
 2585SOL    HW119391   1.247   1.104   1.884 -3.6267 -0.7472  0.6964
 2585SOL    HW219392   1.203   0.983   1.959  1.5470  0.2621  1.3453
 2586SOL     OW19393   0.146   3.319   8.540 -0.2739  0.3695  0.0906
 2586SOL    HW119394   0.226   3.270   8.556  1.6652  4.0956  1.6831
 2586SOL    HW219395   0.080   3.259   8.575 -0.5824 -0.4379 -1.8633
 2587SOL     OW19396   1.764   0.623   9.989  0.1309  0.3209  0.6866
 2587SOL    HW119397   1.774   0.529  10.001  1.9550  0.4687  0.1832
 2587SOL    HW219398   1.801   0.661  10.069  0.7612 -0.8096  0.9330
 2588SOL     OW19399   0.978   3.427  12.432  0.5788 -0.1565 -0.2589
 2588SOL    HW119400   0.972   3.332  12.417  0.7114 -0.4349  1.5140
 2588SOL    HW219401   0.909   3.437  12.498  0.1447  1.2056 -0.9177
 2589SOL     OW19402   3.735   2.304   3.217  0.3531 -0.0955 -0.1695
 2589SOL    HW119403   3.741   2.369   3.147  2.7756  0.8697  0.9310
 2589SOL    HW219404   3.641   2.290   3.228 -0.0577  3.3392  0.6349
 2590SOL     OW19405   1.250   1.741   7.267 -0.3185  0.1244  0.4821
 2590SOL    HW119406   1.274   1.713   7.356 -0.7610  1.1792  0.9294
 2590SOL    HW219407   1.225   1.832   7.282  0.3185  0.5234 -0.9532
 2591SOL     OW19408   1.193   4.704   6.101 -0.0066 -0.5157 -0.0785
 2591SOL    HW119409   1.199   4.615   6.068 -0.1935  0.3813 -2.5647
 2591SOL    HW219410   1.115   4.736   6.055 -0.9508  0.4412  2.2298
 2592SOL     OW19411   0.288   4.062   5.559  0.3002 -0.0010 -0.6820
 2592SOL    HW119412   0.297   3.994   5.493 -3.2226  0.9380 -2.1477
 2592SOL    HW219413   0.371   4.056   5.607  0.3078 -2.1027 -0.9661
 2593SOL     OW19414   3.398   1.454   1.798 -0.7053  0.1363 -0.2312
 2593SOL    HW119415   3.312   1.486   1.826 -1.0533  0.7025 -1.9127
 2593SOL    HW219416   3.383   1.360   1.788 -1.8039  0.2962 -0.1096
 2594SOL     OW19417   2.831   3.526   4.207 -0.3758 -0.0488  0.1871
 2594SOL    HW119418   2.878   3.578   4.274  1.2496  1.3914 -2.0679
 2594SOL    HW219419   2.769   3.595   4.185 -0.6703  0.5750  2.9104
 2595SOL     OW19420   1.017   3.452   2.967  0.0381 -0.0688  0.1811
 2595SOL    HW119421   1.073   3.529   2.954 -2.2126  1.1823 -2.1393
 2595SOL    HW219422   1.064   3.400   3.032  0.2023 -0.4851 -0.2757
 2596SOL     OW19423   3.126   1.539   6.770  0.0199  0.5003  0.5721
 2596SOL    HW119424   3.203   1.539   6.712 -0.6642 -2.8210 -0.3305
 2596SOL    HW219425   3.055   1.546   6.706 -0.2839 -0.9401  0.7569
 2597SOL     OW19426   0.422   3.957   7.738 -0.1214 -0.4129 -0.4009
 2597SOL    HW119427   0.371   3.912   7.671 -0.5412 -0.1211 -0.2781
 2597SOL    HW219428   0.367   4.032   7.760 -1.0092 -0.5760 -2.1361
 2598SOL     OW19429   2.430   4.723  12.324  0.1178 -0.1832  0.1810
 2598SOL    HW119430   2.479   4.682  12.395  0.1685  3.5030  2.2576
 2598SOL    HW219431   2.341   4.686  12.330  0.4923 -0.9570  0.9542
 2599SOL     OW19432   4.220   0.121   9.072  0.5313  0.0854 -0.7686
 2599SOL    HW119433   4.257   0.207   9.092 -2.1136  0.7512  1.3122
 2599SOL    HW219434   4.155   0.142   9.004 -0.1473 -1.1978 -0.5102
 2600SOL     OW19435   1.525   2.210  17.641 -0.2873  0.1143  0.1525
 2600SOL    HW119436   1.619   2.224  17.635 -0.2498 -0.6630 -0.8936
 2600SOL    HW219437   1.516   2.197  17.736 -0.6220  0.5450  0.1801
 2601SOL     OW19438   3.740   2.453  11.076 -0.0196  0.4062 -0.5298
 2601SOL    HW119439   3.790   2.533  11.060  0.1550  0.0422 -1.8084
 2601SOL    HW219440   3.719   2.429  10.986  0.7162 -2.5348  0.0830
 2602SOL     OW19441   0.838   3.393   9.043 -0.2366  0.6318 -0.3047
 2602SOL    HW119442   0.805   3.357   8.960  2.4543 -0.2135 -1.0095
 2602SOL    HW219443   0.783   3.471   9.054 -1.8484 -0.4972 -0.3336
 2603SOL     OW19444   3.589   4.387   7.897 -0.0621 -0.4052 -0.2941
 2603SOL    HW119445   3.589   4.294   7.920 -0.4282  0.3402  2.7170
 2603SOL    HW219446   3.675   4.390   7.855  0.4238  1.2578  0.8090
 2604SOL     OW19447   0.126   4.060   7.452  0.0354  0.4031  0.0336
 2604SOL    HW119448   0.150   4.109   7.531  0.9649  1.0959 -0.6767
 2604SOL    HW219449   0.074   3.984   7.480  1.6814 -1.2084 -1.2790
 2605SOL     OW19450   1.148   3.481  14.099  0.1709  0.1688  0.1156
 2605SOL    HW119451   1.055   3.503  14.088  0.3542  0.6906 -0.3188
 2605SOL    HW219452   1.181   3.570  14.111  1.2865 -0.1512 -0.6301
 2606SOL     OW19453   1.178   1.116   9.290  0.5400  0.1729  0.4850
 2606SOL    HW119454   1.239   1.140   9.221 -0.7811  0.9327 -0.4101
 2606SOL    HW219455   1.191   1.191   9.348 -1.6091 -0.1227  1.3536
 2607SOL     OW19456   4.358   1.277   5.874  0.5221  0.3577 -0.1611
 2607SOL    HW119457   4.331   1.188   5.895  0.8652 -0.0257 -1.3447
 2607SOL    HW219458   4.434   1.302   5.927  0.8446 -0.5322 -0.2068
 2608SOL     OW19459   1.182   1.917   4.125 -0.3253  0.1077  0.4835
 2608SOL    HW119460   1.155   2.003   4.094 -3.2143 -0.8273  0.4144
 2608SOL    HW219461   1.138   1.912   4.210 -0.8835 -0.0816  0.1860
 2609SOL     OW19462   3.376   1.919   9.513 -0.3226  0.2409  0.3890
 2609SOL    HW119463   3.344   2.002   9.477 -0.1902 -0.3775 -1.1394
 2609SOL    HW219464   3.341   1.934   9.601 -1.1708 -0.6627  0.2014
 2610SOL     OW19465   2.608   4.165   8.680  0.2105  0.1577 -0.0729
 2610SOL    HW119466   2.556   4.241   8.653  2.7788  1.2199 -2.0831
 2610SOL    HW219467   2.632   4.185   8.771  0.0505  2.5186 -0.5370
 2611SOL     OW19468   2.527   0.094   6.750 -0.3655 -0.6670  0.0963
 2611SOL    HW119469   2.608   0.049   6.730 -0.0761  0.8634 -2.2772
 2611SOL    HW219470   2.461   0.043   6.704  0.8192 -1.4086 -0.7727
 2612SOL     OW19471   2.272   3.928   3.303 -0.2213  0.1921 -0.4296
 2612SOL    HW119472   2.265   3.841   3.263  0.7729  0.7923 -1.9542
 2612SOL    HW219473   2.368   3.934   3.305 -0.2682  0.6945  0.1621
 2613SOL     OW19474   1.894   3.273   8.221 -0.3068  0.2456  0.3828
 2613SOL    HW119475   1.900   3.188   8.264  0.9448  0.2615  0.2515
 2613SOL    HW219476   1.973   3.272   8.166  1.5932  0.5729  3.0668
 2614SOL     OW19477   1.054   1.544  15.860  0.1952  0.1031 -0.6453
 2614SOL    HW119478   1.141   1.504  15.868  0.8652  1.5043 -0.8305
 2614SOL    HW219479   1.076   1.623  15.811  1.4710 -0.8732 -1.6591
 2615SOL     OW19480   1.534   0.099   2.049  0.1011  0.3364  0.4066
 2615SOL    HW119481   1.459   0.151   2.020  1.2090 -0.2448 -3.5330
 2615SOL    HW219482   1.584   0.088   1.968  2.1765 -1.5538  1.9687
 2616SOL     OW19483   3.285   0.061  12.521  0.1246  0.2100  0.3537
 2616SOL    HW119484   3.282   0.029  12.611 -0.8190 -1.5742 -0.3208
 2616SOL    HW219485   3.361   0.018  12.482  1.6670  1.8238  1.5804
 2617SOL     OW19486   2.024   2.444  14.572 -0.2805  0.4008 -0.0956
 2617SOL    HW119487   2.020   2.511  14.504  0.3438  2.1017  1.5399
 2617SOL    HW219488   2.113   2.446  14.607 -0.3624  0.9881  0.0877
 2618SOL     OW19489   0.993   0.396   6.029  0.0783  0.1668  0.0280
 2618SOL    HW119490   1.052   0.409   6.103 -0.7183  0.0582  0.6841
 2618SOL    HW219491   0.912   0.418   6.076  1.1225  0.6669  1.6067
 2619SOL     OW19492   1.051   2.590  11.035  0.1110  0.8502 -0.3143
 2619SOL    HW119493   1.047   2.651  10.961 -2.4676 -0.4536 -1.2579
 2619SOL    HW219494   0.978   2.632  11.082 -0.7200 -1.4567  0.4787
 2620SOL     OW19495   0.789   1.962  17.262  0.0902  0.2673 -0.3714
 2620SOL    HW119496   0.842   1.885  17.241  0.1691 -0.1917  1.4778
 2620SOL    HW219497   0.833   2.007  17.334  1.3403  0.0268 -0.9897
 2621SOL     OW19498   2.450   2.380   7.993 -0.2539 -0.1865  0.1011
 2621SOL    HW119499   2.475   2.288   7.991  0.2314 -0.0841  1.1600
 2621SOL    HW219500   2.392   2.386   7.918  0.4477 -1.0406 -0.5055
 2622SOL     OW19501   0.200   3.107  16.261 -0.0247 -0.4425 -0.4791
 2622SOL    HW119502   0.133   3.166  16.225  0.1408 -0.7472 -1.2730
 2622SOL    HW219503   0.214   3.056  16.181 -0.3014  0.1687 -0.9179
 2623SOL     OW19504   1.976   2.610   5.146 -0.2375 -0.3820 -0.8358
 2623SOL    HW119505   1.936   2.689   5.110  0.8111 -0.4639 -2.1866
 2623SOL    HW219506   1.983   2.565   5.062 -0.6762 -0.6032 -0.7543
 2624SOL     OW19507   2.721   2.475   9.298 -0.6157 -0.1535 -0.2245
 2624SOL    HW119508   2.732   2.482   9.204  2.0442 -2.4192 -0.0735
 2624SOL    HW219509   2.670   2.394   9.308 -0.4285 -0.0584  1.6679
 2625SOL     OW19510   3.336   1.757   3.791  0.1523 -1.0161  0.1211
 2625SOL    HW119511   3.295   1.673   3.814  0.6403 -1.0410  0.9000
 2625SOL    HW219512   3.388   1.765   3.871  1.2736  0.5028 -0.7574
 2626SOL     OW19513   2.769   4.288  16.353  0.1287 -0.3539  0.3702
 2626SOL    HW119514   2.686   4.328  16.380 -1.0444 -2.3747 -0.2058
 2626SOL    HW219515   2.817   4.365  16.323  0.9772 -0.4149  1.5792
 2627SOL     OW19516   2.016   2.202  10.281  0.4367  0.2508  0.0053
 2627SOL    HW119517   2.059   2.148  10.215  2.2028  0.1055  1.2591
 2627SOL    HW219518   2.090   2.239  10.329  1.1283 -0.3060 -0.6246
 2628SOL     OW19519   1.327   3.546   8.212  0.2036 -0.3371 -0.3915
 2628SOL    HW119520   1.392   3.616   8.219 -1.1279  0.8147  0.1929
 2628SOL    HW219521   1.248   3.581   8.252  0.8502 -2.4045  2.6716
 2629SOL     OW19522   0.765   1.250   7.900 -0.2525  0.1305  0.6870
 2629SOL    HW119523   0.764   1.328   7.954  0.7972  0.0959  0.7481
 2629SOL    HW219524   0.808   1.189   7.959  1.6504  2.8774  2.1145
 2630SOL     OW19525   1.251   4.484  10.076 -1.0148  0.3250  0.0991
 2630SOL    HW119526   1.271   4.411  10.135 -1.0896  2.2398  2.4830
 2630SOL    HW219527   1.157   4.495  10.082 -0.8522  1.4417  0.6317
 2631SOL     OW19528   3.650   2.599   8.659 -1.1725 -0.1821 -0.1440
 2631SOL    HW119529   3.585   2.539   8.696  1.0990 -2.1741  0.5785
 2631SOL    HW219530   3.656   2.664   8.728  1.3216  1.0048 -1.5010
 2632SOL     OW19531   1.486   2.215   8.044 -0.7127  0.4198  0.1015
 2632SOL    HW119532   1.439   2.216   8.127 -1.1078 -0.5086 -0.1146
 2632SOL    HW219533   1.509   2.308   8.033  0.5802  0.0299 -0.4710
 2633SOL     OW19534   4.474   1.392   1.797  0.3900  0.1518  0.5629
 2633SOL    HW119535   4.432   1.306   1.803  1.4716 -0.5367 -1.6808
 2633SOL    HW219536   4.480   1.402   1.892 -1.7970  0.5522  0.6618
 2634SOL     OW19537   4.083   2.470   7.327 -0.0928 -0.1744 -0.0200
 2634SOL    HW119538   4.063   2.563   7.314  0.1521 -0.2126 -0.6444
 2634SOL    HW219539   4.176   2.473   7.348  0.0284 -2.0850 -0.2533
 2635SOL     OW19540   3.504   0.709  13.713 -0.2908  0.5103  0.0555
 2635SOL    HW119541   3.423   0.745  13.677 -1.2676 -1.2993  0.4590
 2635SOL    HW219542   3.476   0.618  13.723  0.2468  0.2954 -0.3523
 2636SOL     OW19543   2.949   3.154   2.022  0.4012  0.2436 -0.0785
 2636SOL    HW119544   2.941   3.209   1.944 -2.6943 -2.7777 -1.9175
 2636SOL    HW219545   3.002   3.209   2.079 -1.8810  1.1020  1.2248
 2637SOL     OW19546   4.526   1.380  10.091  0.4375 -0.1220 -0.5024
 2637SOL    HW119547   4.500   1.292  10.063 -1.5401  0.1799  0.4075
 2637SOL    HW219548   4.617   1.365  10.118 -0.0022 -1.0029  0.4333
 2638SOL     OW19549   2.781   2.473   9.832 -0.2865  0.1587 -0.2211
 2638SOL    HW119550   2.733   2.429   9.762 -1.8545  2.2151 -0.4353
 2638SOL    HW219551   2.720   2.536   9.869 -1.4838  0.9246 -3.5203
 2639SOL     OW19552   0.669   2.502   6.677  0.3680  0.6953 -0.5092
 2639SOL    HW119553   0.580   2.469   6.687  1.2253 -1.1254  1.1914
 2639SOL    HW219554   0.656   2.578   6.620 -0.6180 -0.8046 -2.2687
 2640SOL     OW19555   2.510   0.005   4.827  0.2122 -0.0277  0.7147
 2640SOL    HW119556   2.525   4.684   4.902  0.4323 -1.7927 -0.7202
 2640SOL    HW219557   2.426   4.711   4.795 -1.4540  3.4559  1.7666
 2641SOL     OW19558   1.433   2.826   7.490 -0.2292 -0.7702 -0.2912
 2641SOL    HW119559   1.368   2.795   7.427 -1.7306  0.4446  0.6449
 2641SOL    HW219560   1.513   2.828   7.439  0.5242  0.7187  0.9304
 2642SOL     OW19561   3.296   2.313  15.720 -0.1326  0.2084  0.4731
 2642SOL    HW119562   3.217   2.366  15.710  0.9440  1.4476 -1.4081
 2642SOL    HW219563   3.350   2.324  15.642  1.5840  0.5464  1.7187
 2643SOL     OW19564   1.854   1.087   2.451 -0.8007  0.0760  0.0241
 2643SOL    HW119565   1.804   1.168   2.448 -1.6554 -0.4996 -1.3533
 2643SOL    HW219566   1.833   1.045   2.534  1.3306  0.7301  0.9010
 2644SOL     OW19567   2.855   3.065   2.506  0.1745  0.4923  0.2377
 2644SOL    HW119568   2.805   3.133   2.460 -0.9325  1.2571  2.6074
 2644SOL    HW219569   2.816   2.981   2.483 -0.1531  0.4607  0.9497
 2645SOL     OW19570   4.287   1.735   5.488 -0.1514 -0.2647  0.4334
 2645SOL    HW119571   4.246   1.650   5.476 -0.9760  0.4899 -2.1747
 2645SOL    HW219572   4.209   1.783   5.459 -0.0858 -1.5292 -1.7777
 2646SOL     OW19573   0.296   1.460   4.324 -0.2950  0.0722  0.0242
 2646SOL    HW119574   0.218   1.411   4.298 -2.0377  3.4423 -0.9640
 2646SOL    HW219575   0.279   1.550   4.297  0.8678  0.4496  0.5321
 2647SOL     OW19576   1.159   1.724   2.456  0.2944 -0.2662  0.2037
 2647SOL    HW119577   1.077   1.711   2.504  0.2852  1.4408  0.6588
 2647SOL    HW219578   1.131   1.731   2.365 -0.5750  0.7817  0.5549
 2648SOL     OW19579   1.533   2.036   6.021 -0.0116  0.1194  0.1222
 2648SOL    HW119580   1.466   2.102   6.004  0.6757  1.0205  0.9115
 2648SOL    HW219581   1.523   2.023   6.116 -2.1598 -0.9784 -0.2435
 2649SOL     OW19582   2.885   1.847  17.083  0.2352 -0.0814 -0.0694
 2649SOL    HW119583   2.874   1.927  17.032 -0.7741  2.1614  3.7264
 2649SOL    HW219584   2.884   1.778  17.016 -2.5573 -0.8169  0.7646
 2650SOL     OW19585   4.664   0.545   5.648 -0.2926 -0.3596  0.1614
 2650SOL    HW119586   4.669   0.466   5.595 -0.5967 -0.2642 -0.0115
 2650SOL    HW219587   4.667   0.617   5.585 -0.6879 -1.2196 -0.8394
 2651SOL     OW19588   3.692   0.219  11.014 -0.0357  0.0950 -0.1320
 2651SOL    HW119589   3.703   0.129  11.043  0.4497 -0.2303 -1.3587
 2651SOL    HW219590   3.621   0.217  10.950  0.0288 -1.5023 -0.1359
 2652SOL     OW19591   1.668   0.334   2.409  0.6422  0.1530 -0.0757
 2652SOL    HW119592   1.579   0.298   2.416  1.0605 -1.0293 -0.8299
 2652SOL    HW219593   1.654   0.427   2.425 -1.5192 -0.5056  1.8379
 2653SOL     OW19594   3.591   4.552   3.664 -0.1402  0.0086 -0.1519
 2653SOL    HW119595   3.588   4.459   3.683  0.7044  0.1489  0.6852
 2653SOL    HW219596   3.500   4.573   3.682 -0.2123  0.4507 -1.0424
 2654SOL     OW19597   0.065   4.216   5.683  0.0146 -0.3001 -0.8922
 2654SOL    HW119598   0.149   4.173   5.667 -1.2207 -2.7420 -0.7641
 2654SOL    HW219599   0.092   4.299   5.724  1.5984 -1.2288 -0.0585
 2655SOL     OW19600   1.397   2.955   1.902 -0.1911 -0.1660 -0.6948
 2655SOL    HW119601   1.426   3.033   1.855 -2.3279 -1.6734 -4.5885
 2655SOL    HW219602   1.312   2.943   1.858 -0.1666  0.0827 -0.8092
 2656SOL     OW19603   3.306   2.498  10.221 -0.3522  0.4738  0.1385
 2656SOL    HW119604   3.242   2.434  10.254  1.7453 -1.4483  0.4635
 2656SOL    HW219605   3.349   2.521  10.303 -0.3460  1.2790 -0.0896
 2657SOL     OW19606   2.653   4.625   5.451  0.8441  0.0273 -0.2680
 2657SOL    HW119607   2.668   4.570   5.528  0.2184 -0.5282 -0.5484
 2657SOL    HW219608   2.723   4.687   5.474 -0.7989  2.4683 -1.8715
 2658SOL     OW19609   1.896   3.177   7.459 -0.0195 -0.3481  0.6555
 2658SOL    HW119610   1.802   3.174   7.478 -0.6840  3.3264 -2.1549
 2658SOL    HW219611   1.921   3.136   7.542  0.5698  0.3599  0.8345
 2659SOL     OW19612   0.998   4.021   9.943 -0.1852 -0.1219 -0.1326
 2659SOL    HW119613   1.005   4.045  10.035  0.7668  1.2852 -0.5655
 2659SOL    HW219614   0.904   4.032   9.931 -0.3921  1.3485  2.7067
 2660SOL     OW19615   0.300   1.016   7.605  0.2449 -0.3506 -0.2348
 2660SOL    HW119616   0.275   1.104   7.577  1.1765 -0.4515 -1.3949
 2660SOL    HW219617   0.395   1.029   7.606  0.2380 -0.3680  0.5190
 2661SOL     OW19618   1.993   4.700   3.081 -0.3671  0.1078 -0.3665
 2661SOL    HW119619   1.999   0.048   3.037  0.2606 -0.3014 -1.0629
 2661SOL    HW219620   2.084   4.670   3.081 -0.6142 -0.6311 -0.2915
 2662SOL     OW19621   2.884   1.690  10.031  0.1326 -0.0682  0.1319
 2662SOL    HW119622   2.958   1.638   9.999  0.8524  0.2060  1.3352
 2662SOL    HW219623   2.865   1.747   9.956 -0.5409 -0.8912 -0.3241
 2663SOL     OW19624   2.054   4.224   5.253 -0.8462 -0.2970 -0.0993
 2663SOL    HW119625   2.035   4.130   5.258  0.9273 -0.6748 -0.1913
 2663SOL    HW219626   2.025   4.234   5.162  2.4416  0.4082 -1.1052
 2664SOL     OW19627   1.309   1.994   3.724 -0.2165 -0.1868 -0.3497
 2664SOL    HW119628   1.291   1.906   3.758 -0.2529  0.3430  1.0133
 2664SOL    HW219629   1.259   2.040   3.791  0.2636  1.1220 -0.9002
 2665SOL     OW19630   4.045   0.870   5.021 -0.4917 -0.1911 -0.5970
 2665SOL    HW119631   3.989   0.848   4.947 -3.5300 -0.8812  1.9209
 2665SOL    HW219632   4.021   0.961   5.036  0.5986 -0.0920  0.5987
 2666SOL     OW19633   3.139   3.327  15.806  0.5840 -0.3782 -0.3295
 2666SOL    HW119634   3.132   3.268  15.882  2.0476  1.6260  1.3857
 2666SOL    HW219635   3.146   3.410  15.854  0.7265 -1.1543  1.0062
 2667SOL     OW19636   1.276   0.574   3.644  0.5962 -0.1647 -0.0391
 2667SOL    HW119637   1.365   0.608   3.632  0.6789 -0.0680  0.8014
 2667SOL    HW219638   1.292   0.537   3.731  0.1465 -0.1783  0.0357
 2668SOL     OW19639   1.806   2.220   7.006  0.2724 -0.1874 -0.2012
 2668SOL    HW119640   1.865   2.165   7.058  0.1742 -1.7704 -1.7328
 2668SOL    HW219641   1.752   2.154   6.962  0.8481 -2.2446  2.1564
 2669SOL     OW19642   4.717   1.240   1.579  0.2537  0.2649 -0.1208
 2669SOL    HW119643   4.695   1.310   1.640  2.1082 -0.3745  1.3085
 2669SOL    HW219644   0.009   1.293   1.504 -0.0055 -0.3532 -0.6603
 2670SOL     OW19645   2.130   2.845  15.517 -0.5032 -0.6310  0.1944
 2670SOL    HW119646   2.146   2.762  15.562  0.1379 -0.2255  0.7087
 2670SOL    HW219647   2.159   2.911  15.580 -0.4500  0.0520 -0.5378
 2671SOL     OW19648   0.860   4.496   7.219 -0.4931 -0.6783  0.3225
 2671SOL    HW119649   0.840   4.568   7.159  1.0312 -2.3224 -2.1823
 2671SOL    HW219650   0.800   4.506   7.293  0.8035  2.4749  0.9267
 2672SOL     OW19651   0.417   0.935   6.927 -0.5318 -0.5312  0.0497
 2672SOL    HW119652   0.379   0.869   6.870  1.7815 -3.1887  1.5908
 2672SOL    HW219653   0.507   0.903   6.936 -0.3497  0.3075  1.3155
 2673SOL     OW19654   0.208   0.098   7.375  0.5174  0.1644  0.0005
 2673SOL    HW119655   0.241   0.041   7.306  0.9217  1.3953 -0.8287
 2673SOL    HW219656   0.127   0.053   7.396  0.7872  1.0121  2.8670
 2674SOL     OW19657   4.266   1.810  11.988 -0.2421 -0.1491  0.2529
 2674SOL    HW119658   4.209   1.885  11.976  1.6685  1.3545  0.5358
 2674SOL    HW219659   4.314   1.815  11.905  0.6251 -0.6220  0.7265
 2675SOL     OW19660   1.612   4.653   8.133  0.3276  0.5465  0.2810
 2675SOL    HW119661   1.652   4.570   8.108  1.8702  1.4213 -0.1651
 2675SOL    HW219662   1.589   4.637   8.224 -1.2583 -0.9655 -0.3982
 2676SOL     OW19663   3.210   0.922   5.511 -0.2983  0.5778  0.1030
 2676SOL    HW119664   3.282   0.926   5.448 -0.4384 -0.9436 -0.1476
 2676SOL    HW219665   3.222   0.835   5.547 -1.2430  0.5094  0.2655
 2677SOL     OW19666   4.704   3.927  13.276  0.3086 -0.3650 -0.6289
 2677SOL    HW119667   4.638   3.908  13.209  0.2766  4.5997 -2.0029
 2677SOL    HW219668   4.649   3.911  13.353  1.3833  3.4949  0.9155
 2678SOL     OW19669   2.871   2.979  13.353  0.4372  0.0092  0.0816
 2678SOL    HW119670   2.838   3.057  13.310 -0.9729 -1.1502 -0.9479
 2678SOL    HW219671   2.797   2.953  13.409  1.4763  1.4794  2.1338
 2679SOL     OW19672   1.115   1.934   8.650  0.5577 -0.0253  0.2831
 2679SOL    HW119673   1.163   1.966   8.727 -0.4289  0.2455  0.7767
 2679SOL    HW219674   1.186   1.942   8.586  0.6814  1.3772  0.6037
 2680SOL     OW19675   1.470   2.238   0.944  0.5101  0.0317  0.1342
 2680SOL    HW119676   1.451   2.305   0.879 -1.5529  0.1093  0.8085
 2680SOL    HW219677   1.494   2.160   0.895  0.9196  0.0009  0.3773
 2681SOL     OW19678   3.346   1.805   6.480  0.0136 -0.0892 -0.0968
 2681SOL    HW119679   3.421   1.799   6.540  0.0527  0.5884 -0.0736
 2681SOL    HW219680   3.368   1.885   6.431  1.0517  0.3587  1.0900
 2682SOL     OW19681   1.949   3.948   1.150  0.4359  0.2534 -0.7974
 2682SOL    HW119682   1.927   3.987   1.066  0.6981  1.8777 -0.1070
 2682SOL    HW219683   1.930   3.854   1.143 -0.2953  0.2595  0.8974
 2683SOL     OW19684   3.205   3.636   7.834  0.3840 -0.2806  0.5297
 2683SOL    HW119685   3.124   3.660   7.880  0.5704 -0.4755  0.9558
 2683SOL    HW219686   3.203   3.695   7.759 -1.5291 -1.0343 -0.0293
 2684SOL     OW19687   0.330   4.677   4.136 -0.0948  0.0499 -0.0719
 2684SOL    HW119688   0.254   4.669   4.194 -0.3888 -2.0948 -0.7394
 2684SOL    HW219689   0.300   4.602   4.085 -0.4944  0.9013 -1.0769
 2685SOL     OW19690   3.324   3.544   2.268  0.4365 -0.0656 -0.6615
 2685SOL    HW119691   3.355   3.621   2.220 -0.3033 -1.0041 -2.6279
 2685SOL    HW219692   3.339   3.566   2.360  0.8299 -1.2100 -0.4486
 2686SOL     OW19693   1.720   0.273   3.118 -0.2601 -0.5520  0.0524
 2686SOL    HW119694   1.753   0.202   3.173  0.3551 -1.2029 -1.1534
 2686SOL    HW219695   1.757   0.252   3.033 -0.1977  0.4148 -0.1628
 2687SOL     OW19696   2.223   0.262   0.202  0.1299  0.3828  0.4399
 2687SOL    HW119697   2.227   0.184   0.147 -0.5905 -0.6498  1.8729
 2687SOL    HW219698   2.307   0.253   0.246 -0.1968  0.5859  1.0966
 2688SOL     OW19699   1.088   2.297   6.660 -0.1612 -0.2107 -0.9004
 2688SOL    HW119700   1.104   2.274   6.752 -0.1238  0.5510 -0.7112
 2688SOL    HW219701   1.062   2.389   6.659 -1.7850 -0.6085  3.3035
 2689SOL     OW19702   0.130   3.591   8.662  0.4685 -0.9586  0.0597
 2689SOL    HW119703   0.111   3.500   8.638 -1.6230 -1.2906  2.9961
 2689SOL    HW219704   0.134   3.634   8.576  0.0433  0.6290  0.8408
 2690SOL     OW19705   4.427   0.107   7.608 -0.5706 -0.5457  0.2545
 2690SOL    HW119706   4.470   0.022   7.619  1.6494  1.1247  4.7117
 2690SOL    HW219707   4.383   0.108   7.693  0.6510 -2.6584  0.9333
 2691SOL     OW19708   3.823   4.624   1.702 -0.4238 -0.1964  0.2639
 2691SOL    HW119709   3.891   4.562   1.728  0.2432  0.9296  1.1563
 2691SOL    HW219710   3.886   4.691   1.675 -0.4437 -0.2379  0.1127
 2692SOL     OW19711   0.515   4.390   6.477 -0.2686 -0.0455  0.1329
 2692SOL    HW119712   0.545   4.459   6.535  1.9541 -0.0603 -1.0065
 2692SOL    HW219713   0.435   4.367   6.524  1.7386 -1.0259  3.0791
 2693SOL     OW19714   3.359   2.876   8.615  0.1918  0.3201 -0.1159
 2693SOL    HW119715   3.319   2.962   8.609  0.6231  0.5222 -0.1197
 2693SOL    HW219716   3.404   2.886   8.699  0.1588  0.4884 -0.1192
 2694SOL     OW19717   3.061   0.041   1.282  0.0053  0.2985 -1.1307
 2694SOL    HW119718   3.116   4.707   1.253  1.8325  0.6499  1.4785
 2694SOL    HW219719   3.010   0.054   1.201  0.7704  2.4234 -1.2921
 2695SOL     OW19720   0.845   1.770  17.489 -0.7973  0.3196 -0.7737
 2695SOL    HW119721   0.813   1.843  17.541 -2.2771  0.1303 -1.4244
 2695SOL    HW219722   0.867   1.707  17.558 -3.2611  1.3991  0.9773
 2696SOL     OW19723   0.333   0.626   9.194  0.3013 -0.3200 -0.2293
 2696SOL    HW119724   0.373   0.593   9.274  1.2711  0.6189 -0.3315
 2696SOL    HW219725   0.371   0.713   9.185 -1.6731  0.5038 -0.6084
 2697SOL     OW19726   0.176   3.673   3.569 -0.3486  0.1078 -0.0190
 2697SOL    HW119727   0.203   3.732   3.639 -0.5457 -3.0126  2.6702
 2697SOL    HW219728   0.236   3.700   3.499 -1.5819  1.3612 -0.5765
 2698SOL     OW19729   3.772   1.220   3.021 -0.1688  0.3705  0.4545
 2698SOL    HW119730   3.853   1.177   2.994  0.0856  0.4223  1.1365
 2698SOL    HW219731   3.794   1.311   3.003 -0.2136 -0.0044 -1.5960
 2699SOL     OW19732   0.768   3.916  17.636  0.7875  0.1403 -0.3049
 2699SOL    HW119733   0.674   3.915  17.622  0.7904  0.2821 -0.3274
 2699SOL    HW219734   0.789   3.988  17.695  2.2142  0.8607 -1.6772
 2700SOL     OW19735   2.136   3.573   2.843  0.1949 -0.1973  0.0112
 2700SOL    HW119736   2.119   3.582   2.750 -0.8417 -0.5177  0.1741
 2700SOL    HW219737   2.232   3.573   2.846  0.1841 -0.5187  0.4336
 2701SOL     OW19738   1.868   2.044   1.718  0.7849 -0.3148  0.0584
 2701SOL    HW119739   1.835   1.979   1.657  0.4731 -0.9034  0.8559
 2701SOL    HW219740   1.954   2.069   1.685  1.3852 -0.1682  1.7256
 2702SOL     OW19741   1.142   0.290  16.939 -0.1698 -0.3285  0.2140
 2702SOL    HW119742   1.146   0.301  17.034 -1.3844 -0.5381  0.2884
 2702SOL    HW219743   1.154   0.195  16.939 -1.4264 -0.4842  0.1936
 2703SOL     OW19744   1.623   3.537   6.371 -0.1039 -0.4497 -0.3381
 2703SOL    HW119745   1.582   3.510   6.454  2.3421 -0.6981  0.7796
 2703SOL    HW219746   1.635   3.449   6.335  0.7101 -0.0675 -0.9810
 2704SOL     OW19747   1.827   0.429   8.035  0.0568  0.0944 -0.0213
 2704SOL    HW119748   1.810   0.460   7.946  0.4574  1.8060  0.4918
 2704SOL    HW219749   1.744   0.386   8.057 -1.0467  2.4398  0.3991
 2705SOL     OW19750   2.883   3.797   3.478  0.6087 -0.3572  0.1780
 2705SOL    HW119751   2.961   3.835   3.440  1.6421 -1.8113  0.8282
 2705SOL    HW219752   2.866   3.865   3.543  2.4058  0.7829 -0.5513
 2706SOL     OW19753   3.174   0.958   5.007 -0.4658  0.2709  0.5426
 2706SOL    HW119754   3.135   0.912   5.082 -0.7045  1.1440  0.9465
 2706SOL    HW219755   3.245   0.895   4.991  0.0027  0.7595  0.7243
 2707SOL     OW19756   2.841   0.464   8.325 -0.2433 -0.2465 -0.6517
 2707SOL    HW119757   2.796   0.546   8.348 -2.4041 -1.2644 -1.1853
 2707SOL    HW219758   2.896   0.446   8.401 -0.8144 -0.7959 -0.3693
 2708SOL     OW19759   1.640   2.446   8.883  0.5242  0.0563 -0.2416
 2708SOL    HW119760   1.711   2.404   8.833  0.4088  0.2218 -0.5469
 2708SOL    HW219761   1.558   2.431   8.835  0.2204  0.5195  0.1416
 2709SOL     OW19762   1.243   1.790   7.695  0.6331 -0.8630 -0.1172
 2709SOL    HW119763   1.258   1.869   7.644 -0.5179 -0.9338 -0.5821
 2709SOL    HW219764   1.273   1.724   7.632 -0.0423 -0.2360 -1.0979
 2710SOL     OW19765   0.409   2.188   1.642  0.4159  0.1871  0.3421
 2710SOL    HW119766   0.485   2.235   1.676 -0.2681  1.7644 -0.3034
 2710SOL    HW219767   0.433   2.096   1.656  2.0799  0.7883  1.4177
 2711SOL     OW19768   1.935   4.336   6.143 -0.0345 -0.0709 -0.3771
 2711SOL    HW119769   2.014   4.311   6.191 -1.1585 -0.0635  1.4623
 2711SOL    HW219770   1.897   4.407   6.194  1.4422 -0.9723  1.9773
 2712SOL     OW19771   3.941   3.447  13.646 -0.1650 -0.4044  0.0070
 2712SOL    HW119772   3.920   3.357  13.673 -2.0509 -0.6181 -2.1649
 2712SOL    HW219773   3.900   3.489  13.721  1.6632  0.3627  0.5738
 2713SOL     OW19774   0.399   0.199   2.830 -0.1220 -0.2668  0.4898
 2713SOL    HW119775   0.453   0.278   2.828 -0.2567 -0.1413  2.2176
 2713SOL    HW219776   0.425   0.151   2.751  0.5631 -0.8842  1.0908
 2714SOL     OW19777   4.708   2.394   8.341  0.2040  0.1836 -0.1434
 2714SOL    HW119778   0.035   2.460   8.315 -0.7548  0.7352 -1.1212
 2714SOL    HW219779   4.716   2.335   8.266 -0.4693 -0.1581  0.0579
 2715SOL     OW19780   1.213   2.464   2.918 -0.7912 -0.4729  0.2113
 2715SOL    HW119781   1.308   2.477   2.913 -0.8971  0.2434 -0.0274
 2715SOL    HW219782   1.209   2.383   2.867 -1.7222  0.1851 -0.7606
 2716SOL     OW19783   0.977   0.615   1.843 -0.3233 -0.0308 -0.3579
 2716SOL    HW119784   0.992   0.693   1.789  0.7035 -0.3502 -0.5256
 2716SOL    HW219785   0.896   0.633   1.891  0.6299 -0.1139  1.2753
 2717SOL     OW19786   3.602   4.480   5.505 -0.5312  0.1361 -0.8486
 2717SOL    HW119787   3.571   4.560   5.464 -0.1793  1.6027  1.7966
 2717SOL    HW219788   3.568   4.406   5.453 -0.3378 -1.7339  1.6726
 2718SOL     OW19789   3.871   3.544   4.451  0.2677  0.2001  0.3490
 2718SOL    HW119790   3.820   3.589   4.517 -0.9478 -1.1575  0.3401
 2718SOL    HW219791   3.948   3.601   4.452  0.8074 -0.4945 -1.2067
 2719SOL     OW19792   0.735   3.828  11.076 -0.0788 -0.2464  0.3168
 2719SOL    HW119793   0.755   3.743  11.037 -1.2037 -0.0011 -0.8070
 2719SOL    HW219794   0.641   3.828  11.090 -0.0374  2.6971  0.6011
 2720SOL     OW19795   4.381   3.358   3.756  0.8602  0.5778  0.7442
 2720SOL    HW119796   4.291   3.385   3.777  1.2967  2.0015  0.7503
 2720SOL    HW219797   4.407   3.333   3.845 -1.6904  3.3294  2.2606
 2721SOL     OW19798   4.421   1.921   7.940  0.2002  0.4561  0.0558
 2721SOL    HW119799   4.386   1.870   7.866  0.1904  0.8419 -0.2067
 2721SOL    HW219800   4.379   1.877   8.014 -0.4031  0.8982 -0.0242
 2722SOL     OW19801   2.703   1.307   2.018 -0.3823  0.6672 -0.1732
 2722SOL    HW119802   2.767   1.255   1.971  0.5143  0.6720  1.0432
 2722SOL    HW219803   2.701   1.268   2.106  0.1689 -1.5416 -1.1524
 2723SOL     OW19804   2.331   1.898   2.428  0.3053  0.2203 -0.1290
 2723SOL    HW119805   2.269   1.963   2.396 -0.7151 -2.1144 -2.8655
 2723SOL    HW219806   2.309   1.836   2.358 -3.0266  1.5949 -0.2910
 2724SOL     OW19807   2.814   1.799   2.628 -0.2075  0.0120  0.0165
 2724SOL    HW119808   2.771   1.859   2.567  0.8737  1.1823  0.4267
 2724SOL    HW219809   2.755   1.815   2.702  0.2272 -1.2720  0.6370
 2725SOL     OW19810   1.068   3.247   1.431  1.0637  0.4826  0.3566
 2725SOL    HW119811   0.987   3.207   1.463  1.1851 -1.1533 -1.3869
 2725SOL    HW219812   1.098   3.175   1.376 -1.1992  0.9749 -1.5092
 2726SOL     OW19813   2.965   1.468   9.400 -0.7057  0.6444  0.0906
 2726SOL    HW119814   2.902   1.533   9.368 -0.2200  0.9242 -0.3074
 2726SOL    HW219815   3.046   1.514   9.378  0.8749 -1.4378  1.6007
 2727SOL     OW19816   0.822   1.470  11.139 -0.4386  0.2392  0.3936
 2727SOL    HW119817   0.850   1.458  11.230 -1.8296  0.0119  0.7866
 2727SOL    HW219818   0.890   1.527  11.102 -0.9179 -0.4771 -1.5582
 2728SOL     OW19819   1.097   2.824   7.079  0.1306 -0.7800 -0.2832
 2728SOL    HW119820   1.074   2.844   6.988 -0.2794 -1.1876 -0.2691
 2728SOL    HW219821   1.018   2.856   7.124  0.6752  2.3063 -1.4969
 2729SOL     OW19822   2.720   0.913  16.928  0.2344 -0.2925  0.4997
 2729SOL    HW119823   2.788   0.846  16.931  0.7556  0.0676 -2.8869
 2729SOL    HW219824   2.640   0.861  16.935 -0.6637  1.4069  2.9525
 2730SOL     OW19825   4.184   4.455   4.873  0.0977 -0.2309 -0.0436
 2730SOL    HW119826   4.229   4.410   4.801  1.5464 -1.2642  1.5083
 2730SOL    HW219827   4.236   4.449   4.953  1.1807  0.8403 -0.6599
 2731SOL     OW19828   2.053   0.806   5.480  0.2993  0.1433 -0.3939
 2731SOL    HW119829   2.043   0.723   5.434 -1.3406 -0.2432  0.6509
 2731SOL    HW219830   2.057   0.778   5.572 -3.0273 -1.1367 -0.6675
 2732SOL     OW19831   0.845   3.413   8.592  0.5389  0.2813  0.1733
 2732SOL    HW119832   0.789   3.412   8.669  0.3318  2.3658  0.0730
 2732SOL    HW219833   0.905   3.343   8.618 -0.2607 -0.0944  0.9802
 2733SOL     OW19834   4.347   0.769  15.944 -0.0980  0.1256  0.6126
 2733SOL    HW119835   4.401   0.839  15.982  1.1066 -1.0546  1.0714
 2733SOL    HW219836   4.279   0.819  15.898  1.7274 -0.5192 -2.8131
 2734SOL     OW19837   4.206   1.254   5.093 -0.6771  0.1789  0.3406
 2734SOL    HW119838   4.253   1.300   5.023  0.7632 -1.2981  0.3531
 2734SOL    HW219839   4.272   1.236   5.159  2.3999  1.3183 -2.4355
 2735SOL     OW19840   1.772   3.440   1.311 -0.1582  0.3617  0.2237
 2735SOL    HW119841   1.736   3.382   1.378 -0.6130  1.9018  1.2989
 2735SOL    HW219842   1.710   3.513   1.313  0.9963  1.2951  1.3619
 2736SOL     OW19843   4.407   2.360   6.993 -0.4150 -0.5894  0.1755
 2736SOL    HW119844   4.368   2.423   7.054  1.2733 -0.2705  0.9135
 2736SOL    HW219845   4.422   2.411   6.913 -0.9203 -1.5135 -0.5077
 2737SOL     OW19846   3.169   3.257  11.602 -0.8529  0.3702 -0.3049
 2737SOL    HW119847   3.123   3.338  11.624 -2.1968 -0.7380  0.9263
 2737SOL    HW219848   3.116   3.191  11.645 -0.4600 -0.7428 -1.5355
 2738SOL     OW19849   1.642   2.754   7.802 -0.1606 -0.0632  0.3682
 2738SOL    HW119850   1.616   2.788   7.888 -1.8450  0.1414 -0.2086
 2738SOL    HW219851   1.577   2.689   7.773 -0.1175 -0.6476  1.6016
 2739SOL     OW19852   0.553   4.462   2.843  0.0775  0.0520  0.1881
 2739SOL    HW119853   0.612   4.436   2.915 -0.4887  0.8490  0.9428
 2739SOL    HW219854   0.537   4.555   2.859  0.8347 -0.0744  1.7214
 2740SOL     OW19855   3.540   4.123   5.665 -0.4524 -0.1048 -0.1225
 2740SOL    HW119856   3.566   4.048   5.719  1.3676 -1.6622 -3.1509
 2740SOL    HW219857   3.598   4.193   5.694 -0.9187  0.3492 -0.2736
 2741SOL     OW19858   2.163   2.449   2.702  0.1573 -0.0571  0.0495
 2741SOL    HW119859   2.229   2.497   2.751  0.3052 -1.0696  0.8549
 2741SOL    HW219860   2.099   2.520   2.704  0.7568  0.5009 -1.3060
 2742SOL     OW19861   0.119   3.375  15.857  0.6160 -0.1322 -0.5987
 2742SOL    HW119862   0.040   3.347  15.810  0.4538 -1.9447  0.7467
 2742SOL    HW219863   0.175   3.300  15.841 -0.8231 -1.2847 -0.2609
 2743SOL     OW19864   4.594   3.801  16.616 -0.3506  0.2382  0.0742
 2743SOL    HW119865   4.559   3.865  16.554  0.7670  0.9822  0.2213
 2743SOL    HW219866   4.625   3.746  16.544 -1.2507 -0.3605  0.1372
 2744SOL     OW19867   4.321   2.983   7.301  0.1694  0.1852 -0.0598
 2744SOL    HW119868   4.254   3.020   7.359 -0.6402 -1.6143  0.1721
 2744SOL    HW219869   4.398   2.971   7.355 -1.3763 -0.1999  2.0580
 2745SOL     OW19870   2.876   4.056   3.600  0.1317  0.6176 -0.1327
 2745SOL    HW119871   2.800   4.116   3.601 -0.6489 -0.3237 -2.3190
 2745SOL    HW219872   2.931   4.088   3.529 -2.5156  2.2909 -1.4639
 2746SOL     OW19873   1.560   0.186   7.732 -0.0724  0.0659 -0.0224
 2746SOL    HW119874   1.518   0.109   7.696 -1.6545  0.8561  0.1393
 2746SOL    HW219875   1.648   0.174   7.696 -0.4951  1.0435 -1.3768
 2747SOL     OW19876   0.430   2.668   6.026  0.8473 -0.0428 -0.2119
 2747SOL    HW119877   0.455   2.596   5.968 -1.0296 -1.4652  0.7436
 2747SOL    HW219878   0.356   2.706   5.980  0.3717  0.2553  0.8050
 2748SOL     OW19879   1.484   0.512   4.102 -0.3158 -0.3407 -0.4842
 2748SOL    HW119880   1.436   0.459   4.165  1.4779 -0.4679  0.7661
 2748SOL    HW219881   1.520   0.444   4.045 -0.5152 -0.1974 -0.7819
 2749SOL     OW19882   0.005   4.389   4.200 -0.1926 -0.2574 -0.4583
 2749SOL    HW119883   0.030   4.434   4.281  2.4485  0.9436 -1.9177
 2749SOL    HW219884   0.082   4.401   4.145  0.4456  0.4000  0.5686
 2750SOL     OW19885   3.787   4.357   3.826 -0.0679 -0.4867  0.3071
 2750SOL    HW119886   3.765   4.361   3.919  0.3509 -1.1457  0.4356
 2750SOL    HW219887   3.815   4.448   3.820  1.2614 -0.8132  1.5632
 2751SOL     OW19888   0.082   0.492   9.460  0.0950 -0.1690  0.3744
 2751SOL    HW119889   0.068   0.417   9.519  1.1562 -1.7950 -1.4165
 2751SOL    HW219890   0.123   0.557   9.516  1.5548  1.2877 -2.3833
 2752SOL     OW19891   4.471   2.370  12.039  0.2158  0.1201 -0.3787
 2752SOL    HW119892   4.465   2.375  12.134 -4.6149 -3.1666 -0.5357
 2752SOL    HW219893   4.554   2.325  12.022  0.6416  1.3098 -1.4637
 2753SOL     OW19894   2.268   0.450   3.922  0.5612  0.4054  0.5612
 2753SOL    HW119895   2.358   0.436   3.892  0.1083  0.8687 -1.0001
 2753SOL    HW219896   2.276   0.407   4.008 -0.7243 -3.3583 -1.1780
 2754SOL     OW19897   4.052   3.520  17.180 -0.1151 -0.3224  0.6852
 2754SOL    HW119898   3.998   3.478  17.247  0.6213  0.5887  1.8377
 2754SOL    HW219899   3.980   3.545  17.122 -0.6887 -0.8627  1.1623
 2755SOL     OW19900   4.005   4.127   9.768  0.5181 -0.1028  0.7777
 2755SOL    HW119901   3.919   4.131   9.727  1.0666  1.1795 -0.2277
 2755SOL    HW219902   4.056   4.184   9.710  1.8621 -0.5727  1.4868
 2756SOL     OW19903   1.759   1.285   6.883  0.6311 -0.5000 -0.3043
 2756SOL    HW119904   1.761   1.189   6.879 -1.6860 -0.6266  1.5869
 2756SOL    HW219905   1.839   1.303   6.834  0.4348  2.2146  0.3495
 2757SOL     OW19906   0.903   4.728   4.374  0.5597  0.4550 -0.2069
 2757SOL    HW119907   0.818   4.704   4.412  1.2417 -0.5681  0.6699
 2757SOL    HW219908   0.971   4.724   4.440  0.8582 -0.1431 -0.5514
 2758SOL     OW19909   2.032   1.992   4.205  0.4473  0.4894 -0.1746
 2758SOL    HW119910   2.040   2.087   4.198 -0.1393  0.5082 -0.5957
 2758SOL    HW219911   2.121   1.960   4.226  0.0449  0.1049  0.9685
 2759SOL     OW19912   1.775   4.199   0.929 -0.0119 -0.3525  0.8439
 2759SOL    HW119913   1.845   4.221   0.868 -0.2449  1.4567  1.2321
 2759SOL    HW219914   1.775   4.103   0.932 -0.7366 -0.4388 -1.9473
 2760SOL     OW19915   3.111   4.280   7.754 -0.3300  0.6082  0.5471
 2760SOL    HW119916   3.182   4.344   7.745 -1.3127  1.6921  0.5745
 2760SOL    HW219917   3.053   4.326   7.814 -1.5004 -0.5231  0.2911
 2761SOL     OW19918   0.711   4.355   8.125  0.1486  0.7686  0.1910
 2761SOL    HW119919   0.671   4.275   8.090  1.1184  0.6195 -0.5490
 2761SOL    HW219920   0.690   4.344   8.218 -0.9474 -2.9951 -0.4881
 2762SOL     OW19921   2.523   3.052   6.893 -0.4365 -0.1524  0.0071
 2762SOL    HW119922   2.453   3.072   6.956 -0.4655  1.0729 -0.4041
 2762SOL    HW219923   2.524   3.135   6.845  2.4485  1.2144  2.3756
 2763SOL     OW19924   1.413   0.775   9.720 -0.7778 -0.5614  0.0882
 2763SOL    HW119925   1.386   0.683   9.716  0.9494 -0.9597 -2.3521
 2763SOL    HW219926   1.495   0.769   9.670 -1.7591 -0.6321 -1.5308
 2764SOL     OW19927   3.716   1.445  17.414  0.1060 -0.4103 -0.4838
 2764SOL    HW119928   3.675   1.395  17.484  0.9572 -1.2191 -0.5742
 2764SOL    HW219929   3.751   1.516  17.467 -0.4993 -0.5217  0.0682
 2765SOL     OW19930   3.377   4.671   5.425  0.1834  0.4929 -1.1467
 2765SOL    HW119931   3.355   4.682   5.332  1.3975 -2.2860 -1.7604
 2765SOL    HW219932   3.301   4.636   5.471 -0.4612  1.0659 -1.7848
 2766SOL     OW19933   0.401   1.899   1.699 -0.0435 -0.1039 -0.7546
 2766SOL    HW119934   0.495   1.885   1.712  0.2106  0.9982 -1.3571
 2766SOL    HW219935   0.380   1.832   1.634  0.9740  1.1903 -2.4256
 2767SOL     OW19936   4.564   3.450  16.869  0.3747  0.2425  0.3408
 2767SOL    HW119937   4.502   3.512  16.907 -0.0176 -0.4228  0.7950
 2767SOL    HW219938   4.512   3.398  16.806 -2.8379  2.3417  1.2330
 2768SOL     OW19939   4.625   2.318   7.713 -0.1072  0.2295  0.0415
 2768SOL    HW119940   4.648   2.374   7.639 -0.6509 -0.9470 -1.0271
 2768SOL    HW219941   4.583   2.256   7.653 -0.3266 -1.0052  1.4741
 2769SOL     OW19942   3.936   3.323   3.015  0.0015 -0.4971  0.0093
 2769SOL    HW119943   3.884   3.246   2.993  0.2036 -0.2941 -1.1702
 2769SOL    HW219944   3.866   3.388   3.020 -1.4115 -2.0695  0.7835
 2770SOL     OW19945   1.602   3.568   4.172 -0.1496  0.6509 -0.1433
 2770SOL    HW119946   1.624   3.661   4.177 -0.2482  0.8169 -2.4760
 2770SOL    HW219947   1.642   3.536   4.252 -0.2426 -2.2644 -1.2825
 2771SOL     OW19948   3.095   1.017   8.264  0.3997 -0.4633  0.5237
 2771SOL    HW119949   3.183   0.992   8.236  0.1169 -0.5317 -0.2962
 2771SOL    HW219950   3.102   1.000   8.358  1.8102 -1.1540  0.2940
 2772SOL     OW19951   1.040   1.345   5.482 -0.1395  0.1999  0.1821
 2772SOL    HW119952   0.951   1.371   5.506 -0.3132 -0.3703  0.1347
 2772SOL    HW219953   1.049   1.261   5.526 -1.7488  1.0132  2.0401
 2773SOL     OW19954   2.378   0.161   2.426  0.4391  0.0860  0.1092
 2773SOL    HW119955   2.392   0.196   2.338  1.5629  0.3152  0.3801
 2773SOL    HW219956   2.321   0.232   2.456  1.3621  0.6220  0.5994
 2774SOL     OW19957   1.280   2.074   3.044  0.1000 -0.2535  0.0148
 2774SOL    HW119958   1.192   2.082   3.080 -0.0558  0.2530 -0.4680
 2774SOL    HW219959   1.331   2.098   3.121  1.1530 -2.7292  0.0661
 2775SOL     OW19960   1.368   0.101   8.301 -0.1129 -0.5520  0.5616
 2775SOL    HW119961   1.323   0.132   8.222 -1.6430  1.5526  2.2463
 2775SOL    HW219962   1.449   0.151   8.295 -0.1475 -0.5003  0.5236
 2776SOL     OW19963   1.648   3.136   1.422 -0.1454 -0.6539 -0.0125
 2776SOL    HW119964   1.580   3.179   1.474 -2.4447 -1.4532 -2.3647
 2776SOL    HW219965   1.730   3.166   1.460 -0.1203  0.2635 -0.8043
 2777SOL     OW19966   4.393   1.219   5.304  0.0878  0.6352 -0.1498
 2777SOL    HW119967   4.379   1.152   5.370 -3.2797  2.4915  1.0019
 2777SOL    HW219968   4.487   1.212   5.284  0.2989  2.2383  0.2944
 2778SOL     OW19969   0.691   4.119  11.198 -0.4074 -0.0981 -0.1733
 2778SOL    HW119970   0.779   4.116  11.237 -0.1331 -2.6932 -0.9627
 2778SOL    HW219971   0.681   4.214  11.207  0.8227  0.1005 -0.9168
 2779SOL     OW19972   3.122   2.395   9.479  0.3618  0.2516  0.2994
 2779SOL    HW119973   3.053   2.374   9.417  0.3535 -0.7787  0.6623
 2779SOL    HW219974   3.086   2.357   9.559  0.3877 -2.5685 -1.0586
 2780SOL     OW19975   0.266   1.422   2.136 -0.6223 -0.1028 -0.2671
 2780SOL    HW119976   0.192   1.387   2.185 -0.4881 -1.5372 -1.0977
 2780SOL    HW219977   0.274   1.360   2.064  0.4136  0.4057 -0.5956
 2781SOL     OW19978   1.119   2.940   7.550 -0.4142  0.5763  0.5713
 2781SOL    HW119979   1.059   2.869   7.575  1.2086 -0.6763  0.8778
 2781SOL    HW219980   1.190   2.917   7.609 -0.5938  0.8125  0.8754
 2782SOL     OW19981   4.495   4.324   6.062 -0.4566  0.4242 -0.1447
 2782SOL    HW119982   4.424   4.356   6.117 -0.5313  0.7615 -0.4350
 2782SOL    HW219983   4.520   4.239   6.099  1.5559 -0.3606 -3.2671
 2783SOL     OW19984   4.068   3.271   0.213 -0.2962 -0.0448  0.0306
 2783SOL    HW119985   3.999   3.205   0.219 -0.8722  0.2713 -3.0395
 2783SOL    HW219986   4.078   3.296   0.304  0.7340  1.4171 -0.4801
 2784SOL     OW19987   1.809   3.622  15.686  0.2481  0.0426 -0.4325
 2784SOL    HW119988   1.742   3.628  15.618  0.4957 -2.5619 -0.8946
 2784SOL    HW219989   1.775   3.688  15.747  2.4857  1.4090 -0.6915
 2785SOL     OW19990   4.069   0.761   3.585  0.1638 -0.0263  0.2864
 2785SOL    HW119991   4.024   0.835   3.627 -0.2859 -0.6560  0.9132
 2785SOL    HW219992   4.015   0.684   3.604  0.8598 -0.5100  0.2901
 2786SOL     OW19993   0.960   4.666   8.945  0.0492  0.1029 -0.5733
 2786SOL    HW119994   1.023   4.627   8.886  0.2730  0.9065 -0.8676
 2786SOL    HW219995   0.959   4.594   9.008 -0.5511  0.1168 -0.5675
 2787SOL     OW19996   0.302   3.966   8.944 -0.1717  0.2635 -0.2022
 2787SOL    HW119997   0.212   3.990   8.968  0.2849 -0.4733  2.2760
 2787SOL    HW219998   0.343   4.051   8.931  1.5614 -0.3981  0.8840
 2788SOL     OW19999   0.007   3.647   1.627  0.2751 -0.1090 -0.1329
 2788SOL    HW120000   4.735   3.561   1.585  0.2943 -0.5173  0.6946
 2788SOL    HW220001   4.698   3.630   1.710  2.8694 -2.6698  0.8068
 2789SOL     OW20002   1.777   2.902   8.921  0.2457 -0.5603  0.7693
 2789SOL    HW120003   1.703   2.850   8.953 -0.0492 -0.5268  0.1466
 2789SOL    HW220004   1.751   2.991   8.945  1.7834  0.1153 -0.0545
 2790SOL     OW20005   0.247   3.254   4.087  0.4621  0.2145 -0.2328
 2790SOL    HW120006   0.255   3.174   4.138  2.2831  0.2738 -0.3971
 2790SOL    HW220007   0.180   3.229   4.023 -1.6291  2.0504  1.2425
 2791SOL     OW20008   1.654   4.412   4.093  0.4712 -0.3519 -0.2146
 2791SOL    HW120009   1.611   4.335   4.055  0.0790 -0.1430 -0.1983
 2791SOL    HW220010   1.745   4.385   4.087  0.8193  1.0900 -1.5287
 2792SOL     OW20011   3.113   1.286   0.023  0.0179 -0.2386 -0.4830
 2792SOL    HW120012   3.029   1.248   0.050 -0.4623  1.1577 -0.0229
 2792SOL    HW220013   3.133   1.228  17.698  1.5021 -1.0210  0.5413
 2793SOL     OW20014   0.778   4.152   9.530  0.3822 -0.0082  0.6137
 2793SOL    HW120015   0.751   4.165   9.621 -0.3298 -2.2532  0.7401
 2793SOL    HW220016   0.858   4.204   9.527 -0.4314  1.1956  0.0676
 2794SOL     OW20017   3.029   3.340   0.413  0.2663 -0.6311 -0.2717
 2794SOL    HW120018   3.063   3.341   0.324 -0.2247 -0.8061 -0.4611
 2794SOL    HW220019   3.097   3.286   0.454  0.9946  0.4285 -0.1100
 2795SOL     OW20020   1.478   2.377   4.033  0.3979  0.2081  0.0733
 2795SOL    HW120021   1.435   2.330   3.962  0.6345 -0.9239  0.6663
 2795SOL    HW220022   1.415   2.445   4.058 -1.5937 -0.9366 -1.7987
 2796SOL     OW20023   1.626   3.435   4.417 -0.3943 -0.1373  0.4766
 2796SOL    HW120024   1.661   3.461   4.502 -1.2755 -1.1686  1.1452
 2796SOL    HW220025   1.550   3.381   4.439  1.2245 -2.4612  0.3728
 2797SOL     OW20026   4.130   0.597  16.444  0.0528  0.1931 -0.2158
 2797SOL    HW120027   4.223   0.622  16.446  0.0761  0.1942 -1.3765
 2797SOL    HW220028   4.130   0.506  16.415 -0.5396  0.1852 -0.1868
 2798SOL     OW20029   2.685   1.105   2.903 -0.1108  0.0530 -0.5267
 2798SOL    HW120030   2.764   1.155   2.923 -0.0578 -0.3950  0.3636
 2798SOL    HW220031   2.659   1.144   2.819 -2.6027  2.9135  1.5768
 2799SOL     OW20032   1.012   3.211   5.190  0.8322 -0.3108  0.6101
 2799SOL    HW120033   1.070   3.287   5.185 -2.1583  1.9527  0.6342
 2799SOL    HW220034   1.013   3.170   5.103  0.6292  1.0527 -0.0241
 2800SOL     OW20035   2.233   1.985  15.092 -0.0493  0.5893 -0.3746
 2800SOL    HW120036   2.167   2.017  15.154 -0.8817  0.3921 -1.1630
 2800SOL    HW220037   2.175   1.961  15.020  0.1965  2.5709 -1.2370
 2801SOL     OW20038   0.401   0.853   0.684 -0.0565  0.4411  0.1716
 2801SOL    HW120039   0.434   0.878   0.770 -2.5513  3.7780  0.1512
 2801SOL    HW220040   0.325   0.804   0.715  0.9143 -1.8660 -1.0382
 2802SOL     OW20041   2.860   1.274   7.723  0.0203  0.1340  0.4034
 2802SOL    HW120042   2.911   1.204   7.682 -0.8109  1.0117 -2.1127
 2802SOL    HW220043   2.776   1.244   7.690  1.3517 -2.1899 -0.8892
 2803SOL     OW20044   4.709   2.308   6.913  0.1782  0.1879  0.3783
 2803SOL    HW120045   4.643   2.304   6.983  0.5768 -1.2990  0.6874
 2803SOL    HW220046   4.699   2.402   6.904 -1.6913 -0.1052 -0.6628
 2804SOL     OW20047   3.664   2.125   9.018 -0.1758 -0.2096  0.2853
 2804SOL    HW120048   3.617   2.069   8.957  2.2230 -0.1437 -1.6246
 2804SOL    HW220049   3.747   2.080   9.033 -1.3766 -2.2899  0.6683
 2805SOL     OW20050   1.947   0.522  14.463  0.4354  0.2109  0.1292
 2805SOL    HW120051   1.901   0.555  14.385  1.6881 -0.0147 -0.7061
 2805SOL    HW220052   2.002   0.598  14.478  0.9351  0.3443 -2.4023
 2806SOL     OW20053   2.650   4.732   4.571 -0.5959 -0.4083  0.0889
 2806SOL    HW120054   2.604   4.734   4.655  1.2268  3.7131  1.0027
 2806SOL    HW220055   2.729   0.049   4.570  0.0991 -1.4356 -1.9897
 2807SOL     OW20056   2.550   2.148   0.702 -0.3568 -0.0174  0.0829
 2807SOL    HW120057   2.489   2.158   0.630 -0.8431  0.4334  0.5575
 2807SOL    HW220058   2.621   2.182   0.648  0.7535 -0.7999  1.0438
 2808SOL     OW20059   2.829   0.709   7.492 -0.8326 -0.3032  0.3668
 2808SOL    HW120060   2.790   0.754   7.418 -0.8413  0.1903  0.6747
 2808SOL    HW220061   2.855   0.624   7.455 -1.6145  0.2349 -1.3765
 2809SOL     OW20062   1.681   4.379   3.742  0.5623  0.2270 -0.1542
 2809SOL    HW120063   1.713   4.293   3.767 -0.5756 -0.3134 -0.5487
 2809SOL    HW220064   1.710   4.392   3.652  0.1337  3.1563  0.1301
 2810SOL     OW20065   3.065   0.325   6.221  0.1550  0.5302 -0.1428
 2810SOL    HW120066   2.994   0.310   6.284 -0.2407  1.4947 -0.3579
 2810SOL    HW220067   3.011   0.356   6.148  0.6398  0.5873 -0.4829
 2811SOL     OW20068   1.555   3.050   2.399  0.1293  0.5096 -0.4306
 2811SOL    HW120069   1.596   3.135   2.381  0.4665  0.5833  0.7486
 2811SOL    HW220070   1.461   3.066   2.390  0.0760 -0.7693 -2.1757
 2812SOL     OW20071   1.506   2.795   8.118  0.0942 -0.2919 -0.0528
 2812SOL    HW120072   1.566   2.870   8.119  0.4747 -0.6013  0.1855
 2812SOL    HW220073   1.503   2.766   8.209  0.0637 -1.4109 -0.4220
 2813SOL     OW20074   3.143   3.517  15.998  0.1258 -0.2710  0.8904
 2813SOL    HW120075   3.068   3.567  16.030 -1.5280  0.1739 -3.6619
 2813SOL    HW220076   3.214   3.580  16.009  0.5701 -0.5716 -0.1931
 2814SOL     OW20077   4.269   2.073   4.355  0.1481 -0.3085 -0.0606
 2814SOL    HW120078   4.304   2.047   4.441  1.5429  4.0226  0.7173
 2814SOL    HW220079   4.351   2.090   4.309 -0.6725  1.7867 -0.7624
 2815SOL     OW20080   3.016   3.887  13.168  0.0668 -0.3897 -0.6155
 2815SOL    HW120081   3.034   3.895  13.262 -0.9898 -2.3884 -0.2306
 2815SOL    HW220082   3.057   3.805  13.142  0.9606 -1.1718  3.2092
 2816SOL     OW20083   4.335   4.264  17.227 -0.2169  0.3190  0.1350
 2816SOL    HW120084   4.295   4.292  17.309 -1.6331  1.3391 -0.9103
 2816SOL    HW220085   4.330   4.169  17.228  1.5930  0.2093  0.3061
 2817SOL     OW20086   1.880   1.256  10.176  0.6933  0.1377  0.4031
 2817SOL    HW120087   1.866   1.340  10.220 -2.7887  0.1184 -0.6549
 2817SOL    HW220088   1.884   1.192  10.247 -0.0930 -0.6922 -0.3020
 2818SOL     OW20089   3.904   3.966  15.235  0.7162 -0.4581  0.6672
 2818SOL    HW120090   3.936   4.054  15.216  1.3954 -0.7708  0.3639
 2818SOL    HW220091   3.819   3.972  15.279  1.3877  0.0209  1.8762
 2819SOL     OW20092   3.524   2.573   4.336  0.1237  0.9944 -0.0302
 2819SOL    HW120093   3.604   2.521   4.342 -0.2790  0.3590 -0.2297
 2819SOL    HW220094   3.455   2.530   4.386  1.3078  0.6085  1.2716
 2820SOL     OW20095   2.318   1.917   0.247  0.6821  0.2722 -0.1470
 2820SOL    HW120096   2.226   1.941   0.233 -0.0127 -2.4662 -0.2293
 2820SOL    HW220097   2.309   1.846   0.309 -1.4331  1.1617  0.5852
 2821SOL     OW20098   3.514   0.046   6.680 -0.5701  0.1385  0.0972
 2821SOL    HW120099   3.564   4.713   6.638 -0.1754  1.2962 -1.3722
 2821SOL    HW220100   3.492   0.021   6.770  1.3397 -1.9306  0.0006
 2822SOL     OW20101   1.167   1.450   2.179  0.3667  0.0597 -0.2141
 2822SOL    HW120102   1.134   1.537   2.199  1.4633  0.0963  1.4202
 2822SOL    HW220103   1.163   1.411   2.267  0.0449 -3.2436 -1.6720
 2823SOL     OW20104   0.136   3.912   2.487 -0.3548 -0.7108  0.5023
 2823SOL    HW120105   0.100   3.891   2.574  1.5351 -3.2538  0.6859
 2823SOL    HW220106   0.167   3.998   2.516 -0.8564  0.0110 -1.1409
 2824SOL     OW20107   2.268   0.667   7.062  0.0317 -0.1603  0.0836
 2824SOL    HW120108   2.315   0.673   6.978  0.8781 -0.0071  0.5635
 2824SOL    HW220109   2.239   0.758   7.070  1.1023  0.2852 -0.9821
 2825SOL     OW20110   2.369   2.264   2.614 -0.0324 -0.2594 -0.2637
 2825SOL    HW120111   2.349   2.213   2.692  2.6834 -1.5398 -0.4067
 2825SOL    HW220112   2.349   2.352   2.647  1.3986  1.1972 -3.2989
 2826SOL     OW20113   4.277   1.437   5.396  0.1908 -0.1795  0.2184
 2826SOL    HW120114   4.232   1.379   5.458 -1.1715 -0.0822 -0.6757
 2826SOL    HW220115   4.312   1.364   5.344  1.9736  0.4098  0.5866
 2827SOL     OW20116   2.098   1.627   4.297 -0.6502 -0.3007 -0.0325
 2827SOL    HW120117   2.126   1.536   4.286  0.6547  0.2349 -1.1227
 2827SOL    HW220118   2.158   1.669   4.237 -0.5918 -0.7356 -0.2818
 2828SOL     OW20119   0.112   3.633   2.048 -0.2311  0.3598 -0.3153
 2828SOL    HW120120   0.106   3.655   2.140  0.3523 -1.6208  0.2015
 2828SOL    HW220121   0.084   3.541   2.050 -0.6365  0.4488 -1.3948
 2829SOL     OW20122   1.140   1.070   4.002 -0.3721  0.0320  0.2652
 2829SOL    HW120123   1.121   0.987   3.958 -0.5886 -0.1206  0.6502
 2829SOL    HW220124   1.100   1.135   3.944 -0.3050  1.5690  1.9380
 2830SOL     OW20125   1.544   3.872   6.404  0.2290  0.0809  0.7901
 2830SOL    HW120126   1.558   3.804   6.338 -0.1256  0.7761 -0.0080
 2830SOL    HW220127   1.458   3.852   6.442  0.6475 -0.1719  1.5969
 2831SOL     OW20128   2.871   4.516   7.692 -0.0787 -0.1388  0.9194
 2831SOL    HW120129   2.787   4.535   7.651  0.2853  0.8229  0.5952
 2831SOL    HW220130   2.877   4.421   7.682  2.3796 -0.0942  1.8835
 2832SOL     OW20131   2.735   0.462  10.715 -0.0892 -0.2876 -0.2872
 2832SOL    HW120132   2.821   0.471  10.756 -1.5350  3.0252  2.0302
 2832SOL    HW220133   2.757   0.393  10.653  1.7380  0.5263 -0.5515
 2833SOL     OW20134   2.841   3.352   2.909  0.1872 -0.1705 -0.3866
 2833SOL    HW120135   2.918   3.396   2.873 -1.6122 -0.5356 -4.7033
 2833SOL    HW220136   2.823   3.283   2.846  1.7802 -0.6087 -0.3546
 2834SOL     OW20137   3.452   0.330   4.552 -0.4572 -0.3193  0.1983
 2834SOL    HW120138   3.433   0.271   4.479 -0.9749 -0.0406  0.1084
 2834SOL    HW220139   3.380   0.312   4.613 -0.5486 -0.5701  0.0191
 2835SOL     OW20140   1.423   3.767   3.464  0.1711  0.1233 -0.6957
 2835SOL    HW120141   1.338   3.725   3.458 -0.6758  1.4658  1.9511
 2835SOL    HW220142   1.460   3.740   3.380  0.4477 -1.6863  0.0106
 2836SOL     OW20143   0.088   2.793   7.553  0.0580 -0.6678 -0.0794
 2836SOL    HW120144   0.087   2.889   7.556  0.8332 -0.7641  2.5941
 2836SOL    HW220145   0.066   2.782   7.460 -0.2910  0.3419 -0.1200
 2837SOL     OW20146   3.502   1.661  15.870 -0.0709 -0.2843  0.0808
 2837SOL    HW120147   3.470   1.739  15.916 -0.8799  0.2440 -1.3737
 2837SOL    HW220148   3.586   1.694  15.837 -0.3816 -0.6918 -1.0958
 2838SOL     OW20149   3.890   0.805   4.215  0.5489  0.1119  0.0561
 2838SOL    HW120150   3.828   0.835   4.282  1.1563 -0.7446  1.0036
 2838SOL    HW220151   3.837   0.736   4.176 -0.8244  2.2022 -1.7811
 2839SOL     OW20152   0.889   0.946  11.240 -0.6940  0.6512  0.0496
 2839SOL    HW120153   0.919   0.914  11.325  0.1323  0.8924 -0.1453
 2839SOL    HW220154   0.967   0.930  11.186 -0.9925  0.8768 -0.4499
 2840SOL     OW20155   0.366   3.763   2.989 -0.2793 -0.0940  0.3659
 2840SOL    HW120156   0.427   3.719   3.048  0.6323  0.7243  0.0361
 2840SOL    HW220157   0.375   3.710   2.910  0.5996  0.9231 -0.2204
 2841SOL     OW20158   1.394   4.070  15.094  0.8470 -0.2207  0.2061
 2841SOL    HW120159   1.415   4.121  15.016  2.2507 -2.5912 -0.9704
 2841SOL    HW220160   1.450   3.999  15.061 -0.0143  0.0369 -1.8045
 2842SOL     OW20161   4.428   4.472   7.007 -0.6044  0.0392 -0.2396
 2842SOL    HW120162   4.475   4.392   7.033  1.7866  1.6596  0.4444
 2842SOL    HW220163   4.481   4.506   6.934  0.0380  1.1264  0.7383
 2843SOL     OW20164   2.381   0.164  17.042  0.7238 -0.0637  0.3420
 2843SOL    HW120165   2.371   0.154  17.137 -3.6422 -1.7935 -0.3209
 2843SOL    HW220166   2.322   0.238  17.030  1.7687  0.6491 -0.3512
 2844SOL     OW20167   3.221   2.820   6.332  0.0949 -0.0347 -0.7016
 2844SOL    HW120168   3.189   2.764   6.262 -2.0795 -0.8528  0.9583
 2844SOL    HW220169   3.240   2.763   6.407 -0.0766  0.2051 -0.4743
 2845SOL     OW20170   0.048   2.904  16.403 -0.1133  0.0912 -0.9762
 2845SOL    HW120171   0.107   2.977  16.384 -1.2933  1.1424 -0.6349
 2845SOL    HW220172   0.007   2.905  16.316 -1.2748  1.7200 -0.4082
 2846SOL     OW20173   3.631   1.159   7.654 -0.0695 -0.4112 -0.3536
 2846SOL    HW120174   3.629   1.251   7.681 -2.3505 -0.8643  1.0986
 2846SOL    HW220175   3.549   1.127   7.692 -0.7331  0.0282 -1.3964
 2847SOL     OW20176   2.124   2.923   8.184  0.0788 -0.3264  0.3627
 2847SOL    HW120177   2.047   2.944   8.130  1.0115  0.0550 -0.8118
 2847SOL    HW220178   2.079   2.913   8.268 -0.7946  0.8932  0.0379
 2848SOL     OW20179   0.272   0.371  11.136 -0.4836  0.1186 -0.3052
 2848SOL    HW120180   0.237   0.379  11.225  1.7196  2.3061  0.3746
 2848SOL    HW220181   0.228   0.448  11.102 -0.1377  1.0043  1.2728
 2849SOL     OW20182   3.961   1.398  10.239  0.3628  0.2611  0.1554
 2849SOL    HW120183   4.039   1.372  10.190  1.1907  1.0480  1.0643
 2849SOL    HW220184   3.958   1.493  10.230 -0.9553  0.3649  1.6656
 2850SOL     OW20185   3.999   2.298  13.326  0.5286  0.2331 -0.4673
 2850SOL    HW120186   4.092   2.272  13.325  1.3601  3.2354 -1.1551
 2850SOL    HW220187   3.960   2.213  13.307  0.8756 -0.5456  2.2950
 2851SOL     OW20188   1.436   0.594   7.153  0.7613 -0.1110  0.1800
 2851SOL    HW120189   1.448   0.542   7.074 -0.6265 -1.2523  0.7360
 2851SOL    HW220190   1.348   0.632   7.157  1.1016  0.5706  1.0428
 2852SOL     OW20191   3.092   2.776   6.025  0.8044  0.2989  0.1244
 2852SOL    HW120192   3.124   2.702   6.076 -2.4825 -0.6254  0.8525
 2852SOL    HW220193   3.064   2.730   5.945 -0.5356  2.2671 -0.5585
 2853SOL     OW20194   1.768   2.523   2.840 -0.2336  0.4721 -0.1729
 2853SOL    HW120195   1.684   2.481   2.862 -0.1661  0.5951  0.3229
 2853SOL    HW220196   1.826   2.510   2.914 -0.0335 -0.8053 -0.5597
 2854SOL     OW20197   0.664   0.858  14.012 -0.3210 -0.2469 -0.2162
 2854SOL    HW120198   0.585   0.807  13.997 -0.5348 -0.1337  0.5397
 2854SOL    HW220199   0.630   0.943  13.984  1.7384  0.5468 -0.3401
 2855SOL     OW20200   3.852   2.283  10.165 -0.1843 -0.1877  0.2967
 2855SOL    HW120201   3.770   2.298  10.212 -0.8742 -0.1509 -0.9275
 2855SOL    HW220202   3.917   2.268  10.234  1.4836  2.5207 -0.6710
 2856SOL     OW20203   2.273   0.390   3.210 -0.0085 -0.0472  0.3165
 2856SOL    HW120204   2.249   0.480   3.187  0.0581 -0.6869 -2.2797
 2856SOL    HW220205   2.204   0.340   3.255 -0.1448 -0.2474 -0.1148
 2857SOL     OW20206   4.697   3.883   1.985  0.2565  0.2230 -0.0231
 2857SOL    HW120207   4.722   3.793   2.008  2.7196  1.6019  2.5903
 2857SOL    HW220208   4.730   3.922   2.066 -3.8787  0.5711  1.4541
 2858SOL     OW20209   4.326   1.215   2.285  0.2798 -0.4781  0.0706
 2858SOL    HW120210   4.239   1.221   2.247 -1.2151 -0.8712  3.4581
 2858SOL    HW220211   4.318   1.227   2.380 -0.2225  1.6226 -0.2343
 2859SOL     OW20212   4.355   4.543   1.865  0.3923  0.1992 -0.3872
 2859SOL    HW120213   4.332   4.634   1.881 -2.3479 -0.2348 -1.6952
 2859SOL    HW220214   4.301   4.498   1.930 -1.5330  1.5789 -1.0289
 2860SOL     OW20215   3.517   3.055  10.763 -0.5544 -0.0727 -0.3121
 2860SOL    HW120216   3.441   2.998  10.750  1.2361 -2.3131 -1.0205
 2860SOL    HW220217   3.566   3.046  10.682  0.1544  0.6067  0.0409
 2861SOL     OW20218   1.709   3.510  11.189  0.8449 -0.4761 -0.0171
 2861SOL    HW120219   1.759   3.508  11.108 -1.5765 -1.4552 -1.5103
 2861SOL    HW220220   1.623   3.541  11.159  1.5981  2.1475  0.5770
 2862SOL     OW20221   1.857   1.345   9.646 -0.6830 -0.0493 -0.0991
 2862SOL    HW120222   1.778   1.337   9.699 -0.4789  1.2047  0.3858
 2862SOL    HW220223   1.892   1.432   9.665 -1.1814  0.3304 -0.9461
 2863SOL     OW20224   1.717   0.898   7.500  0.1296 -0.2220 -0.1654
 2863SOL    HW120225   1.674   0.881   7.416  2.9796  2.6807 -2.2305
 2863SOL    HW220226   1.809   0.874   7.484 -0.4916 -2.5656 -0.1575
 2864SOL     OW20227   1.351   0.714  11.165  0.0844  0.2023  0.1713
 2864SOL    HW120228   1.346   0.707  11.261  0.9677 -3.0628 -0.0402
 2864SOL    HW220229   1.299   0.639  11.138  2.1310 -1.1732  0.0628
 2865SOL     OW20230   4.492   2.156   1.440  0.2698  0.2156 -0.3730
 2865SOL    HW120231   4.518   2.110   1.519  1.1486  0.9609 -0.2212
 2865SOL    HW220232   4.575   2.161   1.392 -1.8230 -0.8778 -4.1244
 2866SOL     OW20233   3.150   4.064   3.044 -0.6440 -0.3386  0.8641
 2866SOL    HW120234   3.225   4.019   3.083 -0.6977 -1.6245 -0.5357
 2866SOL    HW220235   3.187   4.145   3.008 -3.0384  1.0176  1.4366
 2867SOL     OW20236   2.871   4.251   1.195 -0.3980 -0.3714 -0.1796
 2867SOL    HW120237   2.789   4.205   1.176 -1.5121  1.1450  0.9798
 2867SOL    HW220238   2.872   4.263   1.290 -1.3598 -0.8629 -0.0971
 2868SOL     OW20239   4.543   4.543   4.438  0.1781 -0.3905  0.7741
 2868SOL    HW120240   4.577   4.454   4.445  1.6053  0.2105  1.3820
 2868SOL    HW220241   4.452   4.535   4.466  0.0049  1.8774  0.8700
 2869SOL     OW20242   4.553   0.680  16.337 -0.4660  0.4295 -0.2604
 2869SOL    HW120243   4.556   0.765  16.292 -0.1566  1.3706  1.5421
 2869SOL    HW220244   4.612   0.712  16.405  0.5307 -0.8658 -0.5053
 2870SOL     OW20245   0.689   1.842   6.253 -0.1558 -0.4838 -0.0551
 2870SOL    HW120246   0.608   1.876   6.292  0.6728  2.0121 -0.5342
 2870SOL    HW220247   0.732   1.921   6.220 -1.2256 -0.1925 -0.7492
 2871SOL     OW20248   2.121   0.962   1.684 -0.0589  0.0771  0.5310
 2871SOL    HW120249   2.211   0.967   1.714 -0.0547  1.0742  0.3383
 2871SOL    HW220250   2.071   0.947   1.765 -0.0136 -1.4838  0.2796
 2872SOL     OW20251   0.908   1.183  12.006 -0.2866  0.0729 -0.3295
 2872SOL    HW120252   0.915   1.181  11.911  1.3869 -0.0813 -0.2150
 2872SOL    HW220253   0.946   1.270  12.024 -2.0605  0.5459  1.1607
 2873SOL     OW20254   2.642   2.660   7.343 -0.0086 -0.2715  0.3861
 2873SOL    HW120255   2.701   2.709   7.287  0.1162  0.4155  1.1133
 2873SOL    HW220256   2.559   2.709   7.340  0.1331 -0.0316  0.4195
 2874SOL     OW20257   3.030   1.368   6.145 -0.5123  0.1493 -0.6640
 2874SOL    HW120258   3.042   1.357   6.239  0.4349 -0.3776 -0.8575
 2874SOL    HW220259   2.949   1.419   6.152 -0.0423  0.9221 -0.8022
 2875SOL     OW20260   2.901   2.153   4.776  0.9350  0.2366  0.2976
 2875SOL    HW120261   2.913   2.197   4.692 -0.1210  1.3845  0.7556
 2875SOL    HW220262   2.834   2.214   4.808  0.1692 -0.4642  0.0117
 2876SOL     OW20263   2.122   2.825  12.288 -0.2504  0.2533 -0.1159
 2876SOL    HW120264   2.093   2.741  12.325 -3.4954  1.8174  0.9226
 2876SOL    HW220265   2.188   2.855  12.350 -0.0170  0.0867 -0.2862
 2877SOL     OW20266   1.150   3.784   8.987 -0.0294  0.1017 -0.0491
 2877SOL    HW120267   1.111   3.791   8.900  1.2892 -1.0703 -0.7419
 2877SOL    HW220268   1.219   3.719   8.970 -0.5810 -0.5051  0.0383
 2878SOL     OW20269   2.073   0.220   2.119 -0.4752 -0.1557 -0.5440
 2878SOL    HW120270   2.044   0.308   2.143 -0.7436  0.1131 -1.8988
 2878SOL    HW220271   1.999   0.164   2.142 -1.0562  0.5256 -0.7472
 2879SOL     OW20272   2.407   4.713  15.355  0.5630 -0.2764 -0.5218
 2879SOL    HW120273   2.465   0.019  15.292 -0.7345  2.9062  0.4799
 2879SOL    HW220274   2.462   4.721  15.433 -0.3402 -1.1478  0.1972
 2880SOL     OW20275   4.225   2.354   0.575  0.1710  0.2808 -0.2629
 2880SOL    HW120276   4.207   2.307   0.494 -2.8013  0.7455  0.1176
 2880SOL    HW220277   4.205   2.288   0.640  0.9438 -2.6819 -3.0487
 2881SOL     OW20278   3.476   0.489   4.344  0.2570  0.0192  0.0524
 2881SOL    HW120279   3.454   0.424   4.277  2.1356 -0.3259 -0.2274
 2881SOL    HW220280   3.478   0.436   4.423  0.8749  0.1439  0.1206
 2882SOL     OW20281   0.803   1.706  10.420  0.0474  0.0352  0.3394
 2882SOL    HW120282   0.771   1.785  10.376  0.7387  0.2246  0.1801
 2882SOL    HW220283   0.719   1.667  10.446 -0.5409  1.4688  0.5823
 2883SOL     OW20284   4.384   3.399  15.118 -0.1201  0.2265  0.7941
 2883SOL    HW120285   4.326   3.467  15.152 -2.4659 -1.4212  0.1612
 2883SOL    HW220286   4.318   3.354  15.064  1.4406 -1.6589  0.4265
 2884SOL     OW20287   3.437   4.241   3.694 -0.9460  0.0193  0.1927
 2884SOL    HW120288   3.453   4.267   3.784  0.2258  2.7273 -0.8233
 2884SOL    HW220289   3.359   4.186   3.701 -0.8190 -0.5155 -2.7390
 2885SOL     OW20290   3.411   3.515   4.030 -0.4322 -0.6884 -0.4492
 2885SOL    HW120291   3.446   3.450   4.091 -2.7207  0.5791  2.2179
 2885SOL    HW220292   3.447   3.479   3.949 -0.7798 -1.7818 -0.1155
 2886SOL     OW20293   0.695   0.302   4.398 -0.0449  0.1917  0.1585
 2886SOL    HW120294   0.629   0.236   4.376 -0.0978  0.5534 -0.7516
 2886SOL    HW220295   0.674   0.298   4.492 -0.3193 -0.0892  0.0843
 2887SOL     OW20296   4.058   1.660   7.576  0.1646  0.2959  0.0208
 2887SOL    HW120297   3.998   1.589   7.599  3.9011 -2.3786  1.5434
 2887SOL    HW220298   4.014   1.694   7.498  1.1087 -0.7982 -0.9850
 2888SOL     OW20299   2.155   1.195   3.208  0.1382 -0.2802 -0.2428
 2888SOL    HW120300   2.093   1.197   3.280  1.9191 -1.5356  1.3068
 2888SOL    HW220301   2.230   1.181   3.266 -0.9438 -1.2527  0.9012
 2889SOL     OW20302   0.200   2.490   5.117 -0.0897 -0.2059 -0.0861
 2889SOL    HW120303   0.188   2.524   5.206 -0.2506 -0.6159  0.0485
 2889SOL    HW220304   0.264   2.556   5.092 -3.0088  1.7132 -2.5338
 2890SOL     OW20305   2.584   0.968   4.485  0.2633 -0.0045 -0.5026
 2890SOL    HW120306   2.554   1.020   4.560 -1.9914 -0.7626 -0.8602
 2890SOL    HW220307   2.514   0.995   4.424 -0.5176 -1.0973 -0.0869
 2891SOL     OW20308   0.573   2.000   8.404 -0.3996  0.1088  0.3484
 2891SOL    HW120309   0.606   2.070   8.461 -0.6940 -0.6374  1.4518
 2891SOL    HW220310   0.482   1.997   8.433 -0.2579 -0.4142  0.7575
 2892SOL     OW20311   0.171   1.766   6.595 -0.6963  0.2870 -0.1468
 2892SOL    HW120312   0.206   1.788   6.682 -1.6805 -0.8116  0.5276
 2892SOL    HW220313   0.213   1.684   6.572 -0.5673  0.5751 -0.9528
 2893SOL     OW20314   3.463   0.344   5.713 -0.0885  0.2695 -0.4396
 2893SOL    HW120315   3.515   0.416   5.749 -0.3107  0.9523 -1.4688
 2893SOL    HW220316   3.379   0.391   5.710 -0.8720 -1.1606 -0.8918
 2894SOL     OW20317   4.702   1.474  14.351 -0.5795 -0.3092  0.0280
 2894SOL    HW120318   4.724   1.461  14.443  2.4106  1.6515 -0.4197
 2894SOL    HW220319   0.025   1.541  14.321 -0.6818  0.6197  1.8532
 2895SOL     OW20320   0.343   0.465   5.409  0.1896  0.2320  0.8190
 2895SOL    HW120321   0.355   0.381   5.455 -1.6599 -1.9848 -2.7831
 2895SOL    HW220322   0.401   0.521   5.460  1.7746 -0.0292 -0.7365
 2896SOL     OW20323   0.058   0.872   2.721 -0.3195  0.4632  0.0617
 2896SOL    HW120324   0.147   0.908   2.715  0.9338 -2.5817  0.5125
 2896SOL    HW220325   0.002   0.946   2.698 -0.3952  0.1173 -0.8501
 2897SOL     OW20326   3.473   1.082   2.581  0.4834  0.0800  0.8223
 2897SOL    HW120327   3.521   1.108   2.502  1.6528  0.3633  1.6262
 2897SOL    HW220328   3.433   0.998   2.557  0.5068  0.3867 -0.2940
 2898SOL     OW20329   1.746   1.499   3.090  0.1777  0.0060  0.0631
 2898SOL    HW120330   1.703   1.427   3.043 -0.6981  1.1880 -0.9312
 2898SOL    HW220331   1.756   1.555   3.014  1.6751 -1.2787 -0.6955
 2899SOL     OW20332   3.866   4.535   6.933  0.2226 -0.7633 -0.0837
 2899SOL    HW120333   3.885   4.497   6.847 -1.7028 -0.4195 -0.6562
 2899SOL    HW220334   3.775   4.508   6.950 -0.3815  0.6225 -1.1474
 2900SOL     OW20335   0.430   1.894   6.341  0.4395  0.3789 -0.1515
 2900SOL    HW120336   0.365   1.957   6.372 -0.3107 -1.0827  1.2590
 2900SOL    HW220337   0.392   1.891   6.253  1.6088  1.4511 -0.7026
 2901SOL     OW20338   2.863   0.281   3.044  0.0399  0.3232 -0.0459
 2901SOL    HW120339   2.944   0.245   3.082 -0.9890  0.2827  2.0990
 2901SOL    HW220340   2.817   0.206   3.006 -2.0668  0.7962  1.6069
 2902SOL     OW20341   0.145   3.037  15.648  0.4175  0.5155  0.3252
 2902SOL    HW120342   0.200   3.042  15.570 -1.7494 -1.1920 -1.3160
 2902SOL    HW220343   0.217   3.022  15.709  1.3261 -0.3290 -0.9616
 2903SOL     OW20344   2.594   3.156  15.010  0.2737  0.1893  0.0044
 2903SOL    HW120345   2.617   3.091  15.076 -2.5971 -1.2346 -0.3974
 2903SOL    HW220346   2.541   3.101  14.952 -2.3327  1.1223  1.5153
 2904SOL     OW20347   2.976   1.769   4.368  0.0537  0.0047 -0.5180
 2904SOL    HW120348   2.967   1.769   4.463  2.0582 -1.3317 -0.3253
 2904SOL    HW220349   2.998   1.857   4.338  1.7010 -1.0118 -2.3030
 2905SOL     OW20350   2.359   4.530   7.214  0.3649  0.0258  0.2970
 2905SOL    HW120351   2.362   4.465   7.283  1.9204  0.3338  0.5166
 2905SOL    HW220352   2.453   4.543   7.205 -0.0106  0.6151 -2.9206
 2906SOL     OW20353   3.443   2.154   8.190 -0.0916 -0.1010 -0.2497
 2906SOL    HW120354   3.481   2.171   8.276  1.3581  0.6191 -1.0423
 2906SOL    HW220355   3.512   2.104   8.147  2.5004  1.8631  1.6398
 2907SOL     OW20356   2.025   0.027   6.260  0.1053  0.2245  0.2186
 2907SOL    HW120357   2.073   4.694   6.303 -2.8517 -1.7292  0.2947
 2907SOL    HW220358   1.954   4.718   6.217  0.4296  1.0534 -1.2228
 2908SOL     OW20359   2.277   2.378  13.432 -0.4523 -0.8357 -0.1981
 2908SOL    HW120360   2.341   2.412  13.370  1.8075 -1.0264  2.0320
 2908SOL    HW220361   2.325   2.382  13.515  0.0002 -0.8073 -0.4640
 2909SOL     OW20362   0.891   2.860  17.674 -0.2729 -0.3306  0.0316
 2909SOL    HW120363   0.874   2.954  17.680  0.1422 -0.3337  1.1930
 2909SOL    HW220364   0.945   2.860  17.595  2.2828  1.0466  1.8129
 2910SOL     OW20365   2.372   4.088   6.462  0.2196  0.1234 -0.4224
 2910SOL    HW120366   2.317   4.123   6.392 -2.4876  0.3532  1.8456
 2910SOL    HW220367   2.315   4.028   6.509  1.8077 -1.8643 -0.9972
 2911SOL     OW20368   1.886   4.647   1.009 -0.2640 -0.1106  0.3651
 2911SOL    HW120369   1.898   4.599   1.091 -2.2222  0.5436  1.0324
 2911SOL    HW220370   1.872   4.735   1.042 -2.1819  0.2516 -1.4367
 2912SOL     OW20371   1.551   4.349   1.503 -0.4009  0.5349  0.2983
 2912SOL    HW120372   1.624   4.395   1.461 -0.3844  1.2360  1.0875
 2912SOL    HW220373   1.587   4.304   1.579  2.9693 -1.8314 -2.6927
 2913SOL     OW20374   3.185   1.863   5.141 -0.4532  0.2152  0.0729
 2913SOL    HW120375   3.254   1.825   5.086 -2.3833  0.1265 -2.2995
 2913SOL    HW220376   3.136   1.916   5.078 -1.5343 -0.6050  0.2227
 2914SOL     OW20377   0.306   2.307  14.286 -0.1423  0.1604 -0.2942
 2914SOL    HW120378   0.347   2.221  14.292 -0.3141  0.2599  2.0799
 2914SOL    HW220379   0.278   2.324  14.376  0.4856  1.5632 -0.3594
 2915SOL     OW20380   2.928   3.573   1.295  0.2989  0.6509 -0.0064
 2915SOL    HW120381   2.905   3.480   1.295 -1.6295  1.1354  0.3840
 2915SOL    HW220382   2.987   3.579   1.219  0.3088 -2.1652 -0.2130
 2916SOL     OW20383   0.079   0.312  12.027 -0.2174 -0.2209  0.0054
 2916SOL    HW120384   0.158   0.274  12.068  0.1957 -0.8135 -1.3424
 2916SOL    HW220385   0.103   0.404  12.023 -0.0858 -0.2789 -0.4755
 2917SOL     OW20386   2.251   2.624  14.778 -0.6422 -0.3516 -0.7308
 2917SOL    HW120387   2.261   2.545  14.831  1.3568  1.3777  1.4578
 2917SOL    HW220388   2.301   2.616  14.696 -0.3987  2.3730 -0.8444
 2918SOL     OW20389   4.031   0.146   7.806 -0.1571 -0.0077 -0.1375
 2918SOL    HW120390   4.081   0.224   7.782  1.4180 -0.8640  0.3428
 2918SOL    HW220391   4.014   0.147   7.901 -2.2187  2.9598 -0.5591
 2919SOL     OW20392   2.871   2.212   1.257  0.3814 -0.2759  0.0281
 2919SOL    HW120393   2.856   2.239   1.166 -0.0269 -2.1423 -0.4726
 2919SOL    HW220394   2.830   2.283   1.306 -0.6384 -2.2241  1.9698
 2920SOL     OW20395   2.565   1.817   0.942  0.4749 -0.3089 -0.4836
 2920SOL    HW120396   2.581   1.910   0.925 -0.0852 -0.5514 -2.3051
 2920SOL    HW220397   2.616   1.804   1.022  0.7346  0.8969 -0.4502
 2921SOL     OW20398   1.073   1.718   2.207  0.5011 -0.0210  0.5203
 2921SOL    HW120399   1.097   1.767   2.129 -1.0828 -0.3727 -0.1828
 2921SOL    HW220400   0.988   1.686   2.176 -0.0506  2.3277 -0.4323
 2922SOL     OW20401   2.658   1.391   9.101  0.4583  0.3975 -0.7535
 2922SOL    HW120402   2.576   1.408   9.056  0.6809  1.6710 -0.6865
 2922SOL    HW220403   2.683   1.475   9.142  2.2183 -0.4637 -0.0392
 2923SOL     OW20404   2.731   2.344   2.277 -0.2199  0.4888 -0.1896
 2923SOL    HW120405   2.688   2.417   2.321 -0.6729  0.5011 -0.6562
 2923SOL    HW220406   2.656   2.306   2.230  0.8343 -2.1460  0.2211
 2924SOL     OW20407   3.585   3.652   3.775  0.2661  0.5566 -0.5907
 2924SOL    HW120408   3.568   3.567   3.815  1.1629 -0.6395 -2.7781
 2924SOL    HW220409   3.665   3.640   3.724  0.1213  0.2571 -0.7426
 2925SOL     OW20410   1.875   3.361   1.070 -0.0008 -0.7763  0.4610
 2925SOL    HW120411   1.820   3.409   1.008  1.1256  0.3170  0.3166
 2925SOL    HW220412   1.828   3.386   1.150  0.8682 -0.0721  0.7501
 2926SOL     OW20413   2.319   3.214  14.625 -0.4050  0.4579  0.6087
 2926SOL    HW120414   2.311   3.255  14.711  1.1425  0.3870  0.7805
 2926SOL    HW220415   2.330   3.119  14.633 -0.4578  0.2786 -1.3324
 2927SOL     OW20416   2.526   3.183   2.468 -0.4630 -0.7894 -0.0439
 2927SOL    HW120417   2.569   3.124   2.406 -0.1931  1.0486 -1.5881
 2927SOL    HW220418   2.440   3.147   2.446  0.2285 -2.3487 -0.2180
 2928SOL     OW20419   0.493   0.114   4.327 -0.4030  0.2341  0.8160
 2928SOL    HW120420   0.416   0.139   4.379 -1.5083  1.1052 -1.2590
 2928SOL    HW220421   0.459   0.050   4.265  0.6064  1.1762 -0.7088
 2929SOL     OW20422   4.570   0.863   7.647 -0.8745 -0.8099  0.2277
 2929SOL    HW120423   4.519   0.903   7.717  0.9745 -1.0275  1.6894
 2929SOL    HW220424   4.557   0.925   7.575  0.7038 -0.5838  0.1412
 2930SOL     OW20425   4.439   3.207   7.015 -0.3295  0.2503  0.0445
 2930SOL    HW120426   4.448   3.300   7.038 -0.1687  0.4151 -0.6947
 2930SOL    HW220427   4.498   3.165   7.078  0.2098 -1.2147 -1.4512
 2931SOL     OW20428   2.194   4.516  15.251 -0.9033  0.6157 -0.2049
 2931SOL    HW120429   2.129   4.559  15.307  0.0721 -0.3868  1.7141
 2931SOL    HW220430   2.270   4.573  15.263  0.3610 -1.5220  2.1035
 2932SOL     OW20431   1.325   3.841   7.365 -0.5932 -0.1686  0.0905
 2932SOL    HW120432   1.363   3.886   7.289 -0.6195 -1.6443 -0.7865
 2932SOL    HW220433   1.330   3.909   7.433  0.4330  2.5066 -2.6378
 2933SOL     OW20434   2.636   1.098   3.831 -0.3009  0.0727  0.1579
 2933SOL    HW120435   2.567   1.075   3.769  0.0811 -0.6536 -0.0008
 2933SOL    HW220436   2.606   1.051   3.909 -1.7263 -0.9266 -0.9965
 2934SOL     OW20437   2.714   3.738  15.943  0.4733  0.1996  0.5609
 2934SOL    HW120438   2.772   3.794  15.995  0.2376 -0.0754  1.1250
 2934SOL    HW220439   2.698   3.668  16.007  1.8113 -0.2325  0.4084
 2935SOL     OW20440   0.136   3.123   2.703 -0.1245 -0.7100 -0.0142
 2935SOL    HW120441   0.062   3.105   2.645  0.1208  0.5726 -0.7475
 2935SOL    HW220442   0.148   3.038   2.744 -0.5240 -1.2172 -0.9520
 2936SOL     OW20443   3.110   0.845   3.150  0.8558 -0.0659  0.2148
 2936SOL    HW120444   3.150   0.772   3.198  0.1562  0.1748  1.1459
 2936SOL    HW220445   3.159   0.833   3.068  0.9565  1.2978  0.0900
 2937SOL     OW20446   4.592   4.572  11.535  0.6290  0.2676  0.4372
 2937SOL    HW120447   4.514   4.610  11.575  0.4203 -0.0575  0.3483
 2937SOL    HW220448   4.664   4.612  11.583  0.6158 -0.6048  1.1875
 2938SOL     OW20449   0.384   4.108   1.517  0.3626  0.1663 -0.5432
 2938SOL    HW120450   0.338   4.039   1.469  0.4151  0.3064 -0.7935
 2938SOL    HW220451   0.450   4.132   1.452  0.3047  1.1566 -0.2393
 2939SOL     OW20452   0.707   0.453   7.598 -0.2646  0.0752  0.9120
 2939SOL    HW120453   0.643   0.432   7.666 -0.7300 -0.9453  0.1579
 2939SOL    HW220454   0.715   0.366   7.558 -1.6206 -0.1230  1.0714
 2940SOL     OW20455   3.462   1.902  14.920 -0.0647 -0.0795 -0.0073
 2940SOL    HW120456   3.444   1.889  14.827 -1.0488  0.2939  0.1303
 2940SOL    HW220457   3.530   1.969  14.911 -0.9497  0.8934  0.4347
 2941SOL     OW20458   0.041   2.764  13.063 -0.4264  0.1998 -0.1380
 2941SOL    HW120459   4.715   2.765  12.991  0.6927  0.2586 -1.1299
 2941SOL    HW220460   0.051   2.671  13.084  1.9986  0.7337  1.0915
 2942SOL     OW20461   3.117   2.817  12.330 -0.1526  0.7397 -0.5988
 2942SOL    HW120462   3.103   2.856  12.416 -1.9837 -0.8083 -0.1829
 2942SOL    HW220463   3.051   2.863  12.278 -2.4107 -0.1205  1.5079
 2943SOL     OW20464   0.380   1.529   0.998 -0.0930 -0.2889 -0.4944
 2943SOL    HW120465   0.420   1.614   0.978  0.2158  0.1078  1.7050
 2943SOL    HW220466   0.401   1.468   0.928  1.1493  0.6391 -0.9321
 2944SOL     OW20467   1.447   4.463  15.534  0.0807 -0.4518 -0.0769
 2944SOL    HW120468   1.530   4.434  15.572  1.4580  0.2738 -2.5597
 2944SOL    HW220469   1.458   4.437  15.443 -0.5351 -0.6558 -0.0876
 2945SOL     OW20470   3.818   0.121   2.574  0.1862 -0.2032  0.2617
 2945SOL    HW120471   3.849   0.083   2.492 -1.2079 -0.2001 -0.2664
 2945SOL    HW220472   3.878   0.085   2.638 -1.1165 -0.5075  1.3105
 2946SOL     OW20473   1.534   3.183   9.448  0.0211  0.0836  0.9105
 2946SOL    HW120474   1.493   3.104   9.483 -2.2545  0.0908 -1.6696
 2946SOL    HW220475   1.467   3.189   9.380 -1.3445  2.1159  2.4210
 2947SOL     OW20476   2.644   1.769   8.273 -0.1682  0.7241  0.6259
 2947SOL    HW120477   2.723   1.719   8.251 -0.3150  1.5729 -1.8202
 2947SOL    HW220478   2.692   1.851   8.283 -0.6902  0.9800  1.0012
 2948SOL     OW20479   1.189   4.680  11.762  0.8839  0.5136 -0.4598
 2948SOL    HW120480   1.182   4.672  11.667 -1.8203  1.2009 -0.3179
 2948SOL    HW220481   1.231   0.028  11.772 -1.2613  1.8095 -2.6596
 2949SOL     OW20482   2.853   0.812   8.931  0.0703  0.0129  0.7477
 2949SOL    HW120483   2.828   0.868   8.857  0.6553 -0.3010  0.3168
 2949SOL    HW220484   2.917   0.866   8.976  0.3580  1.7689 -1.8427
 2950SOL     OW20485   3.412   4.511   6.807  0.4155  0.3633  0.1443
 2950SOL    HW120486   3.375   4.429   6.842  3.4871 -0.7756  0.7362
 2950SOL    HW220487   3.393   4.496   6.714 -0.1010 -0.5180  0.3839
 2951SOL     OW20488   1.388   2.860  14.026  0.5407 -0.3070  0.0483
 2951SOL    HW120489   1.314   2.888  14.080  2.1928  0.9074  1.6730
 2951SOL    HW220490   1.433   2.943  14.014 -0.1162 -0.0746 -0.8788
 2952SOL     OW20491   1.304   3.103   6.270 -0.1139  0.7099 -0.6134
 2952SOL    HW120492   1.376   3.050   6.238  1.8772  1.8128  1.9951
 2952SOL    HW220493   1.299   3.071   6.360 -0.2782 -0.4701 -1.0423
 2953SOL     OW20494   1.103   0.423   8.294 -0.1443 -0.3665 -0.0353
 2953SOL    HW120495   1.154   0.422   8.213 -0.5904  1.2631 -0.3312
 2953SOL    HW220496   1.022   0.382   8.264 -0.8565  1.0136  0.0373
 2954SOL     OW20497   3.702   2.309   4.711  0.0649  0.3230 -0.1541
 2954SOL    HW120498   3.714   2.386   4.766 -0.6458 -1.6770  2.8149
 2954SOL    HW220499   3.682   2.342   4.623 -1.5147 -0.4085 -0.0890
 2955SOL     OW20500   3.111   1.269   3.576  0.0772 -0.1328 -0.5547
 2955SOL    HW120501   3.069   1.348   3.542 -0.6458 -1.0748 -1.8634
 2955SOL    HW220502   3.202   1.292   3.561  0.7290 -0.3592  2.9872
 2956SOL     OW20503   1.331   1.516   5.446 -0.3882 -0.1172  0.0882
 2956SOL    HW120504   1.332   1.498   5.352 -2.5605 -1.5920  0.3658
 2956SOL    HW220505   1.414   1.562   5.466 -0.5723  1.3967 -2.6259
 2957SOL     OW20506   0.161   1.785   4.951  0.1311 -0.0154  0.2257
 2957SOL    HW120507   0.227   1.716   4.938  0.9038  0.5314  1.3035
 2957SOL    HW220508   0.189   1.816   5.037  0.8142 -0.1227  0.0430
 2958SOL     OW20509   2.971   2.160   7.335  0.5529 -0.3857  0.1269
 2958SOL    HW120510   2.980   2.183   7.428  0.3001 -2.1239  0.5912
 2958SOL    HW220511   2.889   2.204   7.313  0.3896 -0.7015  0.1056
 2959SOL     OW20512   1.834   0.342   1.312 -0.3816 -0.4244 -0.6895
 2959SOL    HW120513   1.792   0.309   1.233  0.1357  0.0732 -1.1642
 2959SOL    HW220514   1.784   0.299   1.381  2.1480 -1.2549  0.6609
 2960SOL     OW20515   3.522   3.247   5.273  0.7128 -0.3474  0.2943
 2960SOL    HW120516   3.610   3.270   5.244  0.0798  0.2452 -1.1429
 2960SOL    HW220517   3.480   3.331   5.255 -0.0673 -0.1394  3.0482
 2961SOL     OW20518   1.119   3.634  14.807 -0.6532 -0.1719 -0.0840
 2961SOL    HW120519   1.036   3.676  14.829  0.4266  1.6243  0.5476
 2961SOL    HW220520   1.092   3.555  14.761 -0.9957  1.1010 -2.0845
 2962SOL     OW20521   2.890   2.081  15.583 -0.3784 -0.2184  1.0650
 2962SOL    HW120522   2.815   2.089  15.525  0.0913  2.4813  0.8629
 2962SOL    HW220523   2.968   2.119  15.543 -1.2136  0.3336  0.0031
 2963SOL     OW20524   2.082   0.419   9.265  0.0387  0.2632 -0.2951
 2963SOL    HW120525   2.081   0.484   9.336  1.5555 -0.4779  0.3917
 2963SOL    HW220526   2.082   0.335   9.310 -0.2902  0.9509  1.0155
 2964SOL     OW20527   0.529   3.976   5.326  0.3271  0.3618 -0.2335
 2964SOL    HW120528   0.593   3.993   5.395  0.9309  1.9887 -1.1772
 2964SOL    HW220529   0.509   3.884   5.341  0.7966  0.2650 -0.2158
 2965SOL     OW20530   3.460   3.719  14.777  0.6790 -0.1402 -0.7596
 2965SOL    HW120531   3.381   3.671  14.753  1.1596 -1.9011  1.1872
 2965SOL    HW220532   3.525   3.683  14.717  2.5115  1.4584  0.2852
 2966SOL     OW20533   0.149   3.460   5.323  0.1115  0.3261  0.3481
 2966SOL    HW120534   0.117   3.474   5.413 -1.9640  0.4544 -0.3977
 2966SOL    HW220535   0.096   3.394   5.279  0.9484  0.4207 -0.7756
 2967SOL     OW20536   1.142   2.451   7.981  0.6370  0.4337  0.0999
 2967SOL    HW120537   1.219   2.508   7.978  1.1523 -0.1319  3.2900
 2967SOL    HW220538   1.068   2.511   7.974 -2.1330 -2.8741  1.3247
 2968SOL     OW20539   0.938   0.263   4.548  0.1215 -0.2757  0.2100
 2968SOL    HW120540   0.842   0.260   4.545  0.2038 -2.6826  0.1509
 2968SOL    HW220541   0.955   0.181   4.503 -1.4736 -0.6412  0.2486
 2969SOL     OW20542   4.479   0.806  11.130 -0.3355 -0.1690 -0.0483
 2969SOL    HW120543   4.454   0.881  11.076 -2.3281 -0.1280  0.9431
 2969SOL    HW220544   4.395   0.785  11.170  0.9642 -1.2267  2.1404
 2970SOL     OW20545   1.560   2.421  16.485  0.0535 -0.0008 -0.3454
 2970SOL    HW120546   1.609   2.374  16.417 -0.1563  0.1821 -0.6233
 2970SOL    HW220547   1.562   2.354  16.553  1.9437  0.5977  0.2012
 2971SOL     OW20548   1.522   2.966   5.881  0.2242 -0.0604 -0.3242
 2971SOL    HW120549   1.480   2.933   5.802  0.2199  0.7409 -0.6602
 2971SOL    HW220550   1.593   2.906   5.904  0.5733  0.9236  1.2141
 2972SOL     OW20551   4.391   0.439   4.889 -0.6040 -0.3594  0.2254
 2972SOL    HW120552   4.430   0.525   4.876 -1.5382  0.1930  1.1302
 2972SOL    HW220553   4.302   0.468   4.904  0.5329  3.1692  0.0278
 2973SOL     OW20554   3.092   1.167   7.226 -0.0947 -0.3533 -0.1116
 2973SOL    HW120555   3.101   1.146   7.133  1.5639 -1.3398  0.2717
 2973SOL    HW220556   3.126   1.086   7.265  1.7059  0.6902  0.4613
 2974SOL     OW20557   0.827   3.315   3.840 -0.0812 -0.0914  0.0931
 2974SOL    HW120558   0.909   3.364   3.844  0.9699 -1.9638  1.3378
 2974SOL    HW220559   0.862   3.227   3.833 -0.2173 -0.3253  2.6748
 2975SOL     OW20560   1.475   1.833   8.511  0.2878 -0.1790 -0.1719
 2975SOL    HW120561   1.505   1.782   8.586  0.2161  0.8549  0.5576
 2975SOL    HW220562   1.478   1.766   8.442  0.0687 -0.2129 -0.1459
 2976SOL     OW20563   0.525   1.698   1.906  0.5639 -0.7804 -0.2857
 2976SOL    HW120564   0.554   1.615   1.945 -2.9842 -1.8326  0.0659
 2976SOL    HW220565   0.492   1.738   1.986  0.4197 -2.7141  0.6373
 2977SOL     OW20566   4.480   1.682   2.526  0.3432 -0.5185 -0.0478
 2977SOL    HW120567   4.498   1.744   2.455 -0.5825 -0.0300  0.1476
 2977SOL    HW220568   4.387   1.698   2.543  0.0032 -0.4475 -1.9129
 2978SOL     OW20569   0.228   1.689  14.357  0.5147 -0.0680 -0.0431
 2978SOL    HW120570   0.179   1.763  14.321 -1.1262 -0.7355  0.8232
 2978SOL    HW220571   0.300   1.679  14.295 -0.4917 -1.0840 -1.0401
 2979SOL     OW20572   1.088   2.087   2.428  0.1254 -0.7498  0.2874
 2979SOL    HW120573   1.144   2.152   2.472  0.5943 -0.7741 -0.2766
 2979SOL    HW220574   1.048   2.052   2.508  0.7847 -2.4103 -0.1101
 2980SOL     OW20575   3.937   3.413   8.807  0.0484  0.6177  0.9892
 2980SOL    HW120576   3.842   3.410   8.803  0.1978  0.0446 -1.8972
 2980SOL    HW220577   3.961   3.496   8.849  2.8433  1.4036 -2.1246
 2981SOL     OW20578   3.885   0.294   9.507 -0.1288  0.3241  0.7305
 2981SOL    HW120579   3.928   0.343   9.436  1.8147 -2.8204 -0.2318
 2981SOL    HW220580   3.791   0.312   9.495  0.3263  1.1590 -1.6713
 2982SOL     OW20581   4.398   0.991  16.531 -0.0556 -0.1768  0.1503
 2982SOL    HW120582   4.476   1.035  16.497 -1.2984  1.5552 -0.4612
 2982SOL    HW220583   4.341   1.055  16.574 -0.6788 -1.5858  1.4232
 2983SOL     OW20584   1.989   2.408   1.342  0.2046  0.4193  0.3429
 2983SOL    HW120585   2.070   2.449   1.372  0.8531 -0.8809  0.4030
 2983SOL    HW220586   2.022   2.344   1.279 -1.3047  1.4414 -1.4610
 2984SOL     OW20587   2.040   4.691  11.136 -0.1225  0.4531 -0.5916
 2984SOL    HW120588   2.005   0.018  11.074 -1.1866  1.1601  0.7708
 2984SOL    HW220589   2.086   0.008  11.199  2.7474  0.1209 -2.3898
 2985SOL     OW20590   4.723   2.089  12.086  0.5196 -0.7307  0.2558
 2985SOL    HW120591   4.710   2.159  12.151  0.2442  0.5012 -1.1116
 2985SOL    HW220592   4.634   2.059  12.065  0.2140  0.0810  0.3756
 2986SOL     OW20593   0.157   1.216   6.639 -0.6372  0.2202  0.1753
 2986SOL    HW120594   0.252   1.214   6.639 -0.6529 -0.5132  1.0219
 2986SOL    HW220595   0.132   1.131   6.675  3.4916 -0.8793  0.4392
 2987SOL     OW20596   0.979   1.836   6.278  0.0312  0.7681  0.2051
 2987SOL    HW120597   0.892   1.799   6.289  0.6655 -1.3188 -1.9806
 2987SOL    HW220598   0.987   1.896   6.352  0.0684  2.1878 -0.9481
 2988SOL     OW20599   0.943   3.988  10.959  0.1937  0.0017 -0.1371
 2988SOL    HW120600   0.938   4.075  11.000 -1.3596 -0.2234  0.1559
 2988SOL    HW220601   0.866   3.952  11.002  0.9594 -0.0161  1.2017
 2989SOL     OW20602   3.550   0.335   6.698  0.5152 -0.4786  0.0647
 2989SOL    HW120603   3.632   0.333   6.748  1.4939 -1.5413 -1.5652
 2989SOL    HW220604   3.536   0.243   6.675  2.1202 -0.7088 -0.0231
 2990SOL     OW20605   1.947   3.723   7.676 -0.5864  0.2036 -0.1791
 2990SOL    HW120606   1.904   3.672   7.745 -0.3787  0.7617  0.3605
 2990SOL    HW220607   1.924   3.676   7.596 -0.8786  1.2478 -0.7082
 2991SOL     OW20608   2.555   2.628   0.269  1.0259 -0.4571 -0.1418
 2991SOL    HW120609   2.592   2.615   0.182 -0.3483  0.5818 -0.8835
 2991SOL    HW220610   2.597   2.556   0.316 -1.4407 -0.4568  2.0566
 2992SOL     OW20611   0.994   4.155  11.793 -0.4380 -0.3071 -0.0695
 2992SOL    HW120612   1.034   4.078  11.832 -0.7565 -0.7889 -0.6832
 2992SOL    HW220613   1.004   4.138  11.699 -0.2515  3.5033 -0.7507
 2993SOL     OW20614   0.587   4.270   3.768 -0.0712  0.5986  0.1306
 2993SOL    HW120615   0.638   4.190   3.755 -1.8565 -0.9107  2.3243
 2993SOL    HW220616   0.574   4.288   3.675  0.6655 -1.2942 -0.3458
 2994SOL     OW20617   2.875   0.309   4.205 -0.5572 -0.4551 -0.3427
 2994SOL    HW120618   2.868   0.390   4.257  2.6838  0.1649 -0.8707
 2994SOL    HW220619   2.807   0.255   4.244 -1.6740  0.8084 -0.5589
 2995SOL     OW20620   3.102   2.375  10.013  0.3543  0.6050 -0.2853
 2995SOL    HW120621   3.164   2.307  10.038  0.1904  0.2891 -0.7168
 2995SOL    HW220622   3.022   2.338  10.051  0.8505  1.0301  1.1528
 2996SOL     OW20623   2.965   2.916   0.660 -0.0976 -0.5495 -0.4486
 2996SOL    HW120624   2.954   2.967   0.580  2.5399  0.1049 -0.3669
 2996SOL    HW220625   3.039   2.957   0.703  0.1643 -0.4673 -0.9817
 2997SOL     OW20626   4.603   2.246   3.122  0.4373 -0.0053  0.4542
 2997SOL    HW120627   4.547   2.318   3.093  0.7977 -0.6020 -1.7879
 2997SOL    HW220628   4.532   2.187   3.149  0.7861 -0.3254  0.6609
 2998SOL     OW20629   2.484   1.758   9.321  0.3625 -0.2274  0.1183
 2998SOL    HW120630   2.402   1.785   9.280 -0.1353 -1.8803  0.0112
 2998SOL    HW220631   2.475   1.664   9.339 -0.5030 -0.4218 -1.3676
 2999SOL     OW20632   0.913   4.126   7.928  1.0848 -0.1998  0.3743
 2999SOL    HW120633   0.990   4.159   7.974  1.7563 -0.5482 -0.5218
 2999SOL    HW220634   0.870   4.090   8.007 -1.7448  1.9482 -0.1905
 3000SOL     OW20635   0.911   0.945   3.767 -0.0197 -0.1109  0.1238
 3000SOL    HW120636   0.847   0.901   3.711 -2.2698  1.4923  1.3841
 3000SOL    HW220637   0.955   0.865   3.795 -0.5855 -0.9351 -1.3792
 3001SOL     OW20638   4.169   2.060   7.167 -0.5330  0.7070 -0.3683
 3001SOL    HW120639   4.117   2.139   7.152 -1.1762 -0.0971 -2.3620
 3001SOL    HW220640   4.245   2.108   7.200  0.7410 -1.3615 -0.2972
 3002SOL     OW20641   1.724   0.637   5.037  0.0499  0.1829 -1.0642
 3002SOL    HW120642   1.716   0.542   5.034 -0.4173  0.2403 -1.7906
 3002SOL    HW220643   1.707   0.638   5.131  2.0401 -0.7318 -0.6775
 3003SOL     OW20644   1.460   4.088   3.924  0.0732  0.0427  0.0080
 3003SOL    HW120645   1.539   4.127   3.962  0.9894  0.4845 -2.3419
 3003SOL    HW220646   1.464   4.007   3.975 -3.8791  0.8366  1.5834
 3004SOL     OW20647   2.657   1.858  12.434 -0.2067  0.2784 -0.2136
 3004SOL    HW120648   2.565   1.863  12.408 -0.7133  0.9936  1.7801
 3004SOL    HW220649   2.670   1.934  12.491  0.5539 -1.7444  2.3100
 3005SOL     OW20650   2.151   4.542   9.697 -0.2516  0.4789 -0.2047
 3005SOL    HW120651   2.211   4.530   9.623  0.0050  0.5461 -0.0067
 3005SOL    HW220652   2.099   4.464   9.682  0.7661  0.3188 -2.9622
 3006SOL     OW20653   1.948   1.097   7.861  0.0903 -0.0108  0.3189
 3006SOL    HW120654   2.023   1.155   7.877  2.1220 -2.3722 -0.6984
 3006SOL    HW220655   1.878   1.154   7.830 -0.1071 -1.1686 -1.3462
 3007SOL     OW20656   3.982   3.088   3.215  0.7349 -0.0844 -0.0870
 3007SOL    HW120657   4.013   3.018   3.273  0.8919  0.0965  0.0462
 3007SOL    HW220658   4.019   3.072   3.128  1.0637 -2.3843  0.4775
 3008SOL     OW20659   4.333   3.701   8.597 -0.2223  0.3079 -0.3226
 3008SOL    HW120660   4.426   3.694   8.620 -0.2824 -0.6762 -0.3718
 3008SOL    HW220661   4.323   3.725   8.505  0.2300  1.8419  0.0342
 3009SOL     OW20662   3.511   2.706   6.794 -0.3059  0.4006  0.1656
 3009SOL    HW120663   3.508   2.687   6.700  0.2228  0.5079  0.1274
 3009SOL    HW220664   3.603   2.730   6.807  0.2874 -1.4488 -0.6377
 3010SOL     OW20665   4.377   0.414   8.707 -0.2223 -0.0862 -0.0726
 3010SOL    HW120666   4.415   0.502   8.701  3.1202 -1.6915 -2.5598
 3010SOL    HW220667   4.284   0.431   8.692 -0.0918  0.4695 -0.2621
 3011SOL     OW20668   3.990   3.631  11.343  0.1254 -0.0046  0.1436
 3011SOL    HW120669   4.025   3.597  11.260  0.4030  0.7418 -0.0398
 3011SOL    HW220670   4.060   3.694  11.358 -0.1367  0.2827  0.1467
 3012SOL     OW20671   0.283   3.693   3.968 -0.1416 -0.0263  0.2201
 3012SOL    HW120672   0.237   3.627   4.021  1.4811  0.8164  2.6789
 3012SOL    HW220673   0.346   3.720   4.035 -3.3951  2.6596  2.2194
 3013SOL     OW20674   0.361   3.983   4.332 -0.1489 -0.0653 -0.6930
 3013SOL    HW120675   0.432   4.015   4.276 -1.9328  2.1332 -1.6939
 3013SOL    HW220676   0.367   3.890   4.311  2.3175  0.3039 -1.5793
 3014SOL     OW20677   2.974   0.577   6.094 -0.8989 -0.2765  0.1714
 3014SOL    HW120678   2.929   0.631   6.029  0.6882  1.0807  0.1975
 3014SOL    HW220679   2.902   0.551   6.152 -1.3632  0.7895  0.0877
 3015SOL     OW20680   3.284   1.261   3.237  0.1701 -0.4996  0.6283
 3015SOL    HW120681   3.263   1.318   3.164  3.4527 -1.0507 -0.7261
 3015SOL    HW220682   3.356   1.208   3.202 -1.1566 -0.2316 -2.4124
 3016SOL     OW20683   3.295   4.296   6.909 -0.4593  0.0829  0.3364
 3016SOL    HW120684   3.331   4.207   6.908  1.4123  0.8616 -2.0340
 3016SOL    HW220685   3.289   4.309   7.004 -1.2223  1.1854  0.1348
 3017SOL     OW20686   3.996   3.000  11.555  0.1443  0.4354  0.3965
 3017SOL    HW120687   4.091   2.991  11.558  0.0135 -0.0828  2.7758
 3017SOL    HW220688   3.974   2.973  11.644  0.4891  0.5767  0.5244
 3018SOL     OW20689   0.702   0.781  14.736 -0.0613  0.2194 -0.4024
 3018SOL    HW120690   0.685   0.752  14.826  2.2721  1.1054  0.3388
 3018SOL    HW220691   0.715   0.698  14.690  1.5366 -0.6954  1.6591
 3019SOL     OW20692   3.189   4.717   4.613 -0.5884  0.1445  0.0096
 3019SOL    HW120693   3.138   4.641   4.641 -3.0961  1.5077 -0.8535
 3019SOL    HW220694   3.212   4.687   4.525 -1.9443  1.6044 -0.8383
 3020SOL     OW20695   2.003   1.245   0.122  0.2982  0.0551 -0.2264
 3020SOL    HW120696   1.952   1.284   0.193  0.1979  2.2637 -1.5424
 3020SOL    HW220697   2.072   1.310   0.115  1.6383 -1.2295  0.9165
 3021SOL     OW20698   2.952   3.430   7.802 -0.6067 -0.2122 -0.1838
 3021SOL    HW120699   2.999   3.385   7.731 -0.3798  0.5295 -0.5101
 3021SOL    HW220700   2.945   3.521   7.771  1.6922 -0.1238 -0.4582
 3022SOL     OW20701   2.438   4.221   2.321 -0.2824 -0.1089  0.1715
 3022SOL    HW120702   2.383   4.157   2.277 -0.3204 -0.6446  0.9932
 3022SOL    HW220703   2.516   4.167   2.330 -0.7544 -0.6794  0.8626
 3023SOL     OW20704   2.048   1.713  15.291  0.1131 -0.2552 -0.3839
 3023SOL    HW120705   2.105   1.717  15.368 -0.9966  1.1729  0.3547
 3023SOL    HW220706   2.013   1.801  15.281 -0.2846 -0.4609 -0.8315
 3024SOL     OW20707   2.200   2.901   4.611 -0.0663 -0.0109  0.1209
 3024SOL    HW120708   2.261   2.961   4.568  0.5287 -0.2083  0.6908
 3024SOL    HW220709   2.120   2.954   4.615  0.2060  0.4882 -0.9749
 3025SOL     OW20710   2.014   0.646   6.858 -0.9191  0.2712  0.2084
 3025SOL    HW120711   1.955   0.655   6.784 -2.4183  1.0664  1.4944
 3025SOL    HW220712   2.076   0.715   6.835 -0.0826 -0.7468 -0.6049
 3026SOL     OW20713   4.262   4.597   8.725  0.3070  0.4355  0.2034
 3026SOL    HW120714   4.306   4.669   8.681  2.9793 -0.1593  1.8970
 3026SOL    HW220715   4.174   4.599   8.689 -0.3428  0.5033  1.7854
 3027SOL     OW20716   1.599   1.872  13.105 -0.5158 -0.1472  0.2839
 3027SOL    HW120717   1.592   1.778  13.090  1.3732 -0.0451 -1.2972
 3027SOL    HW220718   1.619   1.867  13.199  1.2788 -1.9079 -0.1922
 3028SOL     OW20719   3.947   4.372   9.393 -0.1528 -0.0636  1.0087
 3028SOL    HW120720   3.918   4.420   9.315 -0.2286 -2.5978 -0.5321
 3028SOL    HW220721   3.862   4.346   9.430 -0.5744 -2.0805 -1.3859
 3029SOL     OW20722   3.482   2.673  10.020 -0.8639 -0.1962 -0.3402
 3029SOL    HW120723   3.446   2.759  10.044  0.3942  0.6692 -1.5670
 3029SOL    HW220724   3.434   2.621  10.085  0.0035  0.8343  1.1199
 3030SOL     OW20725   3.608   3.727   5.133 -0.3499  0.4912  0.0674
 3030SOL    HW120726   3.634   3.720   5.225  0.2147 -1.4420 -0.2381
 3030SOL    HW220727   3.681   3.760   5.080  0.8410 -0.0401  1.3786
 3031SOL     OW20728   4.646   2.668   1.927 -0.6076  0.2424 -0.3931
 3031SOL    HW120729   4.720   2.714   1.966  0.1007  0.3287 -1.8467
 3031SOL    HW220730   4.589   2.659   2.004 -0.4152  0.1687 -0.2583
 3032SOL     OW20731   1.775   2.748   1.895 -0.1481  0.1167 -0.6228
 3032SOL    HW120732   1.680   2.749   1.887 -0.2006 -0.2807 -0.0576
 3032SOL    HW220733   1.801   2.658   1.877 -1.0176 -0.1257 -0.6321
 3033SOL     OW20734   2.214   1.638   9.084 -0.2732 -0.2580 -0.0813
 3033SOL    HW120735   2.197   1.654   9.177 -1.7693 -1.1716 -0.1922
 3033SOL    HW220736   2.295   1.589   9.096 -0.1929  0.1436  1.0359
 3034SOL     OW20737   1.530   1.715   4.563  0.3851 -0.7449  0.5655
 3034SOL    HW120738   1.462   1.656   4.597 -1.4494  0.4251 -1.1063
 3034SOL    HW220739   1.564   1.747   4.646 -0.2389 -0.8291  0.8551
 3035SOL     OW20740   4.487   1.582  15.437 -0.2297 -0.1972  0.4601
 3035SOL    HW120741   4.423   1.652  15.431  0.1510  0.0922 -0.2376
 3035SOL    HW220742   4.443   1.515  15.384 -0.5325  0.0647  0.3831
 3036SOL     OW20743   1.974   4.174  12.196 -0.8018 -0.3711 -0.3780
 3036SOL    HW120744   1.991   4.088  12.155  1.5309  0.7368 -1.7405
 3036SOL    HW220745   1.880   4.178  12.213 -0.8218  1.5121 -1.0022
 3037SOL     OW20746   0.207   3.436  14.267 -0.3102  0.3453 -0.0755
 3037SOL    HW120747   0.159   3.511  14.233  1.8588  0.9210 -1.9253
 3037SOL    HW220748   0.222   3.390  14.184 -0.4392  0.0465  0.0690
 3038SOL     OW20749   4.618   1.390   9.502  0.1045 -0.2246 -0.3554
 3038SOL    HW120750   4.634   1.319   9.439 -1.2623 -0.9143  0.0634
 3038SOL    HW220751   4.645   1.467   9.453 -0.4744 -0.7323 -1.4944
 3039SOL     OW20752   2.340   1.323   3.934  0.1853 -0.2348  0.3548
 3039SOL    HW120753   2.384   1.319   3.849 -0.8540 -2.5317 -0.0836
 3039SOL    HW220754   2.398   1.390   3.971 -0.8304  0.6075  0.4324
 3040SOL     OW20755   2.220   3.895  10.101 -0.1717 -0.4234 -0.4082
 3040SOL    HW120756   2.162   3.873  10.174 -0.3869  0.7721 -0.2230
 3040SOL    HW220757   2.292   3.835  10.120 -0.2371  0.2225  1.8708
 3041SOL     OW20758   1.962   0.834   2.654  0.0325  0.1636  0.0263
 3041SOL    HW120759   2.003   0.758   2.695  0.4123 -0.5564 -1.6996
 3041SOL    HW220760   2.041   0.886   2.642  0.9882 -1.3495 -0.1982
 3042SOL     OW20761   2.920   2.662   4.290  0.2873 -0.1678  0.0703
 3042SOL    HW120762   2.832   2.657   4.252  1.5212 -2.0839 -2.5646
 3042SOL    HW220763   2.973   2.709   4.227  0.8087  0.6202  1.0941
 3043SOL     OW20764   2.342   1.761   8.125 -0.2707 -0.1786 -0.5132
 3043SOL    HW120765   2.422   1.725   8.163 -1.5621 -1.3466  1.1027
 3043SOL    HW220766   2.380   1.834   8.077  1.1812 -0.1293  0.6884
 3044SOL     OW20767   2.295   4.385  11.476 -0.3306  0.1587  0.1644
 3044SOL    HW120768   2.227   4.354  11.417  0.3777 -0.4245 -0.3418
 3044SOL    HW220769   2.292   4.479  11.457 -2.1535  0.2269  0.8261
 3045SOL     OW20770   1.653   0.486   3.360 -1.0025  0.1683  0.2646
 3045SOL    HW120771   1.646   0.417   3.294 -0.2798 -2.7272  3.1608
 3045SOL    HW220772   1.599   0.444   3.427  0.4991  0.4357  1.6299
 3046SOL     OW20773   1.236   1.545   0.375  0.3383  0.2728 -0.0652
 3046SOL    HW120774   1.292   1.621   0.391  0.6251  0.3896 -1.6116
 3046SOL    HW220775   1.287   1.475   0.417 -1.2739 -0.2195  1.0366
 3047SOL     OW20776   3.728   1.763  16.852 -0.2036 -0.1425 -0.4329
 3047SOL    HW120777   3.712   1.849  16.815 -0.6877 -1.0678 -2.3478
 3047SOL    HW220778   3.669   1.702  16.808  1.2309 -0.6510 -1.6606
 3048SOL     OW20779   0.500   1.976  16.101  0.4445 -0.2379 -0.2602
 3048SOL    HW120780   0.498   1.895  16.152 -1.3091 -1.2418 -1.9267
 3048SOL    HW220781   0.455   2.033  16.163  1.5976 -2.5010  2.6572
 3049SOL     OW20782   2.945   0.368  10.301 -0.1064 -0.2308  0.1355
 3049SOL    HW120783   2.938   0.356  10.396 -0.4931  1.9544  0.3909
 3049SOL    HW220784   3.040   0.357  10.297 -0.0144  0.5767 -0.0737
 3050SOL     OW20785   4.538   3.031  12.525 -0.2879  0.3965  0.0256
 3050SOL    HW120786   4.562   3.051  12.616 -0.9972  0.6866  0.1493
 3050SOL    HW220787   4.444   3.026  12.539 -0.3978 -0.0211 -0.8553
 3051SOL     OW20788   4.649   1.148   9.347  0.4106 -0.1222  0.8022
 3051SOL    HW120789   4.575   1.188   9.301 -0.3129 -3.9572 -1.4040
 3051SOL    HW220790   4.708   1.126   9.274 -0.2492 -0.5547  0.3980
 3052SOL     OW20791   2.599   2.201   8.377 -0.3358  0.0093  0.3880
 3052SOL    HW120792   2.583   2.272   8.439 -0.3274 -1.0797  1.6283
 3052SOL    HW220793   2.517   2.154   8.367  0.2906 -0.5994 -1.9988
 3053SOL     OW20794   0.172   3.637   9.126  0.2842 -0.8599 -0.5023
 3053SOL    HW120795   0.227   3.628   9.048  0.2463 -0.4490 -0.5757
 3053SOL    HW220796   0.201   3.563   9.179  0.9048 -1.2765 -1.4232
 3054SOL     OW20797   3.749   2.518  13.482  0.2124  0.4609 -0.1512
 3054SOL    HW120798   3.678   2.454  13.476  0.3170  0.5073 -1.8335
 3054SOL    HW220799   3.724   2.577  13.553 -0.2743 -1.4504  1.2689
 3055SOL     OW20800   3.668   3.552   2.380  0.1924 -0.2160 -0.1602
 3055SOL    HW120801   3.655   3.554   2.475  2.3274 -3.1481  0.2111
 3055SOL    HW220802   3.626   3.628   2.342 -0.0569 -1.0753 -1.5990
 3056SOL     OW20803   4.120   1.008   8.880 -0.1625 -0.3718 -0.1544
 3056SOL    HW120804   4.175   0.970   8.949 -0.6246 -1.7782 -0.5438
 3056SOL    HW220805   4.036   1.030   8.919  0.1392  0.2717  0.1223
 3057SOL     OW20806   3.166   2.807   8.876 -0.2229  0.0351  0.2539
 3057SOL    HW120807   3.120   2.724   8.890 -2.5190  1.1823 -0.5219
 3057SOL    HW220808   3.248   2.778   8.917 -0.9179 -2.8740 -0.4339
 3058SOL     OW20809   1.863   0.353   5.677 -0.2125  0.1912  0.0153
 3058SOL    HW120810   1.880   0.342   5.584  1.5970 -0.6421  0.4540
 3058SOL    HW220811   1.788   0.294   5.686  0.3358 -0.4355  0.4582
 3059SOL     OW20812   0.480   1.655   3.108 -0.4468 -0.3163 -0.8612
 3059SOL    HW120813   0.537   1.717   3.153  1.3029 -2.0740 -0.6344
 3059SOL    HW220814   0.405   1.649   3.168 -0.9940 -1.5118 -1.6629
 3060SOL     OW20815   2.940   1.747   4.009  0.2823 -0.3645 -0.1915
 3060SOL    HW120816   2.970   1.833   4.039 -0.1114 -1.0553  2.1675
 3060SOL    HW220817   3.009   1.691   4.044 -1.2000 -2.6993 -0.9788
 3061SOL     OW20818   3.540   1.510   7.452  0.0342 -0.1459  0.4157
 3061SOL    HW120819   3.469   1.446   7.441 -0.0246  0.1598 -0.9746
 3061SOL    HW220820   3.567   1.551   7.370 -1.3089  3.7180  1.9044
 3062SOL     OW20821   1.353   0.681   4.301  0.4567  0.2268 -0.0179
 3062SOL    HW120822   1.308   0.597   4.297  2.1485 -0.6407 -0.4578
 3062SOL    HW220823   1.308   0.719   4.377  0.6623 -1.0665  0.7465
 3063SOL     OW20824   4.181   3.821   5.740 -0.6159 -0.0712  0.7228
 3063SOL    HW120825   4.270   3.829   5.775 -0.9159 -0.5414  1.5918
 3063SOL    HW220826   4.152   3.757   5.804  0.2271 -0.9563  0.2266
 3064SOL     OW20827   1.228   0.894  13.349  0.1130 -0.3147 -0.0337
 3064SOL    HW120828   1.228   0.868  13.257 -1.8610 -0.7997  0.1076
 3064SOL    HW220829   1.148   0.845  13.368  0.2227 -0.4095  0.1776
 3065SOL     OW20830   0.425   3.133  12.708  1.1807 -0.1253 -0.2738
 3065SOL    HW120831   0.462   3.195  12.645  3.1506 -3.6805 -2.6504
 3065SOL    HW220832   0.355   3.186  12.745 -0.0744 -0.3447 -2.3145
 3066SOL     OW20833   1.627   2.128  12.779  0.1982 -0.0155 -0.7489
 3066SOL    HW120834   1.705   2.107  12.831  1.8757  2.6270 -2.1715
 3066SOL    HW220835   1.656   2.110  12.690 -3.3592 -0.9051 -1.6971
 3067SOL     OW20836   4.323   2.893  10.029 -0.5914 -0.0536 -0.0492
 3067SOL    HW120837   4.373   2.893   9.947  0.6024 -0.7645  0.6788
 3067SOL    HW220838   4.235   2.882   9.994  0.3678 -0.3883 -2.3728
 3068SOL     OW20839   2.703   1.589   7.340 -0.6942  0.1507 -1.0364
 3068SOL    HW120840   2.740   1.646   7.273 -1.3031 -2.8387 -3.8968
 3068SOL    HW220841   2.762   1.514   7.335 -0.9871 -0.0156 -1.9142
 3069SOL     OW20842   1.972   4.033   7.516 -0.1276  0.4035  0.0046
 3069SOL    HW120843   2.047   4.045   7.458  0.3114  2.1067  0.9435
 3069SOL    HW220844   1.955   3.941   7.495 -1.6652  0.6326  0.2355
 3070SOL     OW20845   3.362   3.049  15.404 -0.0449 -0.0051 -0.2741
 3070SOL    HW120846   3.268   3.066  15.405 -0.0658 -0.2134  1.3623
 3070SOL    HW220847   3.393   3.072  15.492  0.0067 -2.0419  0.2276
 3071SOL     OW20848   1.359   4.036   7.565  0.3332  0.0431  0.0869
 3071SOL    HW120849   1.359   4.116   7.513  1.8543 -0.9474 -1.4615
 3071SOL    HW220850   1.289   4.053   7.628  0.8545 -0.3690  0.7747
 3072SOL     OW20851   3.671   3.293   7.956 -0.2086  0.4707 -0.3294
 3072SOL    HW120852   3.620   3.263   7.880 -0.7396 -3.2569  1.5224
 3072SOL    HW220853   3.681   3.209   8.001 -1.1314 -0.1102 -1.2160
 3073SOL     OW20854   2.679   0.877   9.151 -0.5899  0.0074 -0.3434
 3073SOL    HW120855   2.725   0.860   9.069 -2.0806 -0.3132 -1.1069
 3073SOL    HW220856   2.667   0.787   9.182  3.0404 -0.3524  0.0853
 3074SOL     OW20857   4.265   0.703   6.812 -0.3282 -0.2011 -0.0256
 3074SOL    HW120858   4.274   0.788   6.770 -0.7426 -0.7676 -1.2679
 3074SOL    HW220859   4.327   0.651   6.761 -1.0339 -0.8124 -0.2644
 3075SOL     OW20860   2.348   0.581  15.930  0.1528 -0.5303  0.3463
 3075SOL    HW120861   2.304   0.496  15.927  1.7191 -1.3366  0.4823
 3075SOL    HW220862   2.363   0.592  15.836 -2.0689  2.6021  0.3428
 3076SOL     OW20863   3.307   3.005   7.613  0.2118  0.7543  0.1275
 3076SOL    HW120864   3.337   3.020   7.524  1.1230  1.3209  0.5319
 3076SOL    HW220865   3.289   2.911   7.618  0.7295  0.6725  0.3988
 3077SOL     OW20866   4.061   1.869   7.343  0.7274 -0.0191  0.2493
 3077SOL    HW120867   4.122   1.935   7.311 -1.5152  0.9709 -1.9838
 3077SOL    HW220868   3.987   1.926   7.363  1.4266 -0.0211  2.8500
 3078SOL     OW20869   4.404   2.581   9.302 -0.4756  0.2072 -0.0632
 3078SOL    HW120870   4.336   2.633   9.345 -0.4746 -1.1977  1.6562
 3078SOL    HW220871   4.431   2.633   9.227 -0.2916 -0.4646 -0.4599
 3079SOL     OW20872   4.715   1.920   7.704 -0.6213 -0.6230  0.5302
 3079SOL    HW120873   4.649   1.851   7.693 -0.7559 -0.0699 -2.3796
 3079SOL    HW220874   4.653   1.990   7.683  1.1185  0.9091  0.4424
 3080SOL     OW20875   1.328   3.352   4.494  0.5119 -0.0735 -0.2088
 3080SOL    HW120876   1.259   3.372   4.431  0.2516 -0.4723 -0.0482
 3080SOL    HW220877   1.309   3.259   4.509  1.7328 -0.1485  0.8807
 3081SOL     OW20878   1.324   0.860   3.363 -1.2519 -0.5996  0.1099
 3081SOL    HW120879   1.256   0.928   3.361  0.5494  1.2465  1.7985
 3081SOL    HW220880   1.383   0.892   3.294 -1.2626 -1.3065 -0.2245
 3082SOL     OW20881   0.816   2.690   1.829  0.0874  0.6030 -0.2321
 3082SOL    HW120882   0.780   2.614   1.875  0.3657  0.3294 -0.4582
 3082SOL    HW220883   0.911   2.676   1.835  0.2129  0.5639 -2.1986
 3083SOL     OW20884   2.474   1.940   5.218 -0.2574  0.2678  0.2909
 3083SOL    HW120885   2.420   1.974   5.147  1.8807  2.0422 -0.5013
 3083SOL    HW220886   2.441   1.850   5.209  1.5051 -0.5532  2.0175
 3084SOL     OW20887   3.312   3.769  12.850  0.0640 -1.0625 -0.2831
 3084SOL    HW120888   3.219   3.758  12.829 -0.1893 -0.0478  0.2926
 3084SOL    HW220889   3.348   3.680  12.842 -0.8199 -1.5186  0.7820
 3085SOL     OW20890   0.373   0.662  14.863  0.1961  0.0940 -0.6328
 3085SOL    HW120891   0.387   0.578  14.819  2.2957 -0.8584  1.8210
 3085SOL    HW220892   0.439   0.646  14.930  1.5483  0.9713 -1.7835
 3086SOL     OW20893   4.532   0.182   5.087 -0.0738  0.1704  0.1363
 3086SOL    HW120894   4.532   0.168   4.993  1.3037  0.7930  0.0410
 3086SOL    HW220895   4.504   0.274   5.088  0.8448  0.4597 -0.6866
 3087SOL     OW20896   2.096   0.370   8.240 -0.4099  0.3500  0.5657
 3087SOL    HW120897   2.039   0.447   8.251  0.6034  1.0697  0.7445
 3087SOL    HW220898   2.063   0.308   8.304  0.0898  0.7513  1.2138
 3088SOL     OW20899   2.037   2.796   0.528 -0.3936  0.0931 -0.1484
 3088SOL    HW120900   2.088   2.849   0.588 -0.0289  0.1686 -0.5260
 3088SOL    HW220901   2.085   2.798   0.445 -0.7747 -0.6683 -0.3969
 3089SOL     OW20902   1.095   4.524   3.448 -0.0086  0.6445 -0.0282
 3089SOL    HW120903   1.124   4.578   3.374 -1.1700  2.5659  0.9230
 3089SOL    HW220904   1.027   4.577   3.490 -0.9893 -0.9919  0.4247
 3090SOL     OW20905   0.192   2.672  15.596 -0.6495 -0.3209  0.3484
 3090SOL    HW120906   0.281   2.705  15.606 -1.7541  2.4445  1.1151
 3090SOL    HW220907   0.181   2.687  15.502  1.0262 -1.2909  0.0112
 3091SOL     OW20908   1.915   1.751   7.127 -0.2318 -0.1112  0.0986
 3091SOL    HW120909   2.006   1.735   7.149 -0.2446 -1.7692 -1.0073
 3091SOL    HW220910   1.881   1.696   7.198  0.4842 -1.7724 -0.8327
 3092SOL     OW20911   1.358   1.565   4.724  0.8159 -0.2665 -0.4078
 3092SOL    HW120912   1.314   1.480   4.729  0.2776 -0.0545 -1.5793
 3092SOL    HW220913   1.379   1.577   4.817  0.3577 -0.5496 -0.2680
 3093SOL     OW20914   1.283   4.338   1.582 -0.3767  0.2599 -0.0249
 3093SOL    HW120915   1.293   4.321   1.676 -1.5995  0.5331  0.1615
 3093SOL    HW220916   1.375   4.339   1.558 -0.6489 -0.0338 -1.0527
 3094SOL     OW20917   4.059   0.533  17.630  0.6802 -0.6840  0.2253
 3094SOL    HW120918   4.036   0.613  17.584 -0.6291 -0.2016  1.7371
 3094SOL    HW220919   4.152   0.532  17.609  0.3141  1.3009 -1.4567
 3095SOL     OW20920   0.123   3.424   4.725 -0.0238 -0.5215  0.6085
 3095SOL    HW120921   0.088   3.361   4.788 -1.3491 -0.1354  0.2716
 3095SOL    HW220922   0.215   3.399   4.730 -0.1396 -1.3225 -1.1798
 3096SOL     OW20923   2.090   0.517   1.961 -0.1438  0.6472 -0.3190
 3096SOL    HW120924   2.141   0.580   1.910  0.8997  1.7603  2.0909
 3096SOL    HW220925   2.076   0.451   1.894  1.9065 -0.1461  0.0163
 3097SOL     OW20926   1.167   2.150  10.039 -0.3703 -0.1616 -0.3788
 3097SOL    HW120927   1.245   2.109  10.000  0.0142  0.4910 -0.2881
 3097SOL    HW220928   1.110   2.120   9.968 -0.6933  0.0952 -0.2229
 3098SOL     OW20929   3.056   2.018   9.820 -0.3240 -0.0373  0.4426
 3098SOL    HW120930   3.095   2.088   9.768 -0.3280 -1.7899 -1.9126
 3098SOL    HW220931   3.133   1.973   9.853 -0.3820 -0.0200  0.6040
 3099SOL     OW20932   3.965   2.744   3.987 -0.2321 -0.0846 -0.5737
 3099SOL    HW120933   4.034   2.717   3.927  1.2626 -2.4978  2.2110
 3099SOL    HW220934   3.892   2.761   3.926 -2.1456 -1.5843  1.2856
 3100SOL     OW20935   3.354   0.302   1.707 -0.0279  0.4846  0.2800
 3100SOL    HW120936   3.349   0.386   1.662  1.6223 -0.0736 -0.9616
 3100SOL    HW220937   3.293   0.255   1.650  0.6961  0.2691 -0.3224
 3101SOL     OW20938   3.168   0.336  14.799 -0.3824  0.3012  0.3713
 3101SOL    HW120939   3.144   0.310  14.710  0.3080 -0.2546  0.3507
 3101SOL    HW220940   3.263   0.342  14.794 -0.3979  1.8569  1.8841
 3102SOL     OW20941   2.108   1.286   8.407 -0.0292  0.1321 -0.0906
 3102SOL    HW120942   2.058   1.366   8.425 -0.0412 -0.1245  1.0294
 3102SOL    HW220943   2.032   1.228   8.420 -0.2484  0.5062  0.2967
 3103SOL     OW20944   3.841   3.949   7.263 -0.2540  0.3151 -0.3180
 3103SOL    HW120945   3.927   3.991   7.269  0.4490 -0.5681 -4.4821
 3103SOL    HW220946   3.837   3.917   7.353 -0.8151 -0.7578 -0.7230
 3104SOL     OW20947   2.048   1.756   3.246  0.8299  0.2936  0.2019
 3104SOL    HW120948   2.102   1.812   3.301  0.4795  0.5957  0.2336
 3104SOL    HW220949   2.084   1.788   3.163  0.5581  0.8935  0.3135
 3105SOL     OW20950   2.190   0.389   1.676  0.1115 -0.2499  0.5713
 3105SOL    HW120951   2.239   0.459   1.632 -1.7782  0.4098 -0.4429
 3105SOL    HW220952   2.118   0.376   1.614  0.0939 -0.4285  0.6287
 3106SOL     OW20953   4.509   3.481   2.417  0.5607  0.1599 -0.1592
 3106SOL    HW120954   4.518   3.386   2.414 -0.0956  0.1015 -0.5088
 3106SOL    HW220955   4.497   3.502   2.510 -1.3465 -0.5099 -0.2449
 3107SOL     OW20956   2.375   3.510   2.158  0.5951  0.3543 -0.5258
 3107SOL    HW120957   2.344   3.426   2.122  1.4740  0.1591 -0.8344
 3107SOL    HW220958   2.386   3.489   2.250  0.1836 -0.4734 -0.6671
 3108SOL     OW20959   4.026   2.472  17.643  0.7745 -0.4617  0.3328
 3108SOL    HW120960   4.109   2.519  17.652 -0.2873  0.9333  3.0847
 3108SOL    HW220961   4.019   2.448  17.736  0.5331 -0.1252  0.4037
 3109SOL     OW20962   2.256   0.513   0.113  0.6460  0.1760 -0.1448
 3109SOL    HW120963   2.274   0.511   0.019  2.1934  1.9327  0.1119
 3109SOL    HW220964   2.251   0.420   0.136  0.3221 -0.5633 -3.1176
 3110SOL     OW20965   0.433   1.081   3.994  0.2311  0.4705 -0.9921
 3110SOL    HW120966   0.349   1.038   4.011  1.6555 -2.2155 -0.6259
 3110SOL    HW220967   0.501   1.017   4.015  2.1926  2.3510 -1.6488
 3111SOL     OW20968   2.677   0.688   2.116  0.0147 -0.8551 -0.4592
 3111SOL    HW120969   2.720   0.699   2.201 -1.2601 -2.2134  0.3600
 3111SOL    HW220970   2.751   0.665   2.059  1.3091 -0.7630  1.1944
 3112SOL     OW20971   2.617   0.672   3.618  0.3069 -0.0808  0.4391
 3112SOL    HW120972   2.546   0.700   3.562 -0.5665 -0.5674  1.3039
 3112SOL    HW220973   2.696   0.709   3.578 -0.1106  0.3847  0.0593
 3113SOL     OW20974   2.967   0.045   7.045  0.1058  0.3688  0.0099
 3113SOL    HW120975   2.997   0.106   6.978  0.0262 -0.8995 -1.1802
 3113SOL    HW220976   2.961   0.112   7.113  0.2300  0.1410  0.2489
 3114SOL     OW20977   2.128   1.544   3.976  0.0975  0.1377 -0.5774
 3114SOL    HW120978   2.170   1.469   4.019  0.3056  1.1838  1.0330
 3114SOL    HW220979   2.127   1.500   3.891  0.2921 -0.0185 -0.4987
 3115SOL     OW20980   3.991   0.889  14.354  0.0333  0.0439  0.3845
 3115SOL    HW120981   3.979   0.983  14.340 -0.4918 -0.0418  0.2526
 3115SOL    HW220982   4.017   0.886  14.446 -0.9780 -2.9046  0.5670
 3116SOL     OW20983   0.996   2.978   4.502  0.1452  0.1809  0.0101
 3116SOL    HW120984   0.930   3.042   4.476  1.1544 -0.1356 -3.3345
 3116SOL    HW220985   0.970   2.900   4.453 -2.7633  1.1570  0.0319
 3117SOL     OW20986   0.496   0.008   3.086  0.5936  0.4201 -0.0403
 3117SOL    HW120987   0.535   0.023   3.000 -0.5324 -0.7302 -0.7507
 3117SOL    HW220988   0.424   4.684   3.072  1.1877 -0.5479  1.1153
 3118SOL     OW20989   0.623   4.737   2.839  0.4137  0.1541 -0.7733
 3118SOL    HW120990   0.718   4.730   2.831  0.2734 -1.0430 -1.2972
 3118SOL    HW220991   0.607   0.041   2.755 -1.0164  2.6818  0.7322
 3119SOL     OW20992   1.242   2.265   7.683 -0.0295  0.2135  0.1641
 3119SOL    HW120993   1.151   2.251   7.711 -0.9611  0.7732 -2.5383
 3119SOL    HW220994   1.246   2.360   7.678  0.8974  0.1181 -0.7834
 3120SOL     OW20995   0.964   2.145  14.368  0.0881 -0.0437  0.3872
 3120SOL    HW120996   0.916   2.101  14.438 -2.1188 -1.1308 -1.7870
 3120SOL    HW220997   0.968   2.079  14.299 -2.3307  1.0767 -0.8518
 3121SOL     OW20998   2.847   3.553  15.773  0.0153 -0.0480  0.3331
 3121SOL    HW120999   2.901   3.546  15.695 -0.8526  0.8024 -0.3424
 3121SOL    HW221000   2.806   3.640  15.775 -1.3480 -0.7281  1.4827
 3122SOL     OW21001   2.147   3.978   7.104  1.1127 -0.5004 -0.4263
 3122SOL    HW121002   2.233   4.007   7.076  1.4616 -1.3572 -0.2570
 3122SOL    HW221003   2.150   3.882   7.098  1.5045 -0.4861 -0.4178
 3123SOL     OW21004   0.488   1.788  15.109  0.2917  0.2781  0.1824
 3123SOL    HW121005   0.497   1.872  15.065 -0.5958  0.4921  0.3977
 3123SOL    HW221006   0.444   1.737  15.041  0.9640  1.0579 -0.8295
 3124SOL     OW21007   3.416   2.738   5.242 -0.0872  0.5944  0.1105
 3124SOL    HW121008   3.339   2.682   5.232  0.9279 -0.7719 -0.0135
 3124SOL    HW221009   3.467   2.699   5.171 -1.6090 -1.7102  0.2912
 3125SOL     OW21010   3.440   0.786   4.594 -0.6896  0.3355 -0.2975
 3125SOL    HW121011   3.436   0.856   4.659 -0.5799  1.1535 -1.1602
 3125SOL    HW221012   3.350   0.755   4.593 -0.3096 -0.7092 -2.0785
 3126SOL     OW21013   4.112   4.588  16.870 -0.5077 -0.7441 -0.4012
 3126SOL    HW121014   4.020   4.579  16.847 -0.9059 -0.8510  1.2150
 3126SOL    HW221015   4.118   4.518  16.935  2.7867 -1.1454 -1.1066
 3127SOL     OW21016   3.377   1.292   3.806 -0.1505 -0.4097  0.4106
 3127SOL    HW121017   3.434   1.280   3.881  2.9016  1.1043 -1.6636
 3127SOL    HW221018   3.428   1.258   3.732  2.4282 -0.4662  2.2397
 3128SOL     OW21019   4.073   3.276   4.441 -0.3209  0.0644  0.4787
 3128SOL    HW121020   4.035   3.331   4.509  1.7164  1.2881  0.6345
 3128SOL    HW221021   3.999   3.255   4.384 -2.1202 -0.6503  3.0662
 3129SOL     OW21022   2.048   3.694  11.103  0.3734  0.6539  0.0056
 3129SOL    HW121023   2.111   3.759  11.072  2.2298 -1.8725 -1.5983
 3129SOL    HW221024   2.070   3.698  11.196  0.7557  0.1533 -0.0596
 3130SOL     OW21025   0.323   0.286   1.683 -0.7799 -0.2859  0.4463
 3130SOL    HW121026   0.314   0.365   1.629 -0.2138 -1.3154 -1.1589
 3130SOL    HW221027   0.401   0.304   1.736  0.0401 -1.6567 -0.2866
 3131SOL     OW21028   2.180   1.809   1.772  1.0903 -0.2968  0.2040
 3131SOL    HW121029   2.100   1.759   1.760  0.3658  0.2958  2.6053
 3131SOL    HW221030   2.218   1.783   1.688  1.0178  1.2066 -0.2930
 3132SOL     OW21031   1.832   2.886   1.444 -0.3953  0.0350 -0.1203
 3132SOL    HW121032   1.815   2.977   1.469  1.7774  0.7564 -1.2916
 3132SOL    HW221033   1.836   2.886   1.349 -0.4495 -0.2882 -0.1205
 3133SOL     OW21034   3.858   2.971   9.773  0.3546 -0.1454  0.0263
 3133SOL    HW121035   3.935   2.921   9.801 -1.6643 -2.3028  1.7265
 3133SOL    HW221036   3.810   2.902   9.728 -1.1754  1.0229 -0.1018
 3134SOL     OW21037   1.198   0.667   0.694  0.1065 -0.4300  0.6902
 3134SOL    HW121038   1.131   0.695   0.631  1.8935  2.6157  0.1295
 3134SOL    HW221039   1.255   0.744   0.694  1.7097 -1.6216  2.2867
 3135SOL     OW21040   2.605   2.200  10.725  0.1536  0.2461  0.5026
 3135SOL    HW121041   2.678   2.139  10.722  0.0894  0.1879  0.1450
 3135SOL    HW221042   2.549   2.134  10.766  0.8378 -0.6204  0.0492
 3136SOL     OW21043   2.318   0.431   6.699  0.5349 -0.1534 -0.2088
 3136SOL    HW121044   2.365   0.502   6.743 -1.3755  0.8881  0.1941
 3136SOL    HW221045   2.299   0.459   6.609 -2.1845  0.1174  0.4408
 3137SOL     OW21046   3.186   2.562   2.165  0.0411 -0.3621  0.5661
 3137SOL    HW121047   3.235   2.540   2.086 -2.6488 -0.1387 -1.1592
 3137SOL    HW221048   3.098   2.528   2.150 -0.1639 -0.0392  1.0631
 3138SOL     OW21049   4.031   3.719   9.280 -0.3636 -0.1937 -0.0441
 3138SOL    HW121050   4.025   3.642   9.224 -2.1403  1.2346 -1.8220
 3138SOL    HW221051   4.124   3.741   9.280 -0.5563  0.6228 -0.1755
 3139SOL     OW21052   4.005   0.459   4.124 -0.2324  0.2869 -0.2280
 3139SOL    HW121053   3.947   0.443   4.199 -0.3628  1.1384 -0.1536
 3139SOL    HW221054   4.079   0.408   4.156 -0.9136 -0.5427  0.0432
 3140SOL     OW21055   0.087   1.641  17.521  0.2268  0.3986 -0.3695
 3140SOL    HW121056   0.064   1.621  17.612 -0.0405  1.4919 -0.1949
 3140SOL    HW221057   0.181   1.622  17.519  0.2483  0.3136  1.0811
 3141SOL     OW21058   2.352   1.276   9.752 -0.2906  0.0176 -0.3013
 3141SOL    HW121059   2.395   1.270   9.666  0.1388  1.8142 -0.2297
 3141SOL    HW221060   2.408   1.335   9.803 -0.6018 -0.4930  0.6108
 3142SOL     OW21061   4.401   4.105  13.087 -0.2562  0.0142  0.5028
 3142SOL    HW121062   4.460   4.128  13.159 -2.5167  0.2644  2.2639
 3142SOL    HW221063   4.328   4.164  13.106 -0.6250  0.5377 -2.4653
 3143SOL     OW21064   0.328   4.118   3.149  0.2930  0.7358 -0.4829
 3143SOL    HW121065   0.364   4.033   3.173  0.2278  0.8526  0.0376
 3143SOL    HW221066   0.303   4.104   3.058  2.0702 -2.7335 -0.4207
 3144SOL     OW21067   3.046   0.521   3.376 -0.0270 -0.3885 -0.2466
 3144SOL    HW121068   3.065   0.427   3.378  1.7290 -0.0420 -0.1070
 3144SOL    HW221069   3.136   0.553   3.364 -0.1428 -0.0070 -0.1006
 3145SOL     OW21070   4.452   4.075  11.503  0.1128  0.5463  0.0995
 3145SOL    HW121071   4.413   4.122  11.576 -1.1147  0.5255 -0.5330
 3145SOL    HW221072   4.381   4.075  11.439 -1.4646 -1.3924  1.8343
 3146SOL     OW21073   3.202   4.332   7.190 -0.6428 -0.5172 -0.3940
 3146SOL    HW121074   3.111   4.307   7.172 -1.1217  0.3322  0.8258
 3146SOL    HW221075   3.190   4.415   7.235 -1.0663  0.6188 -2.6130
 3147SOL     OW21076   4.487   0.510  14.368  0.3859  0.0067 -0.0582
 3147SOL    HW121077   4.437   0.445  14.319  0.9591 -1.6461  1.5959
 3147SOL    HW221078   4.431   0.586  14.350 -2.0946 -1.7649  0.1750
 3148SOL     OW21079   1.774   1.448  11.481  0.1466 -0.0577  0.4510
 3148SOL    HW121080   1.869   1.456  11.478  0.0201  0.2817 -2.6784
 3148SOL    HW221081   1.746   1.482  11.396  1.5641  2.0035  0.8103
 3149SOL     OW21082   2.329   3.185   7.042 -0.2247 -0.6235  0.0993
 3149SOL    HW121083   2.284   3.249   6.985  1.7045 -0.4462 -1.2241
 3149SOL    HW221084   2.356   3.239   7.116 -0.8425 -2.5840  1.7409
 3150SOL     OW21085   0.776   0.524   2.683  0.2248  0.5496 -0.6353
 3150SOL    HW121086   0.847   0.577   2.718  0.0570  1.0259 -1.0284
 3150SOL    HW221087   0.794   0.535   2.590  2.2528  2.3786 -0.0232
 3151SOL     OW21088   4.415   1.050   3.148 -0.0180 -0.1435 -0.3335
 3151SOL    HW121089   4.454   1.094   3.224  0.7718  0.2020 -0.9342
 3151SOL    HW221090   4.400   1.128   3.096 -0.1596 -1.3244 -2.0760
 3152SOL     OW21091   4.598   2.114   3.390 -0.0800 -0.1107  0.3231
 3152SOL    HW121092   4.570   2.023   3.404 -0.2133 -0.1787 -0.3893
 3152SOL    HW221093   4.512   2.154   3.381  0.8858  2.0133  0.7166
 3153SOL     OW21094   2.749   2.523  10.166  0.3838  0.8049 -0.1880
 3153SOL    HW121095   2.746   2.612  10.131  0.4717  0.2580 -1.5647
 3153SOL    HW221096   2.658   2.520  10.198 -0.4973 -0.2184 -2.7643
 3154SOL     OW21097   4.695   2.567   6.838  0.0362  0.9083  0.0322
 3154SOL    HW121098   0.021   2.591   6.771  0.6810 -0.2273  0.2381
 3154SOL    HW221099   4.636   2.641   6.845  0.4535  1.2250  0.1869
 3155SOL     OW21100   4.523   4.562   8.482 -0.1029 -0.1318  1.2884
 3155SOL    HW121101   4.527   4.546   8.577 -1.5573  1.1914  1.5725
 3155SOL    HW221102   4.487   4.650   8.471 -2.0430 -0.9332  1.2017
 3156SOL     OW21103   1.642   2.925   5.583  0.6530 -0.1575  0.3689
 3156SOL    HW121104   1.674   2.840   5.552  0.7440  0.7972 -2.2113
 3156SOL    HW221105   1.559   2.896   5.619 -0.3683  1.0507 -1.0152
 3157SOL     OW21106   3.108   0.633   7.828  0.1595 -0.0027  0.6519
 3157SOL    HW121107   3.186   0.580   7.844  0.3621 -0.5261 -2.0491
 3157SOL    HW221108   3.117   0.630   7.733 -1.5420  0.3310  0.4769
 3158SOL     OW21109   0.900   3.564   6.936 -0.3075 -0.1460  0.2834
 3158SOL    HW121110   0.908   3.638   6.877 -0.8115  0.7778  1.3739
 3158SOL    HW221111   0.910   3.607   7.021  0.7214  0.5469 -0.1893
 3159SOL     OW21112   2.760   1.935   4.664  0.1142  0.2372 -0.3524
 3159SOL    HW121113   2.786   2.002   4.727 -2.3354  1.0518 -0.2137
 3159SOL    HW221114   2.670   1.922   4.692  0.2249  1.8191  0.7555
 3160SOL     OW21115   3.492   3.877   3.649 -0.4609 -0.3878  0.8914
 3160SOL    HW121116   3.572   3.881   3.597  0.4867  0.1800  2.3962
 3160SOL    HW221117   3.528   3.805   3.701 -1.6275 -1.7741 -0.2179
 3161SOL     OW21118   2.425   3.092  12.286  0.3933 -0.3575 -0.4108
 3161SOL    HW121119   2.389   3.007  12.312 -1.3911  0.9575  1.4910
 3161SOL    HW221120   2.382   3.101  12.201  0.1430 -0.3045 -0.2797
 3162SOL     OW21121   3.106   3.361   4.180  0.4713 -0.2783  0.3473
 3162SOL    HW121122   3.014   3.389   4.185  0.3680 -0.6590  0.5195
 3162SOL    HW221123   3.146   3.448   4.178  0.8038 -0.4339  0.3203
 3163SOL     OW21124   4.576   3.300  17.123 -0.5920  0.7793 -0.1958
 3163SOL    HW121125   4.622   3.278  17.042  1.4005 -1.6756  1.6039
 3163SOL    HW221126   4.485   3.300  17.095 -0.8267  2.0413  0.5339
 3164SOL     OW21127   1.857   2.597  17.130  0.7047  0.1083 -0.1393
 3164SOL    HW121128   1.773   2.642  17.140 -0.0437 -1.4706  0.5931
 3164SOL    HW221129   1.907   2.635  17.202  1.4561  0.5350 -0.8904
 3165SOL     OW21130   0.779   4.567   0.565  0.2377  0.4526 -0.5212
 3165SOL    HW121131   0.780   4.656   0.600 -0.9773  1.1288 -2.2411
 3165SOL    HW221132   0.727   4.586   0.487  0.8070 -2.4470 -1.6296
 3166SOL     OW21133   1.567   0.812   9.089  0.2020  0.2098 -0.0691
 3166SOL    HW121134   1.628   0.841   9.022  1.4114 -1.0101  0.5045
 3166SOL    HW221135   1.486   0.828   9.040 -0.1348 -0.3244  0.3099
 3167SOL     OW21136   0.668   4.034   2.124  0.4982  0.8403  0.1677
 3167SOL    HW121137   0.629   3.964   2.072 -1.3764  2.3409 -0.4239
 3167SOL    HW221138   0.640   4.024   2.215  0.1616 -1.2492 -0.1684
 3168SOL     OW21139   1.651   3.018   3.342  0.0350  0.2114  0.3187
 3168SOL    HW121140   1.713   3.088   3.364  0.7251 -0.9521  2.1169
 3168SOL    HW221141   1.632   3.024   3.249 -2.4061 -0.8203  0.7454
 3169SOL     OW21142   2.520   1.440   3.217 -0.4599 -0.2620  0.3925
 3169SOL    HW121143   2.554   1.351   3.209  0.2935  0.2331 -2.0047
 3169SOL    HW221144   2.461   1.438   3.143 -1.3581 -0.8689  1.1226
 3170SOL     OW21145   2.253   2.945   6.028  0.2251  0.2580  0.3387
 3170SOL    HW121146   2.192   2.895   5.974 -0.1036  2.1345 -1.0356
 3170SOL    HW221147   2.247   2.911   6.117 -1.1249  1.2211  0.6168
 3171SOL     OW21148   3.615   0.557   5.729 -0.1806 -0.3013 -0.4814
 3171SOL    HW121149   3.571   0.639   5.708 -1.6862 -0.8222  0.5604
 3171SOL    HW221150   3.704   0.588   5.713 -0.2954 -0.7839 -2.0215
 3172SOL     OW21151   0.322   2.809   5.511  0.3440 -0.0607  0.3853
 3172SOL    HW121152   0.387   2.872   5.540 -0.2971 -0.8454  3.4907
 3172SOL    HW221153   0.375   2.729   5.516 -1.7143 -1.2599  3.0335
 3173SOL     OW21154   3.506   3.384  14.744 -0.2441  0.3631 -0.6004
 3173SOL    HW121155   3.440   3.394  14.812 -0.0535  1.9675 -0.6601
 3173SOL    HW221156   3.585   3.404  14.795 -0.7005  0.1468  0.2068
 3174SOL     OW21157   2.130   3.245   4.049  0.3776 -0.3068 -0.0588
 3174SOL    HW121158   2.070   3.281   4.114  2.5927 -0.8093  2.2430
 3174SOL    HW221159   2.166   3.177   4.106 -2.6896 -1.6074  0.3497
 3175SOL     OW21160   4.318   4.488   5.109  0.2149 -0.1172 -0.1908
 3175SOL    HW121161   4.367   4.486   5.191 -1.2094  0.2165  0.6614
 3175SOL    HW221162   4.317   4.583   5.096  0.5063 -0.1489 -0.4331
 3176SOL     OW21163   3.326   4.656   3.635 -0.1103  0.0596  0.1635
 3176SOL    HW121164   3.299   4.659   3.727  2.7522  1.6733  0.9390
 3176SOL    HW221165   3.266   4.711   3.585  1.3385  0.6650 -0.9253
 3177SOL     OW21166   1.023   1.849   4.331 -0.2160 -0.2151 -0.0620
 3177SOL    HW121167   0.954   1.861   4.397 -1.0348 -0.8963 -0.7893
 3177SOL    HW221168   1.056   1.763   4.358 -0.0639  0.3383  1.5452
 3178SOL     OW21169   1.882   1.928   5.317 -0.3276 -0.6234  0.4461
 3178SOL    HW121170   1.845   1.889   5.238 -1.8727  0.6708  0.5206
 3178SOL    HW221171   1.930   1.858   5.360 -0.0166  0.5396  2.0202
 3179SOL     OW21172   2.977   2.905   4.091 -0.4805 -0.2956 -0.2243
 3179SOL    HW121173   2.938   2.966   4.153 -0.9318 -1.3942  0.5596
 3179SOL    HW221174   2.941   2.948   4.013 -2.9903 -1.1412  0.5000
 3180SOL     OW21175   2.611   1.189   3.221 -0.1232  0.1277 -0.3140
 3180SOL    HW121176   2.566   1.134   3.157  1.7839  0.2861 -1.8137
 3180SOL    HW221177   2.688   1.135   3.243 -1.0633 -1.1424 -0.1351
 3181SOL     OW21178   3.492   1.352  15.507 -0.2034 -0.0753 -0.0039
 3181SOL    HW121179   3.516   1.395  15.589 -0.0491 -1.0921  0.4873
 3181SOL    HW221180   3.576   1.373  15.465 -1.5005  1.3886 -1.8875
 3182SOL     OW21181   2.130   4.638   8.296 -0.0737 -0.2262 -0.2082
 3182SOL    HW121182   2.127   4.716   8.351  0.7216 -0.0516 -0.4134
 3182SOL    HW221183   2.043   4.638   8.257  0.4209  2.7061 -1.2854
 3183SOL     OW21184   3.559   3.953   4.183 -0.0792 -0.0972  0.8724
 3183SOL    HW121185   3.612   4.011   4.127  0.1514 -0.8287  0.3267
 3183SOL    HW221186   3.556   3.870   4.135  0.5936  2.6122 -3.8698
 3184SOL     OW21187   2.520   0.594  11.226 -0.0113  0.5298 -0.1796
 3184SOL    HW121188   2.582   0.539  11.274  0.4668 -0.0300 -1.4506
 3184SOL    HW221189   2.561   0.582  11.141  0.9425  2.8044 -0.0570
 3185SOL     OW21190   1.122   3.569  10.856 -0.5537 -0.2697 -0.0265
 3185SOL    HW121191   1.111   3.663  10.844  0.2483 -0.4968 -2.6286
 3185SOL    HW221192   1.038   3.526  10.840  0.4427 -2.3527  0.3198
 3186SOL     OW21193   2.104   1.464   7.029 -0.6257 -0.1123 -0.0638
 3186SOL    HW121194   2.129   1.553   7.052 -0.1307  0.0145 -1.0957
 3186SOL    HW221195   2.178   1.449   6.969 -0.6873  1.1427 -0.4499
 3187SOL     OW21196   0.704   4.681   3.811  0.4546 -0.0578  0.0894
 3187SOL    HW121197   0.629   4.626   3.832  0.7845  0.0279  1.4790
 3187SOL    HW221198   0.726   4.720   3.895  0.8400  1.4881 -0.7323
 3188SOL     OW21199   2.884   3.814   0.206  0.0535 -0.5692  0.4512
 3188SOL    HW121200   2.790   3.803   0.222 -0.2950  2.3710  0.4431
 3188SOL    HW221201   2.928   3.771   0.280 -1.6400 -1.4991  0.9150
 3189SOL     OW21202   3.584   1.139   2.314 -0.0216 -0.2009 -0.1199
 3189SOL    HW121203   3.492   1.155   2.294 -0.3221 -0.5968  0.9130
 3189SOL    HW221204   3.600   1.076   2.243 -2.1567 -2.8184  1.7038
 3190SOL     OW21205   2.680   1.749   5.326  0.0043 -0.6796 -0.1716
 3190SOL    HW121206   2.618   1.692   5.370  0.2600  0.8133  2.1253
 3190SOL    HW221207   2.623   1.801   5.268  1.5273  2.5013  1.1830
 3191SOL     OW21208   3.880   4.168   9.005  0.3177  0.6640  0.3617
 3191SOL    HW121209   3.879   4.079   9.042  0.0004 -0.5687 -2.6047
 3191SOL    HW221210   3.972   4.185   8.990  0.3767  1.6157  1.8686
 3192SOL     OW21211   4.030   2.488  13.573  0.4970 -0.4919  0.4337
 3192SOL    HW121212   3.936   2.490  13.553  0.2225 -3.6653  1.3095
 3192SOL    HW221213   4.055   2.421  13.510  1.3046 -1.2208  1.5187
 3193SOL     OW21214   0.691   4.606   7.042 -0.1237  0.4683 -0.5761
 3193SOL    HW121215   0.743   4.622   6.964  0.9812 -1.4527 -0.2330
 3193SOL    HW221216   0.606   4.582   7.005 -0.1410 -0.1073 -0.1642
 3194SOL     OW21217   3.649   2.617   5.712  0.7316 -0.2780  0.0976
 3194SOL    HW121218   3.700   2.536   5.709  1.1473 -0.1053  2.5961
 3194SOL    HW221219   3.599   2.617   5.630 -0.1309  3.2698  0.6380
 3195SOL     OW21220   3.506   4.394  17.231 -0.0385  0.3890 -0.3919
 3195SOL    HW121221   3.422   4.353  17.212 -0.7695  1.9159 -0.4922
 3195SOL    HW221222   3.505   4.433  17.318  3.3424 -1.1502  0.3217
 3196SOL     OW21223   2.081   4.122  12.656 -0.2803 -0.3964 -0.2979
 3196SOL    HW121224   2.051   4.032  12.641  0.6768 -0.9777  1.2397
 3196SOL    HW221225   2.066   4.132  12.750  2.3150  0.0898  0.0633
 3197SOL     OW21226   4.705   0.225   6.716 -0.5627  0.0363 -0.1382
 3197SOL    HW121227   0.037   0.176   6.760  0.1182 -0.6502 -1.9820
 3197SOL    HW221228   4.649   0.250   6.790  2.3199 -1.7888  2.6583
 3198SOL     OW21229   1.988   0.907   7.385  0.3100 -0.1805 -0.1542
 3198SOL    HW121230   2.048   0.927   7.456  0.9071 -1.2007 -0.3817
 3198SOL    HW221231   1.993   0.812   7.379 -1.4376 -0.1629 -2.1054
 3199SOL     OW21232   2.631   4.262  17.610  0.1176  0.0483 -0.0658
 3199SOL    HW121233   2.701   4.313  17.650 -0.7364 -0.0157  1.5162
 3199SOL    HW221234   2.561   4.300  17.662  0.7774 -1.4568  1.9417
 3200SOL     OW21235   0.729   1.339   3.262  0.5237 -0.1073  0.3720
 3200SOL    HW121236   0.690   1.416   3.303  1.5558  0.8275 -0.4214
 3200SOL    HW221237   0.811   1.352   3.309 -0.3049  2.1375  1.2214
 3201SOL     OW21238   0.218   0.122   5.133 -0.2979  0.0249 -0.0132
 3201SOL    HW121239   0.303   0.100   5.171 -0.7009  0.2184  0.9990
 3201SOL    HW221240   0.171   0.039   5.142 -1.8150  0.8479 -0.3728
 3202SOL     OW21241   3.159   2.238   3.685  0.3063 -0.1175  0.1336
 3202SOL    HW121242   3.204   2.218   3.603 -0.4687 -1.8153  0.1168
 3202SOL    HW221243   3.068   2.222   3.659  0.7901 -1.6531 -0.5862
 3203SOL     OW21244   3.691   4.710   6.253  0.4386 -0.3810  0.1075
 3203SOL    HW121245   3.627   4.639   6.243 -0.8399  0.6418  1.0629
 3203SOL    HW221246   3.762   4.670   6.202  2.8218  3.0485  0.7534
 3204SOL     OW21247   0.574   1.406   9.928  0.2040  0.5726  0.7070
 3204SOL    HW121248   0.537   1.368  10.008 -2.0931 -0.3839 -0.8508
 3204SOL    HW221249   0.559   1.500   9.939 -0.0706  0.6612 -0.5324
 3205SOL     OW21250   2.696   3.979   8.492 -0.1414  0.7960 -0.6085
 3205SOL    HW121251   2.655   4.044   8.549  0.3444 -0.9306  1.7315
 3205SOL    HW221252   2.772   3.954   8.546  1.0516 -0.3451 -2.8276
 3206SOL     OW21253   3.542   2.907  14.100  0.4717 -0.4239  0.6779
 3206SOL    HW121254   3.505   2.988  14.065  0.3079 -0.6361  0.3714
 3206SOL    HW221255   3.462   2.856  14.111  0.3783 -0.9583 -2.4481
 3207SOL     OW21256   4.561   1.482   5.443 -0.5127 -0.3159 -0.0163
 3207SOL    HW121257   4.572   1.418   5.513 -1.6026  1.9300  2.2394
 3207SOL    HW221258   4.467   1.470   5.428 -0.4481 -1.1707  0.2956
 3208SOL     OW21259   3.199   1.898   3.573  0.1358 -0.0082  0.3896
 3208SOL    HW121260   3.267   1.964   3.557  0.2496 -0.3749 -0.6030
 3208SOL    HW221261   3.240   1.829   3.625 -1.5659 -0.6673  0.8459
 3209SOL     OW21262   3.359   3.736   2.521  0.5554  0.3846 -0.3116
 3209SOL    HW121263   3.433   3.782   2.561  1.3179 -0.4556 -0.7657
 3209SOL    HW221264   3.342   3.784   2.440 -1.5631 -0.3061 -0.2980
 3210SOL     OW21265   3.229   2.618   6.535 -0.3482 -0.2388  0.1090
 3210SOL    HW121266   3.262   2.575   6.614 -0.4699 -3.1406 -1.4242
 3210SOL    HW221267   3.145   2.575   6.522  0.1124 -1.5596  1.4178
 3211SOL     OW21268   2.009   3.914  12.829 -0.1644  0.0051 -0.0990
 3211SOL    HW121269   1.927   3.918  12.779 -1.8883 -0.6821  2.6436
 3211SOL    HW221270   1.970   3.886  12.911 -1.2917  2.1734  0.1112
 3212SOL     OW21271   1.903   3.502   6.652  0.4638  0.2492 -0.2821
 3212SOL    HW121272   1.898   3.567   6.722  0.5572 -2.7235  2.4670
 3212SOL    HW221273   1.875   3.556   6.578 -2.4485 -0.8716 -0.0041
 3213SOL     OW21274   0.497   3.069  13.386  0.2722  0.6576  0.1489
 3213SOL    HW121275   0.491   3.066  13.290  0.8236  1.3519  0.0937
 3213SOL    HW221276   0.584   3.107  13.391  0.4411  0.3917 -0.7462
 3214SOL     OW21277   1.149   2.157   3.468  0.1649 -0.4683  0.3772
 3214SOL    HW121278   1.179   2.241   3.433  0.7589 -0.9084 -0.1770
 3214SOL    HW221279   1.107   2.127   3.388  0.2596  0.1287  0.1111
 3215SOL     OW21280   4.011   0.517   6.740 -0.8343 -0.3102 -0.3216
 3215SOL    HW121281   3.982   0.456   6.807  0.0013 -2.5560 -1.9789
 3215SOL    HW221282   4.106   0.508   6.736 -0.7258  0.1585  1.6371
 3216SOL     OW21283   1.699   0.345  15.140 -0.8159  0.6370 -0.2534
 3216SOL    HW121284   1.654   0.336  15.224 -1.0231 -0.5250 -0.4876
 3216SOL    HW221285   1.684   0.260  15.097  1.1232 -0.4396  1.2005
 3217SOL     OW21286   2.502   3.740   8.486 -0.0201 -0.0762  0.1506
 3217SOL    HW121287   2.435   3.786   8.536 -0.4410 -0.0481 -0.4441
 3217SOL    HW221288   2.587   3.779   8.507  0.9565 -1.4289 -1.3068
 3218SOL     OW21289   4.564   3.749   2.382  0.1950 -0.0108  0.2596
 3218SOL    HW121290   4.642   3.743   2.327  1.1584 -0.5975  1.6819
 3218SOL    HW221291   4.558   3.668   2.433  0.6720  0.2170  0.6864
 3219SOL     OW21292   2.807   2.951  16.017 -0.3876 -0.7552  0.1623
 3219SOL    HW121293   2.862   2.889  15.968 -1.2530 -0.3826 -1.2766
 3219SOL    HW221294   2.861   2.961  16.095  2.2936 -0.5426 -1.6995
 3220SOL     OW21295   2.498   2.337  15.794 -0.1493  0.4057 -0.4581
 3220SOL    HW121296   2.438   2.289  15.851  0.7814 -1.9424 -1.4385
 3220SOL    HW221297   2.541   2.397  15.855  0.2752 -1.8653  1.5115
 3221SOL     OW21298   0.658   0.664   0.557  0.3262  0.6548 -0.6939
 3221SOL    HW121299   0.710   0.696   0.631  1.4307 -2.2209 -0.2067
 3221SOL    HW221300   0.692   0.574   0.561 -1.1917  0.1783  1.0884
 3222SOL     OW21301   1.938   2.098   3.882 -0.0756  0.9507 -0.7725
 3222SOL    HW121302   1.969   2.017   3.842 -2.3053 -0.1144 -0.3641
 3222SOL    HW221303   1.851   2.104   3.843 -0.6602  0.8984  0.5230
 3223SOL     OW21304   0.929   3.633   1.708 -0.1802  0.4154 -0.3202
 3223SOL    HW121305   0.893   3.688   1.777  2.1147  0.6121  0.7117
 3223SOL    HW221306   0.950   3.547   1.747 -1.1053  0.5505  0.4642
 3224SOL     OW21307   2.384   2.783  14.091  0.0125  0.0511  0.0857
 3224SOL    HW121308   2.360   2.691  14.082 -0.6347  0.2727 -0.5017
 3224SOL    HW221309   2.479   2.776  14.083  0.0974  0.4901  0.6820
 3225SOL     OW21310   0.835   4.538   6.792 -0.0686 -0.5215  0.0044
 3225SOL    HW121311   0.922   4.559   6.824 -1.7103  0.4782  3.7255
 3225SOL    HW221312   0.829   4.447   6.820  1.4469 -1.2695 -2.1276
 3226SOL     OW21313   0.301   0.408   7.256 -0.4138  0.2676  0.6107
 3226SOL    HW121314   0.324   0.467   7.328  1.6270 -1.0390  1.0309
 3226SOL    HW221315   0.377   0.432   7.203 -0.7104  1.5001  0.7339
 3227SOL     OW21316   3.568   3.940   9.920 -0.0797 -0.3534  0.5381
 3227SOL    HW121317   3.552   3.849   9.944 -1.0871 -0.9344 -2.2941
 3227SOL    HW221318   3.649   3.936   9.869  0.8756 -1.3078  2.1462
 3228SOL     OW21319   3.546   1.528   3.991 -0.0838  0.1849  0.2195
 3228SOL    HW121320   3.530   1.516   4.085 -2.3851 -1.3129 -0.3543
 3228SOL    HW221321   3.570   1.438   3.967  1.4291  0.4039  0.9498
 3229SOL     OW21322   3.704   2.898   4.446  0.6744  0.1280  0.2004
 3229SOL    HW121323   3.731   2.806   4.440  1.1602  0.3059 -0.3594
 3229SOL    HW221324   3.674   2.900   4.537  3.0585 -1.3269  1.0310
 3230SOL     OW21325   4.715   0.104   6.457 -0.0502  0.1952 -0.0842
 3230SOL    HW121326   4.710   0.170   6.526  1.2773 -0.7115  0.8804
 3230SOL    HW221327   4.661   0.039   6.501  0.8703 -0.1138  0.5749
 3231SOL     OW21328   2.614   0.313   6.103 -0.1125  0.0499  0.4482
 3231SOL    HW121329   2.553   0.339   6.034  0.4650 -0.7272 -0.3547
 3231SOL    HW221330   2.582   0.224   6.116  0.5129  0.0545  2.0376
 3232SOL     OW21331   1.898   2.421   3.874  0.1650  0.0646 -0.2182
 3232SOL    HW121332   1.815   2.417   3.826 -1.2435 -0.6764  2.3000
 3232SOL    HW221333   1.945   2.343   3.845  1.3494  0.5943  0.2699
 3233SOL     OW21334   2.021   0.721   2.894 -1.0377  0.3948 -0.4336
 3233SOL    HW121335   2.046   0.809   2.865  1.5549  0.3078  1.5480
 3233SOL    HW221336   1.952   0.756   2.950 -1.1224 -1.8612  0.8704
 3234SOL     OW21337   4.205   2.606  11.623 -0.2263  0.8967 -0.0924
 3234SOL    HW121338   4.201   2.701  11.634 -1.4768  0.8823 -0.4722
 3234SOL    HW221339   4.282   2.596  11.679  0.3884  1.2700 -0.8679
 3235SOL     OW21340   1.139   2.409   7.295  0.4989  0.0163  0.0349
 3235SOL    HW121341   1.120   2.410   7.201  0.7815  0.1357 -0.0198
 3235SOL    HW221342   1.149   2.314   7.307 -0.4638  0.1658  2.0006
 3236SOL     OW21343   1.721   2.022   2.305 -0.3700 -0.1068 -0.0665
 3236SOL    HW121344   1.744   2.071   2.384 -1.4786  0.0392  0.1627
 3236SOL    HW221345   1.812   2.017   2.274 -0.4879  0.3122 -0.4744
 3237SOL     OW21346   3.814   1.696   1.462  0.1564 -0.0796 -0.1891
 3237SOL    HW121347   3.744   1.742   1.509  0.0893 -0.9356  0.5427
 3237SOL    HW221348   3.777   1.653   1.384 -0.1654 -1.7616  0.8877
 3238SOL     OW21349   0.213   3.080   2.322 -0.0773  0.5627 -0.2946
 3238SOL    HW121350   0.229   3.127   2.403  2.0370  0.0186 -0.4058
 3238SOL    HW221351   0.177   2.999   2.358  2.1173 -0.8468 -1.2407
 3239SOL     OW21352   2.426   0.167   1.533 -0.7870 -0.1329 -0.1274
 3239SOL    HW121353   2.380   0.084   1.523  1.1876 -1.1730 -0.7306
 3239SOL    HW221354   2.508   0.130   1.567  1.8312  3.2074 -2.7861
 3240SOL     OW21355   4.003   4.200  10.174  0.0412  0.1559  0.2106
 3240SOL    HW121356   3.980   4.165  10.088  1.6958  1.5183 -0.7865
 3240SOL    HW221357   4.075   4.260  10.154  0.5509  0.0381  1.6992
 3241SOL     OW21358   2.798   0.607   2.363  0.5670 -0.6648  0.0523
 3241SOL    HW121359   2.775   0.582   2.452  1.5479  0.8401  0.7271
 3241SOL    HW221360   2.846   0.532   2.327 -0.2815 -0.5352 -1.3738
 3242SOL     OW21361   0.584   2.138   5.726  0.3330  0.2068  0.4975
 3242SOL    HW121362   0.547   2.226   5.720  0.5243  0.0477 -2.7493
 3242SOL    HW221363   0.586   2.113   5.634 -1.4832  2.3107 -0.1194
 3243SOL     OW21364   3.652   0.659   6.947 -0.3228 -0.2092 -0.5963
 3243SOL    HW121365   3.674   0.693   7.033 -0.7723  1.0813 -0.9945
 3243SOL    HW221366   3.737   0.640   6.906 -0.4730  2.6395 -2.2551
 3244SOL     OW21367   0.350   2.463  10.378 -0.1718  0.5538  0.4372
 3244SOL    HW121368   0.414   2.411  10.427  1.5211  2.2929  0.0436
 3244SOL    HW221369   0.393   2.467  10.292 -0.9260  2.9444  0.1926
 3245SOL     OW21370   4.725   3.921   6.843 -0.0566 -0.7526 -0.1437
 3245SOL    HW121371   4.676   3.841   6.821 -0.1502 -0.0392 -2.5105
 3245SOL    HW221372   0.053   3.903   6.910 -0.3330 -1.3662 -0.0271
 3246SOL     OW21373   1.259   2.749   7.266  1.0325 -0.2636  0.4159
 3246SOL    HW121374   1.182   2.750   7.322  0.7319 -1.6895  0.0411
 3246SOL    HW221375   1.236   2.794   7.185  2.1157  1.5760  1.1430
 3247SOL     OW21376   3.538   4.565   4.295 -0.0287 -0.2614 -0.3617
 3247SOL    HW121377   3.547   4.541   4.203  2.5543  1.7451 -0.6362
 3247SOL    HW221378   3.561   4.480   4.332  1.3840  0.2261 -0.1331
 3248SOL     OW21379   1.270   4.517  13.599 -0.5524 -0.0100 -0.2746
 3248SOL    HW121380   1.336   4.481  13.539 -1.7957  2.2408 -3.0275
 3248SOL    HW221381   1.212   4.545  13.528  1.3276 -0.1019 -1.8681
 3249SOL     OW21382   3.446   1.553   7.034 -0.6323  0.1766 -0.0439
 3249SOL    HW121383   3.356   1.585   7.033 -0.8453 -0.4297 -0.5449
 3249SOL    HW221384   3.485   1.628   7.079 -0.5941 -0.6483  1.2930
 3250SOL     OW21385   4.040   3.432   9.104 -0.3025  0.9440 -0.2237
 3250SOL    HW121386   3.991   3.447   9.185 -1.1025  0.2944 -0.5821
 3250SOL    HW221387   3.985   3.370   9.056  2.1520 -0.9657 -0.5708
 3251SOL     OW21388   3.663   1.544   2.395 -0.0862  0.0062  0.4064
 3251SOL    HW121389   3.739   1.593   2.362 -0.0202  0.0673  0.6472
 3251SOL    HW221390   3.584   1.584   2.358 -0.4232 -2.5740 -1.6231
 3252SOL     OW21391   2.262   1.823   0.994 -0.0486 -0.4635 -0.4068
 3252SOL    HW121392   2.257   1.869   0.911  1.9093 -0.9623 -0.7930
 3252SOL    HW221393   2.332   1.758   0.985 -0.2856 -0.8172  0.2582
 3253SOL     OW21394   1.478   3.245   2.089 -0.2818 -0.0298 -0.4431
 3253SOL    HW121395   1.515   3.314   2.145 -3.5294  1.2843  0.0435
 3253SOL    HW221396   1.391   3.225   2.122 -0.2042  0.5463  0.1089
 3254SOL     OW21397   1.542   1.663   4.274  0.3149 -0.1499  0.1941
 3254SOL    HW121398   1.514   1.752   4.253 -0.9077 -0.9423 -1.5619
 3254SOL    HW221399   1.546   1.662   4.369  0.3586  0.8027  0.1999
 3255SOL     OW21400   2.063   3.538   7.950 -0.3470  0.2390  0.1273
 3255SOL    HW121401   1.991   3.543   7.887 -2.1396 -2.2456  1.9735
 3255SOL    HW221402   2.136   3.524   7.889 -0.7814 -2.4472  0.2000
 3256SOL     OW21403   1.679   2.301   3.707 -0.0674 -0.2220  0.2707
 3256SOL    HW121404   1.585   2.288   3.697 -0.2861  2.6247 -1.3101
 3256SOL    HW221405   1.709   2.287   3.617  0.8018  0.8679  0.3801
 3257SOL     OW21406   1.333   0.898  12.612 -0.0552  0.5237  0.0415
 3257SOL    HW121407   1.356   0.828  12.674 -2.2936  1.0518  1.4682
 3257SOL    HW221408   1.277   0.958  12.660  0.5023  0.7726  0.3821
 3258SOL     OW21409   1.664   2.996  17.596 -0.8844  0.2893 -0.1644
 3258SOL    HW121410   1.759   2.990  17.585 -1.2411  0.7279 -3.4487
 3258SOL    HW221411   1.636   2.969  17.509  1.1766 -0.6482 -0.5249
 3259SOL     OW21412   1.575   3.394   4.881 -0.0351  0.8708  0.5929
 3259SOL    HW121413   1.547   3.460   4.819 -1.2135 -0.4338 -0.2602
 3259SOL    HW221414   1.506   3.410   4.946  1.1183 -1.7709  2.4684
 3260SOL     OW21415   2.750   2.086   4.367  0.4986 -0.0696  1.3443
 3260SOL    HW121416   2.770   2.170   4.407  0.8447  1.0433 -1.1606
 3260SOL    HW221417   2.749   2.029   4.444 -0.5585 -1.4140  0.3544
 3261SOL     OW21418   3.766   4.609   3.907  0.4231  0.3360 -0.1216
 3261SOL    HW121419   3.690   4.644   3.954 -0.0607 -0.3094 -0.4281
 3261SOL    HW221420   3.833   4.653   3.960 -0.0334  1.6081 -0.5897
 3262SOL     OW21421   0.559   2.843   2.513  0.5490 -0.1569 -0.8525
 3262SOL    HW121422   0.583   2.751   2.504  1.2115  0.0971 -1.7353
 3262SOL    HW221423   0.554   2.847   2.608 -1.3031  3.1564 -1.1009
 3263SOL     OW21424   0.422   4.077   6.939 -0.2931  0.3012 -0.0060
 3263SOL    HW121425   0.395   4.167   6.922  1.6722  0.5787 -1.7049
 3263SOL    HW221426   0.394   4.049   7.026  2.2336 -0.0122  0.6997
 3264SOL     OW21427   4.628   2.925  15.611 -0.2375  0.4125 -0.1599
 3264SOL    HW121428   4.714   2.959  15.635 -0.8354  0.6180  1.7041
 3264SOL    HW221429   4.614   2.983  15.536  2.9858  0.0037 -1.0694
 3265SOL     OW21430   0.879   3.750   0.449  0.3786 -0.3403  0.7395
 3265SOL    HW121431   0.888   3.843   0.426 -0.5228 -0.8465 -1.7223
 3265SOL    HW221432   0.854   3.760   0.540 -1.2772 -0.2730  0.2804
 3266SOL     OW21433   3.146   4.210   8.118 -0.0915 -0.2487  0.5251
 3266SOL    HW121434   3.167   4.117   8.121  0.0497 -0.2217  0.3637
 3266SOL    HW221435   3.058   4.210   8.080  0.2138  0.0197 -0.1800
 3267SOL     OW21436   4.373   0.717   8.156 -0.3403  0.1496  0.4996
 3267SOL    HW121437   4.330   0.700   8.072  0.7295  1.2740 -0.2683
 3267SOL    HW221438   4.452   0.769   8.140  0.2280 -0.9373 -0.1917
 3268SOL     OW21439   0.068   4.638   9.903 -0.0994 -0.2996  0.0116
 3268SOL    HW121440   0.010   4.704   9.865 -0.2635 -0.0730  0.6597
 3268SOL    HW221441   0.082   4.671   9.992 -1.0506  0.9491 -0.3055
 3269SOL     OW21442   0.259   1.364   9.028  0.0283  0.4586  0.1334
 3269SOL    HW121443   0.250   1.282   8.979 -0.8195  0.9866 -0.5745
 3269SOL    HW221444   0.167   1.384   9.042 -0.5732 -2.5678  0.6474
 3270SOL     OW21445   0.406   4.126  15.747 -0.3342  0.1283  0.2703
 3270SOL    HW121446   0.360   4.201  15.709  0.1160  0.0208 -0.4927
 3270SOL    HW221447   0.421   4.163  15.833  0.0590  0.8867 -0.1279
 3271SOL     OW21448   0.848   2.154   4.126  0.1985 -0.2971  0.3920
 3271SOL    HW121449   0.841   2.245   4.095 -1.4270 -0.1995  1.0449
 3271SOL    HW221450   0.943   2.146   4.138  0.2610 -0.2112 -0.0309
 3272SOL     OW21451   4.412   1.064   8.023 -0.4634 -0.3343 -0.1091
 3272SOL    HW121452   4.354   1.130   7.986 -0.9470  0.0956  1.4319
 3272SOL    HW221453   4.392   0.988   7.968  1.6950 -1.4225  0.5914
 3273SOL     OW21454   2.539   0.133   5.837 -0.3636 -0.2759 -0.2642
 3273SOL    HW121455   2.519   0.185   5.758 -2.6548  0.4449  0.7968
 3273SOL    HW221456   2.520   0.043   5.809  1.3958 -0.8986  0.5569
 3274SOL     OW21457   3.264   4.432   1.345 -0.1986 -0.1235  0.5606
 3274SOL    HW121458   3.317   4.353   1.344 -1.8404 -1.2247  0.6647
 3274SOL    HW221459   3.317   4.478   1.410 -1.4990  1.0185  0.8220
 3275SOL     OW21460   0.588   3.650   9.032  0.1813  0.1855 -0.1872
 3275SOL    HW121461   0.633   3.734   9.042  1.5800 -0.8628  2.3709
 3275SOL    HW221462   0.537   3.667   8.953  1.2370  1.8451 -0.5179
 3276SOL     OW21463   0.028   1.662   8.945  0.0246  0.2316  0.8678
 3276SOL    HW121464   0.111   1.692   8.907 -0.5866 -0.5620 -1.1328
 3276SOL    HW221465   0.006   1.743   8.991  1.1340  1.1664 -0.2304
 3277SOL     OW21466   0.842   0.455   7.217  0.0201  0.3601 -0.1065
 3277SOL    HW121467   0.935   0.442   7.232 -0.2437  0.0066  1.1944
 3277SOL    HW221468   0.821   0.518   7.286  2.1854 -0.3072  1.1372
 3278SOL     OW21469   0.517   0.499   2.479  0.4254 -0.2807  0.1416
 3278SOL    HW121470   0.603   0.541   2.469  0.7663 -1.1928 -0.7156
 3278SOL    HW221471   0.458   0.574   2.468  1.5825  0.5129 -0.8172
 3279SOL     OW21472   2.677   3.368   4.038 -0.4490 -0.1991 -0.3032
 3279SOL    HW121473   2.734   3.292   4.028 -0.6832 -0.2327 -1.4030
 3279SOL    HW221474   2.740   3.412   4.095  1.7303 -0.5796 -2.3877
 3280SOL     OW21475   0.358   0.450   4.609 -0.4553 -0.0810 -0.4501
 3280SOL    HW121476   0.335   0.362   4.640  0.7053 -0.2493 -0.0655
 3280SOL    HW221477   0.334   0.511   4.679 -0.7301 -1.2473  0.4717
 3281SOL     OW21478   3.507   1.086   0.019  0.3165  0.0271  0.6029
 3281SOL    HW121479   3.484   1.022   0.087 -2.4351  1.3743  0.9418
 3281SOL    HW221480   3.474   1.033  17.695 -0.3948 -0.7966  1.5089
 3282SOL     OW21481   1.032   3.682  11.908 -0.5151  0.0190 -0.1259
 3282SOL    HW121482   0.955   3.667  11.962  0.0811 -0.1662  0.6589
 3282SOL    HW221483   1.067   3.766  11.939  1.8921 -1.8453  2.0939
 3283SOL     OW21484   1.282   3.634  10.088 -0.6555  0.0405 -0.0678
 3283SOL    HW121485   1.215   3.676  10.033 -1.0055 -0.3150  0.0875
 3283SOL    HW221486   1.307   3.716  10.131  2.6437 -0.6981 -0.5712
 3284SOL     OW21487   1.640   1.172   4.157  0.1497 -0.1234 -0.3360
 3284SOL    HW121488   1.719   1.209   4.118 -0.4755  0.6548 -0.8566
 3284SOL    HW221489   1.600   1.251   4.194  2.1762 -0.6731  3.0140
 3285SOL     OW21490   2.006   3.974  17.019  0.1597 -0.2286 -0.4378
 3285SOL    HW121491   2.036   3.928  16.941  1.5098  0.2903 -0.2215
 3285SOL    HW221492   1.914   3.949  17.014 -0.0504  0.4819 -0.2521
 3286SOL     OW21493   0.398   0.560   7.484 -0.0393 -0.0121 -0.6544
 3286SOL    HW121494   0.485   0.522   7.498 -0.4611 -0.2016  1.4811
 3286SOL    HW221495   0.417   0.653   7.476 -0.8201  0.2557  0.7178
 3287SOL     OW21496   3.945   4.097   4.790 -0.0295 -0.1500 -0.2246
 3287SOL    HW121497   3.878   4.124   4.853 -1.8100 -1.3838 -1.5796
 3287SOL    HW221498   3.950   4.004   4.812  1.7063 -0.1592 -0.6312
 3288SOL     OW21499   0.545   1.346   2.496 -0.1820 -0.3363 -0.2271
 3288SOL    HW121500   0.465   1.296   2.482  0.8642 -2.1250  0.1114
 3288SOL    HW221501   0.551   1.347   2.592 -2.1654  0.2795 -0.1239
 3289SOL     OW21502   4.592   1.026  17.140  0.4399  0.4125  0.2395
 3289SOL    HW121503   4.675   0.984  17.162 -0.0373 -1.0821 -0.7389
 3289SOL    HW221504   4.574   1.047  17.231  0.9678 -0.7132  0.5983
 3290SOL     OW21505   0.054   4.294   8.600  0.2973  0.0360 -0.2532
 3290SOL    HW121506   0.017   4.206   8.604  1.4383 -0.3962  0.7101
 3290SOL    HW221507   0.085   4.297   8.509 -1.7212  0.4136 -0.9297
 3291SOL     OW21508   3.412   2.305   3.812 -0.6451  0.1999  0.6050
 3291SOL    HW121509   3.325   2.323   3.777 -0.4541 -0.6026 -0.2932
 3291SOL    HW221510   3.442   2.394   3.830  0.3338 -0.4687  2.3278
 3292SOL     OW21511   0.493   2.513   3.002 -0.3627  0.1235  0.0998
 3292SOL    HW121512   0.415   2.464   2.973 -0.0886 -0.5896  0.5602
 3292SOL    HW221513   0.549   2.439   3.024  2.2957  2.4346  1.0253
 3293SOL     OW21514   4.106   2.773   4.868  0.3705  0.0053 -0.1983
 3293SOL    HW121515   4.152   2.779   4.951 -1.0195 -1.9804  0.7105
 3293SOL    HW221516   4.179   2.770   4.807  0.5759  2.2597 -0.0654
 3294SOL     OW21517   3.793   1.278   2.393  0.3459  0.2007  0.1903
 3294SOL    HW121518   3.746   1.359   2.411 -0.6494 -0.2141 -0.5052
 3294SOL    HW221519   3.727   1.225   2.348  0.8554 -0.3147  0.0402
 3295SOL     OW21520   1.470   2.172   3.573 -0.3055  0.7355  0.0628
 3295SOL    HW121521   1.539   2.107   3.560 -0.5023  0.5382  0.0099
 3295SOL    HW221522   1.405   2.114   3.611  3.1515 -2.2720  1.3947
 3296SOL     OW21523   1.124   3.983   2.123  0.0060 -0.3253  0.4403
 3296SOL    HW121524   1.053   3.970   2.186  0.0105 -2.2903  0.0666
 3296SOL    HW221525   1.199   4.010   2.178  0.4827 -0.3785 -0.1836
 3297SOL     OW21526   1.047   2.625   0.736 -0.1234 -0.4030  0.1502
 3297SOL    HW121527   1.088   2.701   0.777  0.7142 -0.0307 -1.3906
 3297SOL    HW221528   1.118   2.605   0.674  0.4070  0.3565  0.5151
 3298SOL     OW21529   4.422   3.325  16.664  0.1249  0.2772  0.0609
 3298SOL    HW121530   4.346   3.288  16.619 -0.5463  0.2202  1.2253
 3298SOL    HW221531   4.483   3.282  16.604 -0.2096  0.0060 -0.0940
 3299SOL     OW21532   4.713   1.424   8.389 -0.0640 -0.0931  0.0607
 3299SOL    HW121533   4.692   1.392   8.302  0.6423 -1.2625  0.3044
 3299SOL    HW221534   4.634   1.466   8.420 -1.1612 -0.9764 -1.5583
 3300SOL     OW21535   0.557   4.720   7.271 -0.1411 -0.1741 -0.6256
 3300SOL    HW121536   0.643   0.006   7.306  0.2795 -2.4924 -0.0525
 3300SOL    HW221537   0.598   4.675   7.197  0.5288 -2.3147  1.0340
 3301SOL     OW21538   0.608   1.336   4.140 -0.6711 -0.5830  0.0253
 3301SOL    HW121539   0.604   1.315   4.233  0.4344 -0.6353  0.0616
 3301SOL    HW221540   0.571   1.424   4.139 -0.7930 -0.6362 -0.3177
 3302SOL     OW21541   4.228   4.438   6.788 -0.4118  0.0322 -0.6478
 3302SOL    HW121542   4.259   4.414   6.875 -1.8890 -0.4179 -0.2450
 3302SOL    HW221543   4.283   4.514   6.768 -0.1651 -0.5524 -2.1928
 3303SOL     OW21544   3.938   1.952   4.967 -0.1966 -0.3355  0.1779
 3303SOL    HW121545   3.975   1.975   4.882 -1.2348 -1.6582 -0.6271
 3303SOL    HW221546   4.016   1.922   5.014  0.1244  2.6059  1.5466
 3304SOL     OW21547   0.988   3.166   4.017  0.6022  0.0392  0.4945
 3304SOL    HW121548   0.943   3.128   4.093 -0.0633 -1.5505 -0.7121
 3304SOL    HW221549   1.037   3.086   3.999  0.2378  0.0941 -0.7377
 3305SOL     OW21550   1.946   3.016  17.545  0.0979 -0.3680  0.1628
 3305SOL    HW121551   1.989   2.973  17.470 -2.3197 -1.9138 -0.3291
 3305SOL    HW221552   1.969   3.106  17.523 -1.1401 -0.1304 -0.1660
 3306SOL     OW21553   3.557   0.783   2.293 -0.2123 -0.2433  0.1125
 3306SOL    HW121554   3.489   0.828   2.344  0.7581  0.2198  1.0107
 3306SOL    HW221555   3.570   0.697   2.333 -1.7722 -1.3125 -1.7378
 3307SOL     OW21556   2.079   3.074   9.321 -0.1941 -0.1476 -0.4158
 3307SOL    HW121557   2.091   3.156   9.369  2.5491 -1.4195  1.0977
 3307SOL    HW221558   1.995   3.051   9.360  0.0868 -0.2894  0.1068
 3308SOL     OW21559   2.246   2.162   7.411  0.2407  0.3684 -0.3749
 3308SOL    HW121560   2.293   2.216   7.475  0.0654 -0.2500  0.2794
 3308SOL    HW221561   2.179   2.127   7.469 -0.1562  2.2585  0.3053
 3309SOL     OW21562   2.216   3.555   0.900 -0.0746 -0.2578  0.2662
 3309SOL    HW121563   2.173   3.563   0.815 -0.8697  2.8601  0.9677
 3309SOL    HW221564   2.257   3.469   0.889  1.2718  0.7858 -2.6675
 3310SOL     OW21565   3.394   2.384   3.187  0.0298 -0.0953 -0.0337
 3310SOL    HW121566   3.401   2.360   3.094 -1.2107  2.2174 -0.7345
 3310SOL    HW221567   3.401   2.480   3.184  1.9688 -0.2556 -1.3440
 3311SOL     OW21568   2.247   3.904   9.288  0.1692 -0.1336 -0.2177
 3311SOL    HW121569   2.248   3.968   9.217  0.1218 -0.0513 -0.1437
 3311SOL    HW221570   2.299   3.835   9.247 -0.3213 -0.5219 -0.1997
 3312SOL     OW21571   0.131   3.643   6.139 -0.7123 -0.3251 -0.6060
 3312SOL    HW121572   0.172   3.673   6.220 -0.0916 -0.5037 -0.8484
 3312SOL    HW221573   0.188   3.681   6.072 -2.2179  0.8622 -1.2094
 3313SOL     OW21574   0.958   3.966   4.022  0.3742  0.3400 -0.5160
 3313SOL    HW121575   0.978   3.911   4.098  1.4004  0.1096 -0.9572
 3313SOL    HW221576   0.881   4.014   4.053 -2.2432 -1.6676 -3.9143
 3314SOL     OW21577   1.143   3.444  17.739  0.1510  0.7449 -0.1253
 3314SOL    HW121578   1.180   3.356  17.748 -1.8758  0.0228  1.1309
 3314SOL    HW221579   1.215   3.502   0.015  1.3222 -0.1025 -1.5518
 3315SOL     OW21580   2.135   2.848   3.342 -0.2493 -0.0573  0.3429
 3315SOL    HW121581   2.173   2.771   3.384 -1.1045 -1.7935 -2.0449
 3315SOL    HW221582   2.195   2.915   3.375  2.4612 -1.4965 -1.5824
 3316SOL     OW21583   1.578   1.161   1.840 -0.1521 -0.0577 -0.3173
 3316SOL    HW121584   1.565   1.158   1.935  0.4768  4.7886 -0.0915
 3316SOL    HW221585   1.504   1.216   1.814  1.2585  0.8804 -2.2650
 3317SOL     OW21586   3.392   1.287   6.498 -0.1360 -0.2142 -0.1088
 3317SOL    HW121587   3.402   1.213   6.559  2.2656  1.1537  1.1411
 3317SOL    HW221588   3.443   1.268   6.419  1.4637  0.3798  0.7918
 3318SOL     OW21589   3.595   1.192   4.954  0.4122 -0.0719  0.0522
 3318SOL    HW121590   3.670   1.201   5.012  1.2822 -3.4850 -0.5248
 3318SOL    HW221591   3.559   1.281   4.951 -0.6804 -0.4601  2.0130
 3319SOL     OW21592   0.493   0.932  16.184 -0.0534 -0.2528 -0.0697
 3319SOL    HW121593   0.517   1.015  16.224  0.2874 -1.0990  1.4956
 3319SOL    HW221594   0.452   0.966  16.105  1.3064 -0.7396 -0.9797
 3320SOL     OW21595   2.291   2.798   4.230  0.2835 -0.0126  0.1037
 3320SOL    HW121596   2.302   2.775   4.138  2.7780  0.8379  0.1858
 3320SOL    HW221597   2.309   2.718   4.280  0.8743 -0.1452 -0.3153
 3321SOL     OW21598   0.840   1.655   6.572  0.3119 -0.2252 -0.2058
 3321SOL    HW121599   0.771   1.608   6.525 -0.2490  0.9043 -0.5001
 3321SOL    HW221600   0.881   1.580   6.614  0.1037  0.2820  0.8951
 3322SOL     OW21601   2.462   1.522   5.712 -0.2798  0.4988  0.6470
 3322SOL    HW121602   2.540   1.507   5.657 -0.7724  1.6606 -0.3814
 3322SOL    HW221603   2.495   1.584   5.776 -0.1004 -0.8570  1.8668
 3323SOL     OW21604   1.024   4.461   8.494  0.0559 -0.0915 -0.0576
 3323SOL    HW121605   1.044   4.551   8.469 -0.3513  0.2091  0.6856
 3323SOL    HW221606   0.995   4.437   8.406 -1.3313 -0.7972  0.5941
 3324SOL     OW21607   3.417   4.115   7.370 -0.1427 -0.0344  0.0897
 3324SOL    HW121608   3.491   4.059   7.345 -1.1182 -1.2882 -0.0368
 3324SOL    HW221609   3.430   4.197   7.324  1.1827 -0.3591 -0.1123
 3325SOL     OW21610   1.788   3.857   2.390  0.3523  0.0719 -0.4390
 3325SOL    HW121611   1.789   3.842   2.296  2.7175  1.8591 -0.7255
 3325SOL    HW221612   1.818   3.948   2.398 -0.1130 -0.0906  3.1838
 3326SOL     OW21613   0.755   4.626   2.367 -0.2518 -0.5114 -0.5318
 3326SOL    HW121614   0.699   4.611   2.443  1.6349 -1.1701  0.7219
 3326SOL    HW221615   0.838   4.644   2.412 -0.7069 -0.4546  0.2721
 3327SOL     OW21616   1.470   1.136   6.287 -0.2237  0.4100 -0.3260
 3327SOL    HW121617   1.413   1.165   6.357  0.8421 -1.5503  1.3695
 3327SOL    HW221618   1.449   1.199   6.219  0.9628  2.5202  1.2796
 3328SOL     OW21619   1.171   1.976   2.762 -0.5666 -0.3198  0.6580
 3328SOL    HW121620   1.141   1.893   2.798 -0.9912 -0.1594  0.6795
 3328SOL    HW221621   1.264   1.964   2.742 -0.6588 -0.4674  0.3213
 3329SOL     OW21622   3.374   3.438   2.796  0.6305  0.1777  0.5900
 3329SOL    HW121623   3.307   3.382   2.835  0.1823 -2.0495 -3.2912
 3329SOL    HW221624   3.346   3.520   2.838  2.2616  1.9764 -1.7826
 3330SOL     OW21625   2.412   1.408   4.196  0.0078  0.2594 -0.5712
 3330SOL    HW121626   2.492   1.408   4.249 -1.0015  1.0621  0.9545
 3330SOL    HW221627   2.430   1.483   4.140  1.8752  0.9165  0.8968
 3331SOL     OW21628   1.160   1.971   6.094 -0.1513 -0.4323  0.4135
 3331SOL    HW121629   1.179   1.893   6.043  1.7924  2.0522 -2.6976
 3331SOL    HW221630   1.118   1.928   6.168 -3.4088  0.4959 -0.9311
 3332SOL     OW21631   1.120   0.830   2.062  0.5159 -0.2570 -0.2696
 3332SOL    HW121632   1.033   0.798   2.037  0.7272 -0.6912 -0.4544
 3332SOL    HW221633   1.159   0.757   2.110 -3.0072 -3.0225 -1.5966
 3333SOL     OW21634   1.129   1.058  16.259 -0.1189 -0.1556 -0.4961
 3333SOL    HW121635   1.201   1.048  16.321 -1.5806  0.7347  1.3526
 3333SOL    HW221636   1.175   1.103  16.188 -0.1791 -0.9739 -1.0462
 3334SOL     OW21637   2.251   3.127   5.056  0.0494  0.1164 -0.2026
 3334SOL    HW121638   2.199   3.103   5.133  2.2989  0.2208  1.3499
 3334SOL    HW221639   2.192   3.081   4.996  1.2619  1.1006 -2.1811
 3335SOL     OW21640   3.005   2.321   9.252  0.0411  0.2757 -0.0762
 3335SOL    HW121641   2.954   2.277   9.184  1.6649 -0.0367 -1.1048
 3335SOL    HW221642   2.991   2.408   9.215  0.3547  0.5241  0.3856
 3336SOL     OW21643   3.058   0.425  15.654 -0.5996  0.2443  0.4265
 3336SOL    HW121644   3.105   0.350  15.691  0.6370  0.9031  0.1563
 3336SOL    HW221645   3.131   0.474  15.616 -1.2101 -1.6599 -3.2475
 3337SOL     OW21646   4.166   1.430   7.167 -0.9680  0.7937  0.3309
 3337SOL    HW121647   4.181   1.347   7.212 -2.5274 -1.0866 -2.5818
 3337SOL    HW221648   4.126   1.489   7.232 -0.5762  0.2429  1.0617
 3338SOL     OW21649   0.755   3.989   1.305  0.1196  0.1250 -0.1248
 3338SOL    HW121650   0.845   4.009   1.332  0.0104  0.4294  0.0057
 3338SOL    HW221651   0.729   3.939   1.383  0.5124 -1.1096 -0.7799
 3339SOL     OW21652   4.277   2.198   3.602  0.1162  0.4403 -0.4630
 3339SOL    HW121653   4.338   2.124   3.609 -0.8545 -0.2076  1.1703
 3339SOL    HW221654   4.201   2.165   3.554  0.2019  1.1240 -1.0634
 3340SOL     OW21655   3.356   2.384   1.137 -0.0011 -0.4205  0.5937
 3340SOL    HW121656   3.431   2.326   1.153  0.7416  0.8719  1.7519
 3340SOL    HW221657   3.292   2.332   1.089 -1.9466  0.5594  2.1429
 3341SOL     OW21658   1.484   3.266   3.922  0.5541 -0.1200 -0.2910
 3341SOL    HW121659   1.465   3.197   3.985  0.1587  1.1043  0.9310
 3341SOL    HW221660   1.474   3.231   3.833 -1.5904  1.3700 -0.6388
 3342SOL     OW21661   3.746   2.685   9.157 -0.3978  0.0399  0.4641
 3342SOL    HW121662   3.696   2.610   9.189 -0.6446  0.0470  0.0963
 3342SOL    HW221663   3.820   2.637   9.121 -0.1236  0.3549  0.6021
 3343SOL     OW21664   1.638   3.007   2.141 -0.0102  0.2799 -0.4529
 3343SOL    HW121665   1.580   2.988   2.215  1.4759 -0.9925  0.3836
 3343SOL    HW221666   1.592   3.067   2.082 -1.9735 -1.7891 -1.0139
 3344SOL     OW21667   4.249   3.316   7.390  0.0800  0.3113  0.1168
 3344SOL    HW121668   4.269   3.250   7.457 -3.0137  0.6646  1.3966
 3344SOL    HW221669   4.160   3.296   7.363  0.5896 -2.0217  0.0780
 3345SOL     OW21670   3.623   2.557  16.681 -0.6398 -0.5834  0.1535
 3345SOL    HW121671   3.563   2.577  16.753 -0.1004 -1.3436  0.8072
 3345SOL    HW221672   3.676   2.488  16.720 -0.2823  1.2969  2.9714
 3346SOL     OW21673   0.466   3.028   3.257  0.0551 -0.2542 -0.2365
 3346SOL    HW121674   0.471   2.955   3.318  0.7458  0.7184  0.8730
 3346SOL    HW221675   0.553   3.064   3.277  0.2848 -1.7725  1.4405
 3347SOL     OW21676   3.752   1.163   4.480  0.2905  0.1745 -0.0368
 3347SOL    HW121677   3.757   1.149   4.575  1.0564 -2.8937 -0.5416
 3347SOL    HW221678   3.845   1.164   4.455 -0.1256  0.3277 -1.5359
 3348SOL     OW21679   0.269   4.623   6.086 -0.4540  0.1380 -0.0277
 3348SOL    HW121680   0.196   4.616   6.148  0.1287 -0.9906  0.5453
 3348SOL    HW221681   0.323   4.545   6.101 -0.3896  0.0618 -0.6503
 3349SOL     OW21682   0.444   1.845   5.751  0.3763 -0.2464 -0.0968
 3349SOL    HW121683   0.399   1.885   5.677 -2.1285 -1.5757  0.7112
 3349SOL    HW221684   0.536   1.852   5.726  0.0182  2.2661 -0.7093
 3350SOL     OW21685   0.420   1.172  12.141 -0.0130  0.0994  0.0594
 3350SOL    HW121686   0.404   1.102  12.204 -1.8234  0.0848 -0.3998
 3350SOL    HW221687   0.338   1.222  12.141 -0.3944 -0.5227 -0.6301
 3351SOL     OW21688   4.109   1.750   8.797  0.5189  0.1159 -0.1193
 3351SOL    HW121689   4.061   1.709   8.725  3.4840 -2.3465 -0.6536
 3351SOL    HW221690   4.076   1.839   8.786 -0.7895 -0.4446 -0.7047
 3352SOL     OW21691   2.453   1.795   5.484  0.2969 -0.5958  0.2072
 3352SOL    HW121692   2.541   1.834   5.486  0.4205 -0.8976  0.5336
 3352SOL    HW221693   2.395   1.871   5.483  2.1508  0.8472  1.1049
 3353SOL     OW21694   4.591   1.256   0.724 -0.4879  0.3153 -0.3855
 3353SOL    HW121695   4.516   1.310   0.701 -0.6826  0.3258  0.2661
 3353SOL    HW221696   4.558   1.173   0.689 -2.0804  0.6239  0.3782
 3354SOL     OW21697   1.995   1.397   7.989 -0.7331  0.3790 -0.9521
 3354SOL    HW121698   1.935   1.407   7.914 -0.7523  0.4217 -0.9315
 3354SOL    HW221699   1.957   1.458   8.054 -2.1427 -3.1587  1.5306
 3355SOL     OW21700   4.168   2.362   6.602  1.3875  0.2076 -0.0192
 3355SOL    HW121701   4.128   2.347   6.516 -1.0863 -0.6823  1.2778
 3355SOL    HW221702   4.150   2.273   6.633 -1.7912  0.1753 -1.8723
 3356SOL     OW21703   2.000   3.220  16.810 -0.6025  0.1341 -0.0600
 3356SOL    HW121704   1.968   3.245  16.724  1.3106  0.8033 -0.5761
 3356SOL    HW221705   1.960   3.137  16.833  0.4663  0.0525  1.5183
 3357SOL     OW21706   1.353   4.647   8.035 -0.8652 -0.0636  0.1732
 3357SOL    HW121707   1.448   4.655   8.023 -0.9981  0.6825 -0.3558
 3357SOL    HW221708   1.342   4.588   8.109 -0.3576 -0.0210  0.2854
 3358SOL     OW21709   3.921   3.599   2.785 -0.1897  0.2273  0.4805
 3358SOL    HW121710   3.890   3.621   2.697  0.7347  1.8397  0.5558
 3358SOL    HW221711   4.003   3.647   2.796  0.6333 -0.6372 -1.8177
 3359SOL     OW21712   0.936   3.979   2.816 -0.1350 -0.0846  0.3234
 3359SOL    HW121713   0.881   4.058   2.815  0.3889  0.2797  0.6442
 3359SOL    HW221714   0.898   3.930   2.743  1.0313  2.3004 -1.8852
 3360SOL     OW21715   1.776   0.117  12.920 -0.1303  0.2185 -0.2368
 3360SOL    HW121716   1.848   0.053  12.920  0.2081  0.6002  0.9686
 3360SOL    HW221717   1.807   0.181  12.856 -0.6005 -1.4421 -2.1409
 3361SOL     OW21718   3.575   3.152   2.428  0.8270  0.4366 -0.1310
 3361SOL    HW121719   3.544   3.202   2.352  0.5383  1.2423  0.5142
 3361SOL    HW221720   3.669   3.166   2.420  0.7258  0.1811 -1.6703
 3362SOL     OW21721   1.025   0.014   3.875 -0.3176 -0.3414 -0.1035
 3362SOL    HW121722   0.970   0.026   3.952  0.3279  1.7725  0.0256
 3362SOL    HW221723   1.032   4.657   3.877  1.1898 -0.1523  3.5333
 3363SOL     OW21724   0.957   4.687   7.738  0.6891  0.4393 -0.1434
 3363SOL    HW121725   0.920   4.646   7.660  0.1970 -2.3879  1.5847
 3363SOL    HW221726   0.997   0.031   7.707  0.7936  0.3558 -0.2307
 3364SOL     OW21727   0.021   0.775   4.607 -0.3544 -0.2083 -0.3568
 3364SOL    HW121728   0.085   0.834   4.569 -2.7153  1.7824 -1.2843
 3364SOL    HW221729   0.003   0.713   4.537 -0.8502  1.0033 -1.2925
 3365SOL     OW21730   4.367   1.877   5.780  0.6098 -0.0399 -0.0427
 3365SOL    HW121731   4.376   1.891   5.874 -2.6007 -0.3120  0.2949
 3365SOL    HW221732   4.381   1.783   5.768 -2.2449 -0.3097 -1.1857
 3366SOL     OW21733   2.035   1.161   1.507 -0.4845 -0.3294 -0.3358
 3366SOL    HW121734   2.006   1.094   1.445  0.0343 -0.4338 -0.4644
 3366SOL    HW221735   2.062   1.097   1.573  1.8654  2.1316  1.0504
 3367SOL     OW21736   2.844   2.752   0.055  0.0695 -0.4694 -0.2667
 3367SOL    HW121737   2.921   2.735   0.109 -0.7613 -0.4596  0.9183
 3367SOL    HW221738   2.892   2.754  17.721  0.3151 -0.2815 -0.1188
 3368SOL     OW21739   0.407   2.363   5.772 -0.2433 -0.1859  0.0688
 3368SOL    HW121740   0.345   2.321   5.712 -0.0568  0.4365 -0.5522
 3368SOL    HW221741   0.375   2.338   5.859 -0.2918 -0.0247  0.0984
 3369SOL     OW21742   4.734   1.429   9.061  0.0466  0.5207 -0.2024
 3369SOL    HW121743   4.731   1.510   9.010 -2.9073 -0.1936 -1.1469
 3369SOL    HW221744   4.736   1.469   9.149  0.1976 -0.7244  0.3510
 3370SOL     OW21745   3.579   3.319   4.129  0.0624 -0.8217 -0.3817
 3370SOL    HW121746   3.580   3.226   4.104 -2.2486 -0.5759 -1.3813
 3370SOL    HW221747   3.651   3.354   4.076  0.4311 -1.7579 -0.4999
 3371SOL     OW21748   1.961   2.055   2.141  0.9264  0.2762 -0.1917
 3371SOL    HW121749   1.940   2.015   2.057 -0.4047  1.1769 -0.3013
 3371SOL    HW221750   1.902   2.131   2.133  0.0789 -0.4692 -0.9475
 3372SOL     OW21751   3.044   4.070   7.561  0.0101  0.3535 -0.2540
 3372SOL    HW121752   2.977   4.112   7.509  0.2978  0.9353 -0.1553
 3372SOL    HW221753   3.081   4.144   7.609 -3.7684  1.8551  0.3074
 3373SOL     OW21754   4.253   2.898   3.839 -0.3164  0.1276  0.6744
 3373SOL    HW121755   4.163   2.932   3.837 -0.2254  0.3840  1.0391
 3373SOL    HW221756   4.234   2.805   3.830  2.5803 -0.4607  0.7960
 3374SOL     OW21757   4.136   4.705   8.345  0.1054 -0.3774  0.9483
 3374SOL    HW121758   4.073   0.038   8.334  2.4097  1.3844 -0.9245
 3374SOL    HW221759   4.079   4.664   8.410  2.4798 -2.7177  1.5666
 3375SOL     OW21760   2.295   2.252   8.680  0.1489  0.1657 -0.5800
 3375SOL    HW121761   2.294   2.317   8.751 -3.4782 -0.9080  0.3400
 3375SOL    HW221762   2.315   2.168   8.720 -0.1184  1.2585  1.8416
 3376SOL     OW21763   1.829   2.285  14.450 -0.5516 -0.4200 -0.5965
 3376SOL    HW121764   1.878   2.335  14.515  2.5864 -0.9720 -2.5480
 3376SOL    HW221765   1.877   2.316  14.374 -1.6656 -0.8411 -1.4664
 3377SOL     OW21766   2.494   1.048   9.288  0.0161 -0.3075 -0.2509
 3377SOL    HW121767   2.543   0.988   9.231  1.4422  0.2528  0.3713
 3377SOL    HW221768   2.425   1.074   9.228  0.0840 -0.3780 -0.3609
 3378SOL     OW21769   3.960   1.536   6.306 -0.1968 -0.0786  0.4985
 3378SOL    HW121770   3.879   1.485   6.296 -0.0988 -0.0296 -0.4804
 3378SOL    HW221771   4.024   1.471   6.276  0.8539  0.9744  0.4803
 3379SOL     OW21772   1.229   4.313   4.723 -0.2235  0.4350  0.0785
 3379SOL    HW121773   1.276   4.320   4.640  0.1718  0.0300  0.2658
 3379SOL    HW221774   1.162   4.379   4.708  1.7841  2.7256  1.1105
 3380SOL     OW21775   2.864   3.124  14.480  0.2768  0.9904  0.0203
 3380SOL    HW121776   2.796   3.148  14.417 -1.9903  0.1937  2.1550
 3380SOL    HW221777   2.919   3.072  14.422  0.2711 -0.3321  1.1973
 3381SOL     OW21778   0.127   1.669   5.772 -0.3142 -0.4719 -0.1763
 3381SOL    HW121779   0.032   1.664   5.763 -0.3527  1.0093 -0.6156
 3381SOL    HW221780   0.136   1.758   5.805  4.1276 -1.0813  0.2490
 3382SOL     OW21781   2.478   4.717   8.429  0.2387  0.1189 -0.0746
 3382SOL    HW121782   2.483   4.648   8.363  1.3010  1.8793 -1.8336
 3382SOL    HW221783   2.489   0.051   8.367 -0.4139 -0.3962 -0.7925
 3383SOL     OW21784   2.509   3.788   6.586  0.2371 -0.1349 -0.2242
 3383SOL    HW121785   2.470   3.702   6.602  0.3996 -0.1334  0.1804
 3383SOL    HW221786   2.592   3.755   6.553  0.7357  2.2708 -1.3553
 3384SOL     OW21787   1.273   0.823   6.230 -0.0269 -0.1798 -0.6763
 3384SOL    HW121788   1.341   0.876   6.189 -0.9981 -0.3801 -2.5656
 3384SOL    HW221789   1.199   0.882   6.243 -0.3190  0.0422 -3.1906
 3385SOL     OW21790   0.557   2.718   8.008  0.5006 -0.4482  0.3210
 3385SOL    HW121791   0.559   2.627   7.977  1.8481 -0.2903 -0.0551
 3385SOL    HW221792   0.641   2.730   8.053  0.4503 -2.4049  0.9361
 3386SOL     OW21793   1.689   2.015   6.838 -0.2796  0.1396 -0.0385
 3386SOL    HW121794   1.766   1.959   6.835 -0.4970 -0.0923 -1.4235
 3386SOL    HW221795   1.658   2.032   6.749 -0.7235 -1.4261 -0.1895
 3387SOL     OW21796   3.545   1.758   5.977  0.3526  0.3019  0.0596
 3387SOL    HW121797   3.632   1.798   5.977  0.0850  0.8868  1.2971
 3387SOL    HW221798   3.569   1.683   6.032 -2.7966 -0.9538 -0.2799
 3388SOL     OW21799   4.113   0.765   9.508  0.4437  0.4982  0.2106
 3388SOL    HW121800   4.031   0.814   9.516  1.0450  1.2509  1.8775
 3388SOL    HW221801   4.123   0.734   9.598  3.8942  1.0591  0.0304
 3389SOL     OW21802   2.382   2.187   0.207 -0.1883 -0.4420 -0.3146
 3389SOL    HW121803   2.371   2.092   0.206 -0.3971 -0.4048 -1.7574
 3389SOL    HW221804   2.401   2.207   0.115 -1.2583  1.4968 -0.1120
 3390SOL     OW21805   3.881   2.628  10.919  0.3851 -0.3809  0.3390
 3390SOL    HW121806   3.816   2.692  10.946  1.0951 -1.3627  4.3667
 3390SOL    HW221807   3.859   2.619  10.826 -1.4223  1.9279  0.5304
 3391SOL     OW21808   2.084   0.898   4.292  0.7403  0.0407  0.7124
 3391SOL    HW121809   2.159   0.919   4.236  0.5154 -1.1187 -0.0151
 3391SOL    HW221810   2.125   0.895   4.379  0.0764 -0.4296  1.0188
 3392SOL     OW21811   2.920   2.104   5.252  0.3828 -0.1202 -0.4722
 3392SOL    HW121812   2.854   2.115   5.184  0.1132  0.7466 -0.0647
 3392SOL    HW221813   2.974   2.035   5.212 -3.0645 -2.4251 -1.1422
 3393SOL     OW21814   3.204   2.578   5.174  0.0446  0.0636 -0.2093
 3393SOL    HW121815   3.109   2.582   5.168  0.0656 -1.1368 -1.2109
 3393SOL    HW221816   3.220   2.527   5.253  0.5952 -1.2151 -1.1402
 3394SOL     OW21817   1.268   0.170  11.206  0.1726  0.6716 -0.0474
 3394SOL    HW121818   1.173   0.178  11.215  0.2472 -1.4770  2.5425
 3394SOL    HW221819   1.281   0.151  11.113 -1.7597 -1.6949  0.1739
 3395SOL     OW21820   3.770   3.622   6.572 -0.4002  0.2023 -0.2418
 3395SOL    HW121821   3.775   3.604   6.666  1.1718  0.7175 -0.2403
 3395SOL    HW221822   3.785   3.531   6.548  1.3752 -0.2609  2.5890
 3396SOL     OW21823   0.292   3.789   7.481  0.4156  0.0944 -0.1177
 3396SOL    HW121824   0.196   3.791   7.473  0.4349  0.7325 -0.1873
 3396SOL    HW221825   0.318   3.833   7.401 -0.2523  2.8037  1.1334
 3397SOL     OW21826   0.215   1.170  13.428 -0.3374 -0.6132 -0.3633
 3397SOL    HW121827   0.198   1.245  13.486 -0.0294 -0.5290 -0.3799
 3397SOL    HW221828   0.142   1.187  13.369 -0.0570  0.9074 -0.2929
 3398SOL     OW21829   4.354   3.429  17.644  0.2612  0.4818  0.6218
 3398SOL    HW121830   4.386   3.519  17.641  0.1870  0.5165  0.8932
 3398SOL    HW221831   4.282   3.438  17.581 -0.6382 -0.6738  1.4968
 3399SOL     OW21832   1.058   4.399  11.868 -0.0261 -0.6932 -0.2093
 3399SOL    HW121833   1.045   4.305  11.854 -0.3569 -0.5294 -0.9959
 3399SOL    HW221834   1.007   4.428  11.793  0.7607  0.4535 -0.2916
 3400SOL     OW21835   3.207   3.545  13.643  0.4092  0.4287  0.4766
 3400SOL    HW121836   3.160   3.558  13.561  1.3631  2.1115  0.1984
 3400SOL    HW221837   3.273   3.612  13.625  1.6154 -0.6621  0.8446
 3401SOL     OW21838   3.023   3.699  17.615  0.4588 -0.1272 -0.4788
 3401SOL    HW121839   3.094   3.636  17.609  1.4209  0.9783 -0.6730
 3401SOL    HW221840   2.993   3.705  17.524  0.5411  1.7061 -0.3847
 3402SOL     OW21841   3.723   0.732   0.956  0.4648 -0.2560  0.4962
 3402SOL    HW121842   3.769   0.705   0.877 -0.0354 -0.5891  0.3136
 3402SOL    HW221843   3.662   0.798   0.924 -0.5456 -1.7724 -0.7551
 3403SOL     OW21844   0.928   3.280  15.822  0.4775 -0.0585  0.3637
 3403SOL    HW121845   0.998   3.257  15.760  0.0179  0.2639 -0.2790
 3403SOL    HW221846   0.899   3.363  15.784  0.2419 -0.8155 -1.1402
 3404SOL     OW21847   0.647   2.179  10.358  0.5941 -0.2046  0.2010
 3404SOL    HW121848   0.591   2.186  10.280  0.5090 -2.1917  0.0937
 3404SOL    HW221849   0.590   2.208  10.429  2.2893  3.0836  0.2061
 3405SOL     OW21850   1.537   4.330   1.972 -0.0301 -0.0519 -0.4227
 3405SOL    HW121851   1.494   4.410   1.942  0.3096 -0.0988 -1.0501
 3405SOL    HW221852   1.573   4.344   2.059 -1.3437 -1.2601  0.3191
 3406SOL     OW21853   4.037   4.718   3.984 -0.1259  0.1758  0.0075
 3406SOL    HW121854   4.092   4.641   3.999  1.4312  1.4424  0.8481
 3406SOL    HW221855   4.052   0.030   4.064 -0.0588  1.4047 -0.7509
 3407SOL     OW21856   3.274   4.583  17.496  0.0848 -0.7124 -0.6158
 3407SOL    HW121857   3.367   4.563  17.484  0.1086 -0.9931  0.0065
 3407SOL    HW221858   3.280   4.672  17.532  2.7667  0.2963 -3.5571
 3408SOL     OW21859   2.279   3.851  12.835 -0.2391 -0.1674 -0.5862
 3408SOL    HW121860   2.193   3.891  12.820  0.2098  0.6086 -1.0932
 3408SOL    HW221861   2.285   3.865  12.930  0.6142 -3.7204 -0.1354
 3409SOL     OW21862   1.749   3.004   1.201 -0.0099  0.6070  0.0408
 3409SOL    HW121863   1.675   3.038   1.253 -2.2215 -2.7634 -0.8988
 3409SOL    HW221864   1.815   3.046   1.256  1.0083 -0.0268 -0.7279
 3410SOL     OW21865   0.851   0.414   0.386 -0.2874  0.5767 -0.0898
 3410SOL    HW121866   0.940   0.381   0.386  0.9284  3.8742 -0.6210
 3410SOL    HW221867   0.840   0.407   0.480  3.7825 -0.0671  0.3250
 3411SOL     OW21868   4.261   0.301  13.464 -0.0326 -0.0887 -0.3056
 3411SOL    HW121869   4.192   0.296  13.531 -2.9984 -2.6979 -3.5454
 3411SOL    HW221870   4.252   0.389  13.428 -0.0554 -0.2639 -0.7312
 3412SOL     OW21871   2.345   3.864   6.078  0.0936 -0.0183  0.2733
 3412SOL    HW121872   2.315   3.911   6.001 -0.4984 -0.1177  0.4441
 3412SOL    HW221873   2.289   3.893   6.149 -2.0363 -0.4740 -1.2262
 3413SOL     OW21874   2.010   3.282  11.242  0.1016  0.1480  0.1291
 3413SOL    HW121875   1.993   3.303  11.334  2.2432 -0.3145  0.6253
 3413SOL    HW221876   2.075   3.346  11.215  0.6100 -0.3540  0.1609
 3414SOL     OW21877   2.448   1.509   2.678 -0.1723  0.3632  0.1800
 3414SOL    HW121878   2.482   1.550   2.598 -1.8540  1.9921  0.2807
 3414SOL    HW221879   2.384   1.455   2.631  1.0761 -0.0822 -0.9794
 3415SOL     OW21880   2.729   4.374   8.360 -0.0996 -0.7298 -0.0199
 3415SOL    HW121881   2.799   4.344   8.418 -0.0970 -1.3462 -0.3412
 3415SOL    HW221882   2.776   4.425   8.294 -1.8380 -0.3120 -0.9394
 3416SOL     OW21883   3.698   3.923   2.551 -0.4535 -0.0657 -0.2445
 3416SOL    HW121884   3.728   3.936   2.641 -1.2867  0.6790 -0.0785
 3416SOL    HW221885   3.780   3.906   2.504  0.9718  1.6014  1.6080
 3417SOL     OW21886   4.138   2.633  10.241 -0.3336 -0.1209  0.1935
 3417SOL    HW121887   4.144   2.728  10.232 -0.0271 -0.0742  0.8886
 3417SOL    HW221888   4.105   2.614  10.153 -1.8110  2.0006  0.2929
 3418SOL     OW21889   0.747   1.050   7.228  0.5339 -0.2584 -0.5149
 3418SOL    HW121890   0.786   1.133   7.257  2.5734 -0.9460 -1.3158
 3418SOL    HW221891   0.656   1.081   7.229  0.7046  0.2566 -0.6868
 3419SOL     OW21892   1.094   1.668   8.551 -0.0898  0.7378  0.6849
 3419SOL    HW121893   1.096   1.759   8.579 -2.2675  0.5037  1.5701
 3419SOL    HW221894   1.157   1.617   8.601 -0.2430 -1.4104 -1.3038
 3420SOL     OW21895   2.247   2.212   4.605  0.3573 -0.5965 -0.5477
 3420SOL    HW121896   2.261   2.126   4.645 -1.0999 -0.7878 -0.4523
 3420SOL    HW221897   2.324   2.264   4.626 -1.3687  1.1958  1.4356
 3421SOL     OW21898   3.216   4.431   9.054  0.7207 -0.0090  0.0052
 3421SOL    HW121899   3.188   4.340   9.059 -1.9614  0.8025 -0.4416
 3421SOL    HW221900   3.304   4.420   9.091  0.9739  1.9577 -0.0326
 3422SOL     OW21901   3.509   1.482  11.120 -0.2176  0.3033 -0.2212
 3422SOL    HW121902   3.597   1.446  11.111 -0.6274 -0.6720 -0.2694
 3422SOL    HW221903   3.455   1.405  11.138 -0.8841  0.4324 -1.6587
 3423SOL     OW21904   3.089   4.205   4.720  0.1918 -0.8271  0.3331
 3423SOL    HW121905   3.031   4.163   4.655 -0.6906  1.3360 -0.2859
 3423SOL    HW221906   3.173   4.163   4.699  0.7788 -0.3221  1.7065
 3424SOL     OW21907   4.585   2.376   9.266 -0.2961 -0.0381 -0.2438
 3424SOL    HW121908   4.633   2.352   9.346 -1.6634 -0.6723  0.3947
 3424SOL    HW221909   4.519   2.440   9.293  0.7920  0.7115  0.6480
 3425SOL     OW21910   2.020   3.990   4.743 -0.7829  0.7158  0.0154
 3425SOL    HW121911   1.933   3.952   4.758 -1.3850  1.1639 -2.3879
 3425SOL    HW221912   2.073   3.969   4.820 -3.4034 -2.0780  1.0400
 3426SOL     OW21913   3.724   0.243  16.588 -0.1116 -0.2053 -0.2400
 3426SOL    HW121914   3.649   0.213  16.538  1.4283 -0.5495 -2.3324
 3426SOL    HW221915   3.700   0.238  16.681 -0.8070  0.1066 -0.4035
 3427SOL     OW21916   0.749   3.210   1.879 -0.2674  0.5022  0.0101
 3427SOL    HW121917   0.671   3.163   1.848 -0.2911  1.1532 -0.9131
 3427SOL    HW221918   0.725   3.292   1.836 -0.4641  0.4390  0.0016
 3428SOL     OW21919   0.605   3.383   7.264 -0.4669  1.0365 -0.3794
 3428SOL    HW121920   0.526   3.385   7.317  0.1283 -0.0048  0.5631
 3428SOL    HW221921   0.566   3.374   7.177  1.6548 -0.7930 -1.1557
 3429SOL     OW21922   2.301   1.479   6.842  0.3582  0.1917 -0.5160
 3429SOL    HW121923   2.394   1.503   6.838  0.4600 -0.1743 -0.3386
 3429SOL    HW221924   2.293   1.449   6.752 -0.7794 -1.9173  0.2905
 3430SOL     OW21925   4.443   0.143   8.792 -0.0831  0.5004  0.0684
 3430SOL    HW121926   4.364   0.134   8.846  0.6687 -0.7492  0.9491
 3430SOL    HW221927   4.444   0.233   8.761 -2.4456  0.0247 -1.4680
 3431SOL     OW21928   2.858   3.246   1.011 -0.7234 -0.6983  0.3268
 3431SOL    HW121929   2.788   3.284   0.958  0.0971 -0.0324 -0.2763
 3431SOL    HW221930   2.927   3.218   0.951  0.2723 -0.6650  1.4431
 3432SOL     OW21931   4.163   1.650   4.749  0.1137 -0.2906 -0.1706
 3432SOL    HW121932   4.164   1.741   4.720  1.5167 -0.0183  0.7008
 3432SOL    HW221933   4.257   1.633   4.759 -0.2211 -1.5651  0.7291
 3433SOL     OW21934   3.131   4.515   2.237  0.1473 -0.4399 -0.2810
 3433SOL    HW121935   3.143   4.551   2.325  1.5209  1.8931 -1.4434
 3433SOL    HW221936   3.145   4.597   2.190 -0.9652  0.3381  0.7544
 3434SOL     OW21937   4.449   1.546   3.129  0.6479 -0.0721 -0.0193
 3434SOL    HW121938   4.523   1.487   3.140  0.5459 -0.2302 -0.2011
 3434SOL    HW221939   4.420   1.546   3.038 -0.3510 -2.2255  0.3130
 3435SOL     OW21940   1.421   2.122   7.104  0.0016 -0.3593 -0.1075
 3435SOL    HW121941   1.461   2.039   7.129  0.7631 -0.1292 -0.5550
 3435SOL    HW221942   1.417   2.104   7.010 -0.1955  2.4732 -0.6333
 3436SOL     OW21943   1.491   4.542   3.870 -0.2266  0.2479 -0.4338
 3436SOL    HW121944   1.552   4.491   3.817  2.1987  3.1572 -0.4298
 3436SOL    HW221945   1.532   4.527   3.956 -1.8814 -0.2668  0.2537
 3437SOL     OW21946   0.524   2.892   7.290 -0.7643 -0.0037 -0.1733
 3437SOL    HW121947   0.574   2.964   7.251 -0.0290 -0.1018  0.6062
 3437SOL    HW221948   0.502   2.926   7.377  3.7615 -1.1029  1.3571
 3438SOL     OW21949   0.686   4.285   1.563 -0.1389 -0.0505  0.5927
 3438SOL    HW121950   0.753   4.350   1.586 -1.2178  1.1682  0.2847
 3438SOL    HW221951   0.714   4.205   1.606 -1.2368 -0.7177  0.0677
 3439SOL     OW21952   4.478   0.682   8.792 -0.4516  0.0410 -0.5730
 3439SOL    HW121953   4.424   0.740   8.738  0.9777  1.3351 -0.6106
 3439SOL    HW221954   4.542   0.652   8.728  0.5846  1.5087 -0.2405
 3440SOL     OW21955   0.791   4.279  16.952  0.0821 -0.4037 -0.5211
 3440SOL    HW121956   0.754   4.326  17.027  0.4330  0.9693 -1.2119
 3440SOL    HW221957   0.728   4.300  16.883  1.0598 -1.1820 -1.6497
 3441SOL     OW21958   2.918   2.373   3.670  0.3124 -0.3276  0.4246
 3441SOL    HW121959   2.929   2.370   3.765  0.4996 -0.8419  0.3854
 3441SOL    HW221960   2.843   2.314   3.663  0.5695 -0.4326 -1.4834
 3442SOL     OW21961   3.998   1.471   5.276 -0.1207 -0.0235 -0.1682
 3442SOL    HW121962   4.076   1.426   5.306 -1.9527 -3.0895  0.0060
 3442SOL    HW221963   3.928   1.445   5.336 -0.4056  1.6077  0.2213
 3443SOL     OW21964   2.665   3.337   8.778  0.2777 -0.7591 -0.4727
 3443SOL    HW121965   2.622   3.423   8.787 -2.6574 -2.1058 -1.5328
 3443SOL    HW221966   2.593   3.281   8.808  0.5917 -0.6350  0.5299
 3444SOL     OW21967   2.809   3.246   9.913  0.3726  0.2870 -0.0984
 3444SOL    HW121968   2.858   3.284   9.839 -1.4789 -0.2846 -1.6101
 3444SOL    HW221969   2.856   3.283   9.987  0.8152 -1.4382  0.4959
 3445SOL     OW21970   0.181   0.888   5.775 -0.3649  0.0728 -0.2415
 3445SOL    HW121971   0.165   0.865   5.683  1.3651  1.7575 -0.9583
 3445SOL    HW221972   0.187   0.796   5.801  4.1909 -0.0375 -1.6218
 3446SOL     OW21973   0.034   3.248   3.932  0.5284  0.0081 -0.4581
 3446SOL    HW121974   4.706   3.315   3.949 -0.0545 -0.5505 -0.5176
 3446SOL    HW221975   4.723   3.207   3.861  2.2804  0.6335 -1.9990
 3447SOL     OW21976   0.672   1.556   2.330 -0.5022 -0.4362 -0.0566
 3447SOL    HW121977   0.665   1.481   2.389 -1.9806  1.3865  2.0844
 3447SOL    HW221978   0.636   1.632   2.377 -0.8224 -1.2377  0.9872
 3448SOL     OW21979   4.056   4.305  14.409 -0.7682  0.3281  0.0714
 3448SOL    HW121980   4.027   4.393  14.433  2.5388  1.7609 -1.1859
 3448SOL    HW221981   4.107   4.287  14.488 -0.8327  2.6444  0.6338
 3449SOL     OW21982   3.440   3.944   6.503  0.6467 -0.0950  0.3637
 3449SOL    HW121983   3.390   3.960   6.423  1.2760 -0.9859 -0.1945
 3449SOL    HW221984   3.516   3.897   6.470 -0.2668 -0.9884 -0.4856
 3450SOL     OW21985   0.432   0.404   6.385 -0.2954 -0.5155 -0.0666
 3450SOL    HW121986   0.343   0.377   6.360  0.2522 -2.1630 -0.2177
 3450SOL    HW221987   0.442   0.462   6.310  2.8204 -0.6509  0.2551
 3451SOL     OW21988   2.787   1.384   0.982 -0.3242 -0.1992  0.6071
 3451SOL    HW121989   2.849   1.403   1.053  0.3159 -2.1732  0.5576
 3451SOL    HW221990   2.707   1.380   1.034  0.6820  0.0148  2.1703
 3452SOL     OW21991   2.355   0.478   9.361 -0.2020  0.3275  0.0891
 3452SOL    HW121992   2.399   0.399   9.330 -0.2116  0.8901 -1.3747
 3452SOL    HW221993   2.375   0.468   9.454 -2.0842 -2.4302  0.1893
 3453SOL     OW21994   2.936   4.229   8.544  0.8102  0.2326 -0.0355
 3453SOL    HW121995   3.000   4.188   8.486  0.6295  0.1166 -0.1505
 3453SOL    HW221996   2.930   4.162   8.612  2.3291  0.0145 -0.0987
 3454SOL     OW21997   0.327   0.431  16.741 -0.0399 -0.3365 -0.5778
 3454SOL    HW121998   0.270   0.360  16.712  0.2174 -0.8154  0.0568
 3454SOL    HW221999   0.332   0.482  16.661 -1.0226  0.5519 -0.0630
 3455SOL     OW22000   3.432   2.708   7.418 -0.0827 -0.4938 -0.1540
 3455SOL    HW122001   3.366   2.733   7.484 -1.5487 -1.6660 -1.1817
 3455SOL    HW222002   3.468   2.792   7.389  0.1321 -1.0646 -1.5194
 3456SOL     OW22003   1.874   0.465   0.611 -0.4667 -0.1408  0.1289
 3456SOL    HW122004   1.933   0.456   0.536 -0.6060 -0.2486  0.0310
 3456SOL    HW222005   1.815   0.526   0.567 -2.6222 -2.6696 -0.4994
 3457SOL     OW22006   3.896   0.285  11.558  0.0848 -0.2239  0.0632
 3457SOL    HW122007   3.830   0.264  11.624  0.2703 -0.3255  0.2150
 3457SOL    HW222008   3.964   0.221  11.578  0.4773  0.0795 -0.3127
 3458SOL     OW22009   2.878   4.533  16.283  0.2252  0.0259  0.2810
 3458SOL    HW122010   2.859   4.620  16.246  1.2736  0.1881  0.1125
 3458SOL    HW222011   2.973   4.520  16.280  0.0354 -1.6334  1.9569
 3459SOL     OW22012   2.477   0.017   8.696 -0.2147 -0.1475  0.0628
 3459SOL    HW122013   2.459   0.013   8.602  0.0950 -0.4319  0.0182
 3459SOL    HW222014   2.392   0.053   8.723  0.0397 -0.6977  1.5729
 3460SOL     OW22015   2.023   3.267   5.684  0.4703 -0.5025 -0.2372
 3460SOL    HW122016   1.966   3.332   5.727  0.4484 -0.7232  0.0684
 3460SOL    HW222017   2.103   3.303   5.723 -0.7944  1.8160  0.2034
 3461SOL     OW22018   2.285   3.004   2.251  0.5865  0.3158 -0.0406
 3461SOL    HW122019   2.273   2.947   2.327 -0.9933 -0.2614 -0.7202
 3461SOL    HW222020   2.266   2.946   2.178 -0.9383  0.0389  0.5686
 3462SOL     OW22021   0.530   2.595   1.636 -0.6914 -0.2954 -0.0763
 3462SOL    HW122022   0.462   2.649   1.677 -0.8868 -1.2931  0.9277
 3462SOL    HW222023   0.515   2.601   1.542 -1.1686  0.7699  0.0632
 3463SOL     OW22024   1.663   2.887   7.279  0.5055 -0.5418  0.3544
 3463SOL    HW122025   1.702   2.947   7.215 -0.5676  1.8949  1.9622
 3463SOL    HW222026   1.586   2.861   7.229  1.0639  1.1024 -1.3600
 3464SOL     OW22027   0.158   1.653   4.579 -0.3400 -0.1689 -0.7279
 3464SOL    HW122028   0.086   1.630   4.522 -1.1277  1.8035 -0.5338
 3464SOL    HW222029   0.179   1.565   4.611  0.3366  0.0964 -0.4345
 3465SOL     OW22030   4.030   3.003   7.440  0.3398  0.0890 -1.0809
 3465SOL    HW122031   3.941   2.967   7.436 -0.5635  1.9785  1.7836
 3465SOL    HW222032   4.080   2.948   7.500  1.3477  0.5126 -1.5307
 3466SOL     OW22033   1.231   4.299   1.834  0.3908  1.0437 -0.7150
 3466SOL    HW122034   1.175   4.377   1.832 -0.9996 -0.0404 -3.2945
 3466SOL    HW222035   1.171   4.228   1.857  0.9037  0.5481 -0.9226
 3467SOL     OW22036   4.270   4.576   2.932  0.4081 -0.0968 -0.2371
 3467SOL    HW122037   4.321   4.621   2.999 -2.0542  1.9461  0.2637
 3467SOL    HW222038   4.218   4.654   2.911  0.8201  0.4087  0.6264
 3468SOL     OW22039   1.052   2.826   6.159  0.0525 -0.0929  0.1185
 3468SOL    HW122040   1.009   2.760   6.104 -0.6222 -0.1432  0.7132
 3468SOL    HW222041   1.109   2.760   6.199 -0.1689 -0.0071  0.5649
 3469SOL     OW22042   3.705   2.372   2.586  0.2641 -0.0317 -0.1200
 3469SOL    HW122043   3.702   2.440   2.518 -1.2988 -0.6490 -0.6917
 3469SOL    HW222044   3.632   2.314   2.562  1.1294 -1.0673 -0.2260
 3470SOL     OW22045   2.483   4.458   8.313  0.1560  0.2309  0.4585
 3470SOL    HW122046   2.445   4.381   8.271  0.5652  0.6491 -0.6532
 3470SOL    HW222047   2.566   4.414   8.330  0.9594  2.2058  1.6267
 3471SOL     OW22048   0.610   2.656   0.476 -0.0564  0.1714 -0.9144
 3471SOL    HW122049   0.694   2.628   0.437  0.7608 -0.3827  1.2620
 3471SOL    HW222050   0.595   2.750   0.472 -1.3928 -0.0671 -1.2336
 3472SOL     OW22051   1.461   3.799   5.298  0.3432 -0.1999  1.3530
 3472SOL    HW122052   1.395   3.775   5.362  0.5131 -1.7175  0.9823
 3472SOL    HW222053   1.473   3.888   5.330 -2.0592 -0.1285  2.0056
 3473SOL     OW22054   1.055   2.812   6.770  0.1306 -0.2963  0.2772
 3473SOL    HW122055   1.066   2.905   6.749  0.7529 -0.5916 -0.6668
 3473SOL    HW222056   1.102   2.775   6.696  0.3971  0.0735  0.2599
 3474SOL     OW22057   1.929   1.951   2.897 -0.0918  0.3543 -0.2823
 3474SOL    HW122058   2.022   1.951   2.917 -0.7645 -0.5252  2.9132
 3474SOL    HW222059   1.931   1.913   2.809  3.5967 -0.5768  0.2222
 3475SOL     OW22060   2.907   2.936   5.092  0.0044  0.1263 -0.3590
 3475SOL    HW122061   2.831   2.882   5.070  0.9566 -0.9346 -1.0474
 3475SOL    HW222062   2.965   2.936   5.016 -1.8250  0.7452 -1.7672
 3476SOL     OW22063   0.836   4.413   4.133 -0.4420  1.2606  0.3121
 3476SOL    HW122064   0.875   4.454   4.056 -2.0275  1.2707 -0.4893
 3476SOL    HW222065   0.784   4.340   4.099  1.7472 -0.9380  1.7323
 3477SOL     OW22066   2.651   0.747   8.105  0.1342 -0.0665 -0.4951
 3477SOL    HW122067   2.730   0.801   8.110  0.8758 -1.3482  1.3878
 3477SOL    HW222068   2.680   0.682   8.040  0.2002 -1.3402  0.8239
 3478SOL     OW22069   4.426   2.552  10.270  0.0414 -0.2411 -0.4431
 3478SOL    HW122070   4.338   2.515  10.277 -1.1600  2.3413 -1.6584
 3478SOL    HW222071   4.405   2.645  10.279  2.0041  0.1402  0.1217
 3479SOL     OW22072   2.091   0.212   3.309  0.2165 -0.4347 -0.2928
 3479SOL    HW122073   2.085   0.265   3.389  0.5861  3.1846 -2.6630
 3479SOL    HW222074   2.001   0.187   3.290 -1.0992  0.3237  5.1122
 3480SOL     OW22075   1.045   2.366   9.707  0.4146  0.2458 -0.5557
 3480SOL    HW122076   1.028   2.444   9.655 -0.3489  0.5070  0.0920
 3480SOL    HW222077   1.017   2.387   9.796  0.5476 -0.0102 -0.4535
 3481SOL     OW22078   4.561   2.385   3.846  0.2727  0.1798  0.4977
 3481SOL    HW122079   4.481   2.344   3.877  2.0112 -3.7303 -0.1375
 3481SOL    HW222080   4.625   2.314   3.837  0.4899  0.6699 -1.8955
 3482SOL     OW22081   2.654   3.598   7.498 -0.8371  1.4393  0.2881
 3482SOL    HW122082   2.661   3.511   7.459  0.0638  1.2700  0.8255
 3482SOL    HW222083   2.738   3.603   7.545 -0.5259  0.4173 -0.1612
 3483SOL     OW22084   3.249   4.431  15.433  0.2555  0.2672 -0.4067
 3483SOL    HW122085   3.207   4.503  15.479  0.7373 -0.9146  1.8860
 3483SOL    HW222086   3.310   4.403  15.502  0.6636 -0.8215 -1.2125
 3484SOL     OW22087   4.033   0.166   0.754  0.5937  0.1414  0.3504
 3484SOL    HW122088   3.955   0.215   0.729 -1.4988 -2.4039  1.9829
 3484SOL    HW222089   4.105   0.225   0.730  1.0173 -0.4301  0.2261
 3485SOL     OW22090   3.852   4.285   4.457 -0.1328  0.1533  0.0723
 3485SOL    HW122091   3.922   4.226   4.430  0.3550  0.8406 -0.1920
 3485SOL    HW222092   3.864   4.348   4.386 -0.8694  0.7223  0.4534
 3486SOL     OW22093   0.698   2.574   2.469 -0.3737  0.0373  0.3956
 3486SOL    HW122094   0.687   2.584   2.375  0.4509 -0.7152  0.2122
 3486SOL    HW222095   0.789   2.542   2.473  0.0477  1.1749 -0.0554
 3487SOL     OW22096   2.453   4.570   5.787  0.3562 -0.1101  0.2571
 3487SOL    HW122097   2.516   4.502   5.764  0.9502  0.9814 -1.3471
 3487SOL    HW222098   2.404   4.574   5.705  1.3619  1.7071 -0.2419
 3488SOL     OW22099   3.243   4.182  10.590  0.3001  0.3611  0.4423
 3488SOL    HW122100   3.254   4.166  10.496 -1.3211  2.5603 -0.0979
 3488SOL    HW222101   3.189   4.260  10.585  0.1957  0.1758 -1.2656
 3489SOL     OW22102   1.057   0.586   9.336  0.4049  0.1298  0.3471
 3489SOL    HW122103   1.087   0.676   9.321  0.6686  0.2840  1.7684
 3489SOL    HW222104   0.963   0.597   9.320  0.4350 -0.0805  0.0308
 3490SOL     OW22105   0.931   0.371   1.962  0.1431  0.7527 -0.2293
 3490SOL    HW122106   0.949   0.446   1.907 -2.2402  1.7403  0.3546
 3490SOL    HW222107   0.868   0.394   2.030 -0.2105 -0.7237 -0.0484
 3491SOL     OW22108   2.340   4.508  12.511  0.7753 -0.2214  0.6127
 3491SOL    HW122109   2.287   4.534  12.436 -0.3618 -1.9717  0.8096
 3491SOL    HW222110   2.333   4.412  12.519 -1.4836 -0.0033  1.0556
 3492SOL     OW22111   1.869   3.560  10.962  0.0839 -0.3575 -0.3899
 3492SOL    HW122112   1.931   3.501  10.920  1.0457  0.4114 -0.0266
 3492SOL    HW222113   1.923   3.619  11.015 -1.3853 -1.1034  1.9514
 3493SOL     OW22114   0.697   2.107   1.347 -0.1225  0.2470 -0.0800
 3493SOL    HW122115   0.742   2.125   1.429  2.0262 -0.4070 -1.0834
 3493SOL    HW222116   0.680   2.195   1.314  1.0093  1.1740  1.8121
 3494SOL     OW22117   0.364   1.538  15.431  0.0029 -0.5237  0.1690
 3494SOL    HW122118   0.342   1.625  15.397 -0.4674  0.0547  1.9647
 3494SOL    HW222119   0.445   1.571  15.470 -0.4254  0.1330  0.5072
 3495SOL     OW22120   0.660   0.800   6.876  0.4368  0.4641 -1.3767
 3495SOL    HW122121   0.696   0.720   6.838  2.7339  0.4904  0.7633
 3495SOL    HW222122   0.712   0.806   6.956 -1.0649  2.2269 -0.5338
 3496SOL     OW22123   1.671   3.264   2.692  0.7618 -0.2099 -0.4590
 3496SOL    HW122124   1.733   3.323   2.736 -2.2423  2.7223 -0.1222
 3496SOL    HW222125   1.690   3.280   2.600 -0.7681 -2.7661 -1.2134
 3497SOL     OW22126   4.599   1.269   8.169  0.1001 -0.6005 -0.0909
 3497SOL    HW122127   4.633   1.286   8.081 -0.1860 -0.5672 -0.1964
 3497SOL    HW222128   4.530   1.212   8.135 -0.3054 -1.1091  1.6190
 3498SOL     OW22129   4.710   4.475   8.310 -0.2266 -0.5821  0.1708
 3498SOL    HW122130   4.652   4.507   8.380  0.8306  2.1393 -0.1839
 3498SOL    HW222131   4.638   4.447   8.253 -1.5108  2.8029  0.1026
 3499SOL     OW22132   3.733   3.486   2.955 -0.8874  0.5174 -0.2043
 3499SOL    HW122133   3.799   3.516   2.893 -0.0336 -1.0006 -0.0123
 3499SOL    HW222134   3.672   3.558   2.938 -0.0985  0.7446 -2.0665
 3500SOL     OW22135   0.354   3.874   8.083  0.0349  0.2221 -0.7090
 3500SOL    HW122136   0.422   3.878   8.015 -0.3225 -0.6982 -1.1293
 3500SOL    HW222137   0.332   3.780   8.081  0.9541  0.0082 -0.7504
 3501SOL     OW22138   0.834   0.999   8.521  0.2439 -0.0607  0.1008
 3501SOL    HW122139   0.812   0.917   8.476  1.8490 -0.6323  0.3263
 3501SOL    HW222140   0.930   1.000   8.512  0.3633  1.8652  1.5361
 3502SOL     OW22141   1.452   2.362   6.078 -0.4988 -0.3389 -0.5139
 3502SOL    HW122142   1.494   2.334   6.159  0.4972 -0.2123 -0.9825
 3502SOL    HW222143   1.517   2.417   6.032  0.6683 -1.4055 -0.1333
 3503SOL     OW22144   1.165   3.093   0.265  0.3741 -0.8535 -0.2906
 3503SOL    HW122145   1.078   3.131   0.274  1.1693  1.0470 -0.5742
 3503SOL    HW222146   1.202   3.154   0.201 -0.0143  0.1583  0.4509
 3504SOL     OW22147   2.194   1.227   6.673  0.1400 -0.3811 -0.2453
 3504SOL    HW122148   2.228   1.178   6.748  0.5982 -0.4131 -0.4700
 3504SOL    HW222149   2.146   1.158   6.627 -0.2819 -1.2646  1.5251
 3505SOL     OW22150   3.169   0.909   8.519  0.5044 -0.1875  0.1136
 3505SOL    HW122151   3.117   0.830   8.503 -1.6121  1.3686 -0.7598
 3505SOL    HW222152   3.208   0.885   8.603  0.0277 -0.6289  0.2069
 3506SOL     OW22153   4.317   0.956   9.851 -0.5307 -0.1158 -0.1455
 3506SOL    HW122154   4.310   0.959   9.756  0.2007  0.3684 -0.1784
 3506SOL    HW222155   4.392   0.898   9.865  0.8417  2.8660  4.7283
 3507SOL     OW22156   0.269   1.749   1.512 -0.2490 -0.1757  0.1250
 3507SOL    HW122157   0.262   1.672   1.568  1.3025  1.0225  1.9809
 3507SOL    HW222158   0.339   1.725   1.451 -2.0532 -0.1763 -1.9074
 3508SOL     OW22159   4.601   3.856  17.115  0.0497  0.4876  0.3429
 3508SOL    HW122160   4.629   3.849  17.024 -0.2137  3.6712  0.0415
 3508SOL    HW222161   4.574   3.765  17.128 -0.1704  0.3605 -1.0100
 3509SOL     OW22162   3.832   2.599  10.645 -0.4848  0.2553  0.3460
 3509SOL    HW122163   3.823   2.687  10.607  1.3335  1.0497  1.7227
 3509SOL    HW222164   3.871   2.551  10.572 -1.5490  0.1670 -0.1651
 3510SOL     OW22165   2.455   1.222   9.505  0.5624 -0.9363  0.2001
 3510SOL    HW122166   2.536   1.190   9.544  1.1180 -1.0350 -1.0396
 3510SOL    HW222167   2.447   1.162   9.431  1.5555  0.5201 -1.0864
 3511SOL     OW22168   2.753   2.286   1.946  0.0041 -0.1030  0.2073
 3511SOL    HW122169   2.795   2.226   2.008 -0.9093  0.1047  1.0156
 3511SOL    HW222170   2.688   2.242   1.892  0.8525  1.7910 -2.3406
 3512SOL     OW22171   1.015   4.543   0.397  0.6207  0.1073  0.7428
 3512SOL    HW122172   1.103   4.552   0.432  0.6625  1.3367  0.3204
 3512SOL    HW222173   0.963   4.540   0.477 -1.0911  2.5479 -0.2647
 3513SOL     OW22174   3.086   1.115  14.989 -0.5061  0.7006 -0.1344
 3513SOL    HW122175   3.181   1.115  14.980 -0.7287  2.8629 -2.3415
 3513SOL    HW222176   3.073   1.206  15.017 -1.1608  0.2194  1.1386
 3514SOL     OW22177   3.292   2.339   7.070  0.1794 -0.1395 -0.7964
 3514SOL    HW122178   3.294   2.424   7.114 -0.8614  0.6458 -2.2647
 3514SOL    HW222179   3.286   2.273   7.139  0.5719  0.3362 -0.3109
 3515SOL     OW22180   0.515   0.553   7.143  0.5788 -0.0183  0.1620
 3515SOL    HW122181   0.508   0.640   7.182 -0.8246 -0.5351  1.0546
 3515SOL    HW222182   0.605   0.525   7.127  0.3517 -0.5819 -0.1448
 3516SOL     OW22183   3.068   2.281   7.909  0.1007 -0.1547  0.8179
 3516SOL    HW122184   2.976   2.256   7.898 -0.5026  2.2652  0.3284
 3516SOL    HW222185   3.107   2.196   7.929 -0.1592 -0.5366 -0.2961
 3517SOL     OW22186   2.033   0.411   0.407  0.9727 -0.1290 -0.3271
 3517SOL    HW122187   2.012   0.318   0.399 -0.2996  0.1732 -0.6316
 3517SOL    HW222188   2.114   0.425   0.359  0.5215  0.0768 -1.0309
 3518SOL     OW22189   4.371   1.094  16.177  0.1050  0.1092 -0.1981
 3518SOL    HW122190   4.328   1.174  16.149 -1.0273 -1.3937 -2.7984
 3518SOL    HW222191   4.299   1.040  16.211  1.9546 -2.1014  0.2959
 3519SOL     OW22192   0.511   3.753   9.443 -0.4379  0.1512  0.2118
 3519SOL    HW122193   0.430   3.731   9.488  0.9248 -0.1223  2.5220
 3519SOL    HW222194   0.497   3.702   9.364 -0.7594 -0.9730  1.0069
 3520SOL     OW22195   4.296   4.467   4.474 -0.2575 -0.0189 -0.0069
 3520SOL    HW122196   4.327   4.402   4.412  0.2393 -0.7663  1.0108
 3520SOL    HW222197   4.229   4.416   4.520  0.5831 -0.8702  0.2671
 3521SOL     OW22198   1.866   1.243   5.671 -0.2025 -0.2448  0.2461
 3521SOL    HW122199   1.838   1.291   5.593 -0.9895  0.5972  1.0601
 3521SOL    HW222200   1.792   1.183   5.682  1.2949 -2.2973 -0.7499
 3522SOL     OW22201   1.250   4.086   3.749 -0.3961  0.1514 -0.0676
 3522SOL    HW122202   1.323   4.102   3.808 -0.3593  1.0449 -0.3654
 3522SOL    HW222203   1.288   4.118   3.667  1.3900 -3.0068 -0.4695
 3523SOL     OW22204   1.015   0.126   5.906  0.3253 -0.2586 -0.0168
 3523SOL    HW122205   0.921   0.138   5.894  0.6774  1.9388 -0.7491
 3523SOL    HW222206   1.036   0.199   5.965  1.4201 -1.5229  1.1438
 3524SOL     OW22207   0.486   2.167   3.706  0.4254  0.0368 -0.0630
 3524SOL    HW122208   0.541   2.129   3.774  1.7135  0.0471 -1.0978
 3524SOL    HW222209   0.417   2.200   3.765  0.2259  1.7802 -1.2587
 3525SOL     OW22210   3.247   1.156   2.946 -0.1973  0.1032 -0.1710
 3525SOL    HW122211   3.161   1.174   2.908 -0.2134 -0.2190 -0.2873
 3525SOL    HW222212   3.243   1.061   2.958 -1.5501  0.4252  2.0504
 3526SOL     OW22213   1.367   0.813   7.434 -0.4111 -0.1204  0.0978
 3526SOL    HW122214   1.339   0.817   7.526  1.9144  0.3034  0.7965
 3526SOL    HW222215   1.290   0.785   7.385 -2.4891 -0.1636  3.3995
 3527SOL     OW22216   0.143   2.996  16.015 -0.1427  0.6700  0.4533
 3527SOL    HW122217   0.167   3.048  15.939 -1.0097  0.3365 -0.0488
 3527SOL    HW222218   0.174   2.910  15.986 -2.1967  0.7028 -1.7766
 3528SOL     OW22219   2.815   1.688   9.335  0.3284  0.1053 -0.1114
 3528SOL    HW122220   2.741   1.715   9.388  0.3267 -1.8654  0.9156
 3528SOL    HW222221   2.828   1.766   9.281  0.3721 -0.2048 -0.5481
 3529SOL     OW22222   0.750   0.740   0.794  0.5322  0.0290 -0.3572
 3529SOL    HW122223   0.694   0.800   0.842  1.8298  0.6248  0.4151
 3529SOL    HW222224   0.838   0.749   0.832 -0.4764  1.2992  1.6373
 3530SOL     OW22225   2.403   0.013  12.966  0.1696 -0.6429  0.8215
 3530SOL    HW122226   2.466   4.680  12.954  0.2708 -0.1561 -1.5839
 3530SOL    HW222227   2.329   4.705  13.006 -1.3373  0.7879 -0.3090
 3531SOL     OW22228   3.334   1.317   2.090  0.1263  0.5713  0.3623
 3531SOL    HW122229   3.247   1.313   2.129 -0.1511  0.1750 -0.3041
 3531SOL    HW222230   3.335   1.360   2.004 -1.2926 -0.3332 -0.1039
 3532SOL     OW22231   3.986   4.115   5.911  0.0848  0.7091  0.3454
 3532SOL    HW122232   4.003   4.026   5.939 -0.8086  0.3013 -0.3983
 3532SOL    HW222233   4.075   4.138   5.885 -0.1238  0.9242 -0.1876
 3533SOL     OW22234   0.820   4.624   3.165 -0.1686  0.1936  0.7058
 3533SOL    HW122235   0.793   4.536   3.140  0.8800 -0.5244  2.1346
 3533SOL    HW222236   0.819   4.658   3.075  0.1623 -1.5005  0.0683
 3534SOL     OW22237   0.226   3.578   7.252 -0.3887  0.7413  0.0912
 3534SOL    HW122238   0.302   3.610   7.301 -0.6470  2.9621 -0.9484
 3534SOL    HW222239   0.165   3.550   7.320 -0.0392 -2.3238 -0.8705
 3535SOL     OW22240   3.165   0.773   9.822 -0.5693 -0.2310 -0.1593
 3535SOL    HW122241   3.175   0.730   9.907  0.1510  0.9590  0.3467
 3535SOL    HW222242   3.225   0.847   9.822 -0.1103 -0.5949  0.9151
 3536SOL     OW22243   2.204   4.178   6.249 -0.0401  0.4620 -0.3920
 3536SOL    HW122244   2.209   4.192   6.154  0.4223  0.8425 -0.3093
 3536SOL    HW222245   2.156   4.095   6.252 -1.8680  1.7062  4.4985
 3537SOL     OW22246   2.957   2.120   6.715  0.2314  0.0990  0.4490
 3537SOL    HW122247   3.029   2.172   6.750  0.2919  0.1220  0.2925
 3537SOL    HW222248   3.004   2.046   6.677 -1.9230 -0.9318 -0.2024
 3538SOL     OW22249   2.807   2.163   2.688 -0.0382  0.0453  0.3955
 3538SOL    HW122250   2.766   2.105   2.624 -0.4670  1.7082 -0.8592
 3538SOL    HW222251   2.871   2.210   2.635 -0.3868 -0.5027 -0.5076
 3539SOL     OW22252   0.955   2.214   2.230  0.0149  0.2733 -0.1632
 3539SOL    HW122253   0.871   2.172   2.247  0.9781 -1.8368 -0.6309
 3539SOL    HW222254   1.011   2.162   2.288 -0.8324 -2.2584 -1.6049
 3540SOL     OW22255   0.599   0.845   4.096 -0.2842 -0.2198 -0.1519
 3540SOL    HW122256   0.604   0.789   4.018  0.6389 -1.5289  0.8694
 3540SOL    HW222257   0.555   0.783   4.154  2.5245 -1.9883  0.0338
 3541SOL     OW22258   3.303   1.390   0.223  0.5972 -0.3441 -0.4142
 3541SOL    HW122259   3.218   1.434   0.217  0.5950 -0.3823 -0.6457
 3541SOL    HW222260   3.298   1.342   0.140  1.3281  1.5381 -1.5448
 3542SOL     OW22261   1.407   3.954  13.555 -0.1848 -0.5960 -0.6198
 3542SOL    HW122262   1.359   3.882  13.596 -0.8220 -0.3934 -1.0069
 3542SOL    HW222263   1.500   3.932  13.563  0.5968  1.9164 -2.5587
 3543SOL     OW22264   0.863   3.352  17.350 -0.1067 -0.5813 -0.2432
 3543SOL    HW122265   0.844   3.353  17.256 -1.9798  3.5740  0.2037
 3543SOL    HW222266   0.906   3.432  17.379 -0.2059 -0.2940 -0.8893
 3544SOL     OW22267   0.167   2.709   0.504  0.6286  0.1733 -0.1980
 3544SOL    HW122268   0.242   2.748   0.460  2.0077 -3.1956 -0.7886
 3544SOL    HW222269   0.134   2.782   0.557  1.2245  0.0342  0.3635
 3545SOL     OW22270   2.844   4.585   4.182 -0.2883  0.5275  0.6395
 3545SOL    HW122271   2.824   4.545   4.267  2.2539 -0.0394  0.9602
 3545SOL    HW222272   2.758   4.609   4.147  0.2383 -0.5285 -1.4250
 3546SOL     OW22273   0.899   1.261  16.302 -0.1456 -0.1548 -0.2219
 3546SOL    HW122274   0.959   1.198  16.342 -0.6918  1.3389  2.9634
 3546SOL    HW222275   0.931   1.272  16.213  0.8019  0.9357  0.2534
 3547SOL     OW22276   0.709   1.087  12.737  0.0178  0.2889 -0.3070
 3547SOL    HW122277   0.785   1.030  12.748 -0.8001 -0.6661  0.3199
 3547SOL    HW222278   0.640   1.022  12.744  1.6934 -1.3219  1.0753
 3548SOL     OW22279   4.237   0.331  10.160  0.2556  0.0085 -0.4315
 3548SOL    HW122280   4.232   0.339  10.065 -2.7123 -3.5963 -0.5625
 3548SOL    HW222281   4.300   0.399  10.185 -0.1771  0.9891 -2.0504
 3549SOL     OW22282   3.080   3.692   1.032  0.5713 -0.4354 -0.2165
 3549SOL    HW122283   3.029   3.773   1.031 -0.4344 -1.0790 -2.2508
 3549SOL    HW222284   3.169   3.723   1.018 -0.0057  0.6297 -1.4429
 3550SOL     OW22285   4.668   4.196   2.441  0.2574 -0.3196 -0.2096
 3550SOL    HW122286   4.665   4.292   2.441 -0.0627 -0.3262 -2.0951
 3550SOL    HW222287   4.670   4.174   2.535  0.1187  1.0218  0.1087
 3551SOL     OW22288   3.911   4.541   4.832  0.0891 -1.2884 -0.2485
 3551SOL    HW122289   3.985   4.484   4.850  1.1811 -0.1007 -0.9735
 3551SOL    HW222290   3.889   4.573   4.920  0.0213  1.3935 -1.2312
 3552SOL     OW22291   1.270   3.130   9.906 -0.7447  0.3102  0.3631
 3552SOL    HW122292   1.335   3.186   9.863 -0.5911  1.8428  2.5829
 3552SOL    HW222293   1.311   3.119   9.992  0.7692  0.4972 -0.3390
 3553SOL     OW22294   1.381   3.619   8.935  0.3456  0.0046 -0.0059
 3553SOL    HW122295   1.437   3.571   8.996  0.8798 -0.2269 -0.6909
 3553SOL    HW222296   1.362   3.550   8.872 -0.0318  0.3198 -0.2408
 3554SOL     OW22297   0.807   2.214   3.297  0.3033 -0.2917  0.0568
 3554SOL    HW122298   0.766   2.127   3.294 -0.0431 -0.0133 -3.0721
 3554SOL    HW222299   0.757   2.250   3.371 -1.3159 -0.1478 -1.1099
 3555SOL     OW22300   1.362   3.549   5.985  0.3052 -0.5298 -0.0342
 3555SOL    HW122301   1.303   3.481   6.019 -2.1060  0.7315 -1.7021
 3555SOL    HW222302   1.328   3.568   5.898 -0.0199 -1.4332 -0.1048
 3556SOL     OW22303   4.533   1.389   7.465 -0.4973 -0.1306  0.1775
 3556SOL    HW122304   4.586   1.447   7.519  1.9274 -2.2522  0.1265
 3556SOL    HW222305   4.593   1.356   7.397 -1.7849  1.0492 -1.5331
 3557SOL     OW22306   3.513   2.388  13.505  0.9007  0.1261  0.5023
 3557SOL    HW122307   3.426   2.375  13.542  1.0874 -3.4107 -0.2703
 3557SOL    HW222308   3.504   2.341  13.422 -2.7623 -0.3179  1.1285
 3558SOL     OW22309   3.138   2.649   3.172 -0.6439 -0.0826  0.6849
 3558SOL    HW122310   3.137   2.628   3.079 -2.0892  1.7193  0.2908
 3558SOL    HW222311   3.070   2.716   3.179  1.5899  1.8992  3.5742
 3559SOL     OW22312   0.239   1.520   1.662 -0.1286  0.2149  0.3448
 3559SOL    HW122313   0.282   1.455   1.606  0.7582  0.8542  0.2850
 3559SOL    HW222314   0.151   1.481   1.665 -0.7261  1.4367 -1.4882
 3560SOL     OW22315   4.554   3.392   6.753  0.2222  0.0547  0.3337
 3560SOL    HW122316   4.543   3.330   6.824  0.7521 -2.0315 -1.3976
 3560SOL    HW222317   4.476   3.448   6.760  0.3396  0.4019 -1.0337
 3561SOL     OW22318   0.626   4.039   4.271  0.2791 -0.2828 -0.0360
 3561SOL    HW122319   0.635   4.123   4.316 -1.0132 -0.8984  1.3995
 3561SOL    HW222320   0.620   4.073   4.182 -1.6919  2.5242  1.1544
 3562SOL     OW22321   4.390   3.737  12.560  0.0354  0.0170 -0.5438
 3562SOL    HW122322   4.416   3.789  12.483 -0.2216  1.4864  0.3526
 3562SOL    HW222323   4.311   3.692  12.533 -0.1315 -1.2231  2.0534
 3563SOL     OW22324   1.710   4.205  13.253 -0.8340  0.4690 -1.0426
 3563SOL    HW122325   1.699   4.118  13.216  0.1302 -0.3551  0.6334
 3563SOL    HW222326   1.706   4.177  13.344 -1.6601 -0.2538 -1.2940
 3564SOL     OW22327   1.153   2.907   1.815  0.6466  0.8261 -0.3171
 3564SOL    HW122328   1.067   2.933   1.849  0.4046 -0.3981  0.0375
 3564SOL    HW222329   1.162   2.985   1.761 -1.7434  1.5465  0.3338
 3565SOL     OW22330   3.586   0.898   2.946 -0.3021 -0.2831  0.6924
 3565SOL    HW122331   3.553   0.845   2.874  1.8361 -0.4961 -0.1210
 3565SOL    HW222332   3.628   0.969   2.897 -0.9772  0.0624  0.5994
 3566SOL     OW22333   1.316   4.084   2.301 -0.0601  0.3248  0.1100
 3566SOL    HW122334   1.395   4.106   2.252  0.5140 -4.2241 -0.9522
 3566SOL    HW222335   1.342   4.074   2.393  0.1674 -1.0682 -0.1163
 3567SOL     OW22336   4.580   0.568   7.724  0.0323 -0.2069 -0.5672
 3567SOL    HW122337   4.648   0.620   7.680  1.1390 -0.8730  0.3530
 3567SOL    HW222338   4.600   0.599   7.812 -0.7978 -1.5127  0.0748
 3568SOL     OW22339   1.387   2.243   5.850 -0.4010  0.4470  0.7633
 3568SOL    HW122340   1.352   2.300   5.781 -0.6591 -0.3311  0.2484
 3568SOL    HW222341   1.408   2.292   5.930  2.2708  1.1785 -0.4069
 3569SOL     OW22342   2.876   4.016   3.869  0.2568 -0.0255  0.4511
 3569SOL    HW122343   2.885   4.009   3.774  0.6296  0.9830  0.4048
 3569SOL    HW222344   2.783   3.994   3.874 -0.4354  2.7624  0.0340
 3570SOL     OW22345   1.507   2.806   9.339 -0.5510  0.1114 -0.0340
 3570SOL    HW122346   1.526   2.857   9.418 -1.4714 -4.0765  2.9063
 3570SOL    HW222347   1.428   2.848   9.305  0.5855  1.1760 -1.3595
 3571SOL     OW22348   2.003   1.732   5.502  0.3439  0.4228 -0.4405
 3571SOL    HW122349   1.968   1.690   5.581 -0.0282  1.4927 -0.0337
 3571SOL    HW222350   2.096   1.709   5.510  0.3151  0.2308 -0.6516
 3572SOL     OW22351   1.953   1.807   9.108 -0.6036 -0.2733  0.1849
 3572SOL    HW122352   1.922   1.736   9.165 -1.6416  0.8119  0.9606
 3572SOL    HW222353   1.885   1.873   9.116 -1.0423 -0.7002 -0.0020
 3573SOL     OW22354   4.598   4.444   2.555  0.1766 -0.4709  0.4264
 3573SOL    HW122355   4.512   4.455   2.512  0.2484 -2.0506 -0.1465
 3573SOL    HW222356   4.565   4.450   2.644 -1.5347  0.5747 -0.2664
 3574SOL     OW22357   1.334   2.763   6.609  0.5004  0.5040  0.1038
 3574SOL    HW122358   1.352   2.797   6.696 -1.3042 -0.6596  0.9347
 3574SOL    HW222359   1.342   2.668   6.621 -1.1949  0.4568  0.8026
 3575SOL     OW22360   0.052   2.117   2.959 -0.1690  0.0891 -0.5502
 3575SOL    HW122361   0.010   2.031   2.966  2.4102 -1.2426 -1.3164
 3575SOL    HW222362   4.735   2.163   3.023  0.3688 -0.0194 -0.0197
 3576SOL     OW22363   3.380   2.175   9.407  0.2197  0.0287 -0.3087
 3576SOL    HW122364   3.449   2.232   9.444  1.3365 -0.7254 -1.2177
 3576SOL    HW222365   3.379   2.206   9.316 -0.9449  2.0729  0.3861
 3577SOL     OW22366   2.255   3.395   3.314  0.9442 -0.5927 -0.3515
 3577SOL    HW122367   2.201   3.384   3.236  1.0756 -1.0807 -0.3753
 3577SOL    HW222368   2.334   3.348   3.287  1.5802 -0.6200  1.5988
 3578SOL     OW22369   4.210   0.724   8.360 -0.1942  0.1736 -0.4216
 3578SOL    HW122370   4.291   0.718   8.309 -0.8421  2.8630 -1.7569
 3578SOL    HW222371   4.147   0.742   8.291  0.8340  0.7623 -1.2098
 3579SOL     OW22372   1.130   3.852  10.854 -0.7303  0.1167 -0.0551
 3579SOL    HW122373   1.192   3.925  10.852  0.4266 -0.8903 -1.1783
 3579SOL    HW222374   1.057   3.901  10.890 -1.1733 -1.6745  1.4755
 3580SOL     OW22375   3.604   4.674  12.965  0.2533 -0.7503  0.0836
 3580SOL    HW122376   3.632   4.609  12.901  1.8449  0.2981 -0.2886
 3580SOL    HW222377   3.688   4.696  13.005 -0.5862  0.2631  1.2982
 3581SOL     OW22378   4.443   1.757  12.540  0.2532 -0.5257 -0.3010
 3581SOL    HW122379   4.435   1.705  12.460  1.9677  0.0263 -0.8391
 3581SOL    HW222380   4.439   1.687  12.605 -0.9814  0.2652  0.4904
 3582SOL     OW22381   2.423   3.985   4.049  0.2727  0.0411 -0.1641
 3582SOL    HW122382   2.413   3.976   4.144 -0.3220  0.3445 -0.2035
 3582SOL    HW222383   2.337   3.960   4.016  0.8027  0.9021 -2.2261
 3583SOL     OW22384   2.911   2.221   2.433 -0.3634 -0.3939 -0.5107
 3583SOL    HW122385   2.991   2.242   2.384 -0.1627  1.4758  0.6305
 3583SOL    HW222386   2.844   2.265   2.381 -0.6069  0.5390  0.5800
 3584SOL     OW22387   2.500   2.317   4.415 -0.3463  0.0996  0.3367
 3584SOL    HW122388   2.542   2.403   4.422 -1.0347  0.4318  0.4088
 3584SOL    HW222389   2.510   2.285   4.505  1.5460  0.2618  0.1734
 3585SOL     OW22390   1.029   0.546   3.548  0.3640 -0.2708  0.2489
 3585SOL    HW122391   1.068   0.496   3.476 -1.0839  0.0592 -0.7612
 3585SOL    HW222392   1.109   0.556   3.599  0.3531 -0.5986  0.3305
 3586SOL     OW22393   0.407   2.701   6.870 -0.2174  0.2728 -0.1933
 3586SOL    HW122394   0.466   2.748   6.812 -0.5742 -1.3247 -1.8619
 3586SOL    HW222395   0.352   2.663   6.802  0.4128 -1.5906  0.3533
 3587SOL     OW22396   3.117   3.424  17.630 -0.2476 -0.1954  0.4509
 3587SOL    HW122397   3.194   3.396  17.581 -0.9899  0.7246 -1.2508
 3587SOL    HW222398   3.054   3.418  17.558  0.6516 -2.3044 -0.1423
 3588SOL     OW22399   1.019   0.051   2.192 -0.5540  0.1043 -0.6120
 3588SOL    HW122400   0.943   0.019   2.144 -1.4351 -0.2143  0.9887
 3588SOL    HW222401   1.056   0.101   2.119  2.1460  1.4229  1.6623
 3589SOL     OW22402   1.726   2.607   0.897  0.3250  0.8203  0.1679
 3589SOL    HW122403   1.797   2.554   0.860 -0.4431  0.1058 -0.2627
 3589SOL    HW222404   1.664   2.596   0.826  1.2726 -0.4747 -0.4628
 3590SOL     OW22405   2.354   0.232  14.556  0.5319 -0.7760 -0.1007
 3590SOL    HW122406   2.263   0.262  14.555  0.6472 -0.4727 -1.4016
 3590SOL    HW222407   2.395   0.247  14.471  1.7925  1.8689  0.9653
 3591SOL     OW22408   4.456   0.359   2.555  0.2024  0.3228 -0.4591
 3591SOL    HW122409   4.482   0.402   2.473  1.6768 -1.8939 -1.1543
 3591SOL    HW222410   4.524   0.394   2.612  0.3036  0.0595 -0.4160
 3592SOL     OW22411   2.015   3.354   2.342 -0.0682 -0.2530 -0.1019
 3592SOL    HW122412   1.940   3.411   2.325 -0.5143 -0.6334  0.6002
 3592SOL    HW222413   2.000   3.278   2.285  1.7460 -1.1058  0.5544
 3593SOL     OW22414   3.332   1.681   3.249  0.4564  0.1601  0.1431
 3593SOL    HW122415   3.424   1.656   3.254  0.9356  1.6395 -1.2677
 3593SOL    HW222416   3.318   1.662   3.156 -1.6812 -1.5166  0.8233
 3594SOL     OW22417   1.463   1.138   2.658  0.0044 -0.0113 -0.4006
 3594SOL    HW122418   1.489   1.168   2.571 -1.0542  0.1419 -0.6547
 3594SOL    HW222419   1.528   1.070   2.677 -0.7374 -0.1033  1.8188
 3595SOL     OW22420   0.212   3.800   5.440 -1.1601  0.6434  0.4263
 3595SOL    HW122421   0.160   3.790   5.520 -0.4636  2.7514  1.1399
 3595SOL    HW222422   0.134   3.788   5.386 -1.4028 -0.0229  0.9276
 3596SOL     OW22423   3.497   2.915   4.955 -0.1587 -0.0073  0.2661
 3596SOL    HW122424   3.563   2.878   4.897 -2.0469  0.6240 -2.2745
 3596SOL    HW222425   3.526   2.884   5.041  0.5618 -3.7034 -1.3585
 3597SOL     OW22426   2.288   3.291   8.246 -0.1658  0.2557  0.4053
 3597SOL    HW122427   2.228   3.242   8.190  0.5100 -0.7663  0.5858
 3597SOL    HW222428   2.362   3.231   8.251 -0.8121 -0.5085  0.6756
 3598SOL     OW22429   0.436   0.679   1.857  0.5855  0.2520 -0.0818
 3598SOL    HW122430   0.431   0.750   1.922 -1.6176 -0.8186  0.9209
 3598SOL    HW222431   0.393   0.608   1.904  0.4580  0.9002  0.7828
 3599SOL     OW22432   3.989   3.670   8.895 -0.0659 -0.6896  0.4895
 3599SOL    HW122433   4.041   3.726   8.838 -1.1647 -1.3318 -1.1150
 3599SOL    HW222434   4.035   3.690   8.977  0.9339 -2.9450  0.4856
 3600SOL     OW22435   0.256   4.615   3.089 -0.3970 -0.0339  0.3788
 3600SOL    HW122436   0.186   4.582   3.033 -0.2726 -1.5305  1.1077
 3600SOL    HW222437   0.210   4.684   3.137  0.5190  1.1845 -0.4714
 3601SOL     OW22438   4.539   3.423  16.200  0.2432 -0.2391 -0.4161
 3601SOL    HW122439   4.577   3.506  16.172  2.0412 -0.7472  0.5273
 3601SOL    HW222440   4.624   3.378  16.198  1.1759  1.4979  0.2144
 3602SOL     OW22441   4.702   2.139   1.271  0.0867  0.0111  0.0630
 3602SOL    HW122442   0.010   2.151   1.188 -0.6088 -0.4241 -0.3786
 3602SOL    HW222443   4.719   2.046   1.287  2.0807  0.1626 -1.1816
 3603SOL     OW22444   4.604   1.094   2.823 -0.7866 -0.1105  0.3490
 3603SOL    HW122445   4.672   1.137   2.874 -0.5709  0.8619 -0.7490
 3603SOL    HW222446   4.553   1.055   2.894 -1.4038 -1.3378 -0.7683
 3604SOL     OW22447   0.282   4.424   4.360 -0.2811  0.5141 -0.1439
 3604SOL    HW122448   0.236   4.372   4.426  1.1760  0.2461  0.6757
 3604SOL    HW222449   0.320   4.495   4.412 -0.5379 -1.1687  2.3322
 3605SOL     OW22450   4.365   2.120  12.337  0.3886 -0.3460  0.5170
 3605SOL    HW122451   4.299   2.051  12.343 -0.4299  0.5459  1.7720
 3605SOL    HW222452   4.399   2.093  12.251 -0.1485 -0.3250  0.2973
 3606SOL     OW22453   0.723   0.133   3.414 -0.3296  0.3147 -0.2109
 3606SOL    HW122454   0.755   0.057   3.463 -0.9791  0.5985  0.6502
 3606SOL    HW222455   0.789   0.144   3.345  1.2451 -0.3288  1.1913
 3607SOL     OW22456   0.511   0.184   4.931 -0.1132  0.0869  0.0613
 3607SOL    HW122457   0.492   0.114   4.993  1.0516 -0.6129 -0.3861
 3607SOL    HW222458   0.534   0.261   4.985 -2.1343 -0.9101  2.3556
 3608SOL     OW22459   1.570   2.380   7.034  0.4225 -0.0767  0.4346
 3608SOL    HW122460   1.649   2.326   7.042 -0.4213 -1.3168  0.2455
 3608SOL    HW222461   1.495   2.323   7.052  0.1419  0.0746 -0.2421
 3609SOL     OW22462   2.242   0.955   5.604  0.6800  0.8336 -0.2850
 3609SOL    HW122463   2.187   0.913   5.538 -0.4035 -2.4391  2.7111
 3609SOL    HW222464   2.209   0.924   5.688 -1.1697  0.6671 -1.0910
 3610SOL     OW22465   1.503   0.668   2.599  0.1421  0.3101 -0.0770
 3610SOL    HW122466   1.523   0.747   2.648  1.5487 -0.0878  0.0075
 3610SOL    HW222467   1.526   0.596   2.658  3.1055  0.9737 -0.4090
 3611SOL     OW22468   1.975   4.581  11.463  0.2283 -0.7761  0.2751
 3611SOL    HW122469   1.956   4.582  11.557 -1.6687 -2.9015 -0.0864
 3611SOL    HW222470   2.030   4.659  11.451 -2.2611  1.1752  1.6754
 3612SOL     OW22471   0.613   0.704   3.854  0.3885 -0.6042  0.0643
 3612SOL    HW122472   0.631   0.769   3.786 -0.5196  1.2554  1.5922
 3612SOL    HW222473   0.686   0.643   3.851  1.6571  0.9828 -2.1768
 3613SOL     OW22474   0.307   0.170   6.021 -0.2187  0.3278 -0.3608
 3613SOL    HW122475   0.290   0.078   6.043 -0.8313  0.9513  1.8339
 3613SOL    HW222476   0.222   0.208   6.043  0.4819  0.6826  1.7293
 3614SOL     OW22477   0.062   2.081  10.958 -0.4950  0.4735 -0.1376
 3614SOL    HW122478   0.076   2.170  10.989 -2.1679  0.1304  1.6131
 3614SOL    HW222479   0.116   2.078  10.879 -0.1641  0.2423  0.1005
 3615SOL     OW22480   3.585   0.400   5.370 -1.0064 -0.2015  0.1081
 3615SOL    HW122481   3.530   0.390   5.292 -0.2801 -1.1084 -0.2860
 3615SOL    HW222482   3.567   0.320   5.418  0.8815 -1.3127 -1.0632
 3616SOL     OW22483   3.101   0.305   8.271  0.0990 -0.1682 -0.4960
 3616SOL    HW122484   3.018   0.326   8.314 -0.0241 -0.0033 -0.8117
 3616SOL    HW222485   3.148   0.375   8.316  1.5839  0.2173 -2.6823
 3617SOL     OW22486   1.147   0.170   9.084 -0.0534 -0.2238 -0.0406
 3617SOL    HW122487   1.165   0.249   9.034  1.7887  0.9815  2.5061
 3617SOL    HW222488   1.231   0.128   9.066 -0.0597 -0.1530 -0.2244
 3618SOL     OW22489   3.225   0.209  13.994 -0.6006 -0.4841  0.1483
 3618SOL    HW122490   3.291   0.211  14.063 -1.9398  3.4427  1.3251
 3618SOL    HW222491   3.225   0.303  13.976 -0.5977 -0.8377 -1.6614
 3619SOL     OW22492   3.247   0.135   4.969  0.1854 -0.0445  0.9544
 3619SOL    HW122493   3.309   0.068   4.943 -0.0027  0.2258 -0.1859
 3619SOL    HW222494   3.200   0.106   5.048  0.4642  1.1598  1.5670
 3620SOL     OW22495   1.238   3.813  17.570 -0.5410  0.0749  0.2440
 3620SOL    HW122496   1.170   3.780  17.511 -0.4562  0.5166 -0.1088
 3620SOL    HW222497   1.189   3.873  17.626  2.4086  0.0097  2.8660
 3621SOL     OW22498   3.086   3.442  13.856  0.2119  0.0215 -1.0231
 3621SOL    HW122499   3.057   3.514  13.912  0.8643 -0.2409 -0.3409
 3621SOL    HW222500   3.124   3.492  13.784 -2.0133  4.1976  0.7074
 3622SOL     OW22501   0.196   2.364   8.911  0.2577  0.0705  0.3640
 3622SOL    HW122502   0.114   2.410   8.895  0.8271  0.0963 -2.5122
 3622SOL    HW222503   0.255   2.430   8.873  0.4045  0.0700  0.5900
 3623SOL     OW22504   0.945   1.714   3.572 -0.1819  0.7022 -0.1268
 3623SOL    HW122505   0.877   1.689   3.635  1.6927  0.5330  1.8146
 3623SOL    HW222506   0.921   1.804   3.550 -1.5510  0.0045 -1.4227
 3624SOL     OW22507   3.701   2.053  13.534 -0.0522 -0.4979 -0.2356
 3624SOL    HW122508   3.655   1.980  13.492  0.0109 -0.0934 -1.0072
 3624SOL    HW222509   3.776   2.052  13.474 -1.3370 -0.2657 -1.8534
 3625SOL     OW22510   0.833   2.300   5.898 -0.4663 -0.2875  0.1043
 3625SOL    HW122511   0.923   2.293   5.928 -0.2327  1.3582 -0.1880
 3625SOL    HW222512   0.834   2.300   5.802  0.3751  0.3570  0.1170
 3626SOL     OW22513   0.285   0.457   9.691  0.5077 -0.2582 -0.3778
 3626SOL    HW122514   0.308   0.369   9.723 -2.5658 -1.0178 -0.2912
 3626SOL    HW222515   0.193   0.440   9.711  0.2548  1.5594 -0.0046
 3627SOL     OW22516   4.660   0.753   5.471 -0.2651 -0.7397  0.2071
 3627SOL    HW122517   4.637   0.723   5.382 -1.3200 -0.0150  0.2393
 3627SOL    HW222518   4.715   0.830   5.460 -0.0026 -0.9542  0.0042
 3628SOL     OW22519   1.510   0.841   4.587  0.4975 -0.1205  0.2626
 3628SOL    HW122520   1.419   0.822   4.563 -0.0103  2.8310 -0.1907
 3628SOL    HW222521   1.540   0.897   4.515  1.6314 -0.1764  0.6927
 3629SOL     OW22522   0.100   2.588  14.186  0.3382 -0.1975  0.2964
 3629SOL    HW122523   0.042   2.619  14.117 -0.5982 -1.2368  0.6240
 3629SOL    HW222524   0.084   2.494  14.189 -1.2858 -0.0019 -2.6002
 3630SOL     OW22525   4.571   4.264   1.777 -0.1929 -0.5792  0.1214
 3630SOL    HW122526   4.590   4.355   1.800  1.5878 -0.9581  0.1607
 3630SOL    HW222527   4.642   4.237   1.719  0.9055 -0.9725  1.6183
 3631SOL     OW22528   2.119   3.023   5.269 -0.6665  0.3618 -0.3474
 3631SOL    HW122529   2.029   2.993   5.286  0.4683 -2.8984 -0.1169
 3631SOL    HW222530   2.175   2.964   5.319  1.0941  2.9638  0.7170
 3632SOL     OW22531   0.320   0.743   6.733  0.0082  0.2562  0.5478
 3632SOL    HW122532   0.382   0.718   6.664  0.1725 -0.7029  1.0442
 3632SOL    HW222533   0.250   0.777   6.677 -2.0116 -1.8524  1.7665
 3633SOL     OW22534   1.977   1.521   8.402  0.2219  0.1418  0.0089
 3633SOL    HW122535   2.012   1.566   8.325  1.7845 -1.7021 -0.3650
 3633SOL    HW222536   1.972   1.592   8.466  0.5762 -1.1645  1.4919
 3634SOL     OW22537   4.140   2.617   0.485 -0.1260  0.5503  0.1732
 3634SOL    HW122538   4.154   2.531   0.525  0.0750  1.1774  1.4507
 3634SOL    HW222539   4.218   2.660   0.521  0.1805 -0.0298  0.2198
 3635SOL     OW22540   1.229   1.958  17.473  0.2294 -0.0697  0.5775
 3635SOL    HW122541   1.187   2.031  17.518  2.0121  1.0393  0.4707
 3635SOL    HW222542   1.151   1.918  17.434  0.5726  1.0542 -1.2605
 3636SOL     OW22543   0.335   1.595   2.329 -0.1860 -0.1582 -0.0487
 3636SOL    HW122544   0.372   1.513   2.361  1.5796  0.7876  0.3487
 3636SOL    HW222545   0.301   1.565   2.245  0.0439 -0.4301 -0.0439
 3637SOL     OW22546   0.930   2.036   8.388 -0.6637  0.0752  0.0717
 3637SOL    HW122547   0.897   2.010   8.474 -1.1427 -0.3247 -0.2329
 3637SOL    HW222548   1.025   2.030   8.397 -0.4711 -0.2960 -2.1259
 3638SOL     OW22549   0.450   0.245   9.013  0.4816  0.2990 -0.0258
 3638SOL    HW122550   0.520   0.260   9.078 -0.1202  0.8025  0.5101
 3638SOL    HW222551   0.420   0.336   9.010 -2.5670 -0.6822  1.6992
 3639SOL     OW22552   0.009   2.392   8.601 -0.3135  0.0367  0.0998
 3639SOL    HW122553   4.734   2.368   8.509  1.7495 -0.2528 -0.1139
 3639SOL    HW222554   0.007   2.307   8.646  2.3055  0.0894  0.2980
 3640SOL     OW22555   1.570   4.338  14.315  0.6666 -0.2571  0.6386
 3640SOL    HW122556   1.614   4.421  14.297  0.0683  0.2194  1.3692
 3640SOL    HW222557   1.486   4.342  14.271  0.2086  2.6952  1.7748
 3641SOL     OW22558   0.466   4.160   2.333 -0.0595  0.1335 -0.8022
 3641SOL    HW122559   0.514   4.088   2.376 -2.8972 -0.7496  0.9063
 3641SOL    HW222560   0.537   4.223   2.342  0.3418 -0.6491  1.5691
 3642SOL     OW22561   3.636   1.565  13.068 -0.4421 -0.2922 -0.0730
 3642SOL    HW122562   3.622   1.593  12.978 -0.4341  1.0664  0.3573
 3642SOL    HW222563   3.653   1.474  13.042 -0.4340  0.3318 -2.2118
 3643SOL     OW22564   4.589   0.936  16.220 -0.0116 -0.2267 -0.4651
 3643SOL    HW122565   4.652   0.979  16.163 -1.5019  0.7981 -1.3627
 3643SOL    HW222566   4.512   0.985  16.189 -0.2274  1.5823  2.9248
 3644SOL     OW22567   1.534   1.749   5.001  0.6493 -0.2902  0.1484
 3644SOL    HW122568   1.520   1.655   5.017  0.4838 -0.1944  0.5642
 3644SOL    HW222569   1.451   1.787   4.971  0.5610 -1.8485 -1.5899
 3645SOL     OW22570   4.289   3.141   7.868  0.4990  0.2170 -0.6555
 3645SOL    HW122571   4.301   3.225   7.822  0.8060  0.7752  0.4533
 3645SOL    HW222572   4.199   3.154   7.897  0.6766  0.9972 -0.4584
 3646SOL     OW22573   4.053   1.058   9.224  0.6050 -0.2062  0.0406
 3646SOL    HW122574   4.024   1.138   9.179 -1.1615 -0.6577  0.3736
 3646SOL    HW222575   4.117   1.093   9.286  1.0608 -0.1695 -0.4474
 3647SOL     OW22576   1.633   3.452   7.008 -0.0788 -0.4211 -0.0233
 3647SOL    HW122577   1.728   3.446   7.006 -0.0282  1.0405 -1.7574
 3647SOL    HW222578   1.621   3.383   6.942 -2.1183 -0.2304  0.1557
 3648SOL     OW22579   3.359   1.732  14.651 -0.4686 -0.1658 -0.5895
 3648SOL    HW122580   3.404   1.657  14.612 -1.0524 -0.3173 -0.9762
 3648SOL    HW222581   3.429   1.796  14.664 -1.6121  1.2020 -1.2205
 3649SOL     OW22582   4.426   0.009   8.209 -0.4216 -0.2287 -0.2498
 3649SOL    HW122583   4.391   0.021   8.298 -2.9641 -0.2174 -1.2302
 3649SOL    HW222584   4.449   0.101   8.195 -1.9251 -0.0265 -1.4255
 3650SOL     OW22585   1.283   1.053   5.328 -0.1335  0.0019  0.2234
 3650SOL    HW122586   1.318   1.135   5.363 -1.2727  0.1868  0.9539
 3650SOL    HW222587   1.340   0.994   5.378 -0.4087 -1.0962 -0.7564
 3651SOL     OW22588   3.401   2.354   0.738 -0.1906  0.4423 -0.1400
 3651SOL    HW122589   3.338   2.341   0.808  0.0410  1.6368  0.2932
 3651SOL    HW222590   3.424   2.447   0.743 -2.8640  1.1627 -1.3571
 3652SOL     OW22591   3.001   4.695   3.065 -0.0379 -0.2589 -0.4126
 3652SOL    HW122592   3.031   4.608   3.041 -1.9429 -0.4852 -1.9642
 3652SOL    HW222593   2.910   4.693   3.037  0.4280  1.8880 -2.1676
 3653SOL     OW22594   0.515   0.137   6.292  0.3029  0.8482 -0.2844
 3653SOL    HW122595   0.450   0.080   6.251  0.8478  0.6882 -0.9098
 3653SOL    HW222596   0.461   0.215   6.304 -1.0302 -0.3568  1.6079
 3654SOL     OW22597   3.522   2.159   5.598 -0.5013 -0.3092 -0.2791
 3654SOL    HW122598   3.510   2.239   5.547 -2.8021 -0.3299  0.2486
 3654SOL    HW222599   3.551   2.109   5.522  0.6488 -0.9855  0.6042
 3655SOL     OW22600   2.093   4.536   3.555 -0.1485 -0.1044  0.5008
 3655SOL    HW122601   2.154   4.577   3.493  0.4583 -1.1750  0.3822
 3655SOL    HW222602   2.116   4.575   3.640  3.3802 -1.5420  0.2238
 3656SOL     OW22603   1.876   0.183   2.901 -0.5457  0.3057 -0.1194
 3656SOL    HW122604   1.934   0.185   2.825  0.0286  0.3121  0.3184
 3656SOL    HW222605   1.822   0.107   2.876 -2.5131  3.0978 -4.3784
 3657SOL     OW22606   2.674   1.486   5.562  0.0582 -0.4517  0.0031
 3657SOL    HW122607   2.687   1.405   5.511  0.7100  0.7751 -1.7791
 3657SOL    HW222608   2.737   1.543   5.518  1.3719 -1.8460  0.0831
 3658SOL     OW22609   1.324   2.978   9.677 -0.0153 -0.5813  0.0243
 3658SOL    HW122610   1.289   3.049   9.624 -0.6558 -1.1878 -0.3635
 3658SOL    HW222611   1.292   3.009   9.762  0.0935 -0.7341  0.1223
 3659SOL     OW22612   3.152   3.292   3.001  0.7664  0.5215 -0.4162
 3659SOL    HW122613   3.120   3.373   2.962  0.8416  0.4435 -0.6459
 3659SOL    HW222614   3.068   3.247   3.007  0.9695 -0.1939 -2.7933
 3660SOL     OW22615   1.277   2.010   8.851  0.1488 -0.3181  0.6346
 3660SOL    HW122616   1.201   1.985   8.905 -0.6549  3.4322  1.2461
 3660SOL    HW222617   1.354   2.010   8.908 -0.1542  0.3213  1.0410
 3661SOL     OW22618   4.704   4.460   5.977  0.0250  1.0108  0.1555
 3661SOL    HW122619   4.630   4.403   5.995  1.7029 -1.2788 -0.1847
 3661SOL    HW222620   0.027   4.392   6.007 -0.8501 -0.2692 -1.0111
 3662SOL     OW22621   4.041   2.675   6.307 -0.3369  0.1559 -0.0398
 3662SOL    HW122622   4.020   2.639   6.221  1.4834 -1.1180  0.0476
 3662SOL    HW222623   3.954   2.710   6.328 -0.1852 -0.1821  1.1629
 3663SOL     OW22624   0.298   0.143   6.928 -0.1348  0.0936 -0.0495
 3663SOL    HW122625   0.225   0.194   6.963  1.1399  2.6633 -1.1362
 3663SOL    HW222626   0.357   0.149   7.003  1.5973  1.3182 -1.5295
 3664SOL     OW22627   0.718   1.844   5.691 -0.1673  0.3942 -0.7258
 3664SOL    HW122628   0.763   1.889   5.619  0.0008 -2.2745 -2.2610
 3664SOL    HW222629   0.770   1.873   5.766  2.4056  0.2212 -2.4561
 3665SOL     OW22630   2.282   1.511  14.755 -0.4381  0.1066  0.1540
 3665SOL    HW122631   2.246   1.596  14.730  0.2421 -0.0081 -1.2356
 3665SOL    HW222632   2.252   1.453  14.685 -1.0662 -1.6985  1.9232
 3666SOL     OW22633   3.375   4.206   1.252  0.0623  0.4021 -0.2885
 3666SOL    HW122634   3.280   4.195   1.263  0.4074 -2.0615  0.1719
 3666SOL    HW222635   3.411   4.127   1.291  0.6124  0.9916  0.4008
 3667SOL     OW22636   4.272   0.418   7.220  0.2191  0.3340  0.3391
 3667SOL    HW122637   4.290   0.324   7.213 -2.4061 -0.2559  1.1400
 3667SOL    HW222638   4.250   0.440   7.129  0.7352  1.1082  0.4067
 3668SOL     OW22639   1.369   2.017   9.912  0.1238 -0.1612 -0.3499
 3668SOL    HW122640   1.454   2.000   9.871  0.6730  0.7545  0.4087
 3668SOL    HW222641   1.316   1.939   9.897  1.3711 -1.1378  0.3428
 3669SOL     OW22642   1.647   3.644   5.168  0.0161  0.2454 -0.7500
 3669SOL    HW122643   1.704   3.597   5.229  1.6355  1.5516 -1.2552
 3669SOL    HW222644   1.590   3.696   5.224  1.1327 -0.9475  1.5002
 3670SOL     OW22645   3.637   1.629  10.051  0.4094  0.0832  0.2827
 3670SOL    HW122646   3.576   1.692  10.013 -0.0182  0.5078  1.6761
 3670SOL    HW222647   3.658   1.681  10.129  4.7275 -1.6235  0.2615
 3671SOL     OW22648   1.845   2.492   9.278 -0.1171 -0.8005  0.5242
 3671SOL    HW122649   1.755   2.517   9.301 -0.9393 -1.1243 -2.3668
 3671SOL    HW222650   1.878   2.573   9.240  0.9749 -0.1195  2.9042
 3672SOL     OW22651   1.501   4.574   4.809  0.3220  0.4719 -0.2310
 3672SOL    HW122652   1.498   4.634   4.883  1.2669 -1.0673  1.0439
 3672SOL    HW222653   1.415   4.596   4.771  1.0874  1.5631 -1.3349
 3673SOL     OW22654   3.014   2.644   5.744 -0.0920 -0.1698 -0.0680
 3673SOL    HW122655   2.939   2.664   5.800  0.7735  0.3729  0.9002
 3673SOL    HW222656   2.974   2.660   5.659 -0.2348 -0.1697  0.0005
 3674SOL     OW22657   3.262   0.799   2.880  0.2247  0.3692  0.1792
 3674SOL    HW122658   3.341   0.746   2.888 -1.0735 -1.3985  1.3049
 3674SOL    HW222659   3.222   0.768   2.798  0.1753  0.4496  0.1729
 3675SOL     OW22660   4.736   1.574   9.309 -0.0576  0.0619  0.0488
 3675SOL    HW122661   0.070   1.636   9.298 -1.2166  1.6909  1.6074
 3675SOL    HW222662   4.670   1.643   9.309 -0.9957 -0.8308 -0.4800
 3676SOL     OW22663   2.309   4.527  13.134 -0.4111 -0.3888 -0.1872
 3676SOL    HW122664   2.276   4.461  13.072  3.0707  1.8928 -4.5015
 3676SOL    HW222665   2.265   4.511  13.218 -1.6939  0.6373 -0.6645
 3677SOL     OW22666   4.581   0.257   8.532 -0.2805 -0.1152 -0.5201
 3677SOL    HW122667   4.634   0.203   8.590 -2.6106 -1.1387  0.6463
 3677SOL    HW222668   4.490   0.232   8.546 -0.2571 -0.9223 -1.7608
 3678SOL     OW22669   3.681   3.526  15.655 -0.1419  0.1704 -0.3640
 3678SOL    HW122670   3.666   3.433  15.639  1.4407 -0.2284  0.4703
 3678SOL    HW222671   3.669   3.524  15.750  0.5462  0.1225 -0.2788
 3679SOL     OW22672   1.551   3.227   5.751  0.3576 -0.5850  0.4491
 3679SOL    HW122673   1.561   3.132   5.761  2.1816 -0.0551  3.6578
 3679SOL    HW222674   1.517   3.238   5.663 -1.4268 -0.1732  1.1984
 3680SOL     OW22675   0.027   3.094   4.565  0.1627  0.5733 -0.2345
 3680SOL    HW122676   0.113   3.130   4.587  0.8403 -0.0878 -1.7162
 3680SOL    HW222677   0.003   3.136   4.482 -0.4340  0.1401 -0.2788
 3681SOL     OW22678   4.383   1.481   7.838  0.0681 -0.1139 -0.3447
 3681SOL    HW122679   4.376   1.539   7.763 -0.0701 -0.9282 -0.9669
 3681SOL    HW222680   4.444   1.526   7.896 -1.1727 -0.3692  1.1643
 3682SOL     OW22681   3.126   1.421   2.455  0.0109 -0.6483 -0.0643
 3682SOL    HW122682   3.099   1.513   2.456  0.7576 -0.4228 -0.4410
 3682SOL    HW222683   3.214   1.432   2.419  0.8331 -1.0523  1.8265
 3683SOL     OW22684   1.534   4.141   2.152  0.1616  0.0654  0.1224
 3683SOL    HW122685   1.517   4.202   2.080  1.7417  1.0726  0.6189
 3683SOL    HW222686   1.603   4.191   2.196  2.0713 -1.4715 -1.1292
 3684SOL     OW22687   4.511   2.483   9.677 -0.0917  0.2775  0.1289
 3684SOL    HW122688   4.520   2.571   9.714  0.0323 -1.0000  3.1189
 3684SOL    HW222689   4.594   2.454   9.637 -0.0857  1.4874 -0.7423
 3685SOL     OW22690   2.600   0.036   3.222  0.1942  0.4090  0.3828
 3685SOL    HW122691   2.522   0.078   3.260 -0.3897  0.5930 -1.0205
 3685SOL    HW222692   2.559   4.695   3.186  1.2047 -0.4067  1.0071
 3686SOL     OW22693   1.897   3.570   4.928 -0.2373 -0.1533 -0.1638
 3686SOL    HW122694   1.815   3.557   4.881  0.1361 -1.1913 -0.5332
 3686SOL    HW222695   1.869   3.591   5.017 -1.7763  1.7641 -1.0973
 3687SOL     OW22696   1.738   3.045  11.905  0.2751  0.2082  0.3328
 3687SOL    HW122697   1.747   2.965  11.854 -1.9150  0.4638 -0.4162
 3687SOL    HW222698   1.833   3.057  11.915  0.4675 -0.2040 -1.0237
 3688SOL     OW22699   0.486   1.187   8.800  0.2435 -0.2106  0.2421
 3688SOL    HW122700   0.547   1.117   8.775 -0.1177 -0.6556  0.6275
 3688SOL    HW222701   0.395   1.158   8.794  0.3975 -0.5876 -0.3107
 3689SOL     OW22702   4.522   4.108   6.323  0.2131  0.0264  0.0188
 3689SOL    HW122703   4.517   4.043   6.393 -1.7827 -1.3190 -1.3623
 3689SOL    HW222704   4.539   4.185   6.377  0.2888  1.0584 -1.4757
 3690SOL     OW22705   2.328   2.240  16.005 -0.0242 -0.4819  0.6280
 3690SOL    HW122706   2.266   2.167  15.996  0.1016 -0.3650 -1.1442
 3690SOL    HW222707   2.371   2.223  16.089  1.2158 -2.9726 -0.5034
 3691SOL     OW22708   0.332   1.608   4.987 -0.1277 -0.3815  0.3184
 3691SOL    HW122709   0.416   1.615   5.032  0.4226  1.8100 -1.0321
 3691SOL    HW222710   0.289   1.545   5.045  0.9150 -2.6356 -1.3727
 3692SOL     OW22711   3.394   3.834  10.419  0.1215 -0.0915 -0.1491
 3692SOL    HW122712   3.422   3.857  10.508  0.1333 -2.3830  0.4294
 3692SOL    HW222713   3.324   3.899  10.409 -1.9485 -2.4579 -0.9864
 3693SOL     OW22714   0.737   3.321  11.154 -0.0293 -0.8816 -0.2279
 3693SOL    HW122715   0.726   3.244  11.099  0.4607 -1.6019  0.6801
 3693SOL    HW222716   0.782   3.282  11.229  0.1884 -1.0876 -0.4681
 3694SOL     OW22717   2.458   1.538  13.977 -0.1149  0.0505 -0.3306
 3694SOL    HW122718   2.427   1.456  13.937  0.4921  0.5593 -1.8514
 3694SOL    HW222719   2.379   1.582  14.007  0.1815 -0.0940  0.6773
 3695SOL     OW22720   1.118   1.505   3.048 -0.2491 -0.5979  0.2772
 3695SOL    HW122721   1.205   1.543   3.037 -1.2091  1.8823  1.2041
 3695SOL    HW222722   1.101   1.530   3.139 -2.8272 -0.7390 -0.1532
 3696SOL     OW22723   2.866   0.644   3.187  0.1202  0.0586 -0.0167
 3696SOL    HW122724   2.901   0.573   3.240  1.3714 -1.6882 -3.1649
 3696SOL    HW222725   2.884   0.714   3.249 -0.6418  0.6137 -0.4142
 3697SOL     OW22726   1.035   4.022   7.466  0.0789  0.7229 -0.7539
 3697SOL    HW122727   1.001   3.937   7.495 -0.6310  1.0096 -0.7391
 3697SOL    HW222728   1.056   4.073   7.544 -0.6808 -1.7203  1.0789
 3698SOL     OW22729   2.065   2.624   5.909 -0.0420 -0.1252 -0.6166
 3698SOL    HW122730   2.013   2.680   5.852  0.5202  0.4650 -0.5413
 3698SOL    HW222731   2.008   2.560   5.951  1.7897 -1.7937 -0.6514
 3699SOL     OW22732   3.248   3.104  10.547 -0.1596 -0.5042 -0.2517
 3699SOL    HW122733   3.268   3.045  10.620  0.3339  0.7528  0.6298
 3699SOL    HW222734   3.174   3.054  10.512 -1.8731  2.7498 -1.2830
 3700SOL     OW22735   2.574   3.488   9.065  0.5304  0.1994  0.2621
 3700SOL    HW122736   2.574   3.530   8.979 -1.8001 -1.6149 -0.6510
 3700SOL    HW222737   2.502   3.539   9.102  0.1851 -1.7004  2.2255
 3701SOL     OW22738   4.173   0.612   2.966  0.1870 -0.4009  0.0022
 3701SOL    HW122739   4.211   0.694   2.934 -1.4268  0.4703  0.2571
 3701SOL    HW222740   4.138   0.639   3.052 -1.5566 -1.2643 -0.4336
 3702SOL     OW22741   0.532   3.210   4.011  0.4737  0.4637 -0.4568
 3702SOL    HW122742   0.508   3.184   3.922  0.3211  1.4027 -0.6879
 3702SOL    HW222743   0.448   3.210   4.058  1.2415  1.5387  0.9195
 3703SOL     OW22744   1.610   4.005   8.000 -0.9874 -0.5708 -0.4752
 3703SOL    HW122745   1.615   3.928   8.056 -0.7755 -0.3335 -0.1659
 3703SOL    HW222746   1.644   3.964   7.920 -1.9535 -0.4033 -0.9711
 3704SOL     OW22747   1.084   3.110   6.859  0.2148  0.1989  0.0468
 3704SOL    HW122748   1.039   3.146   6.782 -1.1081 -1.3680  0.0993
 3704SOL    HW222749   1.028   3.160   6.917 -0.8273 -1.5480  0.5533
 3705SOL     OW22750   2.988   2.724  14.520  0.4436 -0.5659 -0.2773
 3705SOL    HW122751   2.931   2.687  14.588 -0.7231  0.0041 -0.9409
 3705SOL    HW222752   2.926   2.734  14.447 -0.5747 -1.5128  0.4707
 3706SOL     OW22753   0.262   0.189   9.836 -0.0648  0.1358  0.2188
 3706SOL    HW122754   0.290   0.169   9.925  0.6068  1.9820  0.4208
 3706SOL    HW222755   0.337   0.164   9.783  0.1821 -1.9409  1.5765
 3707SOL     OW22756   2.735   0.241   3.545 -0.0689  0.6842 -0.5132
 3707SOL    HW122757   2.735   0.273   3.455 -1.4858  0.8511 -0.4544
 3707SOL    HW222758   2.709   0.150   3.533  2.2892 -0.0320 -0.2363
 3708SOL     OW22759   1.919   2.475   0.782  1.3962  0.1805 -0.0208
 3708SOL    HW122760   1.991   2.443   0.836  2.4913  1.0542 -0.9920
 3708SOL    HW222761   1.967   2.500   0.703 -0.8566  3.2518 -0.4190
 3709SOL     OW22762   1.977   2.693  13.806  0.1507 -0.5298 -0.1509
 3709SOL    HW122763   1.890   2.693  13.767 -0.2842  1.0120  0.8027
 3709SOL    HW222764   1.956   2.754  13.877  2.3462  2.9152 -2.4641
 3710SOL     OW22765   3.003   3.645   8.334 -0.4622 -0.0378 -0.0004
 3710SOL    HW122766   3.060   3.642   8.256 -0.6043 -0.2812 -0.0950
 3710SOL    HW222767   2.932   3.689   8.288 -0.3190 -1.1140 -1.2555
 3711SOL     OW22768   4.169   1.190  10.001 -0.0499  0.1495 -0.8303
 3711SOL    HW122769   4.207   1.187   9.913 -0.3877 -2.0981 -0.9013
 3711SOL    HW222770   4.244   1.169  10.058 -0.7284  1.2192  0.4664
 3712SOL     OW22771   3.587   1.809   6.634 -0.2195  0.0027 -0.3187
 3712SOL    HW122772   3.596   1.726   6.682 -1.6234 -0.5479 -0.9985
 3712SOL    HW222773   3.555   1.871   6.700  1.8318  0.3993  0.2945
 3713SOL     OW22774   1.306   4.064   7.157 -0.0298 -0.0303  0.0846
 3713SOL    HW122775   1.337   4.130   7.219  0.1621  0.9587 -1.0663
 3713SOL    HW222776   1.382   4.051   7.101  0.4074 -0.8027  0.8613
 3714SOL     OW22777   3.377   4.150   0.729 -0.0009 -0.3298 -0.7177
 3714SOL    HW122778   3.401   4.221   0.790 -1.3427 -0.2290 -0.3053
 3714SOL    HW222779   3.288   4.126   0.757  0.9079 -0.1386  2.4074
 3715SOL     OW22780   1.825   4.378   7.602  0.5503 -0.0834  0.1859
 3715SOL    HW122781   1.805   4.308   7.663  0.1792  0.3378  0.5481
 3715SOL    HW222782   1.824   4.460   7.651 -0.5885  0.3118 -0.4836
 3716SOL     OW22783   3.522   0.391   6.415  0.5560  0.5201 -0.2929
 3716SOL    HW122784   3.572   0.316   6.386 -1.7123 -2.2555  2.9828
 3716SOL    HW222785   3.536   0.373   6.508  1.7196  0.1763 -0.5460
 3717SOL     OW22786   2.245   3.595   8.182  0.6760  1.0017 -0.0903
 3717SOL    HW122787   2.254   3.503   8.207  1.5958  0.8976 -0.8321
 3717SOL    HW222788   2.187   3.595   8.106  1.0908  0.1443 -0.4077
 3718SOL     OW22789   2.346   1.429   6.104  0.2660 -0.6560 -0.0172
 3718SOL    HW122790   2.421   1.382   6.067 -0.6946 -0.8329 -1.7571
 3718SOL    HW222791   2.283   1.359   6.121 -0.7779  0.3405  0.1886
 3719SOL     OW22792   3.401   4.732   9.557 -0.8747  0.4267 -0.4014
 3719SOL    HW122793   3.440   0.028   9.638  1.1042 -0.7889 -0.8385
 3719SOL    HW222794   3.356   0.073   9.526 -0.4625  0.6820 -0.3539
 3720SOL     OW22795   2.599   4.529  12.964 -0.0042 -0.4084 -0.1379
 3720SOL    HW122796   2.663   4.496  12.901 -0.7277  0.8262 -1.5017
 3720SOL    HW222797   2.539   4.455  12.966  0.9547 -1.1309  1.7309
 3721SOL     OW22798   1.073   2.811  10.829 -0.0563  0.2149 -0.1217
 3721SOL    HW122799   1.142   2.831  10.766  0.0770 -0.0079 -0.0492
 3721SOL    HW222800   1.000   2.842  10.776 -0.6058 -0.6570  0.1269
 3722SOL     OW22801   3.053   4.072   6.042 -0.0361 -0.6705 -0.0690
 3722SOL    HW122802   2.977   4.069   6.101 -0.7052  1.7338 -0.8209
 3722SOL    HW222803   3.058   3.981   6.013  0.3432 -0.3454 -1.0153
 3723SOL     OW22804   0.660   1.854  12.212 -0.0465  0.5450 -0.0673
 3723SOL    HW122805   0.657   1.767  12.173 -1.8554  0.2714  0.7112
 3723SOL    HW222806   0.593   1.837  12.278  0.6548  1.1287  0.7993
 3724SOL     OW22807   2.210   4.326   3.167  0.1879  0.5603 -0.0329
 3724SOL    HW122808   2.159   4.276   3.231 -0.1566  0.3685 -0.4600
 3724SOL    HW222809   2.289   4.274   3.164 -1.8408 -2.5436  0.6648
 3725SOL     OW22810   2.917   4.375   6.213  0.4910 -0.2591  0.0874
 3725SOL    HW122811   2.883   4.353   6.127 -2.3536 -1.9975  1.6291
 3725SOL    HW222812   2.842   4.417   6.256  1.7565  1.8492  0.2702
 3726SOL     OW22813   3.442   2.601   1.290 -0.6787 -0.4204 -0.1035
 3726SOL    HW122814   3.370   2.664   1.294  0.6053  1.0040  0.8791
 3726SOL    HW222815   3.420   2.542   1.219  2.2902  0.2523 -1.5891
 3727SOL     OW22816   0.285   4.294   1.895  0.1819 -0.2427  0.0443
 3727SOL    HW122817   0.244   4.264   1.976 -0.7473 -0.0167 -0.3452
 3727SOL    HW222818   0.314   4.210   1.859  0.2199  0.2510 -1.0883
 3728SOL     OW22819   2.189   1.252  11.795  0.2780 -0.7637  0.1318
 3728SOL    HW122820   2.183   1.335  11.843 -0.0395 -1.7540  1.7875
 3728SOL    HW222821   2.272   1.212  11.820  0.7312 -0.8979 -1.5326
 3729SOL     OW22822   0.497   3.107   1.886 -0.5524 -0.7301 -0.4441
 3729SOL    HW122823   0.456   3.133   1.968  0.3166  0.1469 -0.2731
 3729SOL    HW222824   0.495   3.012   1.889  1.3401 -0.8489 -2.4377
 3730SOL     OW22825   2.210   1.084  16.566 -0.1762 -0.2822 -0.0007
 3730SOL    HW122826   2.281   1.106  16.506  0.8940 -0.7124  1.0970
 3730SOL    HW222827   2.183   1.163  16.614 -0.8175 -2.0067  2.4757
 3731SOL     OW22828   1.861   1.720  13.150 -0.0886  0.2817 -0.6733
 3731SOL    HW122829   1.917   1.796  13.134 -0.3160  0.0946 -2.3103
 3731SOL    HW222830   1.844   1.688  13.062 -2.9568  1.2288 -0.4662
 3732SOL     OW22831   2.965   4.327   5.512  0.4857  0.2568 -0.2445
 3732SOL    HW122832   2.956   4.389   5.439 -1.6557 -1.4011 -1.4192
 3732SOL    HW222833   3.016   4.254   5.477  1.4985 -0.5660  2.9990
 3733SOL     OW22834   1.100   2.090  13.696  0.8936 -0.4646  0.1889
 3733SOL    HW122835   1.152   2.110  13.618 -0.1320 -3.1748 -1.2000
 3733SOL    HW222836   1.047   2.168  13.710 -0.5755 -1.2493 -0.9908
 3734SOL     OW22837   1.733   2.360   4.720  1.0008  0.1711 -0.1448
 3734SOL    HW122838   1.814   2.321   4.686 -0.0621 -2.0008 -0.1995
 3734SOL    HW222839   1.705   2.295   4.785 -0.0113 -0.4656 -1.2154
 3735SOL     OW22840   0.440   4.199   4.892  0.2355  0.0491 -0.2390
 3735SOL    HW122841   0.365   4.201   4.952  0.1704 -3.1470 -0.2007
 3735SOL    HW222842   0.509   4.188   4.957  0.9642 -0.5722 -1.1286
 3736SOL     OW22843   4.119   1.617   9.619  0.2210  0.0820  0.5849
 3736SOL    HW122844   4.162   1.541   9.580  2.5259  0.7241  1.9141
 3736SOL    HW222845   4.105   1.584   9.708 -0.2171 -1.2196  0.0364
 3737SOL     OW22846   1.048   1.840  13.769 -0.1673 -0.0532 -0.3189
 3737SOL    HW122847   1.038   1.911  13.705 -0.0610 -1.0399 -1.4258
 3737SOL    HW222848   1.083   1.902  13.834 -0.6813  2.0694 -2.0529
 3738SOL     OW22849   2.236   1.147   8.206 -0.8043 -0.0076  0.3119
 3738SOL    HW122850   2.207   1.190   8.286  0.3361 -0.5585  1.0111
 3738SOL    HW222851   2.163   1.088   8.189  0.0599 -0.1840 -2.8069
 3739SOL     OW22852   0.755   1.301   3.918  0.5309 -0.1747 -0.3246
 3739SOL    HW122853   0.681   1.304   3.978  1.3233  1.9842  0.5996
 3739SOL    HW222854   0.818   1.313   3.990  0.7178 -0.7885 -0.3873
 3740SOL     OW22855   0.674   0.186   6.067 -0.4244  0.2299  0.2576
 3740SOL    HW122856   0.620   0.155   6.140 -0.4928 -0.1518  0.0516
 3740SOL    HW222857   0.694   0.271   6.105 -0.3278  0.3396 -0.0408
 3741SOL     OW22858   4.297   2.109   6.877  0.1053  0.1767 -0.2808
 3741SOL    HW122859   4.230   2.175   6.896 -0.3571 -0.1806 -0.7008
 3741SOL    HW222860   4.376   2.141   6.921  0.9718  1.6018 -2.9187
 3742SOL     OW22861   0.493   1.678   8.330 -0.7129 -0.7497 -0.7495
 3742SOL    HW122862   0.451   1.614   8.388 -2.5041  0.5110 -0.6633
 3742SOL    HW222863   0.544   1.723   8.397 -0.6657 -1.2862 -0.4277
 3743SOL     OW22864   0.659   3.118  14.740  0.7610 -0.5996  0.2785
 3743SOL    HW122865   0.573   3.086  14.766 -0.4901  0.4781 -2.5397
 3743SOL    HW222866   0.670   3.207  14.775 -0.9029 -0.7108  1.0776
 3744SOL     OW22867   3.118   4.537   8.779 -0.7735  0.1035 -0.4971
 3744SOL    HW122868   3.067   4.609   8.817 -2.0899 -0.7839 -0.5997
 3744SOL    HW222869   3.140   4.482   8.854  1.1621  2.0996  0.4093
 3745SOL     OW22870   3.761   4.649   2.813  0.1119 -0.3915 -0.3121
 3745SOL    HW122871   3.788   4.602   2.735  0.0396  0.6090 -0.9380
 3745SOL    HW222872   3.829   4.716   2.822  0.9781 -0.8928 -3.3535
 3746SOL     OW22873   1.974   2.013   7.110  0.3236 -0.3956 -0.7688
 3746SOL    HW122874   1.922   1.933   7.102 -1.1129  0.4938 -0.1246
 3746SOL    HW222875   1.967   2.029   7.204 -0.4875  0.5893 -1.0051
 3747SOL     OW22876   3.482   2.162   8.484 -0.0142 -0.0481 -0.2394
 3747SOL    HW122877   3.422   2.236   8.497 -0.6328 -0.6541  0.4080
 3747SOL    HW222878   3.427   2.092   8.519  0.1584 -0.3508 -0.5727
 3748SOL     OW22879   1.622   0.675   7.925  0.1249  0.5124 -0.1738
 3748SOL    HW122880   1.682   0.610   7.887  1.2365  0.1813  2.1445
 3748SOL    HW222881   1.669   0.755   7.901 -1.0179  1.0087 -0.7312
 3749SOL     OW22882   0.961   1.305   1.981  0.3154  0.0105  0.0572
 3749SOL    HW122883   0.960   1.363   2.058  0.0721  3.3062 -2.4317
 3749SOL    HW222884   1.010   1.231   2.016 -0.6143 -0.7433 -0.2535
 3750SOL     OW22885   0.879   2.815   5.110 -0.2843  0.3987 -0.0731
 3750SOL    HW122886   0.957   2.776   5.149 -0.9527 -1.7275 -0.8454
 3750SOL    HW222887   0.796   2.782   5.145 -1.4308  1.7017 -1.5449
 3751SOL     OW22888   1.631   2.312   5.033 -0.1957 -0.6372 -0.4468
 3751SOL    HW122889   1.604   2.404   5.044  2.4584  0.4845 -3.4582
 3751SOL    HW222890   1.564   2.272   5.089 -0.7822  0.2930 -0.4750
 3752SOL     OW22891   3.060   2.110  13.300 -0.5215  0.3436  0.0642
 3752SOL    HW122892   3.114   2.137  13.225 -0.4751  0.6976  0.2242
 3752SOL    HW222893   3.123   2.100  13.371 -0.8898  0.0249  0.3470
 3753SOL     OW22894   1.031   0.041   3.588 -0.0120  0.3752  0.0960
 3753SOL    HW122895   0.936   0.042   3.600  0.2253 -1.6212  2.0488
 3753SOL    HW222896   1.060   4.722   3.660  1.0386 -0.0464 -0.6384
 3754SOL     OW22897   0.622   3.102   2.524  0.2902  0.2711 -0.4028
 3754SOL    HW122898   0.595   3.013   2.503  1.0418  0.3636 -1.7914
 3754SOL    HW222899   0.716   3.090   2.511  0.5160 -0.2520  1.6981
 3755SOL     OW22900   3.527   1.934   1.763  0.3210  0.0002 -0.0479
 3755SOL    HW122901   3.525   1.840   1.783  2.2043 -0.2762 -1.0812
 3755SOL    HW222902   3.571   1.930   1.678 -1.0127 -1.0743 -0.6985
 3756SOL     OW22903   4.277   0.955  14.304 -0.3873  0.0656  0.2281
 3756SOL    HW122904   4.195   0.918  14.335  1.8584 -3.0427  2.4001
 3756SOL    HW222905   4.287   1.021  14.372 -0.1050  1.3602 -1.0599
 3757SOL     OW22906   0.882   2.165   9.531  0.3176  0.6157 -0.4221
 3757SOL    HW122907   0.914   2.077   9.551  1.2699  0.5554 -2.1843
 3757SOL    HW222908   0.943   2.213   9.588 -0.5376 -0.8216  1.7154
 3758SOL     OW22909   2.563   2.808  17.563  0.2957  0.1941 -0.0970
 3758SOL    HW122910   2.497   2.870  17.592 -0.5769 -0.0746 -1.4960
 3758SOL    HW222911   2.598   2.770  17.643  0.0729  0.3395  0.0658
 3759SOL     OW22912   1.320   4.040  10.888  0.5386  0.1645  0.3312
 3759SOL    HW122913   1.299   4.109  10.826  1.7236 -0.5443 -0.8320
 3759SOL    HW222914   1.368   4.094  10.951  1.8637  0.7757 -1.1997
 3760SOL     OW22915   3.422   2.258   2.597  0.6860 -0.3217  0.5154
 3760SOL    HW122916   3.354   2.221   2.541 -0.8082  2.7131  0.2852
 3760SOL    HW222917   3.397   2.213   2.678 -1.4636 -0.1365 -0.0476
 3761SOL     OW22918   0.282   1.259  12.982  0.6660  0.9037  0.1253
 3761SOL    HW122919   0.371   1.225  12.982  1.1839  2.1965 -2.9562
 3761SOL    HW222920   0.288   1.316  13.059 -1.4836  0.3972  0.6802
 3762SOL     OW22921   0.809   0.890   6.433 -0.3262 -0.1900 -0.0318
 3762SOL    HW122922   0.722   0.912   6.465  0.2794  2.1368  0.0613
 3762SOL    HW222923   0.807   0.920   6.342 -0.9819 -1.1334 -0.3261
 3763SOL     OW22924   2.631   2.940   7.859 -0.2237  0.6542  0.3858
 3763SOL    HW122925   2.642   2.909   7.949  1.2334  1.6149  0.5344
 3763SOL    HW222926   2.593   3.027   7.867 -1.2361  0.4094 -1.7265
 3764SOL     OW22927   3.238   3.683   5.258 -0.0027  0.3246 -0.3222
 3764SOL    HW122928   3.210   3.771   5.281  0.5143 -0.0285  1.6961
 3764SOL    HW222929   3.162   3.640   5.298  0.3247  0.5119  0.5064
 3765SOL     OW22930   2.111   0.371  17.414  0.0601 -0.5349  0.0495
 3765SOL    HW122931   2.064   0.311  17.472  0.4988 -0.5637  0.3797
 3765SOL    HW222932   2.053   0.442  17.386  0.7637  0.1512  0.3347
 3766SOL     OW22933   4.217   3.823   4.273 -0.2665  0.0138 -0.1333
 3766SOL    HW122934   4.223   3.768   4.195 -0.4060 -2.9313  1.9324
 3766SOL    HW222935   4.289   3.885   4.269  0.0021 -0.2485  0.4720
 3767SOL     OW22936   3.430   2.184   2.869  0.2372  0.0344  0.0714
 3767SOL    HW122937   3.366   2.166   2.937 -0.8710 -0.2785 -1.0599
 3767SOL    HW222938   3.487   2.107   2.875  0.5907  0.3088  0.2913
 3768SOL     OW22939   4.032   4.194   6.176  1.1401 -0.2301  0.2019
 3768SOL    HW122940   3.980   4.144   6.112 -0.1081 -0.6860  1.5834
 3768SOL    HW222941   4.104   4.229   6.124 -0.7082  0.7107 -1.7562
 3769SOL     OW22942   3.555   2.548   4.058 -0.4859  0.1074  0.6054
 3769SOL    HW122943   3.548   2.548   4.153 -1.2093  1.0024  0.5403
 3769SOL    HW222944   3.647   2.523   4.059 -0.6645 -0.5478  0.7573
 3770SOL     OW22945   0.132   0.843  11.975  0.1342  0.1293 -0.2739
 3770SOL    HW122946   0.209   0.900  11.968 -0.0523  0.4462  0.2747
 3770SOL    HW222947   0.115   0.853  12.069  1.0064  1.6188 -0.2852
 3771SOL     OW22948   2.771   3.190   1.467 -0.4161  0.0953  0.0709
 3771SOL    HW122949   2.838   3.255   1.441  0.2035 -0.1492  1.0483
 3771SOL    HW222950   2.704   3.217   1.404  0.4154  0.4830 -0.6677
 3772SOL     OW22951   3.863   1.616   7.873 -0.4235  0.0947  0.0741
 3772SOL    HW122952   3.893   1.701   7.903 -0.9603 -0.4567  2.1620
 3772SOL    HW222953   3.832   1.630   7.783 -0.6129  2.9213  0.5932
 3773SOL     OW22954   3.436   2.213   9.805 -0.1685 -0.3835 -0.1245
 3773SOL    HW122955   3.515   2.163   9.782 -0.1462  0.1759 -1.3074
 3773SOL    HW222956   3.460   2.248   9.891  1.4638 -0.5188 -0.5097
 3774SOL     OW22957   2.412   1.298   1.983 -0.1827 -0.2767 -0.1492
 3774SOL    HW122958   2.388   1.282   1.892  2.0537 -1.0997 -0.5863
 3774SOL    HW222959   2.501   1.266   1.998  0.1856  0.5110 -0.6658
 3775SOL     OW22960   3.177   2.377   8.192 -0.2938  0.1751  0.3189
 3775SOL    HW122961   3.127   2.459   8.195  1.6648  1.4590 -1.2694
 3775SOL    HW222962   3.262   2.419   8.176 -0.3188 -0.2481 -0.9004
 3776SOL     OW22963   4.310   0.707   5.876  0.3645 -0.4320 -0.6639
 3776SOL    HW122964   4.377   0.644   5.899 -0.6987 -0.6151  1.9113
 3776SOL    HW222965   4.270   0.664   5.800 -0.2804 -2.2562  0.7112
 3777SOL     OW22966   1.991   1.208   3.404 -0.2133 -0.5756 -0.6012
 3777SOL    HW122967   1.960   1.285   3.452 -1.2077 -3.1042  2.7757
 3777SOL    HW222968   1.959   1.139   3.462 -0.6160 -1.8915 -2.3776
 3778SOL     OW22969   1.781   0.512   7.790  0.4041  0.1776  0.2244
 3778SOL    HW122970   1.795   0.556   7.706 -0.3291  0.7592  0.4011
 3778SOL    HW222971   1.799   0.423   7.762  0.9988 -0.1501  1.6121
 3779SOL     OW22972   3.457   3.955   8.182 -0.0142 -0.2984 -0.0236
 3779SOL    HW122973   3.542   3.982   8.216  0.3553 -0.8338 -0.5323
 3779SOL    HW222974   3.461   3.867   8.218 -0.1907 -0.9304 -1.5481
 3780SOL     OW22975   0.152   0.511   7.657  0.3707  0.9919  0.2043
 3780SOL    HW122976   0.237   0.517   7.612  0.4675  0.5257  0.3317
 3780SOL    HW222977   0.138   0.605   7.641 -0.2895  0.7735 -0.4945
 3781SOL     OW22978   2.053   3.465   3.137  0.0910  0.2348  0.2189
 3781SOL    HW122979   1.969   3.476   3.180 -0.1842 -1.4275  0.1100
 3781SOL    HW222980   2.079   3.554   3.113 -0.2764  0.1313 -0.5732
 3782SOL     OW22981   4.469   2.596   9.962 -0.6147 -0.1762 -0.2412
 3782SOL    HW122982   4.482   2.591  10.056  1.9296 -0.1030 -0.5683
 3782SOL    HW222983   4.375   2.580   9.955 -0.5649 -1.7593  2.9048
 3783SOL     OW22984   0.895   0.389   3.891 -0.0533 -0.3483  0.0097
 3783SOL    HW122985   0.889   0.460   3.827 -1.3890 -0.3753  0.1135
 3783SOL    HW222986   0.833   0.326   3.855 -0.4201 -1.0778  1.9084
 3784SOL     OW22987   2.524   3.937   0.046 -0.0594 -0.5316  0.0487
 3784SOL    HW122988   2.500   4.005  17.733  1.7482 -1.6569 -1.9063
 3784SOL    HW222989   2.495   3.862  17.743 -1.4759 -0.5535  0.8795
 3785SOL     OW22990   2.003   1.915   5.740  0.0008  0.0632 -0.3364
 3785SOL    HW122991   1.951   1.889   5.664  0.5580 -0.2834 -0.5978
 3785SOL    HW222992   1.942   1.984   5.767  1.4194  1.1212  0.1668
 3786SOL     OW22993   3.104   1.248   9.160 -0.2984 -0.2064 -0.2780
 3786SOL    HW122994   3.057   1.231   9.243 -3.9595  0.0564 -2.2836
 3786SOL    HW222995   3.179   1.196   9.190  0.2285 -0.9962 -2.9987
 3787SOL     OW22996   1.229   2.164   7.304 -0.1840 -0.4941  0.0115
 3787SOL    HW122997   1.209   2.083   7.351  0.8307 -0.2847  0.7952
 3787SOL    HW222998   1.293   2.120   7.247 -0.7115  0.6289 -1.4464
 3788SOL     OW22999   0.695   4.404   6.234  0.1889 -0.0250  0.4038
 3788SOL    HW123000   0.669   4.477   6.291 -1.5853 -0.4644  0.1554
 3788SOL    HW223001   0.699   4.324   6.287  0.3749  0.2958  0.8761
 3789SOL     OW23002   1.450   0.702   1.121  0.0995  0.3472  0.1077
 3789SOL    HW123003   1.452   0.644   1.197 -1.6356  1.1490  0.7527
 3789SOL    HW223004   1.516   0.664   1.063  0.0705  3.3126 -1.8506
 3790SOL     OW23005   0.075   3.728   3.029  0.2617 -0.2206  0.0394
 3790SOL    HW123006   0.082   3.645   3.075 -2.2085 -0.8404 -0.6926
 3790SOL    HW223007   0.168   3.745   3.018  0.1033  0.1103 -0.8124
 3791SOL     OW23008   1.384   1.036   6.807  0.4128 -0.5252 -0.1459
 3791SOL    HW123009   1.397   1.014   6.899 -2.8914  2.0576  0.9477
 3791SOL    HW223010   1.443   1.112   6.803 -2.0488  1.4700  1.0906
 3792SOL     OW23011   0.336   4.302   6.760 -0.1289 -0.6698 -0.3715
 3792SOL    HW123012   0.254   4.278   6.804  0.7815  1.3494  2.4869
 3792SOL    HW223013   0.314   4.263   6.676  0.3492 -0.6328 -0.5173
 3793SOL     OW23014   0.892   4.543  16.200 -0.0676  0.2078  0.3647
 3793SOL    HW123015   0.807   4.567  16.163  0.2727 -1.4532 -1.4828
 3793SOL    HW223016   0.939   4.497  16.131 -0.0829 -1.8899  1.7601
 3794SOL     OW23017   4.448   2.451  12.593 -0.2255  0.0450  0.9861
 3794SOL    HW123018   4.367   2.501  12.579  0.2861  0.6568  0.2066
 3794SOL    HW223019   4.488   2.499  12.665  0.0256  2.1342 -0.5488
 3795SOL     OW23020   1.836   1.642   7.390 -0.7037  0.3595 -0.1696
 3795SOL    HW123021   1.825   1.733   7.417 -2.4825  0.0090  0.2823
 3795SOL    HW223022   1.930   1.627   7.401 -0.4686  0.7862 -1.6276
 3796SOL     OW23023   3.124   3.185   4.402 -0.2341 -0.4207  0.4048
 3796SOL    HW123024   3.119   3.095   4.372 -0.5193 -0.8781  1.8378
 3796SOL    HW223025   3.143   3.230   4.320 -0.5555  0.5336  0.8463
 3797SOL     OW23026   4.491   2.083  10.339  0.1715  0.3010  0.1764
 3797SOL    HW123027   4.547   2.148  10.383  1.7065  0.1943 -1.5860
 3797SOL    HW223028   4.401   2.114  10.336 -0.0166 -0.4489 -1.5615
 3798SOL     OW23029   3.527   0.839   7.830  0.0561  0.6865  0.5493
 3798SOL    HW123030   3.512   0.858   7.922  1.2882  0.2049  0.8499
 3798SOL    HW223031   3.482   0.913   7.790 -2.4083 -1.9821 -1.6184
 3799SOL     OW23032   3.182   3.367   1.867  0.1695  0.4600 -0.3354
 3799SOL    HW123033   3.245   3.340   1.801  1.0014 -0.8952  1.0088
 3799SOL    HW223034   3.233   3.358   1.948  0.3361  1.8219 -0.2944
 3800SOL     OW23035   4.430   2.215   4.154 -0.2706 -0.0119  0.0353
 3800SOL    HW123036   4.398   2.229   4.065 -0.4812  1.5710  0.3617
 3800SOL    HW223037   4.523   2.237   4.152 -0.0887 -0.7290  0.6123
 3801SOL     OW23038   4.644   3.702   9.212 -0.0182  0.1236  0.8935
 3801SOL    HW123039   4.648   3.644   9.287 -0.5247 -1.3685 -0.2328
 3801SOL    HW223040   4.723   3.674   9.165  0.8954  1.5866  1.5661
 3802SOL     OW23041   3.455   3.326   9.574 -0.2357  0.0783 -0.2272
 3802SOL    HW123042   3.455   3.315   9.669 -2.9760  0.4877 -0.1713
 3802SOL    HW223043   3.548   3.323   9.551 -0.6391  0.1585 -1.9014
 3803SOL     OW23044   0.285   3.664   9.529  0.7901  0.1474  0.0242
 3803SOL    HW123045   0.229   3.688   9.602 -1.3810  2.9879 -2.6039
 3803SOL    HW223046   0.234   3.591   9.493  2.4594  0.0202 -2.0615
 3804SOL     OW23047   3.990   4.401   1.769  0.2589 -0.6101  0.3089
 3804SOL    HW123048   4.015   4.382   1.859 -0.9101 -1.0301  0.5433
 3804SOL    HW223049   4.049   4.343   1.721 -0.1157  0.0033 -0.9158
 3805SOL     OW23050   0.531   2.901  15.347 -0.0817 -0.2390 -0.6046
 3805SOL    HW123051   0.512   2.950  15.267 -1.3626  1.1393  0.5342
 3805SOL    HW223052   0.601   2.842  15.321 -0.6070  0.3439 -3.3015
 3806SOL     OW23053   2.314   4.394  14.244 -0.1671 -0.2193 -0.4460
 3806SOL    HW123054   2.267   4.377  14.162 -1.2430 -2.2520  0.5897
 3806SOL    HW223055   2.355   4.480  14.237  2.0390 -1.3107 -0.8232
 3807SOL     OW23056   0.288   1.318   3.993  0.1731  0.4100 -0.2554
 3807SOL    HW123057   0.337   1.395   3.965 -1.0229  1.8824  1.6715
 3807SOL    HW223058   0.361   1.266   4.028 -0.2600  0.7163  1.1259
 3808SOL     OW23059   1.799   0.461   8.448  0.6005  0.3781 -0.2796
 3808SOL    HW123060   1.745   0.383   8.457 -0.7201  1.7007  3.3461
 3808SOL    HW223061   1.876   0.443   8.503  0.4840 -1.7830 -0.8456
 3809SOL     OW23062   3.682   1.058   9.357 -0.3641 -0.6736  0.0886
 3809SOL    HW123063   3.684   1.046   9.452  0.8973  1.3971  0.3396
 3809SOL    HW223064   3.761   1.012   9.329  0.0619  0.0338  0.1255
 3810SOL     OW23065   3.436   1.628   9.675  0.4628  0.2417  0.0265
 3810SOL    HW123066   3.472   1.606   9.589 -1.5026 -1.1420 -0.4610
 3810SOL    HW223067   3.522   1.642   9.714  0.9717 -3.0228  0.0619
 3811SOL     OW23068   4.147   3.882   1.856  0.3784 -0.1717 -0.4807
 3811SOL    HW123069   4.205   3.957   1.836  1.4742 -1.8107 -3.5154
 3811SOL    HW223070   4.217   3.818   1.846  0.9641  0.6057 -1.4830
 3812SOL     OW23071   0.906   4.036   5.729  0.0067 -0.3696  0.1323
 3812SOL    HW123072   0.890   4.068   5.818  1.1397 -0.6563  0.4362
 3812SOL    HW223073   0.907   3.941   5.745 -0.3913 -0.7227 -1.9838
 3813SOL     OW23074   2.045   1.880   6.140 -0.0424  0.5333  0.3689
 3813SOL    HW123075   2.064   1.838   6.056 -1.9646  1.0791 -0.3298
 3813SOL    HW223076   2.121   1.938   6.150 -0.1071  0.6252  0.3251
 3814SOL     OW23077   0.248   2.349  12.253  0.2724  0.2138 -0.2942
 3814SOL    HW123078   0.258   2.441  12.275 -2.1698  0.1851  0.9634
 3814SOL    HW223079   0.299   2.337  12.173  2.1764  1.0134  0.7983
 3815SOL     OW23080   4.485   2.415   5.286 -0.0430 -0.3888 -1.0574
 3815SOL    HW123081   4.547   2.425   5.214 -0.4218 -0.8216 -1.4397
 3815SOL    HW223082   4.412   2.450   5.235  1.0294  0.5676 -1.9189
 3816SOL     OW23083   0.736   2.383   6.279  0.0279 -0.0617 -0.0589
 3816SOL    HW123084   0.660   2.328   6.299  1.0857 -1.9034 -1.0761
 3816SOL    HW223085   0.791   2.345   6.346 -3.2394 -1.0947  2.0446
 3817SOL     OW23086   3.977   3.011   4.755  0.0715 -0.2163 -0.3297
 3817SOL    HW123087   3.958   2.930   4.708 -1.1526 -1.2906  2.0131
 3817SOL    HW223088   3.995   2.971   4.840  2.8803  0.2632 -0.7084
 3818SOL     OW23089   4.696   2.857  11.433  0.2501  0.3080  0.0548
 3818SOL    HW123090   0.037   2.803  11.441 -0.1965 -0.1668  1.1785
 3818SOL    HW223091   4.644   2.841  11.511  0.0119 -1.4548 -0.4802
 3819SOL     OW23092   4.690   3.110   8.601 -0.3237 -0.0480 -0.6557
 3819SOL    HW123093   4.598   3.104   8.576 -0.9470  1.5514  1.2969
 3819SOL    HW223094   4.705   3.026   8.646 -1.7242  0.6373  1.0890
 3820SOL     OW23095   1.108   2.003   8.067  0.0271 -0.4999 -0.1197
 3820SOL    HW123096   1.032   1.945   8.059 -1.4139  1.6222 -1.9905
 3820SOL    HW223097   1.174   1.945   8.029  1.0494  0.4346  0.2159
 3821SOL     OW23098   2.286   0.338   9.112  0.0309  0.1217  0.4060
 3821SOL    HW123099   2.337   0.405   9.066 -0.9706  2.2276  2.3803
 3821SOL    HW223100   2.221   0.391   9.157  0.6737  0.0503  1.4035
 3822SOL     OW23101   1.440   4.242   3.569 -0.0518  0.4111  0.2924
 3822SOL    HW123102   1.404   4.330   3.568 -1.9367 -0.3733 -0.2337
 3822SOL    HW223103   1.529   4.278   3.565  0.5106 -1.1121 -0.9662
 3823SOL     OW23104   1.794   3.967   6.828 -0.1872 -0.4683 -0.6149
 3823SOL    HW123105   1.812   4.001   6.915 -1.5127 -0.1405 -0.4702
 3823SOL    HW223106   1.698   3.967   6.818 -0.2743  1.2984  0.3913
 3824SOL     OW23107   1.724   3.911  12.245 -0.2436 -0.3736  0.7550
 3824SOL    HW123108   1.804   3.920  12.193 -0.2712 -0.1487  0.7534
 3824SOL    HW223109   1.720   3.995  12.291 -0.7061 -1.4941  2.7689
 3825SOL     OW23110   3.080   2.747   8.526 -0.5777 -0.3262 -0.4693
 3825SOL    HW123111   3.022   2.786   8.591  0.4136  0.3640 -0.0024
 3825SOL    HW223112   3.167   2.747   8.566 -0.3984 -2.2426 -0.8475
 3826SOL     OW23113   3.896   2.835   9.346 -0.3847 -0.6239 -0.2199
 3826SOL    HW123114   3.850   2.789   9.276 -1.3569  0.6014 -0.3929
 3826SOL    HW223115   3.925   2.906   9.289 -1.6568  1.6051  1.8933
 3827SOL     OW23116   3.462   2.852   4.312 -0.2353  0.0816 -0.1993
 3827SOL    HW123117   3.546   2.867   4.355  0.3827  1.8758 -2.0493
 3827SOL    HW223118   3.467   2.759   4.294  1.0193 -0.1483  1.3246
 3828SOL     OW23119   3.387   0.609   4.014  0.0078 -0.1746 -0.2078
 3828SOL    HW123120   3.295   0.631   3.997  0.5531  2.7062  0.5151
 3828SOL    HW223121   3.419   0.661   3.940 -2.2240  0.4716 -0.7155
 3829SOL     OW23122   2.016   2.745   4.499 -0.0480  0.0710 -0.8762
 3829SOL    HW123123   2.058   2.820   4.542 -1.9360  0.8478 -0.3285
 3829SOL    HW223124   2.033   2.679   4.566 -0.9583  0.4003 -0.3093
 3830SOL     OW23125   4.228   1.855   3.816 -0.0449  0.4165  0.4955
 3830SOL    HW123126   4.224   1.832   3.723 -1.6108 -0.2184  0.7195
 3830SOL    HW223127   4.162   1.925   3.820 -0.1845  0.3155  0.0234
 3831SOL     OW23128   2.489   0.498   3.380 -0.1804  0.5250 -0.2449
 3831SOL    HW123129   2.556   0.439   3.344 -0.6630 -0.9916  1.3636
 3831SOL    HW223130   2.413   0.452   3.344 -1.1770  0.9683  1.3079
 3832SOL     OW23131   3.881   0.026   6.690 -0.0352 -0.4628  0.2933
 3832SOL    HW123132   3.792   0.014   6.658  0.2730 -0.7008 -0.4822
 3832SOL    HW223133   3.888   4.697   6.758 -2.6747 -1.3333 -0.3144
 3833SOL     OW23134   3.897   3.305   7.032  0.4378  0.1358 -0.6486
 3833SOL    HW123135   3.857   3.221   7.052  0.5520 -0.4415 -2.8638
 3833SOL    HW223136   3.986   3.270   7.034  0.5649  0.4847 -0.0607
 3834SOL     OW23137   0.208   2.286   4.307  0.1737  0.2787  0.3318
 3834SOL    HW123138   0.137   2.295   4.371 -0.7359 -0.4252 -0.5813
 3834SOL    HW223139   0.178   2.210   4.258 -2.0994  0.3655  1.5644
 3835SOL     OW23140   2.310   4.636   3.407  0.3438 -0.0938  0.6201
 3835SOL    HW123141   2.376   4.601   3.347  0.9518  0.1692  1.1351
 3835SOL    HW223142   2.335   4.728   3.404 -1.3596  0.3638  0.4259
 3836SOL     OW23143   3.474   4.382   9.178  0.7025 -0.3831 -0.0274
 3836SOL    HW123144   3.563   4.408   9.202  1.2078 -1.8446 -0.3347
 3836SOL    HW223145   3.458   4.307   9.235 -1.0231 -1.1501 -1.5262
 3837SOL     OW23146   1.057   1.594   5.320 -0.3334  0.7359  0.7572
 3837SOL    HW123147   1.137   1.645   5.337  0.8793 -0.1440 -2.3616
 3837SOL    HW223148   1.063   1.532   5.393  0.0998 -0.0906  0.0115
 3838SOL     OW23149   0.762   1.595   3.977 -0.4101  0.2823  0.1747
 3838SOL    HW123150   0.794   1.571   4.064  0.7581 -0.3949 -0.4451
 3838SOL    HW223151   0.775   1.508   3.938  0.8448  0.5130  0.0723
 3839SOL     OW23152   0.184   0.620   2.623 -0.2826  0.2823  0.2410
 3839SOL    HW123153   0.224   0.674   2.555 -0.4027 -0.9400 -0.7935
 3839SOL    HW223154   0.112   0.677   2.653 -0.7427  0.5523 -1.4012
 3840SOL     OW23155   0.483   0.206  12.885 -0.1376  0.7192  0.1980
 3840SOL    HW123156   0.514   0.289  12.851 -1.4658  0.0701 -2.5539
 3840SOL    HW223157   0.394   0.232  12.906 -0.4408  0.1588 -0.3691
 3841SOL     OW23158   3.603   1.458  15.751  0.4736 -0.3219 -0.7897
 3841SOL    HW123159   3.663   1.525  15.718  1.1473 -1.1305 -1.1922
 3841SOL    HW223160   3.558   1.517  15.811  0.2587 -0.2722 -1.0000
 3842SOL     OW23161   3.666   3.432  15.902 -0.0494  0.0355 -0.3255
 3842SOL    HW123162   3.623   3.355  15.865 -1.4050  0.1512  1.0084
 3842SOL    HW223163   3.755   3.400  15.916  0.8019  3.1785  1.4063
 3843SOL     OW23164   4.340   0.986   6.785  0.2837  0.7848 -0.1346
 3843SOL    HW123165   4.283   0.955   6.856  1.4221  1.3501  1.0229
 3843SOL    HW223166   4.308   1.076   6.774  1.3559  1.0900 -0.7705
 3844SOL     OW23167   0.883   1.618  12.882  0.7460  0.5368 -0.0027
 3844SOL    HW123168   0.830   1.640  12.805  1.7956 -1.0603 -1.1655
 3844SOL    HW223169   0.967   1.660  12.862  0.5557  0.0681 -1.7253
 3845SOL     OW23170   0.678   1.891   9.782 -0.1389 -0.2586  0.1204
 3845SOL    HW123171   0.694   1.980   9.811 -2.2231  1.7229 -4.9423
 3845SOL    HW223172   0.738   1.847   9.842 -0.7245  1.2001  1.7841
 3846SOL     OW23173   0.773   4.177   9.240 -0.2157 -0.6811 -0.1308
 3846SOL    HW123174   0.851   4.231   9.228  0.7052 -2.4037 -1.7881
 3846SOL    HW223175   0.774   4.159   9.334  0.5311 -2.4414 -0.4706
 3847SOL     OW23176   0.762   1.396   5.467 -0.2053  0.3912  0.3896
 3847SOL    HW123177   0.753   1.473   5.523  1.3159 -0.3826  1.6856
 3847SOL    HW223178   0.698   1.349   5.521 -0.8790  1.2321  0.3319
 3848SOL     OW23179   4.490   2.490   3.079  0.0178 -0.4987 -0.3636
 3848SOL    HW123180   4.525   2.503   3.168 -0.9411  1.8319 -0.3308
 3848SOL    HW223181   4.477   2.582   3.058  0.9899 -0.5343 -1.1162
 3849SOL     OW23182   0.804   4.249   6.797  0.3205 -0.6154 -0.4291
 3849SOL    HW123183   0.806   4.249   6.893 -1.9077  0.0683 -0.3928
 3849SOL    HW223184   0.884   4.202   6.773  1.2560  1.1090 -0.7284
 3850SOL     OW23185   3.415   4.320   5.415 -0.3603  0.0922  0.0109
 3850SOL    HW123186   3.331   4.324   5.462  0.1630 -1.3066  1.0573
 3850SOL    HW223187   3.444   4.229   5.410  2.0113  0.9358 -1.3119
 3851SOL     OW23188   2.536   1.592   4.906 -0.0600 -0.2268  0.0388
 3851SOL    HW123189   2.557   1.550   4.822 -1.4954 -0.6759 -0.0870
 3851SOL    HW223190   2.611   1.561   4.957 -0.4620 -1.5433 -0.1597
 3852SOL     OW23191   0.879   3.727   7.200 -0.4428  0.4163  0.2343
 3852SOL    HW123192   0.856   3.816   7.176  0.2012 -0.0419 -2.0524
 3852SOL    HW223193   0.974   3.735   7.193 -0.2931 -3.0346 -1.4666
 3853SOL     OW23194   3.379   2.574  12.963 -0.2650 -0.2939 -0.3487
 3853SOL    HW123195   3.310   2.609  13.020  0.3474 -0.8888  0.7776
 3853SOL    HW223196   3.449   2.634  12.990 -1.3724  0.8025  0.0767
 3854SOL     OW23197   0.230   2.015   7.592 -0.7403  0.5479  0.7502
 3854SOL    HW123198   0.191   2.102   7.583  0.0761  0.5440 -2.8649
 3854SOL    HW223199   0.201   2.002   7.682  0.2665  1.6026  1.2436
 3855SOL     OW23200   0.964   4.420   6.205 -0.2402  0.5062 -0.2590
 3855SOL    HW123201   0.977   4.459   6.291  2.0392  0.6092 -0.6663
 3855SOL    HW223202   0.871   4.398   6.212 -0.6445  1.9562 -1.1324
 3856SOL     OW23203   2.752   2.672  11.266 -0.7060  0.5279 -0.2087
 3856SOL    HW123204   2.783   2.628  11.186 -1.4002  1.5487 -1.0445
 3856SOL    HW223205   2.767   2.603  11.330  0.4688  1.2235  0.2742
 3857SOL     OW23206   2.137   0.737   9.523 -0.4257 -0.1119 -0.2565
 3857SOL    HW123207   2.206   0.803   9.521  0.1756 -0.7525 -0.5197
 3857SOL    HW223208   2.067   0.782   9.476 -0.2396 -1.5728 -1.9310
 3858SOL     OW23209   3.266   2.381  15.292  0.0742 -0.4980 -0.2263
 3858SOL    HW123210   3.184   2.430  15.287  0.1247 -0.1786  1.9699
 3858SOL    HW223211   3.297   2.407  15.206  1.8207 -1.2678  0.1729
 3859SOL     OW23212   2.615   2.841   5.148  0.3661 -0.1046 -0.3064
 3859SOL    HW123213   2.521   2.850   5.132  0.3655  0.1173 -0.1733
 3859SOL    HW223214   2.615   2.745   5.156  2.0639 -0.0171  0.6160
 3860SOL     OW23215   1.180   1.272   5.080 -0.2743  0.3232 -0.1984
 3860SOL    HW123216   1.193   1.293   4.987  2.0604  3.3547  0.7983
 3860SOL    HW223217   1.255   1.314   5.122 -0.2910 -0.2975  0.4484
 3861SOL     OW23218   0.732   3.915  13.546 -0.4545  0.2009  0.5383
 3861SOL    HW123219   0.809   3.865  13.574 -1.4421 -0.2423  2.4633
 3861SOL    HW223220   0.764   4.005  13.551 -1.2132  0.4414  1.1313
 3862SOL     OW23221   1.742   0.958   5.349  0.2637  0.5304  0.2896
 3862SOL    HW123222   1.712   0.925   5.433 -1.5643 -1.8302 -1.2921
 3862SOL    HW223223   1.834   0.978   5.366 -0.0957  1.9683  0.5963
 3863SOL     OW23224   3.044   2.097   5.502 -0.1380  0.1437 -0.3331
 3863SOL    HW123225   2.995   2.097   5.419 -0.4437 -0.1651 -0.1536
 3863SOL    HW223226   3.128   2.127   5.468  0.1529  1.5649  1.6495
 3864SOL     OW23227   2.806   3.144   6.593  0.2271 -0.1504 -0.1637
 3864SOL    HW123228   2.775   3.060   6.626  0.2297 -0.2927 -0.5181
 3864SOL    HW223229   2.754   3.211   6.637 -0.2565  0.0192 -0.9770
 3865SOL     OW23230   1.969   2.629   3.712 -0.9731  0.3708  0.0040
 3865SOL    HW123231   1.934   2.602   3.797 -1.3033  0.2287 -0.1736
 3865SOL    HW223232   2.063   2.615   3.719 -0.9257  0.2110 -1.0163
 3866SOL     OW23233   3.411   2.852  10.384 -0.3880 -0.5657 -0.6071
 3866SOL    HW123234   3.392   2.929  10.330  0.5218  0.4235  0.4953
 3866SOL    HW223235   3.337   2.851  10.445 -0.3498  1.9289 -0.5400
 3867SOL     OW23236   2.792   1.061   6.296  0.1398 -0.1025  0.5247
 3867SOL    HW123237   2.852   1.065   6.371  1.0230 -1.8320 -0.1066
 3867SOL    HW223238   2.829   0.992   6.242  0.5998 -0.8805  1.8471
 3868SOL     OW23239   0.966   4.334   5.944  0.0075  0.3718  0.2566
 3868SOL    HW123240   0.892   4.391   5.920 -1.1396 -0.5895  1.5292
 3868SOL    HW223241   0.951   4.326   6.038 -2.5290  4.7942  0.2348
 3869SOL     OW23242   4.006   0.095   5.701 -0.0665  0.0187  0.0367
 3869SOL    HW123243   4.058   0.164   5.741  0.0887 -0.2360  0.2734
 3869SOL    HW223244   3.996   0.040   5.779 -2.7230 -0.1670 -0.4208
 3870SOL     OW23245   2.914   4.127   4.129  0.5298  0.1616  0.3811
 3870SOL    HW123246   2.950   4.046   4.165  1.8323  0.1524 -0.9349
 3870SOL    HW223247   2.922   4.108   4.035  1.8286 -1.4211  0.8145
 3871SOL     OW23248   0.172   0.769   7.331 -0.1276 -0.2293 -0.4151
 3871SOL    HW123249   0.133   0.757   7.418  0.2555  0.1478 -0.1887
 3871SOL    HW223250   0.114   0.712   7.280 -2.7047  1.4963  0.5851
 3872SOL     OW23251   1.337   2.468   1.303 -0.5371  0.4122  0.0052
 3872SOL    HW123252   1.265   2.526   1.276 -1.2296 -1.6595 -2.6481
 3872SOL    HW223253   1.401   2.472   1.232  1.3444 -0.9277  1.6358
 3873SOL     OW23254   0.574   0.477   3.064  0.2609  0.0073 -0.7638
 3873SOL    HW123255   0.587   0.472   2.969  0.5623 -3.3390 -0.5473
 3873SOL    HW223256   0.615   0.395   3.089  1.2244  0.7167  0.0018
 3874SOL     OW23257   4.242   2.370   3.092  0.8194 -0.2448 -0.3676
 3874SOL    HW123258   4.336   2.379   3.074  0.7541  0.9018 -0.1137
 3874SOL    HW223259   4.224   2.302   3.027  0.4013 -0.4759 -0.0115
 3875SOL     OW23260   0.851   4.610   5.325  0.4999 -0.1827  0.6064
 3875SOL    HW123261   0.810   4.695   5.339  1.5706  0.4459 -0.1245
 3875SOL    HW223262   0.801   4.552   5.382  0.0617 -2.1902 -1.8218
 3876SOL     OW23263   0.420   2.721  15.136 -0.0009 -0.4529 -0.2853
 3876SOL    HW123264   0.472   2.753  15.063  1.4100 -0.6425  0.6315
 3876SOL    HW223265   0.496   2.723  15.195 -0.2414  0.3394 -0.0106
 3877SOL     OW23266   2.478   1.355  16.055  0.5639 -0.1047 -0.1863
 3877SOL    HW123267   2.501   1.354  15.962 -0.8708 -2.5779 -0.5223
 3877SOL    HW223268   2.443   1.444  16.058  0.1109 -0.3183  0.5917
 3878SOL     OW23269   4.482   4.629   6.726 -0.1539  0.3441  0.0544
 3878SOL    HW123270   4.569   4.618   6.765 -0.1811  0.0633  0.0399
 3878SOL    HW223271   4.507   4.636   6.634 -0.9600 -0.9320 -0.2546
 3879SOL     OW23272   4.567   3.491   3.060  0.1857 -0.2721 -0.4688
 3879SOL    HW123273   4.502   3.512   3.127  1.1891  0.4191  0.2859
 3879SOL    HW223274   4.648   3.484   3.110 -1.1971 -1.6448  1.5701
 3880SOL     OW23275   0.110   1.331   6.397 -0.3795  0.0204  0.1162
 3880SOL    HW123276   0.116   1.301   6.488  0.2784  0.1093  0.1032
 3880SOL    HW223277   0.199   1.357   6.374 -0.0490 -0.6933  0.5701
 3881SOL     OW23278   0.140   1.536   6.178 -0.2139  0.4838  0.0559
 3881SOL    HW123279   0.178   1.490   6.253  0.7647  3.0093  1.1270
 3881SOL    HW223280   0.162   1.483   6.101 -0.2582  0.9319 -0.2636
 3882SOL     OW23281   2.974   4.557   9.038  0.5930 -0.1502  0.2964
 3882SOL    HW123282   3.065   4.530   9.027  0.5087 -0.7634  1.0597
 3882SOL    HW223283   2.932   4.473   9.018  1.0927 -0.7251  1.6464
 3883SOL     OW23284   4.084   3.537   0.734  0.1372  0.0189 -0.2975
 3883SOL    HW123285   4.166   3.579   0.708 -1.5316  2.2357 -1.9921
 3883SOL    HW223286   4.034   3.611   0.768 -0.5410 -0.8785  0.6732
 3884SOL     OW23287   2.411   2.265   6.118 -0.3423 -0.0415  0.1322
 3884SOL    HW123288   2.496   2.295   6.147  0.8025 -3.6683  0.5839
 3884SOL    HW223289   2.364   2.347   6.136 -3.2230 -1.4548 -0.8473
 3885SOL     OW23290   1.955   3.086  11.055  0.1365  0.2161  0.1234
 3885SOL    HW123291   1.897   3.145  11.007 -1.6059 -0.7062  1.0779
 3885SOL    HW223292   1.988   3.149  11.119  0.5181 -0.8187  0.9463
 3886SOL     OW23293   3.175   0.274   4.188 -0.2213 -0.1834  0.3298
 3886SOL    HW123294   3.092   0.227   4.177 -1.8724  3.2627 -1.9391
 3886SOL    HW223295   3.149   0.352   4.237 -2.1718 -0.1489 -0.7625
 3887SOL     OW23296   0.351   4.630   7.789 -0.0096  0.0530 -0.1501
 3887SOL    HW123297   0.406   4.700   7.754 -2.6171  0.8164 -2.7922
 3887SOL    HW223298   0.395   4.598   7.868 -0.7063 -0.8661 -0.1327
 3888SOL     OW23299   2.671   1.374  14.342 -0.0587 -0.4003  0.2277
 3888SOL    HW123300   2.663   1.351  14.250  0.1180  0.6593 -0.0623
 3888SOL    HW223301   2.640   1.465  14.341  0.2260 -0.3123 -0.7442
 3889SOL     OW23302   1.790   3.763   6.553 -0.0877  0.2645  0.0014
 3889SOL    HW123303   1.725   3.820   6.512  0.0883 -0.0393 -0.7156
 3889SOL    HW223304   1.741   3.680   6.545 -1.1064  0.6101  2.7455
 3890SOL     OW23305   0.175   4.503   7.369  0.2953 -0.1043 -0.2366
 3890SOL    HW123306   0.210   4.490   7.457 -1.0525  0.5003  0.3779
 3890SOL    HW223307   0.190   4.418   7.326 -0.5733 -0.3375 -0.0706
 3891SOL     OW23308   0.603   1.337  11.085  0.1176 -0.5703  0.5156
 3891SOL    HW123309   0.641   1.249  11.085 -0.3252 -0.7618  0.4704
 3891SOL    HW223310   0.680   1.394  11.090 -0.9031  0.7863  0.7760
 3892SOL     OW23311   1.368   4.681   2.241 -0.7794 -0.1691 -0.1610
 3892SOL    HW123312   1.428   0.015   2.220  0.1458 -0.8564  0.0878
 3892SOL    HW223313   1.350   4.644   2.154  3.5819 -0.4612 -0.9493
 3893SOL     OW23314   1.371   1.948   6.399 -0.0083 -0.2065 -0.3214
 3893SOL    HW123315   1.318   2.015   6.442  1.2584  0.8475 -0.4039
 3893SOL    HW223316   1.362   1.876   6.462  1.8593 -0.4412 -0.3151
 3894SOL     OW23317   0.678   0.345   9.577  0.0679  0.5146 -0.1402
 3894SOL    HW123318   0.683   0.430   9.620  2.0394 -0.7518  2.1475
 3894SOL    HW223319   0.772   0.335   9.562  0.3036  0.8810  1.0611
 3895SOL     OW23320   0.852   0.420   8.598 -0.4406 -0.4514  0.1554
 3895SOL    HW123321   0.801   0.441   8.520 -1.9542 -0.9119  1.0147
 3895SOL    HW223322   0.858   0.325   8.598  1.5651 -0.3308  0.3119
 3896SOL     OW23323   3.889   0.111   8.340  0.2345 -0.0555  0.9674
 3896SOL    HW123324   3.814   0.085   8.393  0.3030  2.4703  2.3392
 3896SOL    HW223325   3.888   0.036   8.280  1.7535  0.2383  0.5619
 3897SOL     OW23326   0.651   3.457   4.072  0.1186  0.0980 -0.2505
 3897SOL    HW123327   0.602   3.376   4.062  1.6556 -0.9873  0.9810
 3897SOL    HW223328   0.703   3.465   3.992  1.2979  0.5925  0.5489
 3898SOL     OW23329   2.350   2.322   7.192 -0.4969  0.4566  0.1747
 3898SOL    HW123330   2.316   2.266   7.123 -0.8142  1.8075 -0.7563
 3898SOL    HW223331   2.302   2.273   7.259  0.9147 -2.1239 -0.6995
 3899SOL     OW23332   2.252   4.214   7.555 -0.4568 -0.1922 -0.3508
 3899SOL    HW123333   2.258   4.120   7.535  3.9747 -0.2264  0.9475
 3899SOL    HW223334   2.158   4.229   7.551 -0.2728  0.9081 -0.3863
 3900SOL     OW23335   2.647   4.222   6.293 -0.6957 -0.0815 -0.0487
 3900SOL    HW123336   2.589   4.183   6.358 -1.3997 -1.1407 -1.3018
 3900SOL    HW223337   2.583   4.233   6.222  0.6383  1.9418 -0.9458
 3901SOL     OW23338   3.207   4.265   2.862 -0.6853  0.1730  0.0385
 3901SOL    HW123339   3.289   4.272   2.813 -0.2450 -2.0002  0.4531
 3901SOL    HW223340   3.141   4.263   2.793 -2.2222  0.6315  1.4912
 3902SOL     OW23341   3.128   4.411  17.339 -0.2674 -0.3106  0.0479
 3902SOL    HW123342   3.101   4.482  17.281 -0.9075 -1.7307 -1.3653
 3902SOL    HW223343   3.177   4.460  17.405 -0.9031  0.4178 -0.0103
 3903SOL     OW23344   1.162   2.349  11.069  0.0691  0.5868  0.6924
 3903SOL    HW123345   1.255   2.365  11.086  0.4915  3.5986 -4.3077
 3903SOL    HW223346   1.125   2.432  11.041  2.1244  0.6669 -1.7933
 3904SOL     OW23347   1.105   1.000   8.464 -0.3528 -0.4206 -0.0625
 3904SOL    HW123348   1.106   1.056   8.386 -0.1088 -1.1535 -0.5910
 3904SOL    HW223349   1.158   0.930   8.425  0.1537 -0.2587  0.3457
 3905SOL     OW23350   2.825   1.518  11.971  0.0297  0.3348 -0.6215
 3905SOL    HW123351   2.891   1.452  11.995 -0.6492  0.6853  2.1844
 3905SOL    HW223352   2.846   1.588  12.031  1.4840  0.1471 -0.9033
 3906SOL     OW23353   4.734   0.996   1.792 -0.0540  0.2849  0.2419
 3906SOL    HW123354   4.710   1.014   1.701  1.2813 -0.7751 -0.3049
 3906SOL    HW223355   4.708   1.074   1.841 -2.2589  0.2211 -0.7919
 3907SOL     OW23356   1.445   3.682   1.714 -0.1265 -0.0719 -0.1386
 3907SOL    HW123357   1.461   3.759   1.660  1.4614 -0.2676  0.0584
 3907SOL    HW223358   1.508   3.626   1.669  1.2663  1.2168  0.1724
 3908SOL     OW23359   1.578   0.904   3.005  0.1842  0.4179 -0.8387
 3908SOL    HW123360   1.549   0.842   3.072 -0.6321  0.6327 -0.9885
 3908SOL    HW223361   1.527   0.982   3.025 -1.3073 -1.1349  1.3666
 3909SOL     OW23362   0.592   3.734   8.485  0.7543  0.0531  0.3936
 3909SOL    HW123363   0.534   3.672   8.442  0.2839  1.5599 -1.1379
 3909SOL    HW223364   0.534   3.742   8.561  0.8587  0.0264  0.4766
 3910SOL     OW23365   1.501   1.317   6.587  0.7614 -0.0415 -0.0806
 3910SOL    HW123366   1.594   1.334   6.570  0.2619 -0.1091 -2.8647
 3910SOL    HW223367   1.501   1.301   6.682 -0.3442  0.4769  0.0054
 3911SOL     OW23368   3.564   4.464   6.170 -0.8881 -0.7326 -0.1771
 3911SOL    HW123369   3.541   4.372   6.163  1.1560 -1.0613 -2.7027
 3911SOL    HW223370   3.512   4.504   6.100  0.9252  0.4014 -0.8999
 3912SOL     OW23371   2.198   3.076   4.233 -0.2518  0.6479  0.0797
 3912SOL    HW123372   2.255   3.007   4.199 -0.1339  0.9427 -0.3197
 3912SOL    HW223373   2.207   3.061   4.327  0.0746  0.7221  0.0577
 3913SOL     OW23374   0.809   0.851   7.772  0.7016  0.0268  0.2355
 3913SOL    HW123375   0.722   0.881   7.802  0.0007 -0.4967 -1.2788
 3913SOL    HW223376   0.802   0.827   7.680 -1.0536  2.0993 -0.1856
 3914SOL     OW23377   1.415   3.835   0.555  0.9804  0.1421 -0.5006
 3914SOL    HW123378   1.416   3.805   0.464 -0.7110 -1.1557 -0.0906
 3914SOL    HW223379   1.442   3.926   0.538  0.8275  0.5891  1.6661
 3915SOL     OW23380   0.825   4.457   2.723  0.3313 -0.0233 -0.6637
 3915SOL    HW123381   0.730   4.467   2.736  0.3799  1.9133 -1.9757
 3915SOL    HW223382   0.855   4.513   2.794  1.9489  1.0119 -2.1663
 3916SOL     OW23383   1.452   0.359   2.982  0.3447  0.3462  0.1655
 3916SOL    HW123384   1.371   0.384   3.026 -0.7683 -1.7232 -0.7089
 3916SOL    HW223385   1.511   0.329   3.051 -2.9543 -0.2015  2.7395
 3917SOL     OW23386   1.670   3.905   2.999 -0.2159  0.1357 -0.4046
 3917SOL    HW123387   1.588   3.936   3.037 -0.6865  1.0076 -2.1540
 3917SOL    HW223388   1.639   3.838   2.938 -1.1791 -0.1027  0.3423
 3918SOL     OW23389   0.876   3.964  11.580  0.2136  0.4158 -0.1815
 3918SOL    HW123390   0.795   4.007  11.550  0.5987  0.9318 -0.4813
 3918SOL    HW223391   0.905   3.937  11.493 -1.5806 -1.4359 -0.1871
 3919SOL     OW23392   1.789   3.348   8.725 -0.2362 -0.2809  0.4495
 3919SOL    HW123393   1.756   3.438   8.730 -3.3889 -1.4387  0.2873
 3919SOL    HW223394   1.848   3.359   8.650 -0.9602  1.7159  0.1698
 3920SOL     OW23395   3.512   0.428  11.796 -0.3643  0.3619 -0.6980
 3920SOL    HW123396   3.553   0.358  11.745 -1.2976 -0.5011 -0.2584
 3920SOL    HW223397   3.522   0.503  11.737  1.0475 -0.5171 -1.5746
 3921SOL     OW23398   1.992   0.857   2.004 -0.0697  0.0639 -0.1193
 3921SOL    HW123399   1.907   0.825   2.033  0.2253 -0.8067 -0.2247
 3921SOL    HW223400   2.054   0.813   2.063  0.7683  1.9113  0.3777
 3922SOL     OW23401   4.250   3.048   1.462 -0.0415  0.2746 -0.0435
 3922SOL    HW123402   4.320   2.995   1.500 -0.3404  1.0091  1.5413
 3922SOL    HW223403   4.303   3.076   1.388 -1.2791 -2.2384 -1.8752
 3923SOL     OW23404   3.314   1.525   6.594 -0.4663  0.4520  0.2793
 3923SOL    HW123405   3.343   1.443   6.556  1.8313  1.4068 -0.0426
 3923SOL    HW223406   3.275   1.575   6.522  1.0744  0.1633 -0.7452
 3924SOL     OW23407   0.499   3.386   1.838 -0.9262  0.2162 -0.0500
 3924SOL    HW123408   0.449   3.443   1.895 -3.0358 -2.5584  0.8716
 3924SOL    HW223409   0.485   3.299   1.875 -1.2024  0.5192  0.5521
 3925SOL     OW23410   4.386   0.724  16.569  0.0742  0.0568  0.5716
 3925SOL    HW123411   4.380   0.819  16.562  4.3039  0.2807  0.4858
 3925SOL    HW223412   4.441   0.703  16.493 -0.5233  0.3095  0.0654
 3926SOL     OW23413   2.799   2.274   8.860 -0.0244  0.0714 -0.2926
 3926SOL    HW123414   2.856   2.234   8.925 -0.5485 -1.2805 -0.6618
 3926SOL    HW223415   2.737   2.204   8.839 -1.7453  1.8477 -1.1681
 3927SOL     OW23416   0.986   1.303  13.687 -0.3713  0.2836 -0.1755
 3927SOL    HW123417   1.002   1.270  13.598  0.6871 -1.1765  0.5492
 3927SOL    HW223418   1.061   1.363  13.698 -0.5601  0.1780  1.6763
 3928SOL     OW23419   0.097   3.414   7.749  0.6931  0.1296  0.3810
 3928SOL    HW123420   0.035   3.386   7.816  0.4314  0.4786  0.2890
 3928SOL    HW223421   0.183   3.385   7.779  1.3778  0.0435 -1.6561
 3929SOL     OW23422   0.381   2.659   4.971  0.2676  0.3152  0.4917
 3929SOL    HW123423   0.352   2.691   4.885 -1.4973  2.1279  1.7547
 3929SOL    HW223424   0.459   2.610   4.947 -1.7850 -1.2156 -3.1068
 3930SOL     OW23425   2.615   3.949   3.854 -0.2081  0.6653  0.7635
 3930SOL    HW123426   2.565   3.981   3.928  2.1689  1.7948  1.9002
 3930SOL    HW223427   2.573   3.864   3.843  2.3345 -0.5359  0.1527
 3931SOL     OW23428   4.495   0.592   9.053 -0.0147  0.0410  1.1230
 3931SOL    HW123429   4.484   0.637   8.969 -2.2039 -2.6274 -0.0406
 3931SOL    HW223430   4.503   0.668   9.110  1.1823  2.0957 -1.8446
 3932SOL     OW23431   2.142   3.897   6.277 -1.0299  0.4402  0.0515
 3932SOL    HW123432   2.103   3.885   6.364 -2.2023 -1.3596 -0.7460
 3932SOL    HW223433   2.122   3.809   6.247  2.3136 -0.6070  0.8516
 3933SOL     OW23434   4.727   4.079  17.214  0.6269  0.3698  0.2460
 3933SOL    HW123435   4.679   4.013  17.164  1.3011  0.3345 -0.3489
 3933SOL    HW223436   4.721   4.151  17.151  1.8776  0.2473 -0.0114
 3934SOL     OW23437   1.701   3.055   7.067  0.1382 -0.5337 -0.8788
 3934SOL    HW123438   1.610   3.079   7.049 -0.0381  2.2595  3.5257
 3934SOL    HW223439   1.737   3.099   6.990  2.0714 -0.7775 -0.1188
 3935SOL     OW23440   3.419   1.513   2.631 -0.2125 -0.5807 -0.3103
 3935SOL    HW123441   3.366   1.433   2.642 -0.9494 -0.0053  0.2992
 3935SOL    HW223442   3.438   1.495   2.539  0.7217 -2.3393  0.2316
 3936SOL     OW23443   0.887   1.403   8.527 -0.7150  0.0034  0.0829
 3936SOL    HW123444   0.970   1.385   8.570 -1.5380 -0.3714  1.5166
 3936SOL    HW223445   0.835   1.380   8.604  0.2331 -1.6101  0.2292
 3937SOL     OW23446   4.106   1.339   8.215  0.2010 -0.0180  0.3225
 3937SOL    HW123447   4.052   1.358   8.138  1.8435 -0.0896 -0.8244
 3937SOL    HW223448   4.188   1.386   8.200  0.3416  1.0771  4.4406
 3938SOL     OW23449   4.475   0.036   4.767 -0.1315  0.4298 -0.3472
 3938SOL    HW123450   4.463   0.068   4.678  0.3135  2.1399  0.2155
 3938SOL    HW223451   4.387   4.736   4.773 -0.0512  0.4975  1.1894
 3939SOL     OW23452   0.863   2.121   4.779  0.2674 -0.4135  0.3982
 3939SOL    HW123453   0.855   2.105   4.685  1.6937  1.8241 -0.1096
 3939SOL    HW223454   0.806   2.050   4.809 -0.6819  0.4586  0.6344
 3940SOL     OW23455   4.348   3.796   3.110  0.0590 -0.2627 -0.1682
 3940SOL    HW123456   4.366   3.724   3.171  2.0094  1.0892  0.8396
 3940SOL    HW223457   4.424   3.806   3.052 -0.4808 -2.3288 -1.2397
 3941SOL     OW23458   2.917   0.291   1.998 -0.9031  0.2027 -0.0092
 3941SOL    HW123459   2.830   0.293   1.958 -0.2727  1.2095 -1.3305
 3941SOL    HW223460   2.974   0.268   1.924  0.4947  1.3676  0.7044
 3942SOL     OW23461   2.938   1.210   4.450  0.2280 -0.7242 -0.1875
 3942SOL    HW123462   2.900   1.189   4.365  0.9590  1.2144 -1.0070
 3942SOL    HW223463   3.029   1.239   4.440  0.3554 -0.9966  0.1865
 3943SOL     OW23464   2.856   2.959   9.896  0.5947  0.2891  0.7033
 3943SOL    HW123465   2.947   2.942   9.875  0.9778  0.2831  2.3951
 3943SOL    HW223466   2.866   3.054   9.900  0.3536  0.3195  0.5866
 3944SOL     OW23467   1.435   1.912   4.211  0.5604  0.2484  0.5718
 3944SOL    HW123468   1.472   1.919   4.123  1.5309 -2.5357  0.7740
 3944SOL    HW223469   1.342   1.907   4.187  0.7205 -1.5087  0.2983
 3945SOL     OW23470   3.345   4.513  10.591 -0.1224 -0.0196  0.1487
 3945SOL    HW123471   3.424   4.529  10.541  0.7706 -3.6568  0.4491
 3945SOL    HW223472   3.285   4.467  10.532  2.1094 -0.5541 -1.6890
 3946SOL     OW23473   3.843   1.566  17.003 -0.2465 -0.3022 -0.1204
 3946SOL    HW123474   3.892   1.528  16.930 -2.0031 -0.5104 -1.1898
 3946SOL    HW223475   3.792   1.632  16.954 -0.2806  0.7474  1.3240
 3947SOL     OW23476   1.107   3.824  17.330 -0.1978  0.3066  0.5903
 3947SOL    HW123477   1.072   3.910  17.355  1.9490  0.9031  1.5781
 3947SOL    HW223478   1.152   3.852  17.250  0.6241 -2.0800  0.2162
 3948SOL     OW23479   1.180   0.189   8.763 -0.1467 -0.4311 -0.6186
 3948SOL    HW123480   1.253   0.182   8.701  0.2587  0.6969 -0.2586
 3948SOL    HW223481   1.194   0.113   8.820  2.3593  0.0339 -0.6510
 3949SOL     OW23482   3.445   0.450   0.436  0.3224  0.2096 -0.2776
 3949SOL    HW123483   3.397   0.488   0.510 -1.2898 -0.2343 -1.1078
 3949SOL    HW223484   3.408   0.363   0.422  2.1978 -0.1985 -2.5154
 3950SOL     OW23485   0.805   0.502   3.354 -0.5521  0.0770  0.3024
 3950SOL    HW123486   0.866   0.443   3.398  0.6999  0.3773 -1.0237
 3950SOL    HW223487   0.725   0.467   3.393  0.2753 -0.4325  1.5559
 3951SOL     OW23488   2.621   2.313   5.118  0.0130 -0.4534  0.9130
 3951SOL    HW123489   2.578   2.309   5.203 -0.5002 -1.0266  0.6259
 3951SOL    HW223490   2.661   2.226   5.118  1.8895  0.4124  1.5940
 3952SOL     OW23491   0.454   4.166   7.434  0.0845 -0.5169  0.3146
 3952SOL    HW123492   0.548   4.169   7.450  0.2397 -1.0516 -0.5035
 3952SOL    HW223493   0.421   4.207   7.514  1.5697 -0.7657  1.0444
 3953SOL     OW23494   3.996   3.638   1.923  0.3322  0.0285  0.5726
 3953SOL    HW123495   4.031   3.669   1.840 -0.2442  0.0392  0.3280
 3953SOL    HW223496   4.066   3.596   1.973  0.9315 -0.5856 -0.7901
 3954SOL     OW23497   3.346   2.599   1.943 -0.0567  0.3462  0.0547
 3954SOL    HW123498   3.335   2.684   1.900  3.4643  1.9643  2.3649
 3954SOL    HW223499   3.390   2.551   1.872 -1.6728 -2.8798  1.2391
 3955SOL     OW23500   0.743   3.091  10.915  0.7654 -0.6131 -0.0473
 3955SOL    HW123501   0.704   3.108  10.830  0.9311 -1.6442 -0.3373
 3955SOL    HW223502   0.833   3.081  10.884  1.1151 -1.3698  1.2068
 3956SOL     OW23503   1.650   2.871   2.902 -0.3042  0.1653  0.5782
 3956SOL    HW123504   1.587   2.918   2.957  0.8103  2.0675  0.2199
 3956SOL    HW223505   1.734   2.887   2.946 -0.6083 -0.3442  1.3417
 3957SOL     OW23506   1.865   3.662  17.666 -0.0400  0.0591 -1.0056
 3957SOL    HW123507   1.882   3.575  17.701  0.9229  1.4436  1.9651
 3957SOL    HW223508   1.914   3.653  17.584  0.6029  1.5388 -0.7959
 3958SOL     OW23509   0.935   2.892   0.555  0.1090  0.1451  0.0152
 3958SOL    HW123510   0.918   2.814   0.503 -2.0207 -0.1986  1.2406
 3958SOL    HW223511   0.868   2.951   0.522 -0.5497 -0.5209  0.1794
 3959SOL     OW23512   0.119   2.493   3.773  0.2337 -0.2615 -0.2767
 3959SOL    HW123513   0.136   2.411   3.819 -2.6613 -0.5941  0.1635
 3959SOL    HW223514   0.143   2.556   3.841 -1.1532  0.3994 -0.4035
 3960SOL     OW23515   1.145   0.856   9.691  0.6411 -0.0124  0.2767
 3960SOL    HW123516   1.140   0.936   9.742  1.4007  0.3723 -0.2570
 3960SOL    HW223517   1.237   0.831   9.698  0.4009 -0.6855  1.1197
 3961SOL     OW23518   0.727   2.917   6.341  0.1890 -0.5821  0.0204
 3961SOL    HW123519   0.715   2.876   6.256  0.4049  0.9417 -0.7443
 3961SOL    HW223520   0.821   2.928   6.354  0.0309  0.8653 -0.0194
 3962SOL     OW23521   3.212   1.670   8.902  0.7846  0.0354  0.5696
 3962SOL    HW123522   3.247   1.648   8.815  0.7758  1.4598  0.2001
 3962SOL    HW223523   3.168   1.587   8.921  2.3748 -1.0330 -0.4078
 3963SOL     OW23524   4.045   4.509   9.052  0.0884 -0.4400  0.5213
 3963SOL    HW123525   3.990   4.543   9.122 -2.0196 -2.8525  0.0385
 3963SOL    HW223526   4.006   4.532   8.967 -1.1369  0.0350  1.2171
 3964SOL     OW23527   0.899   2.475   4.673 -0.3901  0.4419 -0.3094
 3964SOL    HW123528   0.922   2.535   4.744  0.4816 -1.8758  1.3670
 3964SOL    HW223529   0.841   2.413   4.717  1.1209 -0.3628  0.5465
 3965SOL     OW23530   1.105   2.864   3.128  0.4405 -0.3595  0.7659
 3965SOL    HW123531   1.056   2.946   3.127  2.2995  0.7345 -1.3219
 3965SOL    HW223532   1.099   2.837   3.036  1.4055  1.0824  0.2849
 3966SOL     OW23533   3.503   1.386   4.592 -0.8650  0.4910  0.2057
 3966SOL    HW123534   3.489   1.294   4.613 -2.4864 -0.3352 -4.5615
 3966SOL    HW223535   3.426   1.407   4.539 -1.5263  0.2717  1.0723
 3967SOL     OW23536   2.608   2.433   6.226  0.1300  0.4127 -0.9334
 3967SOL    HW123537   2.691   2.445   6.180  0.9726  0.4112  0.5892
 3967SOL    HW223538   2.649   2.407   6.309  1.3149  0.9845 -1.3422
 3968SOL     OW23539   0.078   2.667   5.654  0.7076 -0.1373  0.8487
 3968SOL    HW123540   0.051   2.612   5.580  0.9881  0.1896  0.5048
 3968SOL    HW223541   0.099   2.598   5.717  1.1343  1.9079  2.9127
 3969SOL     OW23542   4.352   4.454  13.449  0.3168 -1.1588  0.4553
 3969SOL    HW123543   4.433   4.406  13.468  0.4147 -1.3106 -0.3445
 3969SOL    HW223544   4.375   4.539  13.486  0.5589 -0.2641 -1.7286
 3970SOL     OW23545   1.521   3.892   4.618  0.5648  0.5796  0.4895
 3970SOL    HW123546   1.486   3.980   4.633  0.3716  0.5875 -0.0245
 3970SOL    HW223547   1.509   3.880   4.524  0.4525  0.5908  0.5021
 3971SOL     OW23548   1.045   1.649  10.514 -0.0050 -0.3158 -0.7874
 3971SOL    HW123549   0.970   1.662  10.455 -1.1097  2.3664  1.1659
 3971SOL    HW223550   1.101   1.721  10.485  0.6969 -0.9754 -1.0452
 3972SOL     OW23551   4.281   2.895  14.342  0.0442 -0.4149  0.2967
 3972SOL    HW123552   4.187   2.877  14.337  0.3459 -0.8819 -3.7960
 3972SOL    HW223553   4.285   2.971  14.400  0.8228 -1.3710  1.4684
 3973SOL     OW23554   2.544   2.456   6.863  0.0601 -0.1620 -0.4404
 3973SOL    HW123555   2.582   2.438   6.950  0.1676  1.9249 -0.0596
 3973SOL    HW223556   2.538   2.365   6.832  0.2543 -1.0309  2.0275
 3974SOL     OW23557   2.959   2.810  11.139 -0.0221 -0.9341  0.4992
 3974SOL    HW123558   2.884   2.766  11.180 -0.5651 -2.6853 -2.3170
 3974SOL    HW223559   3.004   2.730  11.112  1.4503  0.7852 -2.1622
 3975SOL     OW23560   2.246   0.908  15.189  0.3811  0.3179  0.0878
 3975SOL    HW123561   2.189   0.984  15.174 -0.6965 -0.4833  0.0872
 3975SOL    HW223562   2.304   0.908  15.113  0.0580  0.8006 -0.1624
 3976SOL     OW23563   3.128   0.863   3.599 -0.0909  0.0689  0.4294
 3976SOL    HW123564   3.143   0.914   3.520  2.3270 -0.4702  0.5390
 3976SOL    HW223565   3.176   0.917   3.663  1.8728 -0.0020 -0.9866
 3977SOL     OW23566   3.344   0.946  10.256 -0.1775  0.8018  0.6511
 3977SOL    HW123567   3.281   0.996  10.203 -0.2292 -0.1773 -0.2152
 3977SOL    HW223568   3.388   1.019  10.299  0.7905 -1.1810  2.9692
 3978SOL     OW23569   4.398   3.454   6.055 -0.1577  0.3266  0.5022
 3978SOL    HW123570   4.439   3.374   6.089  0.8974  1.0760  0.9993
 3978SOL    HW223571   4.323   3.446   6.113  0.2202 -0.6654  0.8650
 3979SOL     OW23572   2.167   0.291   4.915  0.1251  0.2738 -0.5712
 3979SOL    HW123573   2.116   0.268   4.837  0.2132 -0.3478 -0.4421
 3979SOL    HW223574   2.228   0.346   4.867 -1.2975  0.2029 -2.4614
 3980SOL     OW23575   1.451   1.143   8.520 -0.4313 -0.2936  0.4366
 3980SOL    HW123576   1.442   1.233   8.487  1.9832  0.0571  0.7485
 3980SOL    HW223577   1.414   1.091   8.449  1.2481 -1.7418  0.6089
 3981SOL     OW23578   4.517   3.675   7.384 -0.3201  0.3018  0.6375
 3981SOL    HW123579   4.537   3.582   7.397 -1.9764 -0.1732 -0.2055
 3981SOL    HW223580   4.505   3.678   7.289 -2.1435 -1.5601  0.8134
 3982SOL     OW23581   1.296   3.306   6.627 -0.1401 -0.3705  0.2171
 3982SOL    HW123582   1.315   3.312   6.533  0.1636  1.5159  0.3984
 3982SOL    HW223583   1.319   3.218   6.656  2.4003 -0.5989 -2.4588
 3983SOL     OW23584   4.055   2.517   6.049 -0.3336 -0.1173 -0.2158
 3983SOL    HW123585   4.138   2.547   6.012 -0.7000  1.7480  0.4820
 3983SOL    HW223586   4.103   2.447   6.094 -1.6922  0.2523  1.8191
 3984SOL     OW23587   4.681   3.108   2.515  0.3734  0.5584  0.2637
 3984SOL    HW123588   4.592   3.134   2.540  0.7762  1.4469  0.7869
 3984SOL    HW223589   4.668   3.068   2.429 -0.6063 -0.0307  0.6796
 3985SOL     OW23590   4.597   0.368   6.177 -0.6937  0.0564 -0.8515
 3985SOL    HW123591   4.620   0.423   6.251  1.8375 -2.0945 -0.0195
 3985SOL    HW223592   4.665   0.388   6.113  1.0335 -1.8867  0.3521
 3986SOL     OW23593   4.308   0.353   3.033 -0.5854 -0.5221  0.9820
 3986SOL    HW123594   4.265   0.334   3.117  0.0043  0.2405  1.4567
 3986SOL    HW223595   4.243   0.411   2.994 -0.2114 -0.7318  0.0628
 3987SOL     OW23596   2.212   1.186   7.946 -0.2754  0.0975  0.3313
 3987SOL    HW123597   2.179   1.271   7.975  2.9346  1.3732  0.1945
 3987SOL    HW223598   2.251   1.156   8.028  1.4529  1.1736 -0.0984
 3988SOL     OW23599   4.067   0.840  14.594  0.2212 -0.1257 -0.1327
 3988SOL    HW123600   4.133   0.771  14.601  3.2982  2.6859 -1.5401
 3988SOL    HW223601   4.073   0.870  14.685  2.7114 -2.2820  0.4274
 3989SOL     OW23602   0.519   2.440   7.143  0.0615 -0.7271 -0.5692
 3989SOL    HW123603   0.451   2.479   7.198  0.7273  0.6690 -0.7454
 3989SOL    HW223604   0.593   2.501   7.140  0.3587 -1.0081  0.9954
 3990SOL     OW23605   3.491   2.059   5.034  0.0891 -0.1699 -0.1560
 3990SOL    HW123606   3.472   1.971   5.067  1.8584 -1.2757 -2.0385
 3990SOL    HW223607   3.410   2.078   4.987 -0.6961  0.1981  1.3791
 3991SOL     OW23608   2.332   0.379   8.061  0.6309  0.7254 -0.2620
 3991SOL    HW123609   2.255   0.396   8.114 -0.1423  0.7652 -1.3782
 3991SOL    HW223610   2.352   0.290   8.090  0.3736  0.3237 -1.2847
 3992SOL     OW23611   0.946   0.254  11.738  0.0996  0.6533 -0.0854
 3992SOL    HW123612   0.991   0.210  11.666  0.6974  2.4748 -0.7994
 3992SOL    HW223613   0.931   0.185  11.803 -0.6430 -0.0827 -1.0308
 3993SOL     OW23614   3.785   4.577  15.344  0.5563 -0.0740  0.9112
 3993SOL    HW123615   3.788   4.522  15.422 -0.4330 -1.1280  0.2101
 3993SOL    HW223616   3.818   4.664  15.365 -0.6527  0.0287  2.4082
 3994SOL     OW23617   4.272   4.575  16.642 -0.0632 -0.6424 -0.2646
 3994SOL    HW123618   4.239   4.611  16.724 -0.1255 -0.7797 -0.2300
 3994SOL    HW223619   4.209   4.503  16.631 -1.1390  0.4227 -1.0893
 3995SOL     OW23620   0.187   0.162   8.732  0.1736  0.2821 -0.0803
 3995SOL    HW123621   0.249   0.090   8.718  1.7572  1.4040  1.1002
 3995SOL    HW223622   0.096   0.139   8.715  0.7711 -1.3635 -1.1085
 3996SOL     OW23623   0.447   0.834  10.036  0.6365  0.2310 -0.7448
 3996SOL    HW123624   0.432   0.926  10.017  2.1978  0.4714 -0.8552
 3996SOL    HW223625   0.421   0.790   9.956  1.5417 -0.6638 -0.5502
 3997SOL     OW23626   2.962   2.134   6.386  0.2528  0.2205  0.2723
 3997SOL    HW123627   2.961   2.228   6.367 -0.7025 -0.0318 -0.9190
 3997SOL    HW223628   2.994   2.149   6.475 -0.7884 -1.0378  0.8423
 3998SOL     OW23629   2.962   3.628   1.978  0.0648  0.5992  0.2952
 3998SOL    HW123630   3.058   3.630   1.983  0.1255 -0.1001 -0.5919
 3998SOL    HW223631   2.945   3.645   1.885  0.8260  0.7752  0.1825
 3999SOL     OW23632   1.790   0.791   4.645  0.6028 -0.4229  0.0511
 3999SOL    HW123633   1.768   0.842   4.723  1.6894  1.5915 -0.9518
 3999SOL    HW223634   1.710   0.807   4.593  1.3751  0.0479 -0.9946
 4000SOL     OW23635   0.947   2.190  16.426 -0.7890  0.0461 -0.7946
 4000SOL    HW123636   0.962   2.097  16.446  2.6672  0.7650  0.0136
 4000SOL    HW223637   0.853   2.197  16.443 -1.0073 -0.8895 -1.5822
 4001SOL     OW23638   1.379   0.001   8.621  0.0462 -0.7807  0.1574
 4001SOL    HW123639   1.437   4.678   8.573  1.6585  0.3083  0.7375
 4001SOL    HW223640   1.308   4.679   8.645  0.9126 -2.4112 -1.3379
 4002SOL     OW23641   1.322   1.523   8.536 -0.1650  0.5320 -0.3909
 4002SOL    HW123642   1.362   1.482   8.460 -3.1643  0.2716 -1.8283
 4002SOL    HW223643   1.395   1.557   8.588  0.2009  2.2693 -2.0314
 4003SOL     OW23644   4.677   2.396   4.505  0.4636 -0.2161 -0.0612
 4003SOL    HW123645   4.603   2.343   4.477  0.1409  0.3626 -0.3007
 4003SOL    HW223646   4.727   2.334   4.559 -0.9843  0.0965  1.6171
 4004SOL     OW23647   4.288   1.741   3.569  0.4244 -0.3793  0.0501
 4004SOL    HW123648   4.338   1.736   3.488  1.3293  1.5832  0.5044
 4004SOL    HW223649   4.209   1.691   3.545 -1.5676  0.5963  4.6001
 4005SOL     OW23650   0.277   1.789  13.557  0.5549 -0.3630 -0.4319
 4005SOL    HW123651   0.243   1.842  13.628 -1.2402 -2.7969  0.5442
 4005SOL    HW223652   0.335   1.729  13.604  0.0365 -1.0804 -0.6992
 4006SOL     OW23653   3.001   3.582   5.356 -0.2641 -0.2891 -1.0493
 4006SOL    HW123654   2.914   3.573   5.393 -0.0723  2.2235 -0.0210
 4006SOL    HW223655   3.004   3.509   5.293  2.4223 -1.1657  0.0824
 4007SOL     OW23656   0.248   3.979  17.692 -0.1951 -0.1527  0.6561
 4007SOL    HW123657   0.218   4.055  17.742  1.5620 -0.1594  1.7256
 4007SOL    HW223658   0.224   4.007  17.604  0.5753 -0.6530  0.2889
 4008SOL     OW23659   1.415   3.718   0.792  0.2863 -0.2657  0.0492
 4008SOL    HW123660   1.404   3.736   0.698  0.8332  0.5616  0.1501
 4008SOL    HW223661   1.324   3.720   0.823 -1.5144 -3.6791 -4.9239
 4009SOL     OW23662   4.069   0.306   3.255 -0.1593  0.8959 -0.2673
 4009SOL    HW123663   3.998   0.258   3.298  3.0773 -3.7142 -0.0469
 4009SOL    HW223664   4.094   0.369   3.323  0.4286 -0.9864  1.2513
 4010SOL     OW23665   2.855   1.953   6.031  0.0797 -0.3400  0.1391
 4010SOL    HW123666   2.835   1.869   5.989 -0.6546  0.2849 -0.7572
 4010SOL    HW223667   2.921   1.922   6.094  1.1105 -1.1144 -1.3208
 4011SOL     OW23668   3.075   0.109   5.603 -0.1242  0.1380 -0.0558
 4011SOL    HW123669   3.170   0.097   5.600 -0.1886 -0.7073  1.6066
 4011SOL    HW223670   3.058   0.142   5.691  0.0191 -1.1800  0.4548
 4012SOL     OW23671   3.542   3.836   7.370  0.3265 -0.2312  0.3487
 4012SOL    HW123672   3.523   3.743   7.367 -0.5209 -0.0479 -0.0652
 4012SOL    HW223673   3.579   3.846   7.458  0.5201  0.5508  0.1872
 4013SOL     OW23674   3.509   0.110   7.832 -0.3468  0.0640  0.3944
 4013SOL    HW123675   3.506   0.106   7.928  1.0575  0.7189  0.4780
 4013SOL    HW223676   3.592   0.069   7.808  0.0099  1.3901 -0.6489
 4014SOL     OW23677   1.343   2.386   4.461 -0.8774 -0.2154  0.0773
 4014SOL    HW123678   1.399   2.310   4.446  0.4533  0.5803  1.0111
 4014SOL    HW223679   1.266   2.345   4.499  0.0240 -0.5164  1.5628
 4015SOL     OW23680   3.852   1.384   3.628  0.0190 -0.1274  0.3145
 4015SOL    HW123681   3.840   1.439   3.705 -0.5182  0.7825 -0.4224
 4015SOL    HW223682   3.914   1.324   3.670 -0.9071 -1.4768 -0.2411
 4016SOL     OW23683   2.846   4.702  12.588  0.1359  0.1969  0.1346
 4016SOL    HW123684   2.759   4.663  12.593  0.9161 -1.6749 -0.9588
 4016SOL    HW223685   2.843   4.723  12.494  0.3479 -0.9868 -0.1356
 4017SOL     OW23686   3.827   3.888   3.117 -0.2882 -0.2195 -0.1610
 4017SOL    HW123687   3.852   3.847   3.035 -1.3643  0.6871 -0.9482
 4017SOL    HW223688   3.904   3.936   3.149 -0.0566  0.4199 -1.7002
 4018SOL     OW23689   3.352   4.086   4.696  0.4239  0.4276 -0.6081
 4018SOL    HW123690   3.411   4.161   4.698  1.2451 -0.1625 -2.3327
 4018SOL    HW223691   3.399   4.015   4.738 -0.7550  0.1570  0.2624
 4019SOL     OW23692   2.928   1.956  13.067  0.1419 -0.3531 -0.4776
 4019SOL    HW123693   2.971   1.987  13.147 -0.6174 -3.0867  1.0020
 4019SOL    HW223694   2.900   2.038  13.025 -0.6130 -0.1826  0.3539
 4020SOL     OW23695   3.477   2.457   2.912  0.3858  0.4515 -0.4175
 4020SOL    HW123696   3.441   2.537   2.873 -1.6898 -0.7904 -0.9896
 4020SOL    HW223697   3.448   2.389   2.852  0.3195 -1.8519  2.2149
 4021SOL     OW23698   1.312   2.597   6.924 -0.7993 -0.3148  0.1310
 4021SOL    HW123699   1.252   2.663   6.958 -0.0359 -0.3956  1.6285
 4021SOL    HW223700   1.258   2.531   6.968  0.3529  0.0028  1.9905
 4022SOL     OW23701   0.964   3.263  10.290  0.1616 -0.9309 -0.4271
 4022SOL    HW123702   1.012   3.316  10.227  0.4121 -0.9705 -0.2694
 4022SOL    HW223703   0.966   3.180  10.243  1.1666 -1.4718  0.5614
 4023SOL     OW23704   1.318   3.584   2.831 -0.4884  0.1655 -0.3132
 4023SOL    HW123705   1.311   3.497   2.791 -2.3940 -0.7608  2.0391
 4023SOL    HW223706   1.413   3.596   2.841 -0.5913  0.6768  0.0472
 4024SOL     OW23707   3.168   3.461   1.424 -0.1910  0.2572 -0.1647
 4024SOL    HW123708   3.102   3.462   1.355  0.9583  0.8817 -1.2667
 4024SOL    HW223709   3.131   3.406   1.493  2.4097 -2.3838 -0.8530
 4025SOL     OW23710   2.972   0.119   6.626  0.5428  0.0518  0.3011
 4025SOL    HW123711   2.940   0.045   6.574  1.8046 -0.3013  0.0290
 4025SOL    HW223712   3.055   0.146   6.586 -0.2705 -0.5902 -1.8056
 4026SOL     OW23713   4.707   1.660  15.230  0.8992 -0.4804 -0.1054
 4026SOL    HW123714   0.005   1.571  15.233  2.0856 -0.0343 -0.9029
 4026SOL    HW223715   4.635   1.641  15.290 -0.2504  0.4192 -1.2208
 4027SOL     OW23716   3.498   2.930   4.663 -0.0136  0.2696 -0.1121
 4027SOL    HW123717   3.433   2.995   4.636 -1.9119 -2.0507 -1.1315
 4027SOL    HW223718   3.574   2.988   4.671 -0.2046  0.4854  0.1357
 4028SOL     OW23719   1.327   0.694  11.436 -0.0509  0.9825  0.1194
 4028SOL    HW123720   1.400   0.756  11.430  1.6971 -1.4207 -3.5970
 4028SOL    HW223721   1.367   0.627  11.492  0.0506  0.9314 -0.0123
 4029SOL     OW23722   1.136   1.525   7.767 -0.3166 -0.2348 -0.3191
 4029SOL    HW123723   1.187   1.604   7.788  0.1949 -0.9197  0.9873
 4029SOL    HW223724   1.053   1.546   7.810  0.7131 -0.3412  1.7537
 4030SOL     OW23725   0.822   3.056   3.691 -0.7348  0.0833 -0.0214
 4030SOL    HW123726   0.886   2.985   3.694  0.7462  1.5635  3.9181
 4030SOL    HW223727   0.741   3.007   3.678 -2.0156  1.8674  1.1456
 4031SOL     OW23728   0.114   1.927   7.325  0.8059  0.1527 -0.2144
 4031SOL    HW123729   0.069   1.842   7.325  0.3807  0.3781  0.6192
 4031SOL    HW223730   0.145   1.943   7.414  0.6694 -1.2296  0.0938
 4032SOL     OW23731   0.517   2.378  17.611  0.3279 -0.2782  0.1864
 4032SOL    HW123732   0.446   2.363  17.674 -0.5552  2.1548 -0.2067
 4032SOL    HW223733   0.559   2.455  17.651 -1.7396  0.2575  1.3114
 4033SOL     OW23734   3.886   2.813  17.098  0.0109  0.2037  0.0811
 4033SOL    HW123735   3.937   2.794  17.019 -0.5918  0.2939 -0.3275
 4033SOL    HW223736   3.831   2.875  17.051  1.7190  0.1310 -2.0459
 4034SOL     OW23737   0.275   2.777   5.821  0.7656  0.4179 -0.6659
 4034SOL    HW123738   0.265   2.750   5.729  0.0570 -1.1692 -0.1128
 4034SOL    HW223739   0.189   2.766   5.861  1.4906  1.6895  1.2408
 4035SOL     OW23740   3.047   4.155  14.071 -0.0757 -0.0585 -0.3025
 4035SOL    HW123741   3.011   4.218  14.133 -1.5169 -1.6399  0.4751
 4035SOL    HW223742   3.129   4.124  14.110  0.5570  1.3377 -0.5125
 4036SOL     OW23743   4.520   2.212   8.509  0.0915 -0.4626 -0.4669
 4036SOL    HW123744   4.425   2.207   8.512 -0.0093  0.3615 -2.4356
 4036SOL    HW223745   4.522   2.302   8.541  0.0722 -1.1821  1.5922
 4037SOL     OW23746   1.111   4.562   1.873 -0.3400 -0.1390  0.2481
 4037SOL    HW123747   1.024   4.560   1.913 -0.1114  1.6143  0.8134
 4037SOL    HW223748   1.085   4.615   1.798 -0.1724 -0.2874  0.0851
 4038SOL     OW23749   2.583   0.162  15.226  0.2996 -0.0706  0.0841
 4038SOL    HW123750   2.670   0.151  15.188  0.6029 -1.6326  1.1942
 4038SOL    HW223751   2.566   0.256  15.226  0.3419 -0.0638 -1.2969
 4039SOL     OW23752   2.724   1.298  13.620 -0.1624  0.6529  0.5039
 4039SOL    HW123753   2.663   1.275  13.549 -0.2833 -2.3274  1.5867
 4039SOL    HW223754   2.722   1.393  13.612 -0.0799  0.4550 -1.9488
 4040SOL     OW23755   4.692   2.929   1.314 -0.2680 -0.1976  0.1617
 4040SOL    HW123756   4.710   3.010   1.266 -1.7952  1.4120  2.3162
 4040SOL    HW223757   4.700   2.864   1.244 -2.1163  0.8143 -0.9830
 4041SOL     OW23758   4.605   0.738   4.168 -0.1449  0.5227 -0.3847
 4041SOL    HW123759   4.564   0.824   4.162 -1.2926 -0.0613 -0.8958
 4041SOL    HW223760   4.644   0.736   4.080  0.5214 -1.7407 -0.0233
 4042SOL     OW23761   0.544   0.626  11.423 -0.7748  0.5904 -0.0991
 4042SOL    HW123762   0.574   0.706  11.380 -2.4949  0.8123 -0.8815
 4042SOL    HW223763   0.616   0.614  11.485 -0.7385  2.6954  0.2764
 4043SOL     OW23764   0.188   0.906   4.395 -0.0447  0.1400  0.1268
 4043SOL    HW123765   0.224   0.817   4.397 -2.8762 -0.9940  0.3181
 4043SOL    HW223766   0.246   0.944   4.461  0.6165  0.2282 -0.5056
 4044SOL     OW23767   0.528   2.923   4.636  0.1304  0.3712 -0.3886
 4044SOL    HW123768   0.614   2.902   4.671 -0.1065 -0.2050 -0.1483
 4044SOL    HW223769   0.540   3.018   4.641 -0.0797  0.5553 -3.1125
 4045SOL     OW23770   2.594   3.442   6.930  0.2916  0.4301 -0.4051
 4045SOL    HW123771   2.567   3.532   6.945  2.0075  0.8074  0.4314
 4045SOL    HW223772   2.654   3.464   6.858  1.5499  0.3696  0.6318
 4046SOL     OW23773   1.606   3.708   4.908  0.0635  0.4088 -0.1988
 4046SOL    HW123774   1.614   3.658   4.989  0.5502 -0.5861 -0.8557
 4046SOL    HW223775   1.512   3.701   4.887  0.1727  0.9503 -0.8623
 4047SOL     OW23776   2.099   1.334   1.789 -0.3260 -0.0764 -0.0045
 4047SOL    HW123777   2.059   1.253   1.822  0.6196 -1.4551 -2.1994
 4047SOL    HW223778   2.188   1.308   1.764  0.2795  0.4404  1.5552
 4048SOL     OW23779   2.783   2.697  14.316 -0.2428  0.3907  0.2043
 4048SOL    HW123780   2.733   2.616  14.304  2.7224 -1.3835 -0.1442
 4048SOL    HW223781   2.756   2.748  14.240  0.4384  0.8662  0.2854
 4049SOL     OW23782   4.236   3.389   8.342 -0.2030  0.9477 -0.1910
 4049SOL    HW123783   4.274   3.474   8.321 -0.7259  1.5214  1.1971
 4049SOL    HW223784   4.172   3.424   8.404  0.8393  0.8831  0.9206
 4050SOL     OW23785   1.387   2.232   8.744 -0.0299 -0.4288  0.1645
 4050SOL    HW123786   1.341   2.150   8.761 -1.5733  0.6228  1.0403
 4050SOL    HW223787   1.447   2.198   8.677 -0.4721 -1.0278  0.0745
 4051SOL     OW23788   0.659   4.094   8.505  0.3090  0.5657  1.1564
 4051SOL    HW123789   0.573   4.055   8.490  1.3428 -1.4820  0.6565
 4051SOL    HW223790   0.686   4.066   8.592  0.8396 -1.1832  0.4213
 4052SOL     OW23791   2.354   4.451   6.240  0.3678  0.1471  0.6771
 4052SOL    HW123792   2.299   4.373   6.232  0.1071  0.6400 -2.2460
 4052SOL    HW223793   2.303   4.516   6.288 -2.0313  0.8184 -2.7987
 4053SOL     OW23794   4.077   2.974  12.467 -0.2164 -0.8058 -0.2539
 4053SOL    HW123795   4.112   3.034  12.401 -0.6090 -0.0290  0.2425
 4053SOL    HW223796   4.011   3.028  12.512 -1.0163 -0.7529 -1.4897
 4054SOL     OW23797   0.528   2.778   3.385 -0.5310 -0.0208 -0.0971
 4054SOL    HW123798   0.556   2.691   3.358  0.7676  0.9048 -1.6617
 4054SOL    HW223799   0.468   2.758   3.457 -1.6249  0.9634 -0.7223
 4055SOL     OW23800   4.085   2.908   4.149 -0.0649 -0.1514  0.1157
 4055SOL    HW123801   4.148   2.839   4.173  1.0848  0.7656 -0.2248
 4055SOL    HW223802   4.021   2.865   4.093 -0.2333 -0.1096  0.2780
 4056SOL     OW23803   1.154   2.966   3.979  0.4898 -0.2038  0.5713
 4056SOL    HW123804   1.172   2.948   3.887 -1.1676 -0.0889  0.2233
 4056SOL    HW223805   1.098   2.891   3.998  1.5713 -0.9644  0.7910
 4057SOL     OW23806   3.634   0.624   7.299  0.2342  0.8301  0.3262
 4057SOL    HW123807   3.686   0.663   7.370 -0.4587 -1.0372  1.8604
 4057SOL    HW223808   3.698   0.568   7.254  0.3448  1.5357 -0.4002
 4058SOL     OW23809   0.644   0.854  11.332  0.6056 -0.3456 -0.4479
 4058SOL    HW123810   0.707   0.906  11.282  0.2020 -0.1661 -0.7739
 4058SOL    HW223811   0.560   0.877  11.292  0.0899 -0.4218  0.5953
 4059SOL     OW23812   4.565   0.767   1.652 -0.3104 -0.2761 -0.5772
 4059SOL    HW123813   4.598   0.857   1.642 -1.9893  0.2591 -1.3558
 4059SOL    HW223814   4.635   0.718   1.611 -1.7369 -0.2373 -3.0446
 4060SOL     OW23815   4.650   4.138   4.199 -0.0971 -0.7381  0.8565
 4060SOL    HW123816   4.661   4.233   4.198 -2.9498 -0.4233 -0.8353
 4060SOL    HW223817   4.679   4.127   4.108  0.8163  2.7518  0.7393
 4061SOL     OW23818   2.840   4.541  16.601 -0.3736 -0.5571  0.0223
 4061SOL    HW123819   2.745   4.552  16.597 -0.3629 -0.5113 -0.1009
 4061SOL    HW223820   2.845   4.448  16.624  0.3309 -0.7418 -0.8623
 4062SOL     OW23821   4.466   3.500   2.138  0.3052  0.3881  0.0460
 4062SOL    HW123822   4.495   3.498   2.229  1.0371 -1.7828 -0.2336
 4062SOL    HW223823   4.436   3.409   2.137 -3.2297  1.5407 -0.7666
 4063SOL     OW23824   3.249   2.993   6.740 -0.0485 -0.2089  0.1897
 4063SOL    HW123825   3.214   2.920   6.792 -1.2706  0.3662  0.1755
 4063SOL    HW223826   3.302   3.049   6.796  1.4753 -0.7898 -0.6988
 4064SOL     OW23827   1.849   1.707  15.834 -0.2146 -0.1436 -0.5615
 4064SOL    HW123828   1.805   1.664  15.761  0.5258  1.3936 -1.9026
 4064SOL    HW223829   1.934   1.664  15.834  0.2952  0.8589  1.0474
 4065SOL     OW23830   4.445   0.303   1.352  0.4604 -0.3147  0.3336
 4065SOL    HW123831   4.481   0.232   1.406 -0.4008 -0.4598  0.7182
 4065SOL    HW223832   4.453   0.267   1.264 -1.3335 -1.5327  0.6633
 4066SOL     OW23833   2.745   1.824   7.964 -0.3361  0.0277 -0.0770
 4066SOL    HW123834   2.821   1.788   7.919 -0.8735 -0.4754 -0.5721
 4066SOL    HW223835   2.724   1.753   8.025 -0.4486 -0.3847 -0.6034
 4067SOL     OW23836   3.854   0.415   3.095  0.4298  0.0685  0.1197
 4067SOL    HW123837   3.916   0.403   3.024 -1.5126  0.3219 -1.5952
 4067SOL    HW223838   3.844   0.324   3.122  0.4945  0.8021  2.6658
 4068SOL     OW23839   4.643   4.510   2.222 -0.2932 -0.0092 -0.3566
 4068SOL    HW123840   4.603   4.452   2.286 -1.2102  1.2026  0.1761
 4068SOL    HW223841   4.692   4.442   2.176  0.3166  1.2215 -1.5484
 4069SOL     OW23842   1.996   2.713  12.706 -0.4337  0.0150 -0.2250
 4069SOL    HW123843   1.910   2.746  12.733  0.6566  2.2877  0.4417
 4069SOL    HW223844   2.047   2.790  12.732  1.0127 -0.7045 -0.9675
 4070SOL     OW23845   1.238   0.844   1.676 -0.1574 -0.0520 -0.4178
 4070SOL    HW123846   1.145   0.824   1.663  0.0730 -0.9529 -0.6432
 4070SOL    HW223847   1.236   0.924   1.729  1.4080 -0.0940 -0.2999
 4071SOL     OW23848   1.854   3.747   2.152  0.1451 -0.3488 -0.4103
 4071SOL    HW123849   1.846   3.784   2.064 -1.8115  0.3015  0.0407
 4071SOL    HW223850   1.947   3.729   2.143  0.4298 -1.1483  4.5525
 4072SOL     OW23851   3.920   0.042  15.509 -0.9007  0.2388 -0.4147
 4072SOL    HW123852   4.012   0.068  15.507 -0.7174 -0.1970  2.0575
 4072SOL    HW223853   3.893   0.072  15.596  0.0141  1.0304 -0.4023
 4073SOL     OW23854   0.835   4.060   0.148 -0.0831  0.1451 -0.0912
 4073SOL    HW123855   0.881   4.120   0.207 -1.5834  0.9804  0.2448
 4073SOL    HW223856   0.759   4.054   0.207  0.0784 -0.3548  0.0683
 4074SOL     OW23857   2.929   2.453   8.685  0.2569 -0.1653  0.1897
 4074SOL    HW123858   2.932   2.450   8.589  0.9589 -0.4411  0.2224
 4074SOL    HW223859   2.886   2.372   8.711  0.3008  0.3798  1.9515
 4075SOL     OW23860   1.754   0.039   4.970 -0.0687  0.3769 -0.2220
 4075SOL    HW123861   1.698   0.010   5.043  1.1588  0.7233  0.8653
 4075SOL    HW223862   1.808   0.108   5.008  1.2171 -0.1229 -1.1647
 4076SOL     OW23863   3.189   2.988   2.653  0.1861  0.6292 -0.3560
 4076SOL    HW123864   3.241   2.992   2.734  1.2071 -0.4643 -0.9516
 4076SOL    HW223865   3.162   2.897   2.646  2.3467 -0.2459  2.3879
 4077SOL     OW23866   4.727   1.127   4.600 -0.0171 -0.0422 -0.1953
 4077SOL    HW123867   0.054   1.084   4.655 -1.7049 -0.3262  1.5516
 4077SOL    HW223868   4.686   1.174   4.673  1.1231  0.5965  0.0373
 4078SOL     OW23869   0.406   2.255   7.590  0.4704 -0.1632  0.2749
 4078SOL    HW123870   0.448   2.171   7.608  1.3929  0.4550  0.9815
 4078SOL    HW223871   0.411   2.260   7.494  0.1490  1.0040  0.3212
 4079SOL     OW23872   1.568   0.732   6.771  0.0326 -0.1489  0.2293
 4079SOL    HW123873   1.598   0.641   6.773  1.5132  0.3423  0.2073
 4079SOL    HW223874   1.483   0.718   6.728  0.7501  0.6088 -1.4571
 4080SOL     OW23875   0.728   0.545  17.278 -0.1451 -0.0554 -0.3817
 4080SOL    HW123876   0.736   0.635  17.247  0.2094  0.4656  1.1943
 4080SOL    HW223877   0.633   0.537  17.284 -0.1368 -1.4914 -2.1276
 4081SOL     OW23878   4.325   2.621   8.460  0.1343  0.2502  0.0760
 4081SOL    HW123879   4.332   2.540   8.510  0.3689 -0.5653 -1.2742
 4081SOL    HW223880   4.344   2.583   8.374  0.0269  0.8418 -0.2075
 4082SOL     OW23881   1.098   4.366  11.398 -0.0061 -0.2469 -0.3878
 4082SOL    HW123882   1.071   4.310  11.470  0.2234 -1.3263 -1.1320
 4082SOL    HW223883   1.081   4.449  11.442 -1.5324 -1.0738  0.5521
 4083SOL     OW23884   2.790   1.840   5.582 -0.2156 -0.3544  0.4079
 4083SOL    HW123885   2.785   1.834   5.487  1.4860  1.8529  0.1903
 4083SOL    HW223886   2.880   1.813   5.600  0.1298 -0.1900 -1.1219
 4084SOL     OW23887   1.424   0.470   2.232 -0.0733  0.0778  0.3776
 4084SOL    HW123888   1.494   0.522   2.271 -1.5444 -0.8610  4.3279
 4084SOL    HW223889   1.419   0.399   2.296 -1.6025 -0.0120  0.1634
 4085SOL     OW23890   4.559   3.875   9.036  0.6871 -0.2753 -0.0788
 4085SOL    HW123891   4.570   3.803   9.098 -0.2043 -1.1915 -1.0000
 4085SOL    HW223892   4.493   3.930   9.079 -1.6252 -3.4523  0.4243
 4086SOL     OW23893   1.080   1.540   7.310 -0.0982  0.0495  0.0459
 4086SOL    HW123894   1.144   1.470   7.316  0.2672  0.4850  1.1271
 4086SOL    HW223895   1.152   1.602   7.296 -1.3591  1.0884 -1.8713
 4087SOL     OW23896   3.589   1.420   7.719  0.0962  0.4361  0.0247
 4087SOL    HW123897   3.567   1.469   7.640  1.9866 -0.5858 -1.1486
 4087SOL    HW223898   3.523   1.439   7.786 -1.5414 -0.7899 -1.2502
 4088SOL     OW23899   2.658   2.934   4.815 -0.0531 -0.5140 -0.2782
 4088SOL    HW123900   2.704   3.011   4.781 -0.6118  0.9004  2.2031
 4088SOL    HW223901   2.578   2.985   4.829 -1.1137 -1.7833 -1.6376
 4089SOL     OW23902   4.339   2.725   6.722 -0.1996 -0.4877  0.2710
 4089SOL    HW123903   4.272   2.733   6.654 -1.1313 -0.2229  1.2218
 4089SOL    HW223904   4.357   2.631   6.726  2.1980  0.0145  1.1158
 4090SOL     OW23905   0.198   4.424  12.362 -0.0883 -0.3694 -0.2018
 4090SOL    HW123906   0.190   4.364  12.437 -0.6201 -0.7633 -0.5766
 4090SOL    HW223907   0.189   4.356  12.296  1.7052 -1.8440  1.0644
 4091SOL     OW23908   3.457   1.060  14.313  0.0538 -0.6959  0.0197
 4091SOL    HW123909   3.486   1.143  14.275 -2.1503 -0.2172 -0.6568
 4091SOL    HW223910   3.437   1.094  14.401 -0.4857  2.3182 -1.2553
 4092SOL     OW23911   3.216   2.822   3.858 -0.5924 -0.2890 -0.0911
 4092SOL    HW123912   3.201   2.730   3.839 -1.1679  0.0654 -1.3451
 4092SOL    HW223913   3.237   2.811   3.951  0.8395  1.9831 -0.1390
 4093SOL     OW23914   1.049   0.736   4.400  0.1872  0.7142  0.4685
 4093SOL    HW123915   1.117   0.741   4.467  0.8593 -1.4712 -0.0571
 4093SOL    HW223916   0.998   0.664   4.436  1.6812 -1.1146 -1.0515
 4094SOL     OW23917   1.369   1.477   9.616 -0.1521 -0.2802 -0.3303
 4094SOL    HW123918   1.449   1.442   9.656 -0.0439 -2.6077 -2.5594
 4094SOL    HW223919   1.312   1.461   9.691  0.1596 -2.0049 -0.4550
 4095SOL     OW23920   1.035   1.369  15.008  0.2809  0.7694 -0.2640
 4095SOL    HW123921   0.952   1.356  15.053 -0.4867 -0.7654 -2.0730
 4095SOL    HW223922   1.068   1.279  15.012 -0.6728  0.3005 -2.7132
 4096SOL     OW23923   1.132   4.424   7.163 -0.1390 -0.0595 -0.2243
 4096SOL    HW123924   1.182   4.412   7.244  1.0454 -0.8318 -1.0520
 4096SOL    HW223925   1.050   4.461   7.192  1.0198  0.3717  2.4733
 4097SOL     OW23926   2.711   3.688   7.028 -0.0290  0.2120  0.2790
 4097SOL    HW123927   2.712   3.780   7.055  0.8976 -0.3532  2.1944
 4097SOL    HW223928   2.786   3.689   6.969 -0.0579 -0.7956  0.2226
 4098SOL     OW23929   3.382   1.902  15.961  0.2389 -0.2088 -0.0908
 4098SOL    HW123930   3.411   1.979  16.010 -0.6942  0.6990 -0.9788
 4098SOL    HW223931   3.289   1.925  15.964  0.0189 -1.0920 -0.0948
 4099SOL     OW23932   2.267   3.942   7.482  0.4028  0.0584  0.0157
 4099SOL    HW123933   2.300   3.864   7.437 -1.6819 -0.1110 -1.2602
 4099SOL    HW223934   2.267   3.913   7.573 -0.7732 -0.2148 -0.0687
 4100SOL     OW23935   1.566   2.678   7.098 -0.1014  0.8593 -0.1332
 4100SOL    HW123936   1.533   2.604   7.047 -1.3113  1.3600 -0.0816
 4100SOL    HW223937   1.630   2.635   7.155  1.1117  1.2468 -1.1852
 4101SOL     OW23938   4.686   1.221   7.713 -0.3671 -0.4308  0.6824
 4101SOL    HW123939   4.705   1.181   7.628 -0.3569  3.4974 -1.1539
 4101SOL    HW223940   4.700   1.313   7.693  0.6718 -0.3902  1.5705
 4102SOL     OW23941   0.667   0.245   4.666  0.0492 -0.0710 -0.3916
 4102SOL    HW123942   0.584   0.233   4.712  0.7033  1.4669  1.1705
 4102SOL    HW223943   0.730   0.250   4.738  0.9528 -1.2529 -1.0978
 4103SOL     OW23944   4.488   0.487  16.157 -0.3608  0.1666 -0.2677
 4103SOL    HW123945   4.498   0.562  16.215 -1.6866  0.5608 -0.5459
 4103SOL    HW223946   4.399   0.459  16.182 -0.7741  2.2918  0.6094
 4104SOL     OW23947   1.133   0.663   3.318 -0.1904 -0.4057  0.4665
 4104SOL    HW123948   1.198   0.732   3.333 -3.1698  2.4921  0.0589
 4104SOL    HW223949   1.072   0.686   3.388 -1.2506  1.6948 -1.1405
 4105SOL     OW23950   2.714   2.289  11.778  0.4257  0.0020  0.3220
 4105SOL    HW123951   2.765   2.302  11.858  1.3955  0.3700 -0.3579
 4105SOL    HW223952   2.633   2.332  11.804  0.6272  1.5439 -1.5820
 4106SOL     OW23953   2.865   1.259   2.557 -0.0296  0.5079  0.3114
 4106SOL    HW123954   2.815   1.210   2.622  0.3059  1.1688  1.0857
 4106SOL    HW223955   2.841   1.349   2.579 -0.0272  0.9880 -1.6580
 4107SOL     OW23956   4.067   2.542   2.060 -0.5010 -0.6958 -0.0302
 4107SOL    HW123957   4.086   2.455   2.095  1.0210 -0.0511  0.7305
 4107SOL    HW223958   4.143   2.557   2.004 -0.7335  0.7756  0.0618
 4108SOL     OW23959   2.028   0.042   9.611  0.3262  0.2215  0.0517
 4108SOL    HW123960   2.082   4.706   9.640 -0.0987  0.6090  1.8191
 4108SOL    HW223961   1.948   0.015   9.656 -0.4090  0.5989 -1.0235
 4109SOL     OW23962   0.987   4.656   2.576 -0.7148  0.0487  0.3228
 4109SOL    HW123963   1.009   4.694   2.661 -1.1922  1.3413 -0.1402
 4109SOL    HW223964   0.969   4.565   2.599  0.6882 -0.3085  0.0203
 4110SOL     OW23965   1.340   3.718  13.687 -0.0511 -0.0085 -0.1703
 4110SOL    HW123966   1.365   3.738  13.777 -0.2969  0.9240 -0.3145
 4110SOL    HW223967   1.288   3.637  13.691  0.6051 -0.3922  0.5388
 4111SOL     OW23968   1.948   2.261  15.263 -0.2774 -0.6014  0.4667
 4111SOL    HW123969   1.952   2.325  15.192 -0.9608  0.8082  1.6825
 4111SOL    HW223970   1.894   2.311  15.325 -0.3343 -0.9885  0.7288
 4112SOL     OW23971   2.929   1.066   5.274 -0.3923 -0.4258 -0.5762
 4112SOL    HW123972   2.837   1.051   5.298 -1.0266  3.5660 -0.5302
 4112SOL    HW223973   2.950   0.974   5.257 -1.5368 -0.6595 -0.7458
 4113SOL     OW23974   0.776   2.656   1.072  0.0215 -0.3819  0.3991
 4113SOL    HW123975   0.747   2.696   0.990 -1.2511 -1.1999  0.4496
 4113SOL    HW223976   0.753   2.566   1.050  0.5299 -0.5036  0.3864
 4114SOL     OW23977   1.880   0.749  13.650 -0.0357 -0.2570 -0.3982
 4114SOL    HW123978   1.944   0.750  13.579  0.8628 -0.8593  0.3950
 4114SOL    HW223979   1.797   0.773  13.610  0.2266 -0.6446 -1.1840
 4115SOL     OW23980   2.317   1.411   7.221 -0.2069 -0.1542  0.0674
 4115SOL    HW123981   2.400   1.364   7.218 -0.3001 -0.3682  0.7463
 4115SOL    HW223982   2.336   1.500   7.190 -0.7449 -0.3752 -0.8675
 4116SOL     OW23983   4.351   3.173   8.696 -0.1198  0.3751  0.0683
 4116SOL    HW123984   4.345   3.269   8.695  2.6629  0.5464  0.4732
 4116SOL    HW223985   4.351   3.158   8.602  0.2222  2.0102 -0.1963
 4117SOL     OW23986   3.502   0.906   8.097  0.5287 -0.2548 -0.1656
 4117SOL    HW123987   3.451   0.985   8.112  0.5689 -0.7931  2.7525
 4117SOL    HW223988   3.554   0.903   8.177 -0.2534  3.3961  0.4355
 4118SOL     OW23989   2.648   0.791   6.207 -0.1140 -1.0777 -0.3160
 4118SOL    HW123990   2.662   0.716   6.265  1.6098 -0.6931 -0.2257
 4118SOL    HW223991   2.736   0.826   6.193 -1.0304  1.1430 -0.4059
 4119SOL     OW23992   2.263   3.268  10.990  0.0629  0.5940 -0.1873
 4119SOL    HW123993   2.328   3.201  11.016  0.1034  0.4517 -0.6564
 4119SOL    HW223994   2.268   3.325  11.067 -0.5130  1.6577 -0.9530
 4120SOL     OW23995   3.717   1.626   7.265 -0.4069 -0.1881 -0.4683
 4120SOL    HW123996   3.739   1.622   7.172  1.6573  0.3345 -0.0077
 4120SOL    HW223997   3.653   1.696   7.266 -1.3469 -1.0657  0.5667
 4121SOL     OW23998   3.803   1.008   2.671 -0.2029 -0.0962 -0.5536
 4121SOL    HW123999   3.758   1.091   2.687 -2.1668 -1.0036 -1.4813
 4121SOL    HW224000   3.776   0.983   2.583  1.1878 -0.1125 -0.9887
 4122SOL     OW24001   3.291   4.173   4.982 -0.9377 -0.0453 -0.2055
 4122SOL    HW124002   3.333   4.193   4.898  0.2710  1.7689  0.8290
 4122SOL    HW224003   3.353   4.215   5.041 -0.0133 -1.7075  0.0176
 4123SOL     OW24004   4.451   1.261   9.178 -0.6610  0.1614  0.6621
 4123SOL    HW124005   4.386   1.246   9.109  0.5971 -0.1815 -0.4438
 4123SOL    HW224006   4.459   1.356   9.169 -0.9026  0.1004 -0.2067
 4124SOL     OW24007   4.470   0.795   9.387 -0.1560  0.2735  0.1959
 4124SOL    HW124008   4.388   0.783   9.338 -1.2903  2.2374  1.6313
 4124SOL    HW224009   4.534   0.808   9.317  0.5978 -2.0445  0.4486
 4125SOL     OW24010   1.817   0.165   9.222 -0.0152 -0.0510  0.0558
 4125SOL    HW124011   1.876   0.220   9.273  2.5109 -1.5932 -1.2098
 4125SOL    HW224012   1.825   0.082   9.269  0.3447  0.0787  0.2186
 4126SOL     OW24013   4.197   4.054   6.435  0.2358 -0.1543  0.0778
 4126SOL    HW124014   4.196   4.144   6.468 -2.3017 -0.6409  1.3029
 4126SOL    HW224015   4.104   4.035   6.443 -0.2010  0.6326 -3.1213
 4127SOL     OW24016   4.636   3.667   8.278  0.2143  0.5027  0.1035
 4127SOL    HW124017   4.556   3.709   8.308 -1.3650 -1.5694 -1.2301
 4127SOL    HW224018   4.617   3.573   8.277  2.8510 -0.0283 -0.8872
 4128SOL     OW24019   3.137   0.696   2.540 -0.4291 -0.3737 -0.2018
 4128SOL    HW124020   3.159   0.647   2.618  1.8785  3.1445  1.3410
 4128SOL    HW224021   3.128   0.615   2.490 -0.8825 -1.6330  1.9266
 4129SOL     OW24022   3.800   4.673  11.345  0.4187  0.5379 -0.1972
 4129SOL    HW124023   3.783   0.024  11.377  1.3209  0.7802 -0.3614
 4129SOL    HW224024   3.884   4.646  11.382 -1.5403 -2.1428  2.2562
 4130SOL     OW24025   3.451   0.642   5.413 -0.0077 -0.3430 -0.1496
 4130SOL    HW124026   3.397   0.622   5.489 -1.4612 -0.7242 -1.2717
 4130SOL    HW224027   3.499   0.558   5.411 -0.1982 -0.4243 -1.2647
 4131SOL     OW24028   3.685   1.955  10.457 -0.3785  0.3062  0.2758
 4131SOL    HW124029   3.698   1.979  10.549  0.2207  1.3345 -0.0750
 4131SOL    HW224030   3.596   1.989  10.451  0.2253  2.0079  1.0075
 4132SOL     OW24031   2.550   3.303   9.398  0.1973 -0.0451 -0.3348
 4132SOL    HW124032   2.545   3.213   9.364 -2.2650  0.9676 -2.6317
 4132SOL    HW224033   2.547   3.293   9.493  1.2631  0.2066 -0.2751
 4133SOL     OW24034   3.611   2.435  11.325  0.2138 -0.3126 -0.3035
 4133SOL    HW124035   3.645   2.409  11.239 -2.7911 -1.4239 -1.1571
 4133SOL    HW224036   3.687   2.453  11.381 -0.8925  1.6630  0.5250
 4134SOL     OW24037   4.057   4.111   3.473 -0.1886 -0.2838 -0.1679
 4134SOL    HW124038   4.000   4.098   3.397 -1.3725 -2.8650  1.1452
 4134SOL    HW224039   4.143   4.084   3.443  0.0157  1.3039 -1.0099
 4135SOL     OW24040   2.657   0.086   1.619  0.1991  0.1768  0.1510
 4135SOL    HW124041   2.646   0.011   1.677  3.0789 -0.1575  0.2627
 4135SOL    HW224042   2.732   0.059   1.568 -0.7771 -2.4053  0.0896
 4136SOL     OW24043   1.661   3.001   8.002 -0.3655  0.0600 -0.2349
 4136SOL    HW124044   1.674   3.080   8.054 -1.2534 -0.4594  0.7441
 4136SOL    HW224045   1.585   3.020   7.947 -0.3487  1.5112  0.2332
 4137SOL     OW24046   2.022   3.015   7.918  0.4822 -0.1348 -0.1759
 4137SOL    HW124047   1.943   3.014   7.864 -1.4312 -1.7806  2.6806
 4137SOL    HW224048   2.083   2.980   7.853 -1.4451  0.4171 -2.3246
 4138SOL     OW24049   2.092   0.320  14.619 -0.0893  0.2149 -0.2514
 4138SOL    HW124050   2.041   0.387  14.574  0.6104  0.7658 -0.2096
 4138SOL    HW224051   2.022   0.254  14.627  0.8047 -0.7183 -0.1210
 4139SOL     OW24052   3.282   3.998   6.281  0.0170 -0.3044  0.0912
 4139SOL    HW124053   3.232   4.069   6.322 -1.9494 -0.1684 -2.5427
 4139SOL    HW224054   3.218   3.975   6.214  1.5691 -3.4660 -0.2861
 4140SOL     OW24055   2.079   4.672  17.425  0.0691 -0.3265 -0.0300
 4140SOL    HW124056   1.990   4.650  17.397  0.5972 -1.0891 -1.1597
 4140SOL    HW224057   2.126   4.621  17.359 -1.4780 -2.0034  0.1618
 4141SOL     OW24058   0.155   1.497   2.775  0.1012  0.1161  0.1619
 4141SOL    HW124059   0.172   1.538   2.860 -1.1484  0.4485  0.2582
 4141SOL    HW224060   0.061   1.519   2.772 -0.6099 -2.6772  1.9672
 4142SOL     OW24061   2.475   2.402   5.713 -0.1718 -0.3800  0.6979
 4142SOL    HW124062   2.448   2.317   5.747  0.1030 -0.7172  0.0879
 4142SOL    HW224063   2.549   2.366   5.663 -1.8763 -1.0019 -1.3929
 4143SOL     OW24064   4.335   2.234   2.673  0.3736  0.5124 -0.3857
 4143SOL    HW124065   4.425   2.259   2.696 -0.4764  1.3445  2.0823
 4143SOL    HW224066   4.347   2.157   2.617  1.6013 -0.3995  1.1182
 4144SOL     OW24067   2.257   4.414  13.967  0.0390 -0.4989 -0.4451
 4144SOL    HW124068   2.198   4.476  13.924  0.5832 -0.2980 -0.8998
 4144SOL    HW224069   2.217   4.327  13.966 -1.0867 -0.0485  3.6401
 4145SOL     OW24070   2.555   1.905  12.007 -0.2701 -0.2009  0.4296
 4145SOL    HW124071   2.612   1.930  11.934 -0.1766  3.1418  1.6541
 4145SOL    HW224072   2.547   1.812  11.986  3.8265 -0.5121  0.2165
 4146SOL     OW24073   2.953   3.740   4.013 -0.3173  0.2461 -0.1363
 4146SOL    HW124074   2.932   3.819   3.963  0.0747  0.7158  0.4398
 4146SOL    HW224075   2.893   3.674   3.977 -0.6237  0.8499 -0.7406
 4147SOL     OW24076   2.525   0.367  15.553 -0.0517  0.5172  0.1684
 4147SOL    HW124077   2.503   0.391  15.463  2.7011  1.6078 -0.2096
 4147SOL    HW224078   2.508   0.273  15.562 -1.0418  0.5875 -0.9954
 4148SOL     OW24079   2.105   2.471   2.255 -0.2242  0.1369 -0.1221
 4148SOL    HW124080   2.034   2.409   2.269 -0.1030  0.2416  0.9320
 4148SOL    HW224081   2.109   2.516   2.339 -2.4198 -0.4048  0.2645
 4149SOL     OW24082   4.676   2.264   1.954  0.3333 -0.4271  0.6536
 4149SOL    HW124083   4.737   2.337   1.944  1.7625 -1.5288  1.4186
 4149SOL    HW224084   4.594   2.310   1.976  0.2409 -1.2766  2.1142
 4150SOL     OW24085   2.359   1.666  15.012 -0.6363 -0.5379 -0.0997
 4150SOL    HW124086   2.346   1.668  14.917  0.5183 -2.0951 -0.2835
 4150SOL    HW224087   2.442   1.619  15.015 -0.3550  0.0133  0.6065
 4151SOL     OW24088   4.508   0.786   1.330  1.0527  0.1981  0.2205
 4151SOL    HW124089   4.432   0.830   1.367  0.7464  1.0313 -1.4162
 4151SOL    HW224090   4.540   0.850   1.266 -0.4858  1.2404  0.5167
 4152SOL     OW24091   2.952   3.404  15.523  0.4324 -0.2961  0.6846
 4152SOL    HW124092   2.946   3.499  15.526 -0.4297 -0.3037 -0.6588
 4152SOL    HW224093   3.046   3.387  15.531  0.7310  1.1287  0.0983
 4153SOL     OW24094   4.703   1.901   5.832  0.0880 -0.3846 -0.1253
 4153SOL    HW124095   4.655   1.898   5.914 -0.5256  0.9107 -0.4367
 4153SOL    HW224096   4.653   1.840   5.777 -0.8794  1.7818 -1.6198
 4154SOL     OW24097   0.515   1.154   0.410  0.0945 -0.5208  0.4823
 4154SOL    HW124098   0.524   1.130   0.502 -0.5376  0.4943  0.8109
 4154SOL    HW224099   0.546   1.078   0.360 -2.5950 -0.5378 -1.1615
 4155SOL     OW24100   3.012   2.368   9.722 -0.0808  0.4346  0.0832
 4155SOL    HW124101   3.075   2.317   9.773 -0.7104 -0.2821  0.1507
 4155SOL    HW224102   2.942   2.383   9.785  0.0762  1.4257  0.0225
 4156SOL     OW24103   2.270   4.255   7.987  0.4844  0.2383  0.3410
 4156SOL    HW124104   2.232   4.343   7.992 -0.2288 -0.0336 -0.3262
 4156SOL    HW224105   2.204   4.208   7.937 -0.2303  0.1943  1.3348
 4157SOL     OW24106   2.368   4.280   6.686  0.3138  0.1035  0.3905
 4157SOL    HW124107   2.377   4.220   6.611 -2.5148 -1.2015  1.1230
 4157SOL    HW224108   2.404   4.357   6.641 -2.4061  1.0606 -0.1666
 4158SOL     OW24109   2.145   2.148   6.791  0.5887 -0.6304  0.1415
 4158SOL    HW124110   2.145   2.120   6.700  2.2776  0.2186 -0.1241
 4158SOL    HW224111   2.127   2.240   6.772 -1.5477 -0.7810  1.3838
 4159SOL     OW24112   3.305   3.271   9.101 -0.2371 -0.2954  0.3482
 4159SOL    HW124113   3.360   3.203   9.140  1.5642  0.0992 -1.4585
 4159SOL    HW224114   3.241   3.215   9.057  0.4647  0.3076 -1.4873
 4160SOL     OW24115   4.702   2.127   8.688 -0.1449  0.1358 -0.2631
 4160SOL    HW124116   4.642   2.131   8.613  0.1680 -0.0711 -0.5211
 4160SOL    HW224117   4.648   2.074   8.747 -2.3808 -0.7707 -3.1319
 4161SOL     OW24118   0.412   3.990  12.278 -0.1815  0.0308 -0.6826
 4161SOL    HW124119   0.495   3.961  12.240 -2.0568 -2.0588 -3.1715
 4161SOL    HW224120   0.413   4.085  12.275 -1.0115  0.0796  0.5063
 4162SOL     OW24121   2.925   0.960  17.662  0.4523  0.2090  0.0950
 4162SOL    HW124122   2.913   0.994  17.574  0.4143 -0.1561 -0.0398
 4162SOL    HW224123   2.841   0.915  17.676 -0.9533  2.6544 -0.4707
 4163SOL     OW24124   4.159   3.423   6.161 -0.3404 -0.0803  0.2330
 4163SOL    HW124125   4.097   3.379   6.220 -1.2391 -1.8052 -2.0065
 4163SOL    HW224126   4.140   3.512   6.190  0.3565  0.2647 -0.3843
 4164SOL     OW24127   2.535   1.900   2.651 -0.0277  0.5241 -0.3762
 4164SOL    HW124128   2.511   1.902   2.558 -0.2734 -0.4683 -0.3334
 4164SOL    HW224129   2.475   1.968   2.682  0.0834  0.3571  0.1990
 4165SOL     OW24130   3.267   0.169   6.910  0.2209  0.4123 -0.0464
 4165SOL    HW124131   3.237   0.078   6.914  2.2771 -0.1995  1.3376
 4165SOL    HW224132   3.335   0.175   6.978  2.8924 -1.7375 -2.5471
 4166SOL     OW24133   2.332   0.037   9.771  0.5488 -0.4939 -0.0554
 4166SOL    HW124134   2.401   4.721   9.734  0.5862 -0.8494  0.5231
 4166SOL    HW224135   2.379   0.116   9.799  0.7703  0.5639 -3.4161
 4167SOL     OW24136   4.449   2.600   4.439 -0.5150 -0.1283 -0.5334
 4167SOL    HW124137   4.434   2.560   4.525  0.8871  0.1326 -0.1644
 4167SOL    HW224138   4.484   2.524   4.394  3.1287 -0.0060  2.0748
 4168SOL     OW24139   2.781   0.452  14.251 -0.5027  0.2331 -0.3258
 4168SOL    HW124140   2.847   0.473  14.185 -0.4775 -0.5681 -0.5486
 4168SOL    HW224141   2.808   0.366  14.282 -0.7429  0.2750  0.0011
 4169SOL     OW24142   0.624   1.329   6.548 -0.0178 -0.0713 -0.6543
 4169SOL    HW124143   0.609   1.416   6.510 -0.4125  0.3069  0.3475
 4169SOL    HW224144   0.676   1.280   6.485 -0.2182  1.2146 -1.8070
 4170SOL     OW24145   1.430   3.027   2.955  0.2422  0.5281  0.2648
 4170SOL    HW124146   1.346   3.071   2.973  0.2582  0.8654 -0.4925
 4170SOL    HW224147   1.391   2.976   2.884  4.0584 -0.8417 -0.8020
 4171SOL     OW24148   1.095   0.009   8.134  0.2293  0.1409  0.0176
 4171SOL    HW124149   1.104   0.105   8.130  3.8381 -0.1815  0.5499
 4171SOL    HW224150   1.174   4.729   8.083  1.2347 -2.3774  2.4576
 4172SOL     OW24151   1.033   4.251   2.189  0.2349  0.0915 -0.1541
 4172SOL    HW124152   1.090   4.312   2.237  1.1864 -0.4228 -0.6130
 4172SOL    HW224153   1.093   4.185   2.154  0.5783 -0.7296  2.0136
 4173SOL     OW24154   1.853   3.188   3.417 -0.6256  0.0672  0.6550
 4173SOL    HW124155   1.926   3.181   3.478 -1.0799 -3.0798  0.8113
 4173SOL    HW224156   1.848   3.284   3.411 -0.5962  0.0398  0.1928
 4174SOL     OW24157   1.282   3.787   6.900 -0.0900  0.0109 -0.2142
 4174SOL    HW124158   1.288   3.761   6.809 -1.5550 -1.0147 -0.0076
 4174SOL    HW224159   1.376   3.775   6.915 -0.3967 -1.0646  0.8339
 4175SOL     OW24160   2.640   0.808   3.002  0.2775 -0.5977  0.0557
 4175SOL    HW124161   2.701   0.748   2.959 -0.2153 -0.8792 -0.2523
 4175SOL    HW224162   2.645   0.883   2.944  0.6385 -1.5238 -1.1210
 4176SOL     OW24163   3.747   3.733   4.610 -0.3570  0.0441  0.0911
 4176SOL    HW124164   3.698   3.669   4.662 -0.2080  0.2192  0.4477
 4176SOL    HW224165   3.671   3.748   4.554 -0.0809  0.9615 -0.0363
 4177SOL     OW24166   0.914   1.618  13.723  0.5380 -0.8158  0.2914
 4177SOL    HW124167   0.944   1.709  13.723 -0.2244 -0.5661 -1.2699
 4177SOL    HW224168   0.999   1.574  13.724  1.6625  1.3735  1.7932
 4178SOL     OW24169   3.761   2.740   6.034  0.0309  0.3235 -0.0734
 4178SOL    HW124170   3.782   2.789   6.113  1.0873 -1.2145  0.5881
 4178SOL    HW224171   3.684   2.790   6.006  0.4232  0.2626 -1.2670
 4179SOL     OW24172   3.006   2.172   8.229  0.1532 -0.9745  0.1359
 4179SOL    HW124173   3.055   2.237   8.179 -1.1251 -0.8775 -0.9750
 4179SOL    HW224174   3.075   2.106   8.226  0.0364 -1.0880 -0.0434
 4180SOL     OW24175   2.061   2.078   6.526  0.4685 -0.1332  0.2794
 4180SOL    HW124176   2.043   1.989   6.557 -0.9960 -0.3293 -1.1579
 4180SOL    HW224177   2.145   2.060   6.483  0.8453  0.2909  0.8486
 4181SOL     OW24178   0.956   0.037   9.225 -0.0662  0.0847  0.4918
 4181SOL    HW124179   1.027   0.076   9.173 -0.9822  0.9463 -0.1016
 4181SOL    HW224180   1.007   0.008   9.301  1.0426 -0.6402 -0.5206
 4182SOL     OW24181   1.834   0.578   1.975  0.4653  0.5909 -0.3157
 4182SOL    HW124182   1.791   0.537   2.050  1.7356  1.8222  1.0747
 4182SOL    HW224183   1.928   0.561   1.989  0.4138  0.0660 -0.6178
 4183SOL     OW24184   3.541   3.213   8.730  0.4787 -0.4422 -0.2482
 4183SOL    HW124185   3.486   3.155   8.783 -0.3691  0.3872 -0.2105
 4183SOL    HW224186   3.609   3.154   8.699  0.6763  0.9786 -2.5091
 4184SOL     OW24187   2.879   0.993   7.867  0.0854 -0.4226  0.6063
 4184SOL    HW124188   2.796   1.041   7.859  1.4258  1.6832 -0.6570
 4184SOL    HW224189   2.892   0.996   7.962 -0.9818 -1.3275  0.7766
 4185SOL     OW24190   2.622   3.363   7.920  0.1766  0.3429 -0.2967
 4185SOL    HW124191   2.561   3.293   7.900  0.5058 -0.1991  0.6231
 4185SOL    HW224192   2.628   3.397   7.830 -0.2629 -2.2786 -1.3131
 4186SOL     OW24193   3.520   3.007   5.424 -0.0365 -0.0325 -0.2854
 4186SOL    HW124194   3.550   3.076   5.365  0.8606 -0.3932 -0.2490
 4186SOL    HW224195   3.463   2.950   5.372 -0.7917  1.5620 -1.1995
 4187SOL     OW24196   3.148   0.951  17.045  0.2376  0.4439  0.0147
 4187SOL    HW124197   3.136   0.993  16.959 -2.0793 -1.3181 -0.5295
 4187SOL    HW224198   3.208   1.011  17.090  0.5248 -0.7029  1.1579
 4188SOL     OW24199   3.149   3.049   9.343 -0.1443  0.0789 -0.0562
 4188SOL    HW124200   3.063   3.061   9.301 -0.4092 -0.6145  0.2812
 4188SOL    HW224201   3.163   2.955   9.332 -0.5866  0.1549 -1.3416
 4189SOL     OW24202   2.913   2.187   5.905 -0.2188 -0.5398  0.0314
 4189SOL    HW124203   2.885   2.160   5.818 -0.5642  0.9214 -0.3115
 4189SOL    HW224204   2.902   2.108   5.957 -0.1466 -0.0076  0.8669
 4190SOL     OW24205   4.041   3.788  13.216  0.1434  1.2690 -0.7485
 4190SOL    HW124206   4.125   3.828  13.237  0.2488  0.7944 -0.2598
 4190SOL    HW224207   4.044   3.803  13.122 -0.4778  2.0025 -0.6533
 4191SOL     OW24208   3.862   0.628   2.437 -0.3976  0.3972 -0.3963
 4191SOL    HW124209   3.815   0.709   2.455  0.3890  0.6553  0.4284
 4191SOL    HW224210   3.875   0.600   2.527  1.2570 -1.0920 -1.0855
 4192SOL     OW24211   3.987   0.558   2.207  0.0408  0.5165 -0.2236
 4192SOL    HW124212   4.002   0.494   2.277  0.4136  0.7133 -0.1222
 4192SOL    HW224213   3.942   0.625   2.258  1.4732  0.1658  1.5112
 4193SOL     OW24214   2.126   1.497   6.495 -0.5435 -0.2194  0.2685
 4193SOL    HW124215   2.093   1.541   6.573 -1.8011 -0.8943  0.1163
 4193SOL    HW224216   2.153   1.408   6.516 -1.2568  0.1461  2.7527
 4194SOL     OW24217   4.482   0.864   3.772 -0.3409  0.2229  0.0681
 4194SOL    HW124218   4.416   0.807   3.811  0.3917  0.4956  1.7208
 4194SOL    HW224219   4.429   0.893   3.697  0.6413  0.1490 -0.6457
 4195SOL     OW24220   3.304   1.414   0.956 -0.3286  0.1678 -0.0139
 4195SOL    HW124221   3.328   1.470   0.882 -1.6289 -1.1308 -1.4191
 4195SOL    HW224222   3.378   1.353   0.951  0.4710  1.2605 -1.5278
 4196SOL     OW24223   2.906   2.913   7.500  0.0709 -0.2762  0.3411
 4196SOL    HW124224   2.929   3.002   7.473 -1.4154 -0.2377 -0.7578
 4196SOL    HW224225   2.913   2.920   7.596  2.8932 -1.5483  0.2324
 4197SOL     OW24226   1.810   4.086   1.400 -0.4995 -0.0370  0.2527
 4197SOL    HW124227   1.848   4.115   1.317  0.5406 -1.9163  0.0630
 4197SOL    HW224228   1.870   4.105   1.472  0.1246 -0.1611 -0.2325
 4198SOL     OW24229   1.051   2.904  17.436  0.5361 -0.3745 -0.3561
 4198SOL    HW124230   1.054   2.992  17.399 -1.4455  1.1361  3.0699
 4198SOL    HW224231   1.009   2.849  17.371 -0.3413 -0.0357 -0.0707
 4199SOL     OW24232   3.834   4.175   8.470 -0.0578  0.0938 -0.3418
 4199SOL    HW124233   3.904   4.240   8.480  0.2634 -0.1426 -1.1095
 4199SOL    HW224234   3.803   4.163   8.560 -1.4854 -2.1785 -1.1536
 4200SOL     OW24235   4.316   3.755   0.301  0.1359 -0.6206  0.1528
 4200SOL    HW124236   4.241   3.758   0.241  0.1009 -1.7438  0.1398
 4200SOL    HW224237   4.335   3.849   0.295 -2.8082  0.1192  2.5249
 4201SOL     OW24238   3.502   2.504  10.430 -0.5046  0.2845 -0.0618
 4201SOL    HW124239   3.535   2.590  10.403 -2.1392  0.9340  0.0320
 4201SOL    HW224240   3.490   2.518  10.524  1.0542 -0.9283  0.3213
 4202SOL     OW24241   4.438   2.853   6.468 -0.0283 -0.0370 -0.2491
 4202SOL    HW124242   4.357   2.809   6.443  1.7800 -4.8316  2.5027
 4202SOL    HW224243   4.495   2.784   6.500  0.3226  0.1085 -0.5536
 4203SOL     OW24244   1.066   2.722  15.721  0.4312 -0.1359 -0.2214
 4203SOL    HW124245   0.974   2.728  15.695  0.1903 -0.4171  0.5841
 4203SOL    HW224246   1.064   2.770  15.804  1.4791 -0.8665  0.2310
 4204SOL     OW24247   2.123   3.643  13.743 -0.6032 -0.3939  0.2420
 4204SOL    HW124248   2.167   3.565  13.709 -1.4684 -0.7683 -0.0011
 4204SOL    HW224249   2.178   3.667  13.818  0.7645  2.1756 -1.5962
 4205SOL     OW24250   2.444   2.829   2.708  0.1390  0.5814 -0.0733
 4205SOL    HW124251   2.379   2.873   2.653 -0.4651  0.4899  0.5636
 4205SOL    HW224252   2.523   2.835   2.655  1.0107 -2.0669  0.9189
 4206SOL     OW24253   2.058   1.685  16.352 -0.0651 -0.3713  0.8922
 4206SOL    HW124254   2.049   1.600  16.309 -0.8723 -0.6553  1.6205
 4206SOL    HW224255   2.013   1.680  16.436 -0.0389  0.2798  0.9472
 4207SOL     OW24256   0.981   4.460   3.887 -0.5790 -0.3894  0.7796
 4207SOL    HW124257   1.065   4.416   3.895  0.7728  2.1176  0.2212
 4207SOL    HW224258   0.940   4.411   3.816 -0.8969  0.2803  0.4993
 4208SOL     OW24259   0.463   2.712  16.006  0.3139 -0.0304  0.5368
 4208SOL    HW124260   0.507   2.794  15.984  0.7994 -0.3029  0.4861
 4208SOL    HW224261   0.375   2.715  15.968  0.2788  0.5319  0.6665
 4209SOL     OW24262   2.306   2.623   3.401 -0.3826  0.6390 -0.2446
 4209SOL    HW124263   2.356   2.682   3.458  0.0887  0.8476 -0.8673
 4209SOL    HW224264   2.368   2.632   3.328 -1.7936  0.5884 -1.4588
 4210SOL     OW24265   0.353   1.111   3.460 -0.0903 -0.7347 -0.1388
 4210SOL    HW124266   0.443   1.139   3.441 -0.5746  0.2567 -0.9926
 4210SOL    HW224267   0.351   1.142   3.550  0.7665 -0.4187 -0.2265
 4211SOL     OW24268   1.625   3.224   8.162  0.3779  0.5648 -0.2168
 4211SOL    HW124269   1.714   3.260   8.160  0.1661  1.1306  0.2649
 4211SOL    HW224270   1.607   3.252   8.252  1.5317  4.0743 -1.0695
 4212SOL     OW24271   0.515   0.116   7.841  0.3022 -0.1643  0.0507
 4212SOL    HW124272   0.454   0.148   7.908 -1.4938 -0.8069 -1.2766
 4212SOL    HW224273   0.485   0.167   7.766 -2.2078 -0.1932  1.0360
 4213SOL     OW24274   2.821   2.293   4.501 -0.7371  0.4165 -0.2323
 4213SOL    HW124275   2.773   2.368   4.536 -1.1027 -0.3577  0.8912
 4213SOL    HW224276   2.903   2.329   4.467 -0.4918  0.0356 -0.0411
 4214SOL     OW24277   4.254   0.577   2.607 -0.1584  0.3637 -0.2431
 4214SOL    HW124278   4.318   0.648   2.602 -1.0927  1.3479  1.8720
 4214SOL    HW224279   4.301   0.496   2.589 -0.4306 -0.4535  2.7819
 4215SOL     OW24280   2.444   1.061   3.644 -0.1387 -0.1066 -0.1266
 4215SOL    HW124281   2.355   1.094   3.631 -0.3897 -0.6321  0.2874
 4215SOL    HW224282   2.444   0.985   3.586 -1.5458 -0.5870  0.5158
 4216SOL     OW24283   1.118   3.205  15.656 -0.0147  0.3692  0.5630
 4216SOL    HW124284   1.209   3.201  15.686  0.7251 -0.3826 -1.7264
 4216SOL    HW224285   1.117   3.148  15.578  0.2359 -2.1118  2.3714
 4217SOL     OW24286   2.068   2.947   6.975 -0.0910 -0.2645 -0.0381
 4217SOL    HW124287   2.083   3.041   6.971  0.0787 -0.2233  1.6447
 4217SOL    HW224288   1.980   2.932   6.940 -0.2502 -0.2130  0.3320
 4218SOL     OW24289   2.286   0.057  10.825 -0.2495 -0.0539  0.1579
 4218SOL    HW124290   2.236   0.014  10.895 -0.9165  1.3265  0.5273
 4218SOL    HW224291   2.257   0.148  10.829  1.0648  0.3766 -0.0160
 4219SOL     OW24292   1.564   2.885   9.602 -0.2066  0.0589  0.3156
 4219SOL    HW124293   1.580   2.809   9.656 -2.9649  0.0734  1.1357
 4219SOL    HW224294   1.480   2.915   9.636  1.6007  2.5504  2.6019
 4220SOL     OW24295   1.143   4.236   6.474 -0.1160  0.1868 -0.0276
 4220SOL    HW124296   1.236   4.243   6.497  0.1456  0.3679 -1.1381
 4220SOL    HW224297   1.103   4.202   6.554  1.9333  0.6840  1.1977
 4221SOL     OW24298   3.626   1.187   6.338  0.2879  0.0315 -0.3356
 4221SOL    HW124299   3.677   1.137   6.401  1.7055 -1.0118 -2.3442
 4221SOL    HW224300   3.621   1.126   6.265 -2.2677  0.2116 -0.3263
 4222SOL     OW24301   0.893   1.998   5.862 -0.3091 -0.1586  0.1702
 4222SOL    HW124302   0.887   2.083   5.818  1.4880 -0.5670 -0.8829
 4222SOL    HW224303   0.867   2.024   5.950 -2.0950  0.5514 -0.5641
 4223SOL     OW24304   0.387   0.228   5.529 -0.7088  0.1653  0.0056
 4223SOL    HW124305   0.310   0.172   5.526 -0.9161  0.5630 -1.9650
 4223SOL    HW224306   0.406   0.218   5.622 -0.9211  0.6849  0.1046
 4224SOL     OW24307   4.594   3.189   5.697 -0.0712 -0.0947  0.4880
 4224SOL    HW124308   4.537   3.256   5.735 -3.3129 -1.2815 -2.2491
 4224SOL    HW224309   4.659   3.251   5.663  0.4029 -0.1224  1.3516
 4225SOL     OW24310   4.728   0.146   9.810  0.1264  0.3635 -0.2179
 4225SOL    HW124311   0.071   0.195   9.828  0.8975  0.3108 -3.4511
 4225SOL    HW224312   4.674   0.155   9.888  1.2281 -1.8508  0.7980
 4226SOL     OW24313   1.680   3.062   0.939 -1.0059 -0.2017 -0.0190
 4226SOL    HW124314   1.736   2.990   0.908 -2.6301 -0.1703 -3.0229
 4226SOL    HW224315   1.687   3.049   1.034  0.4881  0.0037 -0.0991
 4227SOL     OW24316   0.041   3.204   7.241  0.0949 -0.0876  0.4454
 4227SOL    HW124317   0.120   3.172   7.286  0.4977  1.4563  0.8367
 4227SOL    HW224318   0.079   3.256   7.171  1.0134  0.6135  1.4706
 4228SOL     OW24319   4.571   0.533   3.892 -0.5134 -0.4466 -0.0829
 4228SOL    HW124320   4.482   0.537   3.927 -0.7753 -1.0161 -0.7029
 4228SOL    HW224321   4.624   0.496   3.963  0.3969  0.4802 -0.2652
 4229SOL     OW24322   1.172   4.164  14.290 -0.2608  0.1075 -0.3533
 4229SOL    HW124323   1.139   4.126  14.208 -1.0376  2.1705 -1.0080
 4229SOL    HW224324   1.115   4.128  14.357  2.5017 -0.6326  1.6197
 4230SOL     OW24325   0.051   1.796   9.997  0.3444 -0.3744 -0.4531
 4230SOL    HW124326   0.027   1.737  10.068 -0.7637 -1.0916 -1.4144
 4230SOL    HW224327   4.722   1.864   9.997  1.8069  1.0468  0.7110
 4231SOL     OW24328   4.149   3.190   3.458  0.0913  0.1917 -0.2146
 4231SOL    HW124329   4.144   3.097   3.438  0.1432  0.4576 -1.4532
 4231SOL    HW224330   4.060   3.225   3.459  0.6559  1.6181  1.9217
 4232SOL     OW24331   0.066   0.251   7.644  0.0145 -0.1806  0.2500
 4232SOL    HW124332   0.094   0.342   7.627  0.4926 -0.3786 -0.0356
 4232SOL    HW224333   0.150   0.206   7.633 -0.4381 -1.4632  2.2393
 4233SOL     OW24334   2.936   1.039   3.089  0.1593 -0.2029  0.2270
 4233SOL    HW124335   2.854   1.026   3.137 -0.4177 -1.9433 -1.2362
 4233SOL    HW224336   2.988   0.965   3.118  0.6810  0.0461 -0.0767
 4234SOL     OW24337   4.396   2.775  11.211  0.0935 -0.3779 -0.7087
 4234SOL    HW124338   4.397   2.681  11.194 -0.1170 -0.1215 -2.1075
 4234SOL    HW224339   4.430   2.801  11.125 -1.5263  0.2992 -1.1406
 4235SOL     OW24340   4.618   2.814   4.414 -0.2605 -0.1250  0.4245
 4235SOL    HW124341   4.565   2.734   4.419 -0.2817 -0.2580 -1.6905
 4235SOL    HW224342   4.561   2.891   4.406  0.3962  0.0460 -2.6333
 4236SOL     OW24343   1.965   3.787   2.898 -0.0819  0.1383 -0.0067
 4236SOL    HW124344   2.002   3.699   2.891  0.5835  0.4070  0.0858
 4236SOL    HW224345   1.974   3.795   2.993 -1.6881 -3.2958  0.4206
 4237SOL     OW24346   1.935   4.655   4.355  0.2492 -0.0909  0.3009
 4237SOL    HW124347   2.013   4.600   4.358  0.5076  0.3424  1.6280
 4237SOL    HW224348   1.864   4.592   4.369  0.7314 -0.9846 -1.3216
 4238SOL     OW24349   2.265   1.262   8.939 -0.2338 -0.0676  0.3645
 4238SOL    HW124350   2.307   1.260   8.853 -0.6612  2.1184  0.1171
 4238SOL    HW224351   2.176   1.241   8.911  0.4500 -2.4670 -0.0495
 4239SOL     OW24352   0.955   0.565   4.907 -0.3590  0.7100 -0.1308
 4239SOL    HW124353   0.937   0.626   4.979  0.1161  1.1114 -0.3542
 4239SOL    HW224354   1.050   0.569   4.897 -0.1897  1.4486  1.6905
 4240SOL     OW24355   1.262   2.646   3.516 -0.1051 -0.3251  0.4720
 4240SOL    HW124356   1.241   2.561   3.477 -2.2018  1.4976 -2.3886
 4240SOL    HW224357   1.349   2.627   3.551  1.0546 -0.2755 -2.4306
 4241SOL     OW24358   0.641   3.831  11.340 -0.5037 -0.1555  0.3842
 4241SOL    HW124359   0.696   3.854  11.265  0.6181 -1.7847  0.7280
 4241SOL    HW224360   0.699   3.772  11.388 -1.6307 -0.5343  1.2933
 4242SOL     OW24361   0.855   3.228   6.373  0.3229 -0.8949 -0.3059
 4242SOL    HW124362   0.843   3.147   6.422 -0.6195 -0.7658 -0.3110
 4242SOL    HW224363   0.943   3.213   6.341  0.8237 -1.4812  1.3284
 4243SOL     OW24364   4.102   2.418  10.025  0.1612 -0.1671  0.0630
 4243SOL    HW124365   4.150   2.450   9.949 -1.2779  0.3411 -0.6228
 4243SOL    HW224366   4.010   2.414   9.999 -0.2250  2.3037  1.1323
 4244SOL     OW24367   3.313   0.715   6.361 -0.2870  0.1690 -0.3610
 4244SOL    HW124368   3.286   0.670   6.281  0.2336 -0.4013 -0.2161
 4244SOL    HW224369   3.275   0.803   6.351 -1.3332 -0.1192  1.0265
 4245SOL     OW24370   3.458   4.109   9.633  0.1056  0.4195  0.4708
 4245SOL    HW124371   3.432   4.149   9.717 -3.3584 -3.4774  1.2605
 4245SOL    HW224372   3.385   4.048   9.620  0.7189 -0.2204  0.1001
 4246SOL     OW24373   2.618   2.141  15.452  0.1332  0.5542 -0.0139
 4246SOL    HW124374   2.532   2.116  15.484  1.2286 -3.3810 -0.2015
 4246SOL    HW224375   2.628   2.076  15.382 -0.2022  0.5078 -0.0164
 4247SOL     OW24376   1.025   1.911   7.334  0.0946  0.2406 -0.1098
 4247SOL    HW124377   0.975   1.989   7.311  0.8449  0.4541 -0.9746
 4247SOL    HW224378   0.970   1.869   7.400  1.2437 -1.6882 -0.3842
 4248SOL     OW24379   3.321   2.701   6.967  0.5742 -0.2330  0.0788
 4248SOL    HW124380   3.382   2.707   6.893  0.9843  0.7910  0.4972
 4248SOL    HW224381   3.240   2.693   6.916  1.7095 -1.8055 -1.4824
 4249SOL     OW24382   2.251   0.868   9.762  0.0177 -0.5291  0.0869
 4249SOL    HW124383   2.315   0.920   9.811 -1.2651  2.3976 -1.3194
 4249SOL    HW224384   2.234   0.796   9.823 -0.0332  0.6843  1.5037
 4250SOL     OW24385   0.090   2.756  14.405 -0.2745  0.3095  0.0823
 4250SOL    HW124386   0.096   2.702  14.327 -0.6178 -0.8095  0.8372
 4250SOL    HW224387   4.737   2.734  14.424 -0.6830  0.0700 -2.2060
 4251SOL     OW24388   3.310   1.875   4.344 -0.2370  0.1109  0.9156
 4251SOL    HW124389   3.352   1.870   4.258 -1.2820 -0.1774  0.4124
 4251SOL    HW224390   3.230   1.921   4.318  0.8743  0.7325 -1.4092
 4252SOL     OW24391   1.760   0.839   1.087  0.8402  0.0687 -0.2022
 4252SOL    HW124392   1.673   0.879   1.098  1.1202  0.5210  0.3463
 4252SOL    HW224393   1.748   0.750   1.120  1.4485 -0.0349 -0.2699
 4253SOL     OW24394   2.722   4.098  14.647  0.0787  0.0036 -0.1042
 4253SOL    HW124395   2.691   4.180  14.685  1.8287  1.0210 -0.8857
 4253SOL    HW224396   2.638   4.053  14.640  0.8610 -1.3243 -0.9006
 4254SOL     OW24397   2.680   3.624   0.850 -0.1526  0.0794  0.4827
 4254SOL    HW124398   2.671   3.529   0.840 -0.3155  0.1195  0.2615
 4254SOL    HW224399   2.670   3.632   0.945  3.5538  0.7390  0.7905
 4255SOL     OW24400   1.201   0.804   7.661  0.6883 -0.6298  0.1062
 4255SOL    HW124401   1.138   0.849   7.719 -0.6467 -0.4046 -1.5287
 4255SOL    HW224402   1.253   0.773   7.736 -0.1585  0.3748  1.1195
 4256SOL     OW24403   2.454   4.629  14.129 -0.3550  0.5923  0.1442
 4256SOL    HW124404   2.510   4.552  14.121 -1.5699 -0.5876  2.8298
 4256SOL    HW224405   2.434   4.647  14.037  0.4560  0.3056 -0.0936
 4257SOL     OW24406   2.963   0.882   9.969  0.1690  0.1606  0.4932
 4257SOL    HW124407   3.015   0.827   9.910 -0.8908  0.0706 -0.3476
 4257SOL    HW224408   3.032   0.928  10.017  3.2468  0.6669 -4.3848
 4258SOL     OW24409   1.263   0.931  15.888 -0.0482  0.8845 -0.3831
 4258SOL    HW124410   1.195   0.953  15.825 -0.3228  0.9997 -0.0464
 4258SOL    HW224411   1.341   0.926  15.833 -0.0240  4.0178 -0.6676
 4259SOL     OW24412   1.054   2.078   1.680 -0.2791  0.3290  0.5496
 4259SOL    HW124413   0.986   2.122   1.630 -1.1393  2.0150  3.1814
 4259SOL    HW224414   1.036   2.107   1.769 -2.7492 -0.8856  0.4234
 4260SOL     OW24415   1.696   0.571   8.813  0.0113  0.2271  0.5433
 4260SOL    HW124416   1.640   0.549   8.888 -0.3998 -2.2236 -0.4883
 4260SOL    HW224417   1.652   0.515   8.749  0.5770  2.8303 -2.0995
 4261SOL     OW24418   1.004   0.145   0.396  0.4716  0.2312  0.6759
 4261SOL    HW124419   0.997   0.130   0.302 -0.9952 -1.0173  0.9855
 4261SOL    HW224420   1.096   0.130   0.418  0.8925  4.1330  1.4943
 4262SOL     OW24421   0.470   3.568   9.253 -0.7785  0.1198  0.4868
 4262SOL    HW124422   0.514   3.599   9.175 -1.3222  0.9847  0.5273
 4262SOL    HW224423   0.422   3.496   9.213  1.9351 -1.2028 -0.3771
 4263SOL     OW24424   1.715   0.859   2.144 -0.2863  0.0090 -0.1781
 4263SOL    HW124425   1.643   0.796   2.148 -2.0581  1.9435 -2.0108
 4263SOL    HW224426   1.664   0.939   2.132  2.2456  1.5792 -0.5916
 4264SOL     OW24427   2.911   1.120   0.134  0.3350 -0.5685  0.6503
 4264SOL    HW124428   2.824   1.159   0.125  1.1227  0.8828 -0.5187
 4264SOL    HW224429   2.923   1.076   0.050 -0.3513  1.3960 -0.4766
 4265SOL     OW24430   1.225   3.324   3.122 -0.7848 -0.4473 -0.1534
 4265SOL    HW124431   1.271   3.406   3.141  1.3701 -1.3834 -1.3402
 4265SOL    HW224432   1.296   3.260   3.126 -0.0200  0.3422 -1.1429
 4266SOL     OW24433   1.702   0.215   4.761 -0.0562  0.3845 -0.3685
 4266SOL    HW124434   1.629   0.191   4.705  0.1827  0.9899 -0.9379
 4266SOL    HW224435   1.711   0.130   4.804  1.6441  0.1668 -1.1444
 4267SOL     OW24436   3.209   0.924  10.951  0.1286  0.0142  0.2445
 4267SOL    HW124437   3.248   0.857  10.895 -0.1025 -0.5445  0.7513
 4267SOL    HW224438   3.262   1.000  10.927  0.1991  0.4536  1.7850
 4268SOL     OW24439   4.169   3.675   2.548  0.4915 -0.2572 -0.3445
 4268SOL    HW124440   4.097   3.658   2.487 -1.2014  4.6668  0.2212
 4268SOL    HW224441   4.204   3.756   2.510 -0.4236  0.8462  1.1237
 4269SOL     OW24442   1.229   3.087   4.551  0.0524 -0.3338 -0.0404
 4269SOL    HW124443   1.139   3.062   4.530 -0.3771 -0.6951  2.2908
 4269SOL    HW224444   1.236   3.066   4.644 -1.2683 -0.2221  0.0778
 4270SOL     OW24445   1.211   1.102   8.776 -0.1498 -0.7774  0.1889
 4270SOL    HW124446   1.221   1.015   8.739  0.6301  0.1116 -1.6693
 4270SOL    HW224447   1.119   1.098   8.804 -0.2851 -1.8067 -0.4203
 4271SOL     OW24448   0.601   1.027   9.348 -0.8078  0.2534  0.0219
 4271SOL    HW124449   0.615   1.010   9.441 -2.6749  0.6199  0.3835
 4271SOL    HW224450   0.685   1.065   9.323  0.0564 -1.5161  0.2202
 4272SOL     OW24451   0.096   3.678   2.315  0.0919 -0.3639 -0.1013
 4272SOL    HW124452   0.101   3.747   2.380 -1.2190 -0.8106  0.4708
 4272SOL    HW224453   0.112   3.594   2.358 -0.5605 -1.0939 -1.2475
 4273SOL     OW24454   1.311   1.560   5.718  0.0604  0.5533  0.1568
 4273SOL    HW124455   1.349   1.648   5.724 -0.5510  0.7760  0.7120
 4273SOL    HW224456   1.289   1.554   5.625  1.7603 -0.6049 -0.1587
 4274SOL     OW24457   3.233   3.890   9.882 -0.7757  0.1133 -0.5305
 4274SOL    HW124458   3.267   3.918   9.798  0.6264  1.0192  0.3576
 4274SOL    HW224459   3.170   3.819   9.864 -0.6609  0.0625 -0.7382
 4275SOL     OW24460   4.473   4.175   5.140 -0.1263 -0.0970  0.3961
 4275SOL    HW124461   4.489   4.261   5.101  1.1909 -1.3521 -1.8692
 4275SOL    HW224462   4.383   4.182   5.171  0.4731  0.9694  1.8997
 4276SOL     OW24463   0.955   1.370   4.122  0.1251  0.2741  0.6265
 4276SOL    HW124464   0.955   1.307   4.194 -0.7361 -0.5494 -0.0889
 4276SOL    HW224465   1.047   1.380   4.095  0.6171 -1.9907  1.4719
 4277SOL     OW24466   1.331   3.827   8.535  0.1824 -0.0526  0.2000
 4277SOL    HW124467   1.310   3.746   8.582  2.0341 -0.2990  0.6079
 4277SOL    HW224468   1.239   3.848   8.517  0.7038  2.1074  0.0659
 4278SOL     OW24469   2.135   2.770   8.497  0.5388  0.2722  0.4107
 4278SOL    HW124470   2.198   2.841   8.494  1.7244 -0.8971 -1.9642
 4278SOL    HW224471   2.161   2.727   8.416 -0.1184  0.3704  0.1516
 4279SOL     OW24472   2.711   2.556   7.574  0.1451 -0.0105  0.3742
 4279SOL    HW124473   2.749   2.604   7.647 -0.3650 -0.4136  0.9054
 4279SOL    HW224474   2.668   2.619   7.516  1.5076  1.4934  1.0316
 4280SOL     OW24475   1.211   1.415   4.056  0.0585  0.0218  0.0426
 4280SOL    HW124476   1.264   1.447   3.984 -0.9276  1.1016 -0.2034
 4280SOL    HW224477   1.274   1.426   4.127 -0.2620 -1.2522  0.5316
 4281SOL     OW24478   3.093   3.015   3.383  0.0055  0.6264  0.2230
 4281SOL    HW124479   3.096   3.012   3.479  0.2242 -1.0651  0.1633
 4281SOL    HW224480   3.181   3.045   3.360  0.5879 -0.7282  0.6847
 4282SOL     OW24481   1.390   3.583  14.867 -0.3081 -0.0075  1.2006
 4282SOL    HW124482   1.297   3.584  14.845  0.1544 -1.5631 -0.7441
 4282SOL    HW224483   1.398   3.526  14.943 -0.0691  0.7373  1.7417
 4283SOL     OW24484   0.413   3.557   4.930  0.4408 -0.3220  0.0745
 4283SOL    HW124485   0.476   3.486   4.916  1.0578  0.5308 -1.4394
 4283SOL    HW224486   0.402   3.541   5.024  0.2445  1.2593  0.3261
 4284SOL     OW24487   4.600   1.332  17.038 -0.1579  0.0889 -0.4319
 4284SOL    HW124488   4.605   1.250  17.087 -0.0807  0.3050 -0.0806
 4284SOL    HW224489   4.577   1.402  17.099 -0.6551 -1.9101  1.6685
 4285SOL     OW24490   2.640   2.706   0.810  0.7487  0.4180 -0.0948
 4285SOL    HW124491   2.612   2.796   0.793 -1.2570 -0.1897 -0.0368
 4285SOL    HW224492   2.656   2.704   0.904 -0.6105  1.6690  0.1626
 4286SOL     OW24493   1.111   1.055   3.317  0.0644  0.2249  0.7519
 4286SOL    HW124494   1.122   1.121   3.385  0.1429  0.0650  0.8942
 4286SOL    HW224495   1.132   1.110   3.242 -1.6871 -0.5177 -0.2794
 4287SOL     OW24496   2.725   4.516  15.983 -0.3956  0.5737 -0.4772
 4287SOL    HW124497   2.792   4.448  15.977  0.2229  1.2650 -1.5452
 4287SOL    HW224498   2.776   4.574  16.040  0.3658 -0.1686 -0.3969
 4288SOL     OW24499   0.201   1.796   3.521  0.1603  0.4047 -0.0285
 4288SOL    HW124500   0.130   1.802   3.585 -1.3398 -0.0165 -1.6616
 4288SOL    HW224501   0.249   1.872   3.553  3.0558 -1.4565  0.0509
 4289SOL     OW24502   0.639   0.179   4.089 -0.0325  0.5483  0.1092
 4289SOL    HW124503   0.662   0.269   4.066  1.1101 -0.2859 -1.9625
 4289SOL    HW224504   0.578   0.187   4.162 -3.0832 -1.5786 -2.1894
 4290SOL     OW24505   3.900   0.350   8.494  0.1113 -0.0864  0.3877
 4290SOL    HW124506   3.809   0.377   8.479 -0.3242 -1.6895  0.0987
 4290SOL    HW224507   3.911   0.283   8.426 -1.4959  0.9128 -0.8506
 4291SOL     OW24508   0.467   0.489   5.744 -0.0667 -0.1090  0.1082
 4291SOL    HW124509   0.473   0.544   5.666 -1.2899  0.1078  0.1592
 4291SOL    HW224510   0.456   0.543   5.822  0.8878  0.3682 -0.0938
 4292SOL     OW24511   2.386   0.953   2.797  0.3221  0.3363 -0.0596
 4292SOL    HW124512   2.439   1.029   2.820 -0.2112  0.5982  0.2959
 4292SOL    HW224513   2.369   0.917   2.884  1.1954  2.1882  0.8485
 4293SOL     OW24514   1.108   0.064  17.679  1.0386  0.1872 -0.4618
 4293SOL    HW124515   1.192   0.104  17.661  0.2497  2.0215 -0.0217
 4293SOL    HW224516   1.131   4.712  17.706  1.9031  0.5784  0.0751
 4294SOL     OW24517   3.487   0.305   3.571  0.5175 -0.2431  0.6052
 4294SOL    HW124518   3.411   0.344   3.614  0.1201 -0.0743 -0.2406
 4294SOL    HW224519   3.452   0.282   3.485 -1.2527 -3.1898  2.1317
 4295SOL     OW24520   1.274   0.625   6.063 -0.2521  0.0127 -0.4781
 4295SOL    HW124521   1.263   0.701   6.005  1.2247  0.6166  0.0629
 4295SOL    HW224522   1.246   0.666   6.145  2.0519 -1.3171  0.9586
 4296SOL     OW24523   2.979   0.817  13.743 -0.2414  0.1459 -0.2670
 4296SOL    HW124524   2.889   0.821  13.709 -0.4607 -0.3839  0.2441
 4296SOL    HW224525   2.966   0.844  13.834  2.4202 -0.6348  0.3397
 4297SOL     OW24526   4.388   2.432   6.732  0.0141  0.4110  0.2018
 4297SOL    HW124527   4.298   2.413   6.703  0.3658 -0.0303 -0.6179
 4297SOL    HW224528   4.432   2.400   6.653 -0.8563 -0.7558  0.1892
 4298SOL     OW24529   3.699   1.585   2.659 -0.2485 -0.4105 -0.2824
 4298SOL    HW124530   3.612   1.557   2.690  0.2111 -0.9475  0.5095
 4298SOL    HW224531   3.705   1.558   2.568 -0.4853 -1.1049 -0.0935
 4299SOL     OW24532   2.752   0.605  12.958 -0.1391  0.0065  0.7709
 4299SOL    HW124533   2.846   0.612  12.938  0.2184  0.9462  2.7769
 4299SOL    HW224534   2.768   0.561  13.042 -0.7577 -0.6317  0.5508
 4300SOL     OW24535   3.533   2.876   1.376 -0.1631  0.4413 -0.6485
 4300SOL    HW124536   3.506   2.831   1.296  1.0010  1.7544 -1.7751
 4300SOL    HW224537   3.449   2.878   1.423  0.6924  1.7573  0.8477
 4301SOL     OW24538   3.465   2.433  10.945 -0.0892 -0.3956  0.1969
 4301SOL    HW124539   3.417   2.352  10.929  0.6071 -1.2880  2.5291
 4301SOL    HW224540   3.554   2.416  10.915  0.0351  1.2764 -0.3939
 4302SOL     OW24541   1.971   3.840  13.937 -0.0836 -0.4227 -0.4958
 4302SOL    HW124542   1.939   3.750  13.936  3.1804 -1.6036 -0.9535
 4302SOL    HW224543   1.946   3.874  14.023  0.4192  0.8472 -0.8536
 4303SOL     OW24544   4.516   1.861   2.334 -0.2319 -0.0871 -0.1565
 4303SOL    HW124545   4.470   1.857   2.250 -2.3409 -1.8208  1.0659
 4303SOL    HW224546   4.548   1.951   2.330 -0.9736  0.1378 -0.9440
 4304SOL     OW24547   4.388   2.795   2.779 -0.1876 -0.3641 -0.0979
 4304SOL    HW124548   4.374   2.785   2.873 -0.2373  0.8306  0.0281
 4304SOL    HW224549   4.298   2.800   2.749 -0.6051  0.2804  1.2552
 4305SOL     OW24550   2.311   3.521   3.973 -0.4047  0.1832 -0.8848
 4305SOL    HW124551   2.272   3.436   3.994 -0.4739  0.6129  0.7018
 4305SOL    HW224552   2.262   3.581   4.029 -0.7181 -1.6360  0.7717
 4306SOL     OW24553   0.006   2.922  11.158  0.0386 -0.5073 -0.0082
 4306SOL    HW124554   0.021   2.833  11.126 -0.8967  0.0091 -1.9023
 4306SOL    HW224555   4.694   2.901  11.237  0.2537 -1.7159 -0.1937
 4307SOL     OW24556   1.030   3.183   2.226  0.2922 -0.3399  0.4105
 4307SOL    HW124557   0.936   3.168   2.225  0.1090  1.0512 -3.0619
 4307SOL    HW224558   1.032   3.191   2.131 -2.5273  1.9390  0.5477
 4308SOL     OW24559   0.048   1.877   1.276 -0.1795  0.1395 -0.4555
 4308SOL    HW124560   0.061   1.809   1.210 -0.7614  0.6979 -1.1473
 4308SOL    HW224561   0.034   1.813   1.345  1.3571 -1.0389 -1.2459
 4309SOL     OW24562   0.751   4.173   3.174 -0.3155 -0.0763 -0.0757
 4309SOL    HW124563   0.698   4.120   3.115 -0.1601 -2.3500  1.8029
 4309SOL    HW224564   0.824   4.114   3.192 -0.1476 -0.2924 -1.5205
 4310SOL     OW24565   3.363   2.694  16.584 -0.0140 -0.3648 -0.0173
 4310SOL    HW124566   3.378   2.789  16.577 -0.6171 -0.3714 -1.3749
 4310SOL    HW224567   3.365   2.661  16.494 -2.2121 -0.3049 -0.0884
 4311SOL     OW24568   4.480   4.261   4.716 -0.1392  0.1361  0.0158
 4311SOL    HW124569   4.394   4.270   4.676  0.1024  2.4199 -0.0070
 4311SOL    HW224570   4.475   4.175   4.758  1.0793 -0.2043 -0.5383
 4312SOL     OW24571   1.772   2.738   1.128  0.4166  0.0987  0.0776
 4312SOL    HW124572   1.749   2.693   1.047  3.5034 -1.2720 -0.0449
 4312SOL    HW224573   1.786   2.829   1.103 -0.3536  0.2182  0.0728
 4313SOL     OW24574   4.596   3.400   7.316  0.3657  0.0772  0.4230
 4313SOL    HW124575   4.665   3.340   7.285  0.5341  1.4794 -1.9193
 4313SOL    HW224576   4.547   3.341   7.373  1.4492 -1.0578  0.1954
 4314SOL     OW24577   2.018   3.104   3.637  0.4443 -0.7206 -0.1801
 4314SOL    HW124578   2.071   3.058   3.572  0.3038 -1.9310  0.5613
 4314SOL    HW224579   1.976   3.023   3.665  0.7178 -1.4329 -1.8329
 4315SOL     OW24580   0.450   0.796   7.296  0.0356 -0.2443 -0.1553
 4315SOL    HW124581   0.358   0.772   7.300 -0.4756  1.8329  0.8611
 4315SOL    HW224582   0.453   0.864   7.229 -0.0400  0.7253  0.8144
 4316SOL     OW24583   2.101   0.886   3.174  0.8138  0.2383  0.5641
 4316SOL    HW124584   2.014   0.897   3.135  1.4981  1.4604 -0.6232
 4316SOL    HW224585   2.132   0.975   3.159 -1.7641  1.3547  1.8307
 4317SOL     OW24586   1.450   3.132   8.794 -0.0107 -0.0205  0.1957
 4317SOL    HW124587   1.407   3.062   8.844  0.0005  0.1997  0.5121
 4317SOL    HW224588   1.509   3.164   8.862  1.7739 -0.1744 -1.2823
 4318SOL     OW24589   2.778   4.036  14.999  0.2957  0.1327 -0.5475
 4318SOL    HW124590   2.841   4.092  15.044 -0.2994 -0.9977  1.6438
 4318SOL    HW224591   2.745   3.978  15.067  2.9285  1.5855  1.9710
 4319SOL     OW24592   1.544   3.249  17.616 -0.5165 -0.0732  0.0297
 4319SOL    HW124593   1.601   3.175  17.598  2.1242  1.3150  2.6907
 4319SOL    HW224594   1.514   3.262  17.526  0.1952  1.1838 -0.0161
 4320SOL     OW24595   0.230   2.902   3.700 -0.3500  0.0260 -0.1610
 4320SOL    HW124596   0.193   2.818   3.676 -0.9728  0.6190 -1.2846
 4320SOL    HW224597   0.181   2.961   3.642  0.5745  0.3477 -0.6283
 4321SOL     OW24598   2.430   3.235   3.204 -0.6987 -0.0411 -0.3616
 4321SOL    HW124599   2.439   3.172   3.133  1.9043  0.4426 -0.4670
 4321SOL    HW224600   2.502   3.211   3.263 -0.9146  3.3066  1.2616
 4322SOL     OW24601   4.374   1.709   8.908  0.0143 -0.3552 -0.0649
 4322SOL    HW124602   4.284   1.683   8.889 -0.5676 -0.6271  3.1614
 4322SOL    HW224603   4.356   1.786   8.961  1.4195  0.4528 -0.7634
 4323SOL     OW24604   1.125   2.318   0.027  0.1737  0.1499 -0.0337
 4323SOL    HW124605   1.045   2.319  17.725  0.7379  1.5286 -0.8759
 4323SOL    HW224606   1.190   2.300  17.709 -0.2757 -0.8574 -0.1943
 4324SOL     OW24607   3.503   1.123   3.140  0.5541 -0.2200  0.2718
 4324SOL    HW124608   3.574   1.177   3.106 -0.4749 -0.2559 -1.9036
 4324SOL    HW224609   3.490   1.060   3.070  0.6900  0.5606 -0.4596
 4325SOL     OW24610   0.389   0.760  10.295 -0.0942  0.1711  0.4802
 4325SOL    HW124611   0.474   0.730  10.326  0.0877  0.1879 -0.0032
 4325SOL    HW224612   0.402   0.770  10.201  0.7422  1.1756  0.7047
 4326SOL     OW24613   4.561   4.514  13.142  0.2879  0.5513  0.0360
 4326SOL    HW124614   4.583   4.453  13.212  1.7819  0.9890 -0.0507
 4326SOL    HW224615   4.468   4.529  13.157  0.2961 -0.6593  1.3074
 4327SOL     OW24616   4.115   0.404  14.202 -0.5999 -0.4294  0.5627
 4327SOL    HW124617   4.052   0.368  14.140 -0.7924  0.2646  0.3629
 4327SOL    HW224618   4.193   0.361  14.164 -1.2245 -1.0008 -0.0811
 4328SOL     OW24619   4.285   4.292  12.235  0.0949  0.2140 -0.0002
 4328SOL    HW124620   4.254   4.212  12.279  0.8560  0.0232  0.1979
 4328SOL    HW224621   4.209   4.346  12.255  0.0465 -0.7734  2.5140
 4329SOL     OW24622   0.429   4.725   1.954 -0.1912  0.6202 -0.0712
 4329SOL    HW124623   0.456   4.633   1.951 -2.1457  0.0636 -0.3733
 4329SOL    HW224624   0.409   0.007   2.045 -1.6839  2.1135 -0.7204
 4330SOL     OW24625   3.035   1.476   8.991  0.3166 -0.3041  0.0493
 4330SOL    HW124626   3.059   1.434   9.074  2.1621  0.3641 -0.1407
 4330SOL    HW224627   2.988   1.411   8.938 -0.2432 -1.3211  1.7971
 4331SOL     OW24628   4.567   4.340   7.604  0.0589  0.1387  0.7121
 4331SOL    HW124629   4.474   4.360   7.603 -0.0635 -0.4669 -0.3113
 4331SOL    HW224630   4.597   4.402   7.537 -0.0711 -0.7140 -0.1456
 4332SOL     OW24631   3.621   1.363   3.443 -0.6792  0.8741 -0.3915
 4332SOL    HW124632   3.626   1.268   3.459  2.6795  1.6522  3.0036
 4332SOL    HW224633   3.702   1.395   3.483 -0.4438 -0.1381 -0.0485
 4333SOL     OW24634   2.588   2.441   7.131  0.4271  0.3841  0.0650
 4333SOL    HW124635   2.508   2.393   7.149 -0.7285  1.6989 -1.6055
 4333SOL    HW224636   2.589   2.517   7.189 -3.1841  0.3533  0.1657
 4334SOL     OW24637   2.042   3.567  16.039  0.8524  0.4212  0.4074
 4334SOL    HW124638   2.137   3.564  16.025  1.1773  1.1445  2.3631
 4334SOL    HW224639   2.041   3.506  16.113  3.0167 -0.9609 -0.6829
 4335SOL     OW24640   2.521   1.950  15.012  0.6234 -0.3160  0.4403
 4335SOL    HW124641   2.432   1.943  15.046  0.6496  2.8074  1.0630
 4335SOL    HW224642   2.518   1.868  14.961  1.7951  0.2110 -0.4856
 4336SOL     OW24643   0.992   2.424  14.286 -0.0738  0.1096 -0.3045
 4336SOL    HW124644   1.024   2.411  14.197 -0.8247  2.1418 -0.8872
 4336SOL    HW224645   0.993   2.335  14.321  0.4473  1.2149  2.4560
 4337SOL     OW24646   2.444   3.242   9.100 -0.5224 -0.1666  0.1060
 4337SOL    HW124647   2.501   3.318   9.102 -0.3555 -0.2505 -1.6731
 4337SOL    HW224648   2.358   3.283   9.086 -0.6143 -0.2959  0.2833
 4338SOL     OW24649   0.307   1.925  17.486 -0.1958  0.5004  1.2038
 4338SOL    HW124650   0.219   1.954  17.460  0.2846  0.6717 -0.2590
 4338SOL    HW224651   0.310   1.946  17.579 -0.4412  0.8658  1.1325
 4339SOL     OW24652   3.157   3.098  14.937 -0.3416 -0.3958 -0.3091
 4339SOL    HW124653   3.099   3.022  14.935  0.9638 -1.3840 -1.1940
 4339SOL    HW224654   3.172   3.107  14.843  0.6667 -0.1736 -0.1290
 4340SOL     OW24655   3.585   0.666   6.338 -0.0165 -0.3014 -0.4755
 4340SOL    HW124656   3.600   0.576   6.364  2.5468 -0.0049 -0.9723
 4340SOL    HW224657   3.490   0.671   6.325 -0.2232 -2.6999  0.1498
 4341SOL     OW24658   0.076   3.010  12.458 -0.1044 -0.1551 -0.2579
 4341SOL    HW124659   4.719   3.019  12.469 -0.0842  0.4345 -0.5716
 4341SOL    HW224660   0.080   3.002  12.363 -0.0293 -0.2484 -0.2465
 4342SOL     OW24661   0.755   2.448  16.736 -0.4931 -0.3206  0.4473
 4342SOL    HW124662   0.707   2.515  16.687 -1.8520  0.1677  2.4987
 4342SOL    HW224663   0.749   2.379  16.670  0.0550  0.7118 -0.7038
 4343SOL     OW24664   1.885   1.218  11.771 -0.3499  0.0801  0.1714
 4343SOL    HW124665   1.979   1.207  11.761 -0.1391  2.5536 -0.6591
 4343SOL    HW224666   1.865   1.160  11.844  0.9957  0.6880  1.0052
 4344SOL     OW24667   0.154   2.202  10.069 -0.4344  0.3817  0.2536
 4344SOL    HW124668   0.241   2.240  10.055 -0.0952 -0.1583  0.9106
 4344SOL    HW224669   0.103   2.240   9.997 -0.7547 -1.4826 -0.5084
 4345SOL     OW24670   0.181   4.643   8.271 -0.1087  0.0005  0.3984
 4345SOL    HW124671   0.164   4.693   8.351  0.8628  0.1029  0.5485
 4345SOL    HW224672   0.115   4.574   8.276 -0.2896  0.1645  0.2732
 4346SOL     OW24673   3.836   1.688   0.358 -0.2513 -0.2193  0.1950
 4346SOL    HW124674   3.872   1.739   0.431  0.1964  0.2227 -0.3407
 4346SOL    HW224675   3.787   1.624   0.410  0.0558  0.1244  0.9138
 4347SOL     OW24676   2.664   0.239   1.865  0.0338 -0.4749  0.0576
 4347SOL    HW124677   2.570   0.255   1.856  0.0353 -0.9653 -0.8401
 4347SOL    HW224678   2.672   0.171   1.798  2.7512 -0.8411  0.7539
 4348SOL     OW24679   4.108   2.861   2.749  0.2820 -0.0879 -0.3491
 4348SOL    HW124680   4.111   2.923   2.676 -0.1997  1.1000  0.6405
 4348SOL    HW224681   4.040   2.803   2.716 -0.6702  0.3297  0.9010
 4349SOL     OW24682   2.626   0.680   8.854  0.1656  0.1079  0.3029
 4349SOL    HW124683   2.716   0.696   8.879  0.1651  0.0039  0.3706
 4349SOL    HW224684   2.639   0.674   8.759 -2.7272  0.0375 -0.0991
 4350SOL     OW24685   3.060   3.384   4.569  0.2086 -0.0742  0.2952
 4350SOL    HW124686   3.107   3.377   4.652  0.1138  0.1078  0.3619
 4350SOL    HW224687   3.075   3.293   4.542 -1.3833 -0.0602 -0.6320
 4351SOL     OW24688   0.242   4.426   2.243 -0.2600 -0.0004 -0.0936
 4351SOL    HW124689   0.183   4.425   2.168 -0.5168 -0.9926  0.1186
 4351SOL    HW224690   0.323   4.385   2.214  0.3168  1.5251 -0.6200
 4352SOL     OW24691   2.220   4.171   8.559  0.2170  0.1064 -0.2053
 4352SOL    HW124692   2.160   4.236   8.596 -1.0163 -1.8498  1.2362
 4352SOL    HW224693   2.299   4.221   8.540 -0.1826 -0.2738 -2.9603
 4353SOL     OW24694   4.040   1.969  14.435  0.3657  0.5170 -0.1865
 4353SOL    HW124695   4.001   2.010  14.358  1.7677  0.8706 -0.7130
 4353SOL    HW224696   4.099   2.038  14.466  0.1616  0.6642 -0.1227
 4354SOL     OW24697   1.325   0.194   7.320 -0.1270  0.1413  0.5244
 4354SOL    HW124698   1.375   0.244   7.255 -1.2836 -0.0094 -0.4846
 4354SOL    HW224699   1.346   0.105   7.291 -1.6021 -0.3486  0.9928
 4355SOL     OW24700   0.849   4.480   1.583 -0.1236 -0.1109  0.6114
 4355SOL    HW124701   0.900   4.549   1.541 -0.4501 -0.4845 -0.4168
 4355SOL    HW224702   0.835   4.516   1.670 -0.2980  0.6688  0.2588
 4356SOL     OW24703   0.424   0.556  16.957 -0.3355 -0.2486 -0.3979
 4356SOL    HW124704   0.456   0.475  16.996  1.0202  0.7911  0.6355
 4356SOL    HW224705   0.382   0.530  16.875 -0.0740  1.5417 -1.1081
 4357SOL     OW24706   1.418   3.921   3.076  0.3734 -0.3301 -0.3107
 4357SOL    HW124707   1.334   3.959   3.054  0.2664  0.2045  0.9945
 4357SOL    HW224708   1.397   3.853   3.140  0.1284  1.8019  1.8973
 4358SOL     OW24709   4.337   3.601  16.309 -0.4277 -0.4310  0.2190
 4358SOL    HW124710   4.399   3.528  16.311  1.5465  1.3170  2.7462
 4358SOL    HW224711   4.335   3.600  16.214  1.1479  1.7393  0.1773
 4359SOL     OW24712   3.392   1.770   5.338 -0.2028 -0.0228  0.6232
 4359SOL    HW124713   3.352   1.800   5.420  0.1322 -2.2539  1.5800
 4359SOL    HW224714   3.325   1.805   5.279  0.5190  0.8630  0.3177
 4360SOL     OW24715   0.935   1.491   6.908 -0.2231 -0.1813  0.7772
 4360SOL    HW124716   0.863   1.449   6.860  0.1609 -0.9352  0.8721
 4360SOL    HW224717   0.878   1.520   6.979 -0.5875  0.9508  0.0318
 4361SOL     OW24718   0.881   0.927   9.148 -0.7456  0.0947 -0.1437
 4361SOL    HW124719   0.799   0.959   9.112 -2.3004 -1.0019  2.4826
 4361SOL    HW224720   0.940   1.001   9.135 -3.2687  2.0367 -0.4129
 4362SOL     OW24721   2.816   3.732  17.357  0.0740 -0.0755  0.1229
 4362SOL    HW124722   2.848   3.755  17.269 -1.1652 -3.2492 -1.1699
 4362SOL    HW224723   2.879   3.665  17.383  0.3379 -1.1046 -3.1672
 4363SOL     OW24724   1.380   0.249   8.560  0.4658 -0.6301  0.0643
 4363SOL    HW124725   1.374   0.154   8.558  0.3951 -0.6174 -0.2225
 4363SOL    HW224726   1.303   0.268   8.507  0.6576 -2.9399 -1.0143
 4364SOL     OW24727   3.322   0.180   3.951 -0.1554  0.2034  0.1955
 4364SOL    HW124728   3.287   0.251   3.897 -0.9228  0.8463  1.5287
 4364SOL    HW224729   3.264   0.198   4.025 -1.1630  2.3101 -1.0983
 4365SOL     OW24730   3.209   1.281   7.787 -0.0767  0.5977  0.4620
 4365SOL    HW124731   3.264   1.359   7.778  0.9997 -0.1022  0.8935
 4365SOL    HW224732   3.146   1.298   7.857 -0.0631  0.0299  0.6138
 4366SOL     OW24733   0.742   1.218  10.201 -0.0298 -0.0290 -0.7340
 4366SOL    HW124734   0.659   1.171  10.204 -0.2136  0.1985 -2.0680
 4366SOL    HW224735   0.800   1.146  10.225 -0.4470  0.3160  1.3312
 4367SOL     OW24736   0.467   3.727   5.462 -0.7454 -0.4137  0.1273
 4367SOL    HW124737   0.463   3.651   5.520 -0.3318 -1.2859 -0.9932
 4367SOL    HW224738   0.373   3.741   5.448 -0.8906 -1.7692 -0.1866
 4368SOL     OW24739   1.252   0.933   2.561 -0.0614 -0.1726 -0.5112
 4368SOL    HW124740   1.327   0.902   2.511  0.3591  0.9783 -0.5924
 4368SOL    HW224741   1.297   0.985   2.628 -1.3015  1.7696 -1.1774
 4369SOL     OW24742   4.168   3.849   2.132 -0.4110 -0.1690  0.2253
 4369SOL    HW124743   4.208   3.763   2.119  1.8723  0.6682  1.6219
 4369SOL    HW224744   4.140   3.871   2.043 -0.5966  0.0509  0.3378
 4370SOL     OW24745   3.546   2.766   3.917 -0.1630  0.1467  0.0457
 4370SOL    HW124746   3.491   2.731   3.847 -1.8387 -0.7065  1.8200
 4370SOL    HW224747   3.553   2.694   3.979  4.2932 -0.4326 -1.1629
 4371SOL     OW24748   2.946   0.968  14.784 -0.5948 -0.2213  0.5144
 4371SOL    HW124749   2.982   1.036  14.841 -0.9175  2.2815 -2.2816
 4371SOL    HW224750   3.023   0.911  14.788 -0.7274 -0.5109 -0.9825
 4372SOL     OW24751   3.280   2.577   7.197  0.4724  0.1704  0.0994
 4372SOL    HW124752   3.278   2.649   7.135 -0.3446 -0.2635 -0.3805
 4372SOL    HW224753   3.332   2.619   7.266  2.7566 -1.0090 -0.9083
 4373SOL     OW24754   3.610   3.676  10.428 -0.2641  0.0786 -0.1867
 4373SOL    HW124755   3.528   3.725  10.427 -0.9822 -1.0720  2.4087
 4373SOL    HW224756   3.620   3.655  10.521 -1.5445  2.6075  0.5405
 4374SOL     OW24757   1.479   4.533   3.332  0.2463 -0.5215 -0.0209
 4374SOL    HW124758   1.401   4.483   3.308 -0.4153 -0.9995  3.0448
 4374SOL    HW224759   1.543   4.477   3.289  0.1388  2.6172 -4.1739
 4375SOL     OW24760   1.254   1.148  16.040  0.2788 -0.0748 -0.2283
 4375SOL    HW124761   1.301   1.215  15.991  1.5396  0.4520  1.7058
 4375SOL    HW224762   1.282   1.070  15.993 -0.7459  0.2008 -1.3032
 4376SOL     OW24763   0.571   2.733  12.691 -0.1264 -0.3370  0.0068
 4376SOL    HW124764   0.602   2.820  12.665  0.6409  0.1863  2.6426
 4376SOL    HW224765   0.575   2.684  12.609 -0.2251  1.0257 -0.8064
 4377SOL     OW24766   2.605   2.610   8.818 -0.0016 -0.3014  0.4540
 4377SOL    HW124767   2.544   2.536   8.821  1.4334 -1.5393 -1.0683
 4377SOL    HW224768   2.620   2.612   8.724  1.6327  0.3709  0.7278
 4378SOL     OW24769   2.379   2.675  17.430  0.4429 -0.0294 -0.1937
 4378SOL    HW124770   2.442   2.719  17.487  0.7349 -1.2301  0.4225
 4378SOL    HW224771   2.421   2.593  17.403  1.8801  0.3825  0.7868
 4379SOL     OW24772   2.469   2.755   2.258 -0.2010  0.8691 -0.4039
 4379SOL    HW124773   2.481   2.670   2.214  1.2148 -0.2319  2.0985
 4379SOL    HW224774   2.424   2.803   2.188 -1.8108 -0.0518 -0.0015
 4380SOL     OW24775   0.248   1.964   8.516 -0.2630 -0.4017  0.0118
 4380SOL    HW124776   0.170   1.938   8.566 -0.4351  0.5085  0.2276
 4380SOL    HW224777   0.251   1.902   8.444 -0.9675 -0.4280 -0.0024
 4381SOL     OW24778   1.827   3.909  12.596  0.2228 -0.2386  0.3933
 4381SOL    HW124779   1.895   3.843  12.580  0.0352 -0.6807  1.4154
 4381SOL    HW224780   1.754   3.849  12.607 -1.9418  2.1779 -0.8197
 4382SOL     OW24781   3.953   3.168   0.439  0.5137  0.1484  0.1220
 4382SOL    HW124782   4.014   3.095   0.447  1.1156  0.1987 -3.9599
 4382SOL    HW224783   3.877   3.115   0.460  1.0382 -0.0284  1.5639
 4383SOL     OW24784   3.561   1.333   5.850  0.0563  0.2532  0.1715
 4383SOL    HW124785   3.501   1.290   5.790  1.6065  0.4026 -1.5018
 4383SOL    HW224786   3.637   1.338   5.792  1.6073  0.9524  2.2486
 4384SOL     OW24787   1.424   2.376  11.137 -0.0326  0.0785  1.1787
 4384SOL    HW124788   1.401   2.297  11.187  1.6643 -0.4615  1.0880
 4384SOL    HW224789   1.455   2.435  11.206 -0.9156  0.8491  0.9139
 4385SOL     OW24790   4.017   4.369   8.444 -0.5934  0.0219 -0.4032
 4385SOL    HW124791   3.965   4.447   8.427  0.4069  1.0338  1.1487
 4385SOL    HW224792   4.078   4.362   8.370  0.4241  1.9901  0.2548
 4386SOL     OW24793   3.998   4.396   4.212  0.1844  0.3604  0.5965
 4386SOL    HW124794   3.995   4.322   4.152 -2.8690  0.1213  1.0450
 4386SOL    HW224795   4.073   4.442   4.175  0.6667  0.6847  1.9868
 4387SOL     OW24796   4.458   3.560   9.830  0.0446 -0.0066 -0.1746
 4387SOL    HW124797   4.516   3.573   9.905  0.2628 -0.1143 -0.3240
 4387SOL    HW224798   4.377   3.606   9.849 -0.7836 -0.8456 -1.6617
 4388SOL     OW24799   4.534   0.947   8.506  0.0239 -0.2900  0.1957
 4388SOL    HW124800   4.548   1.027   8.556 -0.9829 -0.1176  0.2025
 4388SOL    HW224801   4.456   0.913   8.548 -1.0269  1.5578 -0.2615
 4389SOL     OW24802   0.851   4.277   7.081  0.7811 -0.5876  1.0535
 4389SOL    HW124803   0.843   4.355   7.135 -1.5606 -0.8456  1.0682
 4389SOL    HW224804   0.922   4.225   7.120  0.7274 -0.4904  1.2738
 4390SOL     OW24805   2.929   0.540   9.563  0.6296  0.4498 -0.0872
 4390SOL    HW124806   2.900   0.541   9.654 -1.5352  0.0645 -0.7726
 4390SOL    HW224807   2.934   0.635   9.548  1.0882  0.3173 -0.7455
 4391SOL     OW24808   1.475   3.652  11.112 -0.2187 -0.3462  0.2802
 4391SOL    HW124809   1.409   3.590  11.143 -0.4177  0.5994  1.7562
 4391SOL    HW224810   1.420   3.730  11.106 -0.1702 -0.2525  1.0831
 4392SOL     OW24811   2.238   0.737   0.627 -0.2482  0.5389 -0.1436
 4392SOL    HW124812   2.210   0.696   0.545 -0.5762  1.6885 -0.6115
 4392SOL    HW224813   2.187   0.685   0.689 -1.2666  1.7875  0.0688
 4393SOL     OW24814   0.055   3.139   6.888 -0.4668  0.5320 -0.2402
 4393SOL    HW124815   0.132   3.154   6.834 -0.3850 -1.7866 -0.7915
 4393SOL    HW224816   4.738   3.091   6.826 -1.8936  1.4620  0.2939
 4394SOL     OW24817   4.237   3.865   7.368 -0.0992  0.2825  0.2422
 4394SOL    HW124818   4.190   3.875   7.450 -1.4129  2.9021 -0.8267
 4394SOL    HW224819   4.324   3.838   7.399  0.1110 -0.9178 -1.3954
 4395SOL     OW24820   3.595   4.444  12.817  0.2137  0.9195 -0.1268
 4395SOL    HW124821   3.660   4.374  12.812  0.2977  0.9260  0.8104
 4395SOL    HW224822   3.536   4.418  12.888  0.8176 -3.3814 -1.2212
 4396SOL     OW24823   2.802   2.109   5.652 -0.0979 -0.6438  0.1218
 4396SOL    HW124824   2.883   2.108   5.601 -0.5331 -1.2049 -0.5677
 4396SOL    HW224825   2.767   2.023   5.631 -0.8845 -0.8864  2.4689
 4397SOL     OW24826   2.022   2.015  15.256  0.0781  0.3497  0.3757
 4397SOL    HW124827   2.014   2.110  15.263 -1.5402  0.3479 -1.5030
 4397SOL    HW224828   1.939   1.989  15.218  0.5308  1.5103 -1.3610
 4398SOL     OW24829   0.215   2.596  13.605  0.4533 -0.6848  0.4533
 4398SOL    HW124830   0.158   2.668  13.635  1.7841  0.7801 -0.5371
 4398SOL    HW224831   0.184   2.593  13.515  3.8286 -0.6072 -0.6731
 4399SOL     OW24832   3.837   2.805   7.165  0.3769  0.3828  0.1394
 4399SOL    HW124833   3.837   2.719   7.209 -0.7553  1.0536  1.4451
 4399SOL    HW224834   3.864   2.772   7.080  0.2451  0.8986 -0.1016
 4400SOL     OW24835   1.470   0.724   2.145  0.3186  0.6061  0.0240
 4400SOL    HW124836   1.447   0.634   2.170 -0.0285  0.8142  0.4630
 4400SOL    HW224837   1.452   0.732   2.052 -0.8482 -0.4483  0.1613
 4401SOL     OW24838   3.888   0.595   8.133 -0.6219  0.8769 -0.4498
 4401SOL    HW124839   3.920   0.685   8.140 -0.4197  0.7697 -0.0204
 4401SOL    HW224840   3.836   0.605   8.053  0.8188 -0.7043 -1.5773
 4402SOL     OW24841   0.116   3.344   2.126  0.0810  0.4811  0.8574
 4402SOL    HW124842   0.198   3.299   2.149  1.2503  1.5343 -1.2421
 4402SOL    HW224843   0.059   3.296   2.186  0.2406 -0.1952  0.4739
 4403SOL     OW24844   1.234   4.436   5.171 -0.5644 -0.2353  0.2043
 4403SOL    HW124845   1.257   4.368   5.108  0.6462  2.1261 -1.9035
 4403SOL    HW224846   1.163   4.387   5.213  0.0365 -1.6612 -0.4533
 4404SOL     OW24847   0.661   2.394  11.532  0.4784 -0.0785 -0.1196
 4404SOL    HW124848   0.669   2.303  11.560 -0.2792  0.1672  0.8788
 4404SOL    HW224849   0.741   2.427  11.574  0.6181 -0.4143 -0.1212
 4405SOL     OW24850   0.485   0.035   0.643  0.6583  0.3824  0.1477
 4405SOL    HW124851   0.467   0.088   0.565  2.6137  0.5553 -0.1812
 4405SOL    HW224852   0.404   0.051   0.692  0.5621  0.2135  0.0460
 4406SOL     OW24853   3.486   3.342   4.372 -0.0769  0.2607  0.2421
 4406SOL    HW124854   3.556   3.348   4.436 -0.1366  2.3706  0.1158
 4406SOL    HW224855   3.532   3.331   4.289 -1.1373 -0.3700 -0.2564
 4407SOL     OW24856   2.847   2.647   7.005 -0.1038 -0.2558 -0.1751
 4407SOL    HW124857   2.877   2.567   7.048  2.7311 -0.4348 -2.4929
 4407SOL    HW224858   2.840   2.713   7.074 -2.8724 -1.6371  0.8864
 4408SOL     OW24859   1.403   4.568  15.203  0.7226 -0.2558  0.4863
 4408SOL    HW124860   1.494   4.590  15.226  0.0252  1.2367  1.8223
 4408SOL    HW224861   1.406   4.473  15.208 -0.8811 -0.2416  1.5435
 4409SOL     OW24862   1.247   0.762   8.745 -0.0489 -0.1477 -0.6117
 4409SOL    HW124863   1.247   0.758   8.650 -2.7907 -0.8872 -0.5878
 4409SOL    HW224864   1.180   0.693   8.749 -0.5295  0.2045 -2.6075
 4410SOL     OW24865   0.936   3.165   8.790  0.5591  0.1609 -0.1162
 4410SOL    HW124866   0.996   3.091   8.796  1.5603  1.0065  0.3006
 4410SOL    HW224867   0.853   3.130   8.824  0.8521  0.7533  1.2020
 4411SOL     OW24868   2.931   1.419   3.001  0.4305  0.2200 -0.2138
 4411SOL    HW124869   2.865   1.440   2.936  1.7692 -0.9172 -1.9436
 4411SOL    HW224870   2.886   1.419   3.086  1.7993  2.0310  0.5307
 4412SOL     OW24871   4.205   4.222  12.686 -0.2697 -0.2969 -0.3833
 4412SOL    HW124872   4.231   4.131  12.699  0.5381 -0.1092 -0.6889
 4412SOL    HW224873   4.288   4.262  12.660 -0.2332 -0.3507 -0.3488
 4413SOL     OW24874   2.141   0.163   4.133 -0.3661  0.5108  0.6124
 4413SOL    HW124875   2.103   0.184   4.048  1.1942  1.6814  0.2134
 4413SOL    HW224876   2.186   0.082   4.112 -1.7833 -0.4903  1.3965
 4414SOL     OW24877   3.988   1.561  16.750  0.2132 -0.3513  0.0538
 4414SOL    HW124878   3.948   1.501  16.687  0.8056  1.3028 -1.9004
 4414SOL    HW224879   4.061   1.513  16.789  0.6025 -0.3481 -0.6640
 4415SOL     OW24880   4.211   1.197  16.946  0.2093  0.5673 -0.1862
 4415SOL    HW124881   4.295   1.153  16.937 -1.5370 -2.1681 -3.0567
 4415SOL    HW224882   4.243   1.280  16.983  0.4809  0.2093  0.3850
 4416SOL     OW24883   4.734   1.777   8.585 -0.2529 -0.1799  0.3155
 4416SOL    HW124884   0.074   1.722   8.594 -0.0051 -0.1569 -1.8573
 4416SOL    HW224885   4.671   1.725   8.635  1.2203 -1.1079  1.2187
 4417SOL     OW24886   4.728   1.569   3.391 -0.4757  0.6521  0.1159
 4417SOL    HW124887   4.686   1.509   3.329  1.0999  0.7758 -1.0659
 4417SOL    HW224888   4.733   1.508   3.465  0.3982  0.0823 -0.4179
 4418SOL     OW24889   1.885   1.126   6.237  0.8568  0.3661 -1.2798
 4418SOL    HW124890   1.822   1.129   6.165 -0.8327 -1.8692  0.0995
 4418SOL    HW224891   1.927   1.042   6.220 -0.8265 -0.5025 -1.1115
 4419SOL     OW24892   1.261   0.429   4.314 -0.6692 -0.4225  0.6735
 4419SOL    HW124893   1.254   0.348   4.365 -1.2733 -0.3722  0.6803
 4419SOL    HW224894   1.204   0.413   4.239 -0.4504 -1.7566  0.8010
 4420SOL     OW24895   4.244   0.694  11.261 -0.3889  0.2601 -0.9244
 4420SOL    HW124896   4.203   0.623  11.213  0.6419  0.3436 -1.9436
 4420SOL    HW224897   4.188   0.695  11.339 -0.0083  0.4903 -0.6514
 4421SOL     OW24898   0.223   1.615   3.240 -0.5464  0.6461 -0.2266
 4421SOL    HW124899   0.151   1.567   3.281  0.1980  0.3756  0.7629
 4421SOL    HW224900   0.209   1.707   3.259  0.1056  1.2403 -2.5891
 4422SOL     OW24901   2.305   2.170   3.228 -0.1109  0.5836 -0.1894
 4422SOL    HW124902   2.318   2.237   3.161  1.0679  1.5720  1.0410
 4422SOL    HW224903   2.347   2.202   3.307  1.8516 -0.1710 -0.9198
 4423SOL     OW24904   3.433   2.588  10.695  0.1608 -0.1066  0.3239
 4423SOL    HW124905   3.479   2.551  10.771  0.3273 -3.6197 -1.5394
 4423SOL    HW224906   3.345   2.556  10.714 -0.8155  2.7162  0.6922
 4424SOL     OW24907   4.195   1.449   8.715 -0.2813  0.4288 -0.4321
 4424SOL    HW124908   4.179   1.359   8.687 -0.0334  0.2418  0.0285
 4424SOL    HW224909   4.110   1.486   8.692  0.3304  1.5227 -0.9280
 4425SOL     OW24910   3.262   1.496   5.054 -0.0638 -0.5711  0.2526
 4425SOL    HW124911   3.322   1.510   4.981 -0.5314  1.9991  0.3572
 4425SOL    HW224912   3.264   1.401   5.065  2.7615 -0.5710 -0.1759
 4426SOL     OW24913   2.334   3.968   4.306 -0.0356 -0.1138  0.1400
 4426SOL    HW124914   2.301   4.057   4.297  1.1415  0.4527  1.5135
 4426SOL    HW224915   2.262   3.938   4.362  0.6074  0.6460  1.3626
 4427SOL     OW24916   4.293   4.318   6.524 -0.1633  0.4222  0.0335
 4427SOL    HW124917   4.244   4.354   6.597 -0.0648 -1.7576  1.1572
 4427SOL    HW224918   4.376   4.312   6.571  1.2880 -0.2670 -2.5809
 4428SOL     OW24919   0.740   1.455   8.075 -0.0908  0.8287 -0.9567
 4428SOL    HW124920   0.676   1.394   8.111  2.3200 -1.5339 -0.6833
 4428SOL    HW224921   0.694   1.539   8.085 -1.4187 -0.1563  1.1869
 4429SOL     OW24922   2.743   3.866   9.624  0.2260  0.2826 -0.0562
 4429SOL    HW124923   2.649   3.850   9.639 -0.1120  0.9939 -1.4707
 4429SOL    HW224924   2.783   3.783   9.649  1.2739  0.7021 -0.3256
 4430SOL     OW24925   0.935   3.690   3.630  0.0127  0.1153 -0.0851
 4430SOL    HW124926   0.937   3.608   3.581  0.8982 -0.2736  0.6040
 4430SOL    HW224927   0.903   3.664   3.717  1.1617 -3.0676 -0.6355
 4431SOL     OW24928   0.535   2.380   8.490  0.3789 -0.0660  0.2131
 4431SOL    HW124929   0.577   2.329   8.560 -0.8746  0.7199  1.5182
 4431SOL    HW224930   0.448   2.341   8.487 -0.3283  1.5313  0.3083
 4432SOL     OW24931   0.621   2.479   5.986  0.0088  0.4755  0.3008
 4432SOL    HW124932   0.604   2.385   5.986  0.2910  0.4229 -0.3939
 4432SOL    HW224933   0.697   2.483   5.928  0.7965 -0.2015  1.2864
 4433SOL     OW24934   4.372   2.749   3.343 -0.1488 -0.0745 -0.1328
 4433SOL    HW124935   4.397   2.792   3.425 -0.1081  0.3480 -0.3682
 4433SOL    HW224936   4.403   2.661   3.364 -0.6511 -0.3304 -0.4714
 4434SOL     OW24937   0.917   3.643   6.417  0.3805 -0.1600 -0.6155
 4434SOL    HW124938   0.845   3.600   6.370 -1.3765 -0.0599  2.0061
 4434SOL    HW224939   0.891   3.734   6.398 -1.3169 -0.6082 -0.4651
 4435SOL     OW24940   1.585   0.447   2.750  0.2881 -0.2083 -0.4377
 4435SOL    HW124941   1.558   0.438   2.841 -0.1829 -1.8107 -0.7386
 4435SOL    HW224942   1.592   0.356   2.720 -0.5539 -1.1184  2.1805
 4436SOL     OW24943   2.171   3.129   7.418  0.0019 -0.1917  0.7220
 4436SOL    HW124944   2.078   3.129   7.395 -0.0457  3.4298  0.9407
 4436SOL    HW224945   2.203   3.066   7.353  0.5202  0.8389 -0.0256
 4437SOL     OW24946   3.154   0.899   1.791 -0.6124 -0.4384  0.2013
 4437SOL    HW124947   3.214   0.890   1.866  0.9591 -0.2507 -1.0425
 4437SOL    HW224948   3.162   0.817   1.743 -0.9793 -0.6372  0.4729
 4438SOL     OW24949   1.395   3.669   9.819  0.3204 -0.2401 -0.3541
 4438SOL    HW124950   1.438   3.694   9.901  0.3375 -1.1365 -0.0940
 4438SOL    HW224951   1.310   3.706   9.844  1.4717  0.7289  2.1385
 4439SOL     OW24952   2.072   0.139   4.398 -0.2138  0.4108 -0.5791
 4439SOL    HW124953   2.107   0.156   4.310  0.8717 -5.3687 -1.2910
 4439SOL    HW224954   2.003   0.078   4.372 -0.8087  0.4538  0.9531
 4440SOL     OW24955   3.487   3.779  16.092 -0.2864  0.4026 -0.3342
 4440SOL    HW124956   3.571   3.769  16.048 -0.0597  3.2808 -0.5572
 4440SOL    HW224957   3.456   3.849  16.034 -1.8128  1.8500  2.2227
 4441SOL     OW24958   3.506   3.192   2.706 -0.3408  0.2810 -0.5799
 4441SOL    HW124959   3.530   3.174   2.616  1.9931 -0.8940  0.2627
 4441SOL    HW224960   3.437   3.258   2.697 -0.8381 -0.1604 -0.0275
 4442SOL     OW24961   1.842   4.606   6.659 -0.8219 -0.0177 -0.2250
 4442SOL    HW124962   1.863   4.528   6.711 -0.9701  0.2032  0.1678
 4442SOL    HW224963   1.910   4.667   6.686  1.1126 -1.9223 -0.7482
 4443SOL     OW24964   1.857   4.164   3.757  0.0347 -0.7565  0.1052
 4443SOL    HW124965   1.823   4.079   3.729  1.0364 -1.6148  1.5090
 4443SOL    HW224966   1.897   4.185   3.673  1.3525 -1.2640  0.5988
 4444SOL     OW24967   2.141   4.633   8.887 -0.4509  0.3058 -0.3804
 4444SOL    HW124968   2.084   4.677   8.824 -1.2226  1.3295  1.0096
 4444SOL    HW224969   2.143   4.692   8.963  2.8853 -3.9292  2.8049
 4445SOL     OW24970   2.876   3.238   7.959  0.1785 -0.1255  0.0036
 4445SOL    HW124971   2.927   3.302   7.909  2.2684  0.1444  2.4797
 4445SOL    HW224972   2.787   3.272   7.950 -0.0536  0.1353  3.3867
 4446SOL     OW24973   4.235   0.030  13.395 -0.4139  0.1619  0.0360
 4446SOL    HW124974   4.263   0.122  13.405 -2.2232  0.5985  0.9958
 4446SOL    HW224975   4.314   4.734  13.436 -0.6517  0.7908  0.9968
 4447SOL     OW24976   3.455   2.432   4.984  1.2118 -0.2118  0.3662
 4447SOL    HW124977   3.410   2.514   4.961  1.9670  0.4642  1.2930
 4447SOL    HW224978   3.545   2.458   4.965  1.7421 -2.3132  0.0740
 4448SOL     OW24979   0.140   1.708   6.903  0.1365 -0.2854  0.0573
 4448SOL    HW124980   0.180   1.623   6.882  0.0510 -0.3397  0.1126
 4448SOL    HW224981   0.153   1.704   6.998 -1.0065  3.2175  0.3417
 4449SOL     OW24982   2.730   1.959   3.008 -0.0983  0.0501  0.0635
 4449SOL    HW124983   2.750   1.897   3.079 -1.5346  1.9763  2.1214
 4449SOL    HW224984   2.698   1.895   2.945  1.2046 -0.9548  0.4171
 4450SOL     OW24985   4.666   3.421  14.029 -0.1123 -0.0280 -0.2202
 4450SOL    HW124986   4.604   3.448  14.098  1.4237 -0.2691  1.2485
 4450SOL    HW224987   4.621   3.443  13.947 -0.4154  2.9529  0.7417
 4451SOL     OW24988   1.773   3.635   9.044 -0.0526 -0.0921  0.3505
 4451SOL    HW124989   1.695   3.586   9.017  0.3354 -0.5693  0.0931
 4451SOL    HW224990   1.788   3.682   8.962  1.0987 -2.5099 -0.8113
 4452SOL     OW24991   3.916   1.186   7.259 -0.4083  0.3187  0.4420
 4452SOL    HW124992   3.965   1.266   7.278  3.0883 -1.0810 -2.5956
 4452SOL    HW224993   3.963   1.173   7.177  0.4235 -1.9443  1.2734
 4453SOL     OW24994   3.824   1.856   3.259  0.3839 -0.0042 -0.2003
 4453SOL    HW124995   3.805   1.762   3.248 -1.1892 -0.0714  3.0582
 4453SOL    HW224996   3.859   1.864   3.347  0.2449  1.0789 -0.2482
 4454SOL     OW24997   3.808   1.752   2.865 -0.3420  0.0234  0.0954
 4454SOL    HW124998   3.772   1.691   2.801  0.0768 -1.0375  0.8754
 4454SOL    HW224999   3.813   1.696   2.943  0.0318 -2.4361 -1.7055
 4455SOL     OW25000   0.861   4.549   0.161 -0.2942 -0.5150 -0.1910
 4455SOL    HW125001   0.909   4.557   0.244 -1.8841 -1.2537  0.7973
 4455SOL    HW225002   0.801   4.623   0.163  1.6829  1.0784  0.7814
 4456SOL     OW25003   3.365   3.853   2.271  0.3127 -0.3235  0.2642
 4456SOL    HW125004   3.459   3.839   2.262  0.3557 -0.2669  0.6461
 4456SOL    HW225005   3.349   3.930   2.216  0.0809  0.5527  1.5612
 4457SOL     OW25006   3.578   1.970   5.373  0.0251  0.1643  0.1945
 4457SOL    HW125007   3.523   1.893   5.356  0.2671  0.2435 -0.9321
 4457SOL    HW225008   3.639   1.962   5.300  0.4739  0.6424  0.5186
 4458SOL     OW25009   1.224   4.249   4.351  0.0946  0.3056  0.2741
 4458SOL    HW125010   1.147   4.305   4.344 -0.1758  0.1138  1.5668
 4458SOL    HW225011   1.193   4.175   4.299 -1.6487  2.2234 -1.4107
 4459SOL     OW25012   0.886   3.147  17.670  0.0079  0.2918  0.2426
 4459SOL    HW125013   0.950   3.162  17.600 -0.7126 -0.5220 -0.5917
 4459SOL    HW225014   0.861   3.236  17.695  2.3053  1.0008 -0.0101
 4460SOL     OW25015   1.457   2.547   3.717 -0.2176  0.8644 -0.8649
 4460SOL    HW125016   1.413   2.505   3.790  0.9101 -0.1077 -0.7468
 4460SOL    HW225017   1.469   2.630   3.762 -0.5232  0.1628  0.4996
 4461SOL     OW25018   0.432   4.474   6.966 -0.4975 -0.4754 -0.1194
 4461SOL    HW125019   0.399   4.425   6.890 -0.4311 -2.4941  1.1732
 4461SOL    HW225020   0.371   4.548   6.965 -1.0372 -0.9279 -0.1755
 4462SOL     OW25021   3.949   0.045   3.443 -0.6698  0.4596  0.5523
 4462SOL    HW125022   3.907   4.727   3.508 -1.2523  0.6013  0.3003
 4462SOL    HW225023   3.889   0.120   3.437 -1.5555 -0.3832 -1.0957
 4463SOL     OW25024   4.554   0.472   7.474 -0.3853 -0.6546  0.5131
 4463SOL    HW125025   4.535   0.468   7.568 -0.2341  1.2131  0.6364
 4463SOL    HW225026   4.526   0.383   7.452 -0.8732  0.0515 -1.7139
 4464SOL     OW25027   1.617   0.909   6.264  0.1209 -0.1025  0.0718
 4464SOL    HW125028   1.704   0.940   6.288  0.3948  1.4136 -2.7863
 4464SOL    HW225029   1.558   0.983   6.277 -2.4212 -1.8346 -1.5186
 4465SOL     OW25030   2.045   0.920  17.005  0.2663 -0.2995  0.1465
 4465SOL    HW125031   2.067   1.011  17.023 -0.7509 -0.1733  0.7287
 4465SOL    HW225032   2.124   0.871  17.028  0.2047 -1.1155 -1.3576
 4466SOL     OW25033   2.697   0.687   6.465  0.3914  0.2986 -1.0082
 4466SOL    HW125034   2.732   0.598   6.460  0.7220  0.3187  1.0586
 4466SOL    HW225035   2.777   0.739   6.473 -0.3389  1.2892 -0.1233
 4467SOL     OW25036   4.532   0.741   0.549  0.2995 -0.8027  0.5583
 4467SOL    HW125037   4.563   0.738   0.458 -0.2555  0.4531  0.3263
 4467SOL    HW225038   4.482   0.660   0.562 -2.3083  0.1093 -3.5166
 4468SOL     OW25039   0.068   2.165   5.806  0.4906  0.4131 -0.1580
 4468SOL    HW125040   0.044   2.083   5.849  1.6732 -0.3274 -0.8953
 4468SOL    HW225041   0.163   2.155   5.805  0.2905 -1.7172  0.4260
 4469SOL     OW25042   2.085   4.447   4.405 -0.3198  0.3579 -0.2383
 4469SOL    HW125043   2.106   4.358   4.433  0.3238  0.3770 -0.6884
 4469SOL    HW225044   2.152   4.492   4.457 -0.3201  0.7719 -0.5949
 4470SOL     OW25045   2.902   2.526   2.499 -0.4127 -0.8580  0.4484
 4470SOL    HW125046   2.828   2.483   2.542  0.6717  1.2935  4.5145
 4470SOL    HW225047   2.972   2.475   2.539 -0.0718  2.0576  3.6035
 4471SOL     OW25048   0.315   3.326   3.338 -0.1582  0.4585  0.1177
 4471SOL    HW125049   0.312   3.240   3.297 -1.2972  0.3360  0.4496
 4471SOL    HW225050   0.397   3.361   3.305 -0.8478  1.6347 -0.3724
 4472SOL     OW25051   0.898   1.404   9.710  0.2393  0.0437 -0.2313
 4472SOL    HW125052   0.902   1.309   9.710  0.9387  0.0817  0.5085
 4472SOL    HW225053   0.845   1.411   9.790  1.2077 -0.9206  0.4858
 4473SOL     OW25054   1.790   2.917   9.275 -0.4527 -0.4696 -0.3760
 4473SOL    HW125055   1.711   2.869   9.299 -0.4358 -0.7363 -0.8645
 4473SOL    HW225056   1.773   3.003   9.314  1.9999  0.3732 -1.1369
 4474SOL     OW25057   3.440   3.391   1.098  0.2609  0.1769  0.2083
 4474SOL    HW125058   3.449   3.427   1.186 -0.0783 -1.1117  0.7758
 4474SOL    HW225059   3.476   3.303   1.108 -3.1226 -1.2689 -0.3093
 4475SOL     OW25060   4.716   3.339   6.112  0.7411 -0.0279 -0.1556
 4475SOL    HW125061   4.720   3.276   6.041 -1.6612 -0.3496  0.0137
 4475SOL    HW225062   4.736   3.415   6.058 -2.9089 -0.3453 -1.9384
 4476SOL     OW25063   0.988   2.530   9.446 -0.2147  0.1680  0.6792
 4476SOL    HW125064   0.943   2.589   9.506  1.4374 -0.0279  2.1343
 4476SOL    HW225065   0.929   2.537   9.371  0.4565 -0.0836  0.1176
 4477SOL     OW25066   0.435   0.193   7.162  0.2442 -0.4648  0.5939
 4477SOL    HW125067   0.356   0.206   7.214 -0.7625 -2.5125 -0.4339
 4477SOL    HW225068   0.478   0.124   7.212  1.3167  0.3473  0.8018
 4478SOL     OW25069   0.524   2.655  14.693 -0.3900  0.0769 -0.1730
 4478SOL    HW125070   0.456   2.694  14.638 -2.3328 -1.6940  1.0064
 4478SOL    HW225071   0.591   2.631  14.629  0.1321  2.1227 -0.3942
 4479SOL     OW25072   2.877   3.206   3.921  0.6010  0.2919 -0.4677
 4479SOL    HW125073   2.950   3.160   3.961  0.3254  0.0685 -0.2152
 4479SOL    HW225074   2.914   3.228   3.836 -1.2396  2.2046 -0.7874
 4480SOL     OW25075   1.491   2.794   0.229  0.6476 -0.0616 -0.6486
 4480SOL    HW125076   1.397   2.799   0.212  0.8191 -2.1969 -2.3476
 4480SOL    HW225077   1.510   2.884   0.256 -0.0905 -1.0194  3.0331
 4481SOL     OW25078   2.244   0.314   9.605 -0.0201  0.5670  0.5025
 4481SOL    HW125079   2.299   0.254   9.555  0.0869  1.2302 -0.1556
 4481SOL    HW225080   2.188   0.247   9.644  0.5748  0.4152  1.1113
 4482SOL     OW25081   3.827   2.554   4.172 -0.0088  0.1668 -0.2415
 4482SOL    HW125082   3.878   2.624   4.131  0.7350  0.7584  1.6883
 4482SOL    HW225083   3.833   2.578   4.265  0.7081 -0.6208 -0.0834
 4483SOL     OW25084   2.746   1.108   6.000 -0.4898 -0.4758 -0.5011
 4483SOL    HW125085   2.837   1.119   5.972 -0.8798  0.0500 -1.5383
 4483SOL    HW225086   2.749   1.092   6.095 -0.7026  0.0436 -0.4082
 4484SOL     OW25087   3.828   2.891   2.347 -0.2484 -0.3920  0.0541
 4484SOL    HW125088   3.889   2.863   2.279 -1.0464 -0.4342 -0.6412
 4484SOL    HW225089   3.844   2.985   2.347  0.7882 -0.5735 -0.8237
 4485SOL     OW25090   4.186   2.063  15.356  0.0857 -0.1361 -0.3900
 4485SOL    HW125091   4.232   2.145  15.342  0.6154 -0.2529  0.7291
 4485SOL    HW225092   4.237   2.030  15.430  0.0503 -0.0439 -0.3249
 4486SOL     OW25093   0.352   0.155   7.591  0.3693 -0.4988  0.3428
 4486SOL    HW125094   0.430   0.100   7.588 -1.6654 -3.3303 -0.8609
 4486SOL    HW225095   0.316   0.143   7.503  0.1011 -0.8162  0.4934
 4487SOL     OW25096   0.570   4.341   5.735 -0.0934 -0.4972 -0.6327
 4487SOL    HW125097   0.489   4.390   5.751  0.5130  0.7276 -1.3123
 4487SOL    HW225098   0.612   4.351   5.821  1.9787 -0.6764 -1.6343
 4488SOL     OW25099   3.245   1.297   9.994  0.2057  0.9949 -0.2800
 4488SOL    HW125100   3.243   1.305   9.898  1.5426  0.0968 -0.3944
 4488SOL    HW225101   3.338   1.309  10.012  1.3633 -1.6838 -4.2526
 4489SOL     OW25102   4.346   3.645  13.863 -0.1759  0.2923  0.6690
 4489SOL    HW125103   4.309   3.664  13.777  0.7871 -1.4314 -0.1241
 4489SOL    HW225104   4.424   3.598  13.834 -1.1462 -0.2972 -1.0167
 4490SOL     OW25105   4.380   3.760   1.763  0.1041  0.9373 -0.0439
 4490SOL    HW125106   4.390   3.700   1.689 -0.5799  0.0766  0.5728
 4490SOL    HW225107   4.438   3.711   1.821 -1.1210 -1.7980 -1.1464
 4491SOL     OW25108   4.142   3.389   3.229 -0.2798  0.4971 -0.3176
 4491SOL    HW125109   4.065   3.395   3.173 -1.1481  0.5872  0.8927
 4491SOL    HW225110   4.147   3.298   3.258  0.0787 -0.3650 -3.0783
 4492SOL     OW25111   3.198   4.597   1.133 -0.0960 -0.2645  0.0189
 4492SOL    HW125112   3.246   4.545   1.198  2.0688 -1.1502 -2.2953
 4492SOL    HW225113   3.142   4.533   1.091 -0.1289  0.6556 -1.3260
 4493SOL     OW25114   4.032   0.029   1.626  0.1464  0.0824  0.1027
 4493SOL    HW125115   4.030   0.059   1.717  2.8289  1.9591 -0.4695
 4493SOL    HW225116   4.083   0.099   1.587 -0.1171  0.1099 -0.1935
 4494SOL     OW25117   2.041   4.129   3.300  0.1341  0.0237 -0.6538
 4494SOL    HW125118   1.966   4.091   3.254 -0.1179 -0.5214  0.1953
 4494SOL    HW225119   2.096   4.051   3.299 -0.3224 -0.3099 -0.2882
 4495SOL     OW25120   4.141   1.745   3.166 -0.7398  0.3587  0.5713
 4495SOL    HW125121   4.130   1.692   3.087 -0.8061 -0.1471  0.9223
 4495SOL    HW225122   4.109   1.831   3.141 -0.9783  0.2908  0.6474
 4496SOL     OW25123   1.740   3.469   3.045  0.0844  0.4244  0.0195
 4496SOL    HW125124   1.693   3.390   3.018  0.9567  0.1475 -0.6937
 4496SOL    HW225125   1.786   3.484   2.963  1.0548  1.1263  0.6850
 4497SOL     OW25126   2.420   0.609   9.883  0.3682 -0.6851 -0.1581
 4497SOL    HW125127   2.392   0.678   9.943 -1.6255 -1.4517 -0.2337
 4497SOL    HW225128   2.338   0.597   9.836 -0.6289  1.0159  1.1733
 4498SOL     OW25129   2.204   4.059   5.732  0.2750  0.1269 -0.2413
 4498SOL    HW125130   2.129   4.116   5.714  0.1269 -0.6123 -2.0456
 4498SOL    HW225131   2.243   4.050   5.645 -0.2625 -1.3934 -0.3365
 4499SOL     OW25132   0.550   2.599  13.980  0.0457 -1.1428  0.3493
 4499SOL    HW125133   0.567   2.580  14.072  1.4175  0.5819  0.4501
 4499SOL    HW225134   0.560   2.511  13.943 -0.4358 -0.8364 -0.5262
 4500SOL     OW25135   1.849   4.698   8.972 -0.1323 -0.0661 -0.4603
 4500SOL    HW125136   1.839   0.035   9.032 -0.0727  0.9386 -1.7175
 4500SOL    HW225137   1.755   4.683   8.959 -0.1205 -1.2659  0.7690
 4501SOL     OW25138   1.282   0.392   5.937 -0.7854 -0.3500 -0.8036
 4501SOL    HW125139   1.191   0.373   5.959 -0.7987 -0.5239 -1.0087
 4501SOL    HW225140   1.283   0.478   5.979 -1.5420 -0.9538  0.4340
 4502SOL     OW25141   1.191   0.413  10.207  0.1170 -1.1249  0.2433
 4502SOL    HW125142   1.227   0.324  10.208  1.0691 -0.7356  0.8421
 4502SOL    HW225143   1.198   0.428  10.112 -1.9000 -2.7818 -0.1600
 4503SOL     OW25144   1.980   2.627   6.369  0.0722  0.4487 -0.3890
 4503SOL    HW125145   1.970   2.651   6.461 -1.3969 -2.6810  0.2931
 4503SOL    HW225146   2.031   2.547   6.383 -1.0311 -0.5906 -2.2367
 4504SOL     OW25147   3.157   2.999   2.953 -0.6415 -0.3970  0.7579
 4504SOL    HW125148   3.203   3.080   2.975  2.2009 -1.8547  0.1487
 4504SOL    HW225149   3.215   2.942   3.004  0.3363  1.2867  1.5359
 4505SOL     OW25150   1.825   1.552  12.498  0.0041  0.4580 -0.0885
 4505SOL    HW125151   1.731   1.535  12.504  0.2450 -0.1557  2.0684
 4505SOL    HW225152   1.860   1.472  12.459 -0.7880 -1.5188  3.2800
 4506SOL     OW25153   4.082   4.207   6.754 -0.6912  0.2063  0.1124
 4506SOL    HW125154   4.052   4.295   6.777 -0.8297 -0.1452  1.3174
 4506SOL    HW225155   4.151   4.205   6.821  0.4291  0.8848 -1.0143
 4507SOL     OW25156   2.630   0.577  15.988 -0.3702 -0.4402  0.0204
 4507SOL    HW125157   2.536   0.594  15.981 -0.6847 -2.1175 -0.0378
 4507SOL    HW225158   2.657   0.668  15.982 -1.5475 -0.0646  0.4505
 4508SOL     OW25159   2.866   2.276   0.991 -0.2238  0.2593 -0.1922
 4508SOL    HW125160   2.837   2.307   0.905  1.8222  1.1177 -0.5786
 4508SOL    HW225161   2.860   2.182   0.979  1.8676  0.3320 -1.8996
 4509SOL     OW25162   1.127   4.517   2.267 -0.1775  0.1441  0.0384
 4509SOL    HW125163   1.204   4.574   2.264  0.4174 -0.6750 -0.2872
 4509SOL    HW225164   1.063   4.567   2.218  1.5670  1.9966 -0.3661
 4510SOL     OW25165   3.747   0.415   5.048 -0.3292  0.3959 -0.2824
 4510SOL    HW125166   3.702   0.498   5.064  0.5815  0.7098  0.6455
 4510SOL    HW225167   3.798   0.414   5.129 -1.7243 -3.0498  0.5380
 4511SOL     OW25168   0.631   0.731   5.228  0.0469  0.3749  0.2379
 4511SOL    HW125169   0.566   0.792   5.263 -0.1247 -0.3256  1.1304
 4511SOL    HW225170   0.690   0.732   5.303 -1.5696  0.7900  1.5269
 4512SOL     OW25171   2.449   3.136   6.252  0.0352 -0.5480  0.3613
 4512SOL    HW125172   2.532   3.159   6.295  0.1651 -1.5420  0.6264
 4512SOL    HW225173   2.477   3.110   6.165 -0.0807 -0.3149  0.2529
 4513SOL     OW25174   4.316   0.325   2.209  0.0596  0.6316  0.1232
 4513SOL    HW125175   4.400   0.355   2.244 -0.4601 -0.2412  2.1261
 4513SOL    HW225176   4.286   0.265   2.276  1.1494 -1.1696 -0.9943
 4514SOL     OW25177   0.754   0.427   6.169  0.3136 -0.5665 -0.0829
 4514SOL    HW125178   0.718   0.475   6.094  2.5683 -0.8573 -1.3698
 4514SOL    HW225179   0.740   0.492   6.238 -1.2108 -2.9024  1.7793
 4515SOL     OW25180   3.561   1.573   6.758  0.0959 -0.0463 -0.4191
 4515SOL    HW125181   3.484   1.556   6.705 -0.5812 -1.8170  1.1483
 4515SOL    HW225182   3.532   1.540   6.843 -0.1331  0.4218 -0.3172
 4516SOL     OW25183   4.597   3.627  12.696 -0.0098  0.8556 -0.2241
 4516SOL    HW125184   4.648   3.630  12.615  0.2730  2.4131  0.0231
 4516SOL    HW225185   4.516   3.671  12.670 -1.1912 -0.6533  0.9178
 4517SOL     OW25186   2.967   1.933   3.704 -0.0832  0.0589 -0.0520
 4517SOL    HW125187   2.916   1.949   3.624  0.9754 -0.7230 -0.8809
 4517SOL    HW225188   3.044   1.915   3.651  0.4728  0.3748  0.6569
 4518SOL     OW25189   3.581   2.176   6.434  0.0120  0.0725  0.0875
 4518SOL    HW125190   3.630   2.237   6.489 -3.7839  1.0952  2.3820
 4518SOL    HW225191   3.624   2.184   6.348 -2.2070 -4.1776 -1.4305
 4519SOL     OW25192   2.707   2.847   6.120  0.3064 -0.0226  0.6679
 4519SOL    HW125193   2.687   2.861   6.212 -4.2650  1.4441 -0.5353
 4519SOL    HW225194   2.650   2.904   6.067  0.7353  0.2066  0.4508
 4520SOL     OW25195   1.224   0.414   6.511 -0.0994 -0.2132  0.2459
 4520SOL    HW125196   1.166   0.464   6.568 -1.5390  0.3842 -1.7757
 4520SOL    HW225197   1.311   0.452   6.526 -0.9040  0.0091  4.2658
 4521SOL     OW25198   0.153   1.981   6.427  0.3370  0.6892 -0.0283
 4521SOL    HW125199   0.154   1.886   6.439  0.5066  0.6572 -0.2784
 4521SOL    HW225200   0.058   1.983   6.433  0.5713  2.1570  3.5912
 4522SOL     OW25201   1.984   2.241   4.617  0.3366  0.2047  0.2284
 4522SOL    HW125202   1.960   2.163   4.566 -2.6057  0.2448  1.5435
 4522SOL    HW225203   2.075   2.224   4.637 -0.0261 -1.2021  0.6500
 4523SOL     OW25204   4.710   2.129   4.356 -0.1832  0.8304 -0.1966
 4523SOL    HW125205   0.033   2.085   4.415  0.9397  2.2564 -0.2639
 4523SOL    HW225206   4.633   2.073   4.355  0.6181 -0.3107  2.9038
 4524SOL     OW25207   2.658   2.971   0.650 -0.2256  0.5349  0.4636
 4524SOL    HW125208   2.576   3.019   0.644  0.1288  0.7866 -2.6312
 4524SOL    HW225209   2.726   3.030   0.618  0.6251  0.8615  2.9443
 4525SOL     OW25210   4.687   0.630   2.800 -0.4925  0.2430  0.1804
 4525SOL    HW125211   4.722   0.719   2.809 -0.8446  0.2459  1.4867
 4525SOL    HW225212   4.653   0.628   2.710 -1.5071 -1.1065  0.5981
 4526SOL     OW25213   4.419   1.052   9.545  0.3386 -0.3531 -0.8239
 4526SOL    HW125214   4.469   1.021   9.469  0.1539 -2.0266 -0.2628
 4526SOL    HW225215   4.492   1.074   9.603 -0.0856  0.4645 -0.6114
 4527SOL     OW25216   1.910   0.119  14.647 -0.0459  0.1899  0.1821
 4527SOL    HW125217   1.846   0.130  14.717  3.3007  0.6382  3.1584
 4527SOL    HW225218   1.977   0.060  14.682  2.1434  1.9815 -0.9686
 4528SOL     OW25219   3.892   0.589   5.647 -0.4734 -0.1302 -0.1630
 4528SOL    HW125220   3.857   0.678   5.652  2.2202  0.8299  1.3551
 4528SOL    HW225221   3.909   0.574   5.741  0.3305 -0.6963 -0.3994
 4529SOL     OW25222   1.492   1.265   6.872  0.0094  0.0168  0.5962
 4529SOL    HW125223   1.579   1.281   6.910  0.6421  0.9938 -1.2844
 4529SOL    HW225224   1.429   1.298   6.937  0.3208 -0.7561  1.2889
 4530SOL     OW25225   0.541   0.560  15.057  0.1812 -0.0195  0.3227
 4530SOL    HW125226   0.614   0.522  15.008 -0.6126 -0.4604 -0.5268
 4530SOL    HW225227   0.568   0.569  15.148  2.0656 -1.8794 -0.0348
 4531SOL     OW25228   4.732   1.267   7.308  0.2762 -0.2197 -0.1285
 4531SOL    HW125229   4.718   1.299   7.219  1.1762 -1.2621 -0.6502
 4531SOL    HW225230   0.033   1.184   7.281  0.7718  0.2366 -0.8106
 4532SOL     OW25231   0.830   1.271   7.627  0.6285 -0.3131  0.2277
 4532SOL    HW125232   0.772   1.218   7.681  0.8949 -1.5582 -0.7088
 4532SOL    HW225233   0.898   1.287   7.691  0.7877  2.3225 -0.5676
 4533SOL     OW25234   0.616   4.188   9.036 -0.0687  0.3602  0.7742
 4533SOL    HW125235   0.662   4.183   9.120 -0.3651  0.0139  0.9148
 4533SOL    HW225236   0.691   4.203   8.978  0.8334 -0.9901  1.5839
 4534SOL     OW25237   2.931   2.670  12.585 -0.2603 -0.1554 -0.5341
 4534SOL    HW125238   2.926   2.761  12.557  1.9128  0.2170  0.2831
 4534SOL    HW225239   2.988   2.677  12.661  0.2993 -1.7073 -0.8227
 4535SOL     OW25240   2.730   1.390   0.098  0.1396 -0.0033  0.0367
 4535SOL    HW125241   2.700   1.324   0.037  0.5361  0.6664 -0.8775
 4535SOL    HW225242   2.657   1.431   0.145 -0.3921  0.3368 -1.0982
 4536SOL     OW25243   3.786   0.344   2.419 -0.2101 -0.0570 -0.0231
 4536SOL    HW125244   3.789   0.258   2.460  1.0357 -0.1482 -0.3029
 4536SOL    HW225245   3.864   0.348   2.363 -0.3170 -0.1616 -0.1772
 4537SOL     OW25246   2.666   4.241   3.590 -0.5603  0.2310  0.5822
 4537SOL    HW125247   2.593   4.228   3.651 -0.7275  1.9552  0.7559
 4537SOL    HW225248   2.617   4.277   3.516  3.0191  1.1387 -1.3485
 4538SOL     OW25249   2.135   4.081   4.077 -0.2975  0.6951 -0.1618
 4538SOL    HW125250   2.121   4.099   4.170  0.5060 -0.3102  0.1545
 4538SOL    HW225251   2.127   4.165   4.031 -0.1970  1.1317  0.6165
 4539SOL     OW25252   2.236   3.602   5.991 -0.2316  0.3433 -0.0479
 4539SOL    HW125253   2.280   3.686   6.004  1.1727 -0.7046  2.1275
 4539SOL    HW225254   2.187   3.601   6.073 -0.0391  1.0239  0.0830
 4540SOL     OW25255   1.523   0.501   6.173  0.5427  0.3888  0.0285
 4540SOL    HW125256   1.566   0.561   6.234  1.5444 -1.0807  0.7683
 4540SOL    HW225257   1.441   0.546   6.153  1.0304  2.1241  1.8764
 4541SOL     OW25258   3.757   1.004   5.180  0.2258  0.1021  0.0413
 4541SOL    HW125259   3.826   1.065   5.153 -1.1483  0.6262 -2.2356
 4541SOL    HW225260   3.762   0.934   5.115  2.3790  1.8424 -1.6556
 4542SOL     OW25261   4.654   2.643   6.470 -0.1269  0.8409 -0.1006
 4542SOL    HW125262   4.624   2.553   6.483  1.9493  0.3507  1.3636
 4542SOL    HW225263   4.723   2.656   6.535  0.3954 -0.9120 -0.3057
 4543SOL     OW25264   2.395   2.179   0.486  0.0957  0.1644  0.3130
 4543SOL    HW125265   2.304   2.173   0.457  0.3253 -0.9944 -0.1843
 4543SOL    HW225266   2.440   2.147   0.408  0.8026  0.3560  0.6414
 4544SOL     OW25267   1.010   2.102   3.119 -0.2378  0.3636  0.1471
 4544SOL    HW125268   0.978   2.115   3.030  0.1863  4.0392  0.5260
 4544SOL    HW225269   0.954   2.164   3.166 -0.1277  0.0034  0.7472
 4545SOL     OW25270   0.145   0.193  12.318  0.6070 -0.4239  0.0107
 4545SOL    HW125271   0.205   0.164  12.249  0.9575  1.6598 -0.5410
 4545SOL    HW225272   0.143   0.108  12.363 -1.9803 -0.7527 -0.7506
 4546SOL     OW25273   1.479   0.671   4.906 -0.5943  0.1241  0.4350
 4546SOL    HW125274   1.555   0.664   4.963 -0.1938  1.5351  0.0939
 4546SOL    HW225275   1.483   0.599   4.843 -0.1288  0.4316  0.1125
 4547SOL     OW25276   2.981   3.392  17.149 -0.0586 -0.3703  0.2277
 4547SOL    HW125277   2.941   3.358  17.069  0.1791 -0.9384  0.3504
 4547SOL    HW225278   3.042   3.458  17.116  0.9847 -0.5496  1.7861
 4548SOL     OW25279   2.671   0.117  15.901 -0.7949 -0.5634 -0.2849
 4548SOL    HW125280   2.747   0.149  15.851  0.8788  0.7835  3.1502
 4548SOL    HW225281   2.657   0.026  15.875 -2.1184  0.0910 -1.8669
 4549SOL     OW25282   0.271   2.916  13.046 -0.0561 -0.4598  0.4266
 4549SOL    HW125283   0.179   2.888  13.047 -0.4072  0.6926  1.5028
 4549SOL    HW225284   0.300   2.897  12.957 -1.3761 -1.0135  0.1195
 4550SOL     OW25285   4.196   2.010  13.534 -0.0397 -0.1487 -0.7291
 4550SOL    HW125286   4.234   2.060  13.461 -0.4546 -0.4088 -1.1155
 4550SOL    HW225287   4.160   2.075  13.595  0.9282 -0.8464  0.5835
 4551SOL     OW25288   1.724   1.717   0.132  0.1275  0.0540  0.5450
 4551SOL    HW125289   1.639   1.691   0.167  0.4801 -0.9331  0.6625
 4551SOL    HW225290   1.787   1.685   0.196  2.7769 -1.6701 -2.9311
 4552SOL     OW25291   2.587   4.197   4.440  0.3126 -0.3167  0.0311
 4552SOL    HW125292   2.603   4.272   4.497 -0.5748  1.0030 -1.4540
 4552SOL    HW225293   2.667   4.145   4.446  0.7929  0.4492  0.2286
 4553SOL     OW25294   3.636   0.628   5.186  0.5019  0.1404 -0.1771
 4553SOL    HW125295   3.542   0.643   5.179  0.2781  0.1511  2.9695
 4553SOL    HW225296   3.646   0.615   5.280  1.2833 -1.6600 -0.5206
 4554SOL     OW25297   4.019   3.862  12.319  0.4568  0.9584 -0.5227
 4554SOL    HW125298   4.070   3.781  12.318 -0.3074  0.4918 -1.7064
 4554SOL    HW225299   3.965   3.848  12.242  0.4967 -0.7435 -0.2357
 4555SOL     OW25300   3.317   3.876   0.686 -0.2735  0.0500 -0.1386
 4555SOL    HW125301   3.263   3.808   0.726 -0.0888  0.7899  1.3817
 4555SOL    HW225302   3.304   3.944   0.753  1.8739  0.9897 -0.6876
 4556SOL     OW25303   4.215   0.850  13.181  0.2435  0.1871 -0.1801
 4556SOL    HW125304   4.248   0.875  13.094 -2.3561  3.8846 -0.1134
 4556SOL    HW225305   4.164   0.927  13.208 -1.1157 -0.6129 -0.4796
 4557SOL     OW25306   0.005   0.007   1.380 -0.0047  0.0042 -0.0503
 4557SOL    HW125307   4.654   0.030   1.406 -1.0275 -0.7864 -2.7727
 4557SOL    HW225308   0.009   4.656   1.415  2.5019 -0.8833 -2.5292
 4558SOL     OW25309   3.049   4.227  14.748  0.4755 -0.1695 -0.1633
 4558SOL    HW125310   2.960   4.196  14.728 -0.2339  0.7454  1.6020
 4558SOL    HW225311   3.058   4.226  14.843 -3.1695 -0.8221  0.1878
 4559SOL     OW25312   4.151   3.204   6.951 -0.4802 -0.2132 -0.5187
 4559SOL    HW125313   4.183   3.117   6.977 -1.6989 -0.6370 -0.4210
 4559SOL    HW225314   4.240   3.239   6.954 -0.1100 -1.2581  1.2338
 4560SOL     OW25315   0.271   2.309   5.527  0.1659  0.0023  0.2573
 4560SOL    HW125316   0.225   2.226   5.509  0.2187  0.1920 -0.7432
 4560SOL    HW225317   0.363   2.291   5.508  0.0470 -3.1002  2.5674
 4561SOL     OW25318   0.677   1.593   6.359 -0.4140 -0.6222  0.4604
 4561SOL    HW125319   0.691   1.529   6.289 -0.1692  0.9683 -0.9461
 4561SOL    HW225320   0.676   1.677   6.313  1.2424 -0.9638 -0.1714
 4562SOL     OW25321   1.849   0.133   2.217 -0.1527 -0.4368  0.2863
 4562SOL    HW125322   1.755   0.128   2.204 -0.4231  1.1595  1.5706
 4562SOL    HW225323   1.858   0.090   2.302  0.6392 -1.3347 -0.2488
 4563SOL     OW25324   1.270   0.093  13.525  0.4350 -0.5786  0.2468
 4563SOL    HW125325   1.298   0.137  13.444  1.0974 -0.8038  0.3613
 4563SOL    HW225326   1.245   0.006  13.495 -1.0678  0.2104 -0.8233
 4564SOL     OW25327   3.597   3.910   8.858  0.2906 -0.0128 -0.4814
 4564SOL    HW125328   3.597   3.829   8.910 -0.4989 -1.3909 -2.6096
 4564SOL    HW225329   3.684   3.896   8.822  1.1741 -1.1465  2.0692
 4565SOL     OW25330   2.176   1.419   3.703 -0.2500  0.0887 -0.4144
 4565SOL    HW125331   2.192   1.447   3.613 -1.7134 -0.0687 -0.7206
 4565SOL    HW225332   2.208   1.330   3.690  0.8991  0.4606 -0.0989
 4566SOL     OW25333   4.434   4.429   5.781  0.0119  0.7019 -0.4484
 4566SOL    HW125334   4.457   4.354   5.726  0.8616  1.4423 -1.1040
 4566SOL    HW225335   4.433   4.388   5.868 -0.2735  2.0835  0.2067
 4567SOL     OW25336   0.933   0.276   9.467  0.4138 -0.0198 -0.2781
 4567SOL    HW125337   0.987   0.197   9.458  1.6164  0.4597  2.7143
 4567SOL    HW225338   0.985   0.354   9.448  1.4840 -0.9903 -1.3654
 4568SOL     OW25339   0.307   2.797   8.018  0.1590  0.1694  0.0868
 4568SOL    HW125340   0.247   2.734   7.978  1.4999  0.9536 -3.1045
 4568SOL    HW225341   0.397   2.766   8.013  0.0074 -0.4752  1.2421
 4569SOL     OW25342   0.147   3.715   8.389 -0.1479 -0.3184 -0.0028
 4569SOL    HW125343   0.131   3.809   8.398  1.1126 -0.0480 -0.4974
 4569SOL    HW225344   0.070   3.685   8.341 -0.3339  2.6225 -1.5884
 4570SOL     OW25345   2.553   3.253   2.731  0.1759 -0.4334  0.3475
 4570SOL    HW125346   2.630   3.302   2.705  0.3042 -0.4568  0.6816
 4570SOL    HW225347   2.567   3.199   2.653 -2.1991 -0.3153 -0.1571
 4571SOL     OW25348   3.397   2.957  10.046  0.3411  0.3163  0.4272
 4571SOL    HW125349   3.366   2.957   9.955  0.4062 -0.5324  0.4024
 4571SOL    HW225350   3.443   3.041  10.049 -0.2813  0.7415 -1.7474
 4572SOL     OW25351   3.659   0.935  10.552 -0.1909  0.3672 -0.0870
 4572SOL    HW125352   3.667   0.873  10.480  2.8726  1.8910 -1.0261
 4572SOL    HW225353   3.749   0.930  10.585 -1.5141 -1.4862  3.3130
 4573SOL     OW25354   1.412   0.865   5.460  0.2237  0.1058  0.3536
 4573SOL    HW125355   1.496   0.862   5.506 -0.7830 -1.3397  2.0850
 4573SOL    HW225356   1.370   0.787   5.494 -0.9129 -0.5391 -2.5305
 4574SOL     OW25357   2.758   1.945   6.629  0.3737  0.2359 -0.1408
 4574SOL    HW125358   2.799   2.024   6.663 -1.0380  1.1125 -0.5151
 4574SOL    HW225359   2.697   1.924   6.699 -0.2657  0.3963 -0.6537
 4575SOL     OW25360   3.059   3.400   5.141  0.0179 -0.0178 -0.7847
 4575SOL    HW125361   3.042   3.465   5.073 -1.0920  0.2562 -0.2419
 4575SOL    HW225362   2.986   3.338   5.135 -1.5436  2.0716 -3.0281
 4576SOL     OW25363   1.422   0.750   1.891 -0.5361 -0.7094 -0.1982
 4576SOL    HW125364   1.395   0.840   1.873  2.4940  0.4210  0.9670
 4576SOL    HW225365   1.509   0.744   1.852 -0.8847 -1.5002 -0.8676
 4577SOL     OW25366   3.376   3.988  13.268  0.7165 -0.2903  0.2473
 4577SOL    HW125367   3.312   3.966  13.201  0.1807  2.1590 -0.0579
 4577SOL    HW225368   3.317   4.024  13.334 -0.2439 -1.6466  0.1282
 4578SOL     OW25369   2.540   1.127   6.940 -0.1203 -0.2291 -0.3130
 4578SOL    HW125370   2.550   1.099   7.031  0.8695  1.1230 -0.0038
 4578SOL    HW225371   2.630   1.160   6.934  0.4479 -1.4108  1.6608
 4579SOL     OW25372   3.111   0.366   9.478 -0.0870  0.1321 -0.0628
 4579SOL    HW125373   3.184   0.422   9.451 -0.4314  1.9850  2.8855
 4579SOL    HW225374   3.042   0.428   9.502  0.5582  0.3329  1.2262
 4580SOL     OW25375   3.585   0.903   6.832  0.1955 -0.0657 -0.1925
 4580SOL    HW125376   3.606   0.859   6.915  2.5385 -1.8403 -1.7338
 4580SOL    HW225377   3.672   0.939   6.815 -0.0259  0.5429 -0.0302
 4581SOL     OW25378   0.385   3.371   6.646  0.1578 -0.0584 -0.2426
 4581SOL    HW125379   0.369   3.282   6.677  0.1258 -0.8373 -2.4842
 4581SOL    HW225380   0.410   3.360   6.554  0.8004  2.2666 -0.3364
 4582SOL     OW25381   2.957   4.113  17.270  0.3025 -0.2069 -0.4911
 4582SOL    HW125382   2.981   4.204  17.253  1.1323 -0.7463 -2.1843
 4582SOL    HW225383   2.892   4.115  17.341 -1.2277 -2.5530 -1.8354
 4583SOL     OW25384   0.285   1.723   4.194 -0.0108 -0.0888 -0.0535
 4583SOL    HW125385   0.202   1.759   4.163  0.1624  1.4384  1.2719
 4583SOL    HW225386   0.350   1.754   4.131  0.9209 -0.9410  0.4907
 4584SOL     OW25387   2.341   1.748   4.816  0.8252 -0.6006 -0.6016
 4584SOL    HW125388   2.410   1.700   4.861  0.4608 -1.4963 -0.9964
 4584SOL    HW225389   2.284   1.676   4.789  0.9086 -0.2360 -1.7387
 4585SOL     OW25390   0.119   0.993   3.395 -0.3951 -0.0526 -0.1233
 4585SOL    HW125391   0.214   1.005   3.387 -0.6166  1.2043 -0.8196
 4585SOL    HW225392   0.089   0.994   3.305 -0.9113 -1.0543  0.0332
 4586SOL     OW25393   2.117   2.150   0.452  0.1711 -0.0868  0.2152
 4586SOL    HW125394   2.111   2.096   0.373 -1.1500  0.8425 -0.3068
 4586SOL    HW225395   2.077   2.233   0.428 -0.4635 -0.0176  1.5020
 4587SOL     OW25396   0.224   3.086   7.744 -0.1797  0.6709 -0.5799
 4587SOL    HW125397   0.222   3.042   7.829  2.8793  1.5980 -0.0076
 4587SOL    HW225398   0.263   3.168   7.776  0.4870  0.4025 -0.7036
 4588SOL     OW25399   4.669   3.416   1.239 -0.3054  0.7036 -0.1211
 4588SOL    HW125400   4.646   3.486   1.300 -0.5798  1.5080 -1.1416
 4588SOL    HW225401   4.707   3.462   1.164 -0.4131 -1.2758 -1.3782
 4589SOL     OW25402   0.435   1.518   5.386  0.3356 -0.1065  0.3695
 4589SOL    HW125403   0.404   1.428   5.374  2.6096 -0.6955 -1.0429
 4589SOL    HW225404   0.464   1.542   5.299 -1.7261  2.1848  0.3142
 4590SOL     OW25405   0.455   2.261   1.381 -0.1642  0.3788  0.2344
 4590SOL    HW125406   0.424   2.178   1.346  0.0490  0.6348 -0.5645
 4590SOL    HW225407   0.427   2.252   1.472 -0.9560  0.5364  0.0068
 4591SOL     OW25408   3.956   0.641   4.497  0.6402  0.1787 -0.4715
 4591SOL    HW125409   3.866   0.645   4.464  0.3449  2.0586  0.5227
 4591SOL    HW225410   4.010   0.710   4.457 -0.3177  0.1319 -1.8672
 4592SOL     OW25411   4.074   0.675   5.251 -0.0389  0.2622 -0.9602
 4592SOL    HW125412   4.034   0.707   5.170  1.2554  3.1447 -0.4547
 4592SOL    HW225413   4.053   0.748   5.309  1.3848  0.9749 -1.3360
 4593SOL     OW25414   3.071   3.023  11.277  0.8706  0.1333  0.1759
 4593SOL    HW125415   3.043   2.958  11.211 -1.4248  1.5060 -0.2151
 4593SOL    HW225416   3.110   2.963  11.340 -2.2077 -1.6813  0.3393
 4594SOL     OW25417   3.963   4.605   0.721  0.0323  0.0978 -0.0872
 4594SOL    HW125418   3.983   4.581   0.812  1.3177 -0.9220 -0.6404
 4594SOL    HW225419   3.924   4.691   0.730  0.1329 -0.0949  2.2541
 4595SOL     OW25420   4.441   3.660   2.829  0.1217 -0.0697  0.4581
 4595SOL    HW125421   4.461   3.583   2.881 -1.4694  0.5914  2.0285
 4595SOL    HW225422   4.509   3.659   2.761  1.4630 -0.4209  1.8251
 4596SOL     OW25423   4.186   0.655  14.272  0.1905 -0.3622  0.4748
 4596SOL    HW125424   4.162   0.571  14.234 -1.0149 -0.2577  0.9884
 4596SOL    HW225425   4.104   0.680  14.316  2.1701  3.9914  1.6963
 4597SOL     OW25426   0.911   3.227   7.011 -0.6920  0.1349  0.5482
 4597SOL    HW125427   0.938   3.209   7.101  0.6412 -0.5158  0.0124
 4597SOL    HW225428   0.942   3.316   6.992 -0.0704 -0.3184 -0.5684
 4598SOL     OW25429   1.125   0.721   7.406  0.2099 -0.2027  0.5185
 4598SOL    HW125430   1.155   0.724   7.496 -0.5271  0.7630  0.7266
 4598SOL    HW225431   1.049   0.779   7.417  0.6093  0.2630  0.7946
 4599SOL     OW25432   0.641   1.408   6.841  0.2268 -0.0642 -0.5797
 4599SOL    HW125433   0.585   1.486   6.837 -1.5538 -1.3907 -1.6796
 4599SOL    HW225434   0.661   1.389   6.749  0.6468 -0.4023 -0.4186
 4600SOL     OW25435   2.695   1.760  11.562 -0.2595 -0.3407 -0.7914
 4600SOL    HW125436   2.609   1.726  11.538 -0.0305  0.0066 -2.1100
 4600SOL    HW225437   2.695   1.757  11.658 -0.3127  0.1738 -0.7783
 4601SOL     OW25438   1.125   3.614  12.531  0.5560 -0.3699 -0.1387
 4601SOL    HW125439   1.056   3.557  12.497  0.2178  1.1494 -2.0153
 4601SOL    HW225440   1.201   3.577  12.487  1.4059  2.2672 -0.9162
 4602SOL     OW25441   1.819   0.395  10.243  0.3256  0.1400 -0.0686
 4602SOL    HW125442   1.792   0.306  10.266  1.0838 -0.5928 -1.9755
 4602SOL    HW225443   1.887   0.366  10.181 -0.5264  1.7925 -1.7791
 4603SOL     OW25444   1.984   0.289  10.025 -0.3515  0.1542  1.1317
 4603SOL    HW125445   2.029   0.369   9.999 -0.5220  1.3363  4.5213
 4603SOL    HW225446   2.028   0.211   9.991 -1.7116 -0.2041  0.1688
 4604SOL     OW25447   3.345   3.452   0.857 -0.3751 -0.8003  0.6173
 4604SOL    HW125448   3.374   3.447   0.948  0.5134 -2.2339  0.2690
 4604SOL    HW225449   3.342   3.356   0.846 -1.6692 -0.6275 -0.5639
 4605SOL     OW25450   2.201   1.151   4.491 -0.6023  0.2353  0.3468
 4605SOL    HW125451   2.137   1.100   4.539  0.5813 -0.5532  1.0722
 4605SOL    HW225452   2.253   1.077   4.462 -0.9906 -0.2601  0.9320
 4606SOL     OW25453   3.848   4.644   2.126  0.1632  0.6320  0.0270
 4606SOL    HW125454   3.844   4.683   2.038 -1.0191  0.0255 -0.1920
 4606SOL    HW225455   3.885   4.556   2.120 -0.0131  0.5457  0.2138
 4607SOL     OW25456   1.517   2.159   7.731  0.2458  0.6949  0.6062
 4607SOL    HW125457   1.530   2.135   7.823  2.2941 -2.7656 -0.5929
 4607SOL    HW225458   1.453   2.230   7.737 -1.5613 -0.7859 -1.4129
 4608SOL     OW25459   3.024   2.115   3.327 -0.6927 -0.1217 -0.4293
 4608SOL    HW125460   3.062   2.202   3.317 -2.7117  0.5753 -2.0903
 4608SOL    HW225461   3.066   2.062   3.259 -1.7066 -1.0036 -0.3563
 4609SOL     OW25462   3.970   1.928   3.037 -0.1851  0.1022 -0.1229
 4609SOL    HW125463   3.916   1.897   3.109 -1.3042  2.1287 -0.0837
 4609SOL    HW225464   3.933   1.891   2.957  0.2440 -0.7821  0.0932
 4610SOL     OW25465   1.953   2.495   3.469 -0.1671 -0.3101  0.1955
 4610SOL    HW125466   1.960   2.557   3.543 -0.6801 -1.3315  1.0921
 4610SOL    HW225467   2.031   2.507   3.415  1.6820 -0.0988  2.8673
 4611SOL     OW25468   0.851   2.755   3.731  0.2040 -0.4363 -0.3636
 4611SOL    HW125469   0.934   2.735   3.687 -0.3937 -0.7458 -1.3476
 4611SOL    HW225470   0.869   2.708   3.813 -1.1258  0.0825  0.2318
 4612SOL     OW25471   3.420   0.574  12.181  0.2621 -0.1359 -0.4497
 4612SOL    HW125472   3.513   0.557  12.168 -0.1319 -3.1239  0.6319
 4612SOL    HW225473   3.386   0.604  12.097  1.0314  0.3032 -0.5952
 4613SOL     OW25474   1.275   1.058   5.752 -0.2730  0.7257  0.9353
 4613SOL    HW125475   1.200   1.117   5.760 -2.2187 -1.3559 -2.1114
 4613SOL    HW225476   1.315   1.105   5.678 -2.1606 -0.7786 -1.0236
 4614SOL     OW25477   4.354   0.128  14.072  0.0119 -0.1507 -0.4341
 4614SOL    HW125478   4.409   0.103  14.146  1.8977  4.4943 -0.3121
 4614SOL    HW225479   4.276   0.075  14.092 -0.9608  1.6462  0.5753
 4615SOL     OW25480   4.624   0.017   2.094 -0.0224  0.0415 -0.2145
 4615SOL    HW125481   4.700   4.706   2.125 -0.5284  0.7469  2.1588
 4615SOL    HW225482   4.557   4.697   2.131  0.1142 -0.1794 -0.3120
 4616SOL     OW25483   2.194   1.491   9.572 -0.0607 -0.3951  0.4412
 4616SOL    HW125484   2.177   1.418   9.632  0.8307 -0.0827  1.0705
 4616SOL    HW225485   2.206   1.567   9.629  1.0755  0.6079 -1.1272
 4617SOL     OW25486   2.330   0.638   4.465  0.0899 -0.5625  0.5911
 4617SOL    HW125487   2.412   0.631   4.417  1.0104  1.5352  1.8201
 4617SOL    HW225488   2.296   0.549   4.462 -0.9909 -0.0842 -1.0332
 4618SOL     OW25489   3.888   4.045   2.055  0.4079 -0.4138 -0.0350
 4618SOL    HW125490   3.885   4.049   1.959 -1.3651  0.7795  0.0534
 4618SOL    HW225491   3.794   4.055   2.071  0.6384  0.2120  0.8903
 4619SOL     OW25492   2.678   4.124   0.191 -0.1392  0.3661 -0.4802
 4619SOL    HW125493   2.682   4.101   0.284  0.3334 -1.5053 -0.9643
 4619SOL    HW225494   2.638   4.047   0.151 -2.5547  0.3691  1.9418
 4620SOL     OW25495   3.417   0.420  13.151  0.3054 -0.3163 -0.2218
 4620SOL    HW125496   3.436   0.346  13.094  0.6792  0.7832 -1.5114
 4620SOL    HW225497   3.359   0.456  13.084  2.5643  0.4094 -1.7674
 4621SOL     OW25498   3.754   3.320   9.708 -0.1913  0.3333  0.0484
 4621SOL    HW125499   3.762   3.405   9.750 -1.2754  1.0264 -1.1609
 4621SOL    HW225500   3.715   3.266   9.777 -0.5132 -2.0712 -1.9779
 4622SOL     OW25501   2.630   2.575   5.211 -0.3203  0.3802 -0.1276
 4622SOL    HW125502   2.537   2.562   5.228 -0.7428 -0.0744 -2.7627
 4622SOL    HW225503   2.640   2.510   5.142 -0.9467 -1.5332  1.5998
 4623SOL     OW25504   0.571   4.594  14.082  0.2336  0.2159 -0.3482
 4623SOL    HW125505   0.550   4.687  14.094 -2.0106 -0.3535  0.2013
 4623SOL    HW225506   0.495   4.553  14.041  1.4885 -1.6230 -0.7957
 4624SOL     OW25507   3.148   2.100   2.703  0.9203  0.1033  0.7401
 4624SOL    HW125508   3.188   2.067   2.623 -1.0654  2.3027 -1.1664
 4624SOL    HW225509   3.124   2.018   2.746  1.3029 -0.8689 -0.9184
 4625SOL     OW25510   3.294   1.270   2.667 -0.0550 -0.1081  0.6849
 4625SOL    HW125511   3.353   1.196   2.648 -0.6902 -1.1556  2.7544
 4625SOL    HW225512   3.270   1.256   2.759  1.3041 -0.9396  0.9233
 4626SOL     OW25513   2.990   4.039  12.176  0.0816  0.0705  0.4157
 4626SOL    HW125514   3.003   4.098  12.102  0.8160  1.3453  1.5812
 4626SOL    HW225515   2.903   4.061  12.210 -0.5727  0.0028 -1.1632
 4627SOL     OW25516   4.192   3.730  17.250 -0.5290 -0.0504  0.0194
 4627SOL    HW125517   4.182   3.736  17.155 -1.5076  1.1902  0.1989
 4627SOL    HW225518   4.148   3.645  17.253 -0.2711 -0.2018 -0.5327
 4628SOL     OW25519   4.344   4.097  11.162 -0.6714  0.2378  0.0167
 4628SOL    HW125520   4.386   4.014  11.186 -0.6165  0.6125  1.2293
 4628SOL    HW225521   4.284   4.111  11.235  0.3664  0.3036  0.8577
 4629SOL     OW25522   4.360   2.224   0.330 -0.4504  0.0907  0.0702
 4629SOL    HW125523   4.383   2.149   0.275  0.9856 -0.2570  1.1465
 4629SOL    HW225524   4.445   2.265   0.347  0.7814 -2.1390 -0.7537
 4630SOL     OW25525   2.006   3.233   4.696  0.1578 -0.1570 -0.5222
 4630SOL    HW125526   2.072   3.298   4.670  0.6858  0.1818  1.6057
 4630SOL    HW225527   1.974   3.274   4.777  2.4037 -2.1604  1.3921
 4631SOL     OW25528   1.228   3.498   6.802 -0.5667  0.0913 -0.3677
 4631SOL    HW125529   1.146   3.522   6.759 -1.3234  0.1475  1.0977
 4631SOL    HW225530   1.272   3.440   6.740  0.5251  0.6526 -0.1103
 4632SOL     OW25531   4.116   1.999   4.145  0.2564  0.0263  0.3931
 4632SOL    HW125532   4.134   2.034   4.232  0.4294 -2.6293  1.4157
 4632SOL    HW225533   4.056   1.926   4.162  1.1752 -0.7847  0.1824
 4633SOL     OW25534   1.668   4.116   0.697  0.6706 -0.5282  0.0317
 4633SOL    HW125535   1.750   4.073   0.721 -0.4561 -1.4605  2.1824
 4633SOL    HW225536   1.640   4.157   0.779  2.1510  0.4366  0.0483
 4634SOL     OW25537   2.669   1.622  16.897  0.1337 -0.8788 -0.5499
 4634SOL    HW125538   2.608   1.592  16.830 -1.5006  1.1082  0.0483
 4634SOL    HW225539   2.752   1.585  16.867  1.9521  1.3808  1.7255
 4635SOL     OW25540   3.428   2.174   6.665  0.9624 -0.1127  0.4097
 4635SOL    HW125541   3.479   2.115   6.721 -1.1693  0.2111  2.6590
 4635SOL    HW225542   3.461   2.160   6.576 -1.5528 -0.9354 -0.3817
 4636SOL     OW25543   0.430   2.774  15.577 -0.1167 -0.4812  0.8889
 4636SOL    HW125544   0.426   2.814  15.490  1.4608  0.6441  1.3365
 4636SOL    HW225545   0.524   2.758  15.579  0.3537  2.1741 -0.2009
 4637SOL     OW25546   0.522   2.578   9.045  0.4038  0.0710  0.2559
 4637SOL    HW125547   0.582   2.647   9.071 -0.0096  1.5571 -2.7564
 4637SOL    HW225548   0.562   2.498   9.079  1.1740 -1.1266 -3.3937
 4638SOL     OW25549   2.350   2.073   5.003  0.1555 -0.3868  0.0605
 4638SOL    HW125550   2.353   2.164   4.974  0.4512 -0.4713 -0.1762
 4638SOL    HW225551   2.271   2.092   5.054  0.0052  1.4078 -0.8335
 4639SOL     OW25552   0.195   1.463  13.667 -0.3059  0.2554  0.0722
 4639SOL    HW125553   0.254   1.536  13.682 -0.0977  0.0122  0.4340
 4639SOL    HW225554   0.128   1.509  13.617  0.6701  2.2388  0.5817
 4640SOL     OW25555   3.539   0.780   3.831 -0.0439  0.0522  0.2738
 4640SOL    HW125556   3.602   0.743   3.769 -1.9989 -1.2197 -0.9638
 4640SOL    HW225557   3.603   0.825   3.886  1.0157  0.0091 -0.9437
 4641SOL     OW25558   2.589   4.550   6.072  0.0685  0.7069  0.0260
 4641SOL    HW125559   2.648   4.496   6.021  0.0969  0.9287 -0.1739
 4641SOL    HW225560   2.507   4.500   6.065  1.0849 -1.0422  0.6332
 4642SOL     OW25561   0.114   3.622  13.763  0.1149  0.1559  0.1362
 4642SOL    HW125562   0.177   3.666  13.820  0.5788 -0.4003  0.0459
 4642SOL    HW225563   0.166   3.608  13.684 -2.5170  0.7682 -1.7014
 4643SOL     OW25564   1.978   1.501   8.945  0.1523 -0.3901  0.6802
 4643SOL    HW125565   1.915   1.551   8.997  2.0423  1.2424  1.3820
 4643SOL    HW225566   2.062   1.538   8.970  0.7013 -0.9750 -0.2803
 4644SOL     OW25567   3.112   2.926  10.424  0.1877  0.0171  0.0036
 4644SOL    HW125568   3.020   2.916  10.446 -0.0910  0.8208 -0.8099
 4644SOL    HW225569   3.123   2.926  10.328 -0.0719  0.0676 -0.0256
 4645SOL     OW25570   0.956   0.152   8.593  0.3152 -0.3385  0.3591
 4645SOL    HW125571   1.024   0.166   8.659 -0.1576 -0.9173  0.9640
 4645SOL    HW225572   1.005   0.100   8.530 -1.6495 -1.1819 -0.4826
 4646SOL     OW25573   2.528   2.211   5.347 -0.4166 -0.1857 -0.3839
 4646SOL    HW125574   2.483   2.135   5.309  1.6469 -2.3153  1.3543
 4646SOL    HW225575   2.461   2.258   5.397 -0.5327 -0.0537 -0.6694
 4647SOL     OW25576   3.462   4.316  15.580 -0.0010  0.9724  0.9324
 4647SOL    HW125577   3.543   4.292  15.535 -1.2153  1.2143 -1.3364
 4647SOL    HW225578   3.466   4.244  15.643 -1.3694  0.0819 -0.0106
 4648SOL     OW25579   1.199   2.396   6.159 -0.3287 -0.0457  0.3713
 4648SOL    HW125580   1.204   2.416   6.253 -1.0086 -1.3556  0.6811
 4648SOL    HW225581   1.293   2.390   6.142 -0.2659  1.3799  0.2249
 4649SOL     OW25582   0.264   0.298  17.413  0.1725  0.4050  1.0285
 4649SOL    HW125583   0.290   0.206  17.420  2.1320  0.7352 -2.0799
 4649SOL    HW225584   0.263   0.316  17.507 -0.5771 -0.7808  1.2546
 4650SOL     OW25585   3.137   0.318   7.492 -0.6110 -0.4619 -0.3809
 4650SOL    HW125586   3.196   0.393   7.494 -3.1177  1.5113  0.0220
 4650SOL    HW225587   3.169   0.281   7.574 -0.3207  1.5201  0.4118
 4651SOL     OW25588   2.004   0.528  16.615  0.1560  0.7357 -0.4659
 4651SOL    HW125589   2.062   0.598  16.585  2.7078 -0.4200  1.7750
 4651SOL    HW225590   1.920   0.556  16.578  0.5556 -0.4919 -2.2796
 4652SOL     OW25591   3.314   1.666   1.495 -0.1886  0.0786  0.5166
 4652SOL    HW125592   3.276   1.689   1.579 -0.4622 -1.0355  0.6989
 4652SOL    HW225593   3.380   1.601   1.519 -2.2714 -1.3749  2.3067
 4653SOL     OW25594   3.378   3.375   4.719 -0.0522 -0.2896 -0.3767
 4653SOL    HW125595   3.397   3.289   4.680  1.9706  0.2118 -0.5172
 4653SOL    HW225596   3.298   3.363   4.771 -0.8313  3.4106 -0.7550
 4654SOL     OW25597   2.967   3.021   8.096  0.3703  0.5510 -0.3925
 4654SOL    HW125598   2.963   3.033   8.191  0.4739  1.2912 -0.4842
 4654SOL    HW225599   2.917   3.093   8.058  0.6994 -0.2110 -2.2614
 4655SOL     OW25600   3.709   3.131   4.730 -0.3984 -0.0888 -0.2015
 4655SOL    HW125601   3.803   3.112   4.734 -0.3039 -0.1403 -2.7739
 4655SOL    HW225602   3.702   3.202   4.667  1.1326  1.9902  1.9408
 4656SOL     OW25603   3.508   1.287  14.144  0.1151  0.3993 -0.2261
 4656SOL    HW125604   3.416   1.270  14.124  0.8209 -0.9246 -2.2637
 4656SOL    HW225605   3.543   1.257  14.061  0.0840  0.3792 -0.2320
 4657SOL     OW25606   3.984   3.971   6.638  0.2620  0.1126 -0.4647
 4657SOL    HW125607   3.998   4.064   6.656  1.2076  0.1147 -1.2094
 4657SOL    HW225608   4.015   3.935   6.720  1.0654  2.2490  0.1659
 4658SOL     OW25609   4.510   3.135  16.103 -0.2758  0.2342  0.2948
 4658SOL    HW125610   4.447   3.095  16.043 -1.2653  0.0121  1.4646
 4658SOL    HW225611   4.456   3.199  16.150 -1.9934 -1.5991  0.8642
 4659SOL     OW25612   3.170   0.574   8.288  0.6987 -0.0480  0.6520
 4659SOL    HW125613   3.117   0.611   8.359 -0.5624 -0.6293  0.0053
 4659SOL    HW225614   3.195   0.647   8.232  2.1107 -0.2801  0.9722
 4660SOL     OW25615   2.516   4.617   4.337  0.1902  0.1673 -0.3189
 4660SOL    HW125616   2.579   4.551   4.307 -0.6198 -0.6912 -0.1587
 4660SOL    HW225617   2.571   4.661   4.401  0.7421  0.4108 -0.9680
 4661SOL     OW25618   4.709   2.531   4.781  0.0293  0.1181  0.5053
 4661SOL    HW125619   4.659   2.482   4.716  0.7079  2.3040 -1.6632
 4661SOL    HW225620   0.049   2.476   4.777 -0.4771 -0.4947 -1.2118
 4662SOL     OW25621   2.073   0.583   0.759  0.1291 -0.0740 -0.0448
 4662SOL    HW125622   2.008   0.541   0.703  1.3833 -2.4056  0.2377
 4662SOL    HW225623   2.014   0.651   0.791  0.6747  0.3617  0.0321
 4663SOL     OW25624   0.137   3.444   2.425 -0.2678  0.1836  0.1399
 4663SOL    HW125625   0.220   3.408   2.395  0.0052  2.5029 -1.9187
 4663SOL    HW225626   0.143   3.412   2.515 -0.8474 -3.4909 -1.1696
 4664SOL     OW25627   1.285   1.853   3.457 -0.1260 -0.5290  0.0539
 4664SOL    HW125628   1.305   1.906   3.534 -0.6859 -2.1316  1.3067
 4664SOL    HW225629   1.314   1.766   3.486 -0.6744 -0.3514  1.1475
 4665SOL     OW25630   4.648   1.424  11.197 -0.5452  0.1016 -0.1723
 4665SOL    HW125631   4.711   1.354  11.214  0.3209  0.8575 -0.2560
 4665SOL    HW225632   4.693   1.480  11.133  1.9791  1.6256  2.9163
 4666SOL     OW25633   2.041   1.153   8.835 -0.0546  0.2681  0.4534
 4666SOL    HW125634   2.030   1.072   8.885  1.8754 -0.3109 -0.0519
 4666SOL    HW225635   1.985   1.137   8.758  0.4125  0.6770  0.0312
 4667SOL     OW25636   3.674   1.579   4.642  0.6211  0.2173 -0.0653
 4667SOL    HW125637   3.613   1.505   4.637  0.6901  0.2973 -2.5304
 4667SOL    HW225638   3.760   1.536   4.647  1.0172  1.2735  2.1477
 4668SOL     OW25639   3.222   4.383   0.375 -0.1955 -0.0736  0.9342
 4668SOL    HW125640   3.316   4.395   0.388  0.7178 -2.8063 -3.0209
 4668SOL    HW225641   3.193   4.302   0.418 -0.2922  0.3640  1.6889
 4669SOL     OW25642   0.116   2.686   9.282 -0.2791  0.8370  0.3513
 4669SOL    HW125643   0.083   2.596   9.272 -0.5190  0.5596  3.6827
 4669SOL    HW225644   0.115   2.704   9.376 -1.4756 -0.9856  0.6905
 4670SOL     OW25645   0.302   2.677   7.121 -0.4436 -0.1757  0.1764
 4670SOL    HW125646   0.353   2.758   7.126  1.3698 -1.2552 -0.8451
 4670SOL    HW225647   0.318   2.664   7.028  1.5669 -1.0077  0.6293
 4671SOL     OW25648   3.665   0.872   7.140 -0.0738 -0.2892  0.1355
 4671SOL    HW125649   3.635   0.962   7.151  3.2630  0.9933 -1.1945
 4671SOL    HW225650   3.738   0.875   7.202  1.8682  0.5738 -2.1940
 4672SOL     OW25651   0.942   2.610   7.920 -0.1141  0.5841 -0.0390
 4672SOL    HW125652   0.912   2.568   7.840 -0.0787 -0.6037  0.5649
 4672SOL    HW225653   0.948   2.701   7.891 -0.0731  0.7538  0.4946
 4673SOL     OW25654   3.206   1.563   7.307  0.5553 -0.9238  0.8468
 4673SOL    HW125655   3.159   1.625   7.362 -1.3159 -3.4792  2.0995
 4673SOL    HW225656   3.237   1.620   7.236 -0.9225 -0.1881  0.7836
 4674SOL     OW25657   3.542   1.547   1.595 -0.1709  0.0789 -0.0135
 4674SOL    HW125658   3.509   1.512   1.678 -0.5360  0.4632  0.0050
 4674SOL    HW225659   3.598   1.480   1.557 -1.7339 -1.1291 -0.1881
 4675SOL     OW25660   1.958   4.017   8.149  0.4498 -0.3819 -0.6821
 4675SOL    HW125661   1.901   3.944   8.173 -0.3230  0.0848 -1.0878
 4675SOL    HW225662   2.019   4.007   8.222  0.2263  1.0658 -0.3106
 4676SOL     OW25663   3.948   2.480  16.928  0.4560 -0.0906  0.1130
 4676SOL    HW125664   3.898   2.400  16.944  1.2533 -0.8603 -1.2787
 4676SOL    HW225665   3.982   2.471  16.840  0.7060 -0.2455  0.2265
 4677SOL     OW25666   2.644   2.595   0.017  0.5193  0.2067 -0.6089
 4677SOL    HW125667   2.671   2.509   0.047 -1.2224 -0.0888  0.1328
 4677SOL    HW225668   2.727   2.642   0.024  0.6204  0.3990 -3.0668
 4678SOL     OW25669   0.164   2.603   7.897 -0.0678  0.6018  0.0314
 4678SOL    HW125670   0.092   2.541   7.910  0.5977 -0.3579 -0.7868
 4678SOL    HW225671   0.238   2.550   7.865 -0.8239 -0.0849 -0.5679
 4679SOL     OW25672   1.687   1.370   0.094 -0.4876  0.7193 -0.1403
 4679SOL    HW125673   1.761   1.418   0.058 -0.5999  1.1325  0.1681
 4679SOL    HW225674   1.645   1.361   0.009  1.1550 -1.2171 -0.7484
 4680SOL     OW25675   3.978   3.428   3.472 -0.4765  0.1474  0.4982
 4680SOL    HW125676   3.942   3.459   3.389 -0.1898  0.0657  0.3416
 4680SOL    HW225677   4.053   3.488   3.481  0.1615 -0.3801 -1.2384
 4681SOL     OW25678   0.800   1.546   5.246 -0.8529 -0.3639 -0.0612
 4681SOL    HW125679   0.778   1.478   5.309 -1.6766  0.4397  0.5188
 4681SOL    HW225680   0.890   1.564   5.274 -0.7283 -0.4944 -0.3810
 4682SOL     OW25681   0.664   2.992  12.657  0.2693  0.1437  0.0795
 4682SOL    HW125682   0.721   2.987  12.733 -1.9071  2.8164  1.9155
 4682SOL    HW225683   0.590   3.044  12.690  0.3188 -0.0898  0.5565
 4683SOL     OW25684   1.905   3.477   3.444 -0.3069  0.1216 -1.0374
 4683SOL    HW125685   1.873   3.458   3.532 -0.2262  3.0386 -0.3813
 4683SOL    HW225686   1.971   3.540   3.473 -1.6476  0.1361  1.9711
 4684SOL     OW25687   4.090   2.797   1.588 -0.2327  0.0919  0.3102
 4684SOL    HW125688   4.084   2.825   1.497  0.4443  0.3915  0.3578
 4684SOL    HW225689   4.000   2.789   1.620 -1.1003  2.6260 -1.5718
 4685SOL     OW25690   4.003   2.543   4.588 -0.0715 -0.1083  0.1804
 4685SOL    HW125691   4.075   2.591   4.548  0.2306  1.1970  2.3036
 4685SOL    HW225692   4.039   2.455   4.580  0.6528  0.3507 -1.4552
 4686SOL     OW25693   3.716   4.232   4.986 -0.3540  0.2384 -0.7199
 4686SOL    HW125694   3.740   4.303   5.045 -0.8137  1.7831 -2.4095
 4686SOL    HW225695   3.697   4.158   5.044  0.9762  0.1876 -0.3487
 4687SOL     OW25696   2.516   3.281   6.712 -0.3877 -0.1378 -0.5163
 4687SOL    HW125697   2.514   3.319   6.800 -2.4953 -0.0590 -0.5956
 4687SOL    HW225698   2.440   3.317   6.667 -1.4889 -0.3672  1.1597
 4688SOL     OW25699   3.255   2.069   2.461 -0.2199 -0.0253 -0.3002
 4688SOL    HW125700   3.281   1.984   2.425  0.8328  0.3372 -0.4121
 4688SOL    HW225701   3.225   2.125   2.389  0.1226  0.0207 -0.4095
 4689SOL     OW25702   1.222   2.232   8.180  0.0405 -0.2928 -0.0882
 4689SOL    HW125703   1.176   2.161   8.135 -0.0082 -0.1997 -0.1826
 4689SOL    HW225704   1.184   2.306   8.134 -0.8573  0.5253  1.9264
 4690SOL     OW25705   1.141   3.901   5.203 -0.1814 -0.2211  0.4390
 4690SOL    HW125706   1.175   3.947   5.279  0.9628 -0.5177  0.1178
 4690SOL    HW225707   1.157   3.809   5.225  0.6726  0.3016  1.9877
 4691SOL     OW25708   3.333   3.937  10.127 -0.4992  0.3114 -0.8808
 4691SOL    HW125709   3.417   3.931  10.081  0.4753  1.7660  0.7046
 4691SOL    HW225710   3.275   3.916  10.053 -0.2758  0.7986 -1.1933
 4692SOL     OW25711   0.579   2.804   1.952  0.4031  0.0940 -0.0906
 4692SOL    HW125712   0.625   2.796   2.036 -0.6069 -1.8594  0.2898
 4692SOL    HW225713   0.653   2.783   1.896 -0.2839  1.2724 -1.4317
 4693SOL     OW25714   0.479   1.652   5.932 -0.0502 -0.4755  0.1456
 4693SOL    HW125715   0.394   1.607   5.930 -1.1151  1.4927  1.3256
 4693SOL    HW225716   0.475   1.702   5.850 -0.1749  0.2609  0.6050
 4694SOL     OW25717   0.755   4.404   3.034  0.4898  0.2075  0.3962
 4694SOL    HW125718   0.842   4.382   3.001  0.1414 -0.8159  0.1405
 4694SOL    HW225719   0.748   4.330   3.095  0.1932 -0.1092 -0.0138
 4695SOL     OW25720   0.142   3.339   2.994  0.2167  0.4006 -0.2867
 4695SOL    HW125721   0.216   3.283   2.970 -0.0712 -0.2445  0.3537
 4695SOL    HW225722   0.077   3.282   3.035  0.5746 -0.6348 -1.1548
 4696SOL     OW25723   0.121   2.287   4.655  0.2187 -0.3136  0.0207
 4696SOL    HW125724   0.162   2.321   4.735  0.7997  0.9547 -0.8218
 4696SOL    HW225725   0.171   2.206   4.650 -2.0337 -1.9610  4.2109
 4697SOL     OW25726   3.917   2.145   5.643 -0.0981  0.2492 -0.0434
 4697SOL    HW125727   3.991   2.148   5.703 -0.7338 -0.5734  0.7729
 4697SOL    HW225728   3.869   2.072   5.681  0.5530  0.2720  0.8107
 4698SOL     OW25729   4.116   4.700  13.647 -0.0707  0.0996 -0.2657
 4698SOL    HW125730   4.138   4.691  13.555  1.6987 -1.0729  0.2637
 4698SOL    HW225731   4.035   4.650  13.655  0.9813 -1.4501  0.9235
 4699SOL     OW25732   1.765   3.456   0.285  0.1594  0.0509 -0.4402
 4699SOL    HW125733   1.719   3.503   0.355  1.5391 -1.8661  1.7808
 4699SOL    HW225734   1.766   3.371   0.329  0.2287 -0.5114 -1.5552
 4700SOL     OW25735   1.742   2.794   5.960  0.2767 -0.2717 -0.1176
 4700SOL    HW125736   1.814   2.789   5.897 -0.5524 -0.7561 -1.0225
 4700SOL    HW225737   1.787   2.786   6.044 -2.0504 -1.7032  1.0033
 4701SOL     OW25738   4.223   4.014   0.273  0.2249 -0.3257 -0.4035
 4701SOL    HW125739   4.140   4.039   0.312  0.7282 -0.8259  1.0021
 4701SOL    HW225740   4.224   4.076   0.200  0.3651  1.5564  1.1933
 4702SOL     OW25741   1.378   2.894   3.231  0.1633  0.0213 -0.6664
 4702SOL    HW125742   1.429   2.815   3.216  0.2748  0.3998 -2.2027
 4702SOL    HW225743   1.288   2.872   3.205 -0.0152  2.2482 -1.9336
 4703SOL     OW25744   2.110   3.320   9.446  0.7659 -0.0519 -0.0176
 4703SOL    HW125745   2.189   3.374   9.443  0.2868  0.6671  0.3032
 4703SOL    HW225746   2.116   3.274   9.530  2.4923 -1.2438 -0.7943
 4704SOL     OW25747   2.135   1.165   2.482 -0.6362 -0.3951  0.3228
 4704SOL    HW125748   2.045   1.170   2.451  0.3163  3.1676 -1.9908
 4704SOL    HW225749   2.148   1.071   2.469  0.0393 -0.3722  0.8239
 4705SOL     OW25750   1.605   1.902   7.098  0.0174 -0.2231 -0.2034
 4705SOL    HW125751   1.603   1.807   7.088  0.1197 -0.2268 -0.1864
 4705SOL    HW225752   1.628   1.931   7.010  1.5086  0.8857  0.5564
 4706SOL     OW25753   1.334   1.281  13.517  0.2149  0.2739 -0.1707
 4706SOL    HW125754   1.249   1.255  13.480 -0.2306 -0.1502  1.1298
 4706SOL    HW225755   1.312   1.353  13.577  1.8210  0.3944  0.2726
 4707SOL     OW25756   3.820   1.860   8.559  0.2163 -0.8375  0.6314
 4707SOL    HW125757   3.778   1.926   8.503  1.9160  0.5416  0.9940
 4707SOL    HW225758   3.814   1.894   8.648 -2.3769  1.8283 -0.5272
 4708SOL     OW25759   2.365   4.567  11.090 -0.2481  0.0456  0.2048
 4708SOL    HW125760   2.429   4.570  11.161  0.3093 -1.9869 -0.2106
 4708SOL    HW225761   2.289   4.603  11.136 -1.0259 -1.1808 -0.1182
 4709SOL     OW25762   2.153   4.628  10.659 -0.2281 -0.1901 -0.2841
 4709SOL    HW125763   2.141   4.601  10.750  1.4652  1.9168  0.5841
 4709SOL    HW225764   2.235   4.674  10.678 -0.6419 -0.0563  1.1593
 4710SOL     OW25765   3.510   3.774   4.485  0.3184 -0.3944 -0.3403
 4710SOL    HW125766   3.558   3.835   4.429 -1.6574  2.8405  1.4584
 4710SOL    HW225767   3.426   3.757   4.443  1.3622 -0.5870 -2.3306
 4711SOL     OW25768   2.113   3.319   6.631 -0.2566 -0.1342  0.1275
 4711SOL    HW125769   2.039   3.377   6.612 -0.5429 -0.1595  1.1598
 4711SOL    HW225770   2.142   3.291   6.544 -1.3710  0.4201 -0.4309
 4712SOL     OW25771   4.617   0.547   8.555 -0.6659 -0.0204  0.5222
 4712SOL    HW125772   4.603   0.452   8.547  1.0545 -0.3227  1.0512
 4712SOL    HW225773   4.619   0.591   8.470  0.6160  0.5065  0.8251
 4713SOL     OW25774   3.801   2.813   6.312  0.4216  0.7568 -0.1059
 4713SOL    HW125775   3.708   2.796   6.292  0.3201 -0.1554  1.1516
 4713SOL    HW225776   3.790   2.852   6.398 -1.8787  0.4412 -0.2314
 4714SOL     OW25777   0.825   1.215   5.880  0.0069  0.3379  0.1692
 4714SOL    HW125778   0.768   1.284   5.848 -2.3264  0.1940  4.0262
 4714SOL    HW225779   0.825   1.214   5.976  1.2194  0.1705  0.1607
 4715SOL     OW25780   0.458   1.166   7.863  0.2536  0.3068 -0.0411
 4715SOL    HW125781   0.520   1.224   7.908 -0.1354  0.2773  0.5250
 4715SOL    HW225782   0.395   1.228   7.824 -1.3187 -0.8658  0.6362
 4716SOL     OW25783   3.964   2.536   4.861  0.1648  0.0590  0.0534
 4716SOL    HW125784   3.977   2.631   4.863 -2.0131  0.3872 -2.2179
 4716SOL    HW225785   3.957   2.525   4.766 -0.2920 -2.3014  0.3610
 4717SOL     OW25786   0.557   1.630   2.834 -0.1384 -0.3631  0.5344
 4717SOL    HW125787   0.548   1.538   2.810  1.0455 -1.0428  2.6741
 4717SOL    HW225788   0.545   1.627   2.930 -2.6248 -3.4785  0.1480
 4718SOL     OW25789   2.938   0.108   8.473  0.1297  0.0220 -0.1186
 4718SOL    HW125790   2.889   0.035   8.511 -0.3036 -0.2899 -1.2754
 4718SOL    HW225791   2.966   0.068   8.391  0.7737 -2.1943  1.1863
 4719SOL     OW25792   3.829   1.320  11.360  0.5432 -0.4079  0.7996
 4719SOL    HW125793   3.842   1.226  11.353  0.5321 -0.5200  2.1692
 4719SOL    HW225794   3.912   1.340  11.402  1.6172  2.3994 -2.6507
 4720SOL     OW25795   4.008   2.084  12.196  0.1114 -0.4412 -0.7393
 4720SOL    HW125796   4.073   2.084  12.125  1.8480 -2.0704  0.8606
 4720SOL    HW225797   4.015   2.178  12.215  0.0295 -0.9218  1.7160
 4721SOL     OW25798   2.415   1.887   5.893 -0.0702 -0.3731 -0.6519
 4721SOL    HW125799   2.456   1.828   5.957  0.0542 -1.7780 -2.0424
 4721SOL    HW225800   2.469   1.876   5.815  0.7891 -0.7521 -0.0057
 4722SOL     OW25801   1.088   1.262   7.782 -0.1390 -0.1582 -0.7333
 4722SOL    HW125802   1.102   1.354   7.760 -1.2106 -0.6957 -3.6351
 4722SOL    HW225803   1.132   1.268   7.867  1.3927 -0.1618 -1.5201
 4723SOL     OW25804   3.985   4.038   8.720  0.1877 -0.3334 -0.2326
 4723SOL    HW125805   4.021   4.105   8.663  1.2355 -0.7287 -0.0456
 4723SOL    HW225806   4.072   3.999   8.733 -0.5879 -1.7086  0.8719
 4724SOL     OW25807   2.702   3.158   6.345  0.1176 -0.3050 -0.0180
 4724SOL    HW125808   2.730   3.157   6.436 -0.1902  3.8153  0.0887
 4724SOL    HW225809   2.785   3.185   6.306 -1.0371  2.0796 -0.7918
 4725SOL     OW25810   3.784   0.680  11.279  0.6696 -0.5992  0.3708
 4725SOL    HW125811   3.783   0.603  11.223 -0.7555 -1.2301  1.2680
 4725SOL    HW225812   3.830   0.631  11.347  1.4914  2.4623  2.0508
 4726SOL     OW25813   0.915   3.477   8.035  0.1011 -0.0732 -0.1322
 4726SOL    HW125814   0.918   3.558   8.085  1.2812 -0.7699  0.9297
 4726SOL    HW225815   1.008   3.470   8.014 -0.3185 -2.0660 -1.2951
 4727SOL     OW25816   2.327   3.493   6.293 -0.5825 -0.0400 -0.2731
 4727SOL    HW125817   2.355   3.519   6.380  0.3233 -0.4373 -0.4494
 4727SOL    HW225818   2.402   3.484   6.234  0.2718  0.6401  0.7213
 4728SOL     OW25819   0.336   1.481   5.743 -0.6719  0.0312 -0.2910
 4728SOL    HW125820   0.258   1.537   5.753 -0.4670  0.5283 -1.4239
 4728SOL    HW225821   0.396   1.516   5.677  0.9854 -1.2458  0.5572
 4729SOL     OW25822   1.929   3.871   0.088  0.2787  0.2346  0.5234
 4729SOL    HW125823   1.907   3.800   0.028  1.3884  0.0771  0.3178
 4729SOL    HW225824   2.010   3.837   0.125 -0.4246 -0.3451  1.5609
 4730SOL     OW25825   2.684   1.168   9.625  0.0038  0.2791 -0.4449
 4730SOL    HW125826   2.744   1.116   9.679 -0.7287 -1.1637 -1.0363
 4730SOL    HW225827   2.683   1.257   9.660 -2.5728  0.8881 -2.1035
 4731SOL     OW25828   3.122   3.080   2.341 -0.0288  0.1196  0.5349
 4731SOL    HW125829   3.033   3.115   2.331 -1.0853 -2.5876  0.6092
 4731SOL    HW225830   3.120   3.046   2.431  0.3230 -1.1775  0.0459
 4732SOL     OW25831   2.388   3.476   2.780  0.0862  0.3745  0.0451
 4732SOL    HW125832   2.433   3.490   2.864 -0.9362  0.2292  0.6159
 4732SOL    HW225833   2.427   3.395   2.746  0.4057  0.1217  1.0104
 4733SOL     OW25834   3.517   0.705   9.906 -0.8020  0.4757  0.3292
 4733SOL    HW125835   3.440   0.675   9.955 -0.4710 -0.1964  0.4292
 4733SOL    HW225836   3.528   0.797   9.933 -0.0349  0.2933  0.6358
 4734SOL     OW25837   1.131   1.718   4.749  0.0344  0.0907 -0.4372
 4734SOL    HW125838   1.197   1.664   4.705 -0.5740 -0.0661 -1.1572
 4734SOL    HW225839   1.062   1.715   4.683  0.2311 -0.0547 -0.6378
 4735SOL     OW25840   0.035   2.742   1.094 -0.6604 -0.1974  0.1248
 4735SOL    HW125841   4.700   2.691   1.058 -0.3507  0.9491 -2.1198
 4735SOL    HW225842   0.104   2.676   1.097 -1.6495 -1.1846  1.1528
 4736SOL     OW25843   0.377   0.392  14.692 -0.2169  0.2146 -0.1680
 4736SOL    HW125844   0.333   0.459  14.640  0.0132  0.9785  0.6258
 4736SOL    HW225845   0.388   0.326  14.624 -1.4296 -1.2697  1.0841
 4737SOL     OW25846   4.204   0.509  15.953 -0.3286  0.4704 -0.9151
 4737SOL    HW125847   4.257   0.588  15.947  0.7809 -0.2921 -1.0461
 4737SOL    HW225848   4.113   0.534  15.938 -0.3189  0.9526 -0.1712
 4738SOL     OW25849   1.340   4.362   2.446  0.1262 -0.6986  0.4627
 4738SOL    HW125850   1.306   4.422   2.379  3.1411 -0.6518 -0.9976
 4738SOL    HW225851   1.263   4.308   2.466 -0.2180  0.7229  3.0517
 4739SOL     OW25852   3.314   4.224  17.529 -0.1426 -0.4898  0.0576
 4739SOL    HW125853   3.227   4.214  17.567  0.0816 -0.5599  0.5588
 4739SOL    HW225854   3.332   4.301  17.583  1.1617 -0.9459  0.2822
 4740SOL     OW25855   0.386   1.085   9.916 -0.0535 -0.4617  0.2814
 4740SOL    HW125856   0.420   1.090   9.826 -0.1145  0.0433  0.2871
 4740SOL    HW225857   0.294   1.108   9.912  0.1656  0.4875  0.6811
 4741SOL     OW25858   3.434   4.039   5.418 -0.6406 -0.4337 -0.0381
 4741SOL    HW125859   3.430   3.944   5.421 -1.1833 -0.4031  0.1955
 4741SOL    HW225860   3.474   4.065   5.501  0.0607 -0.9010 -0.2333
 4742SOL     OW25861   0.359   3.120   5.194  0.0064 -0.0118  0.4843
 4742SOL    HW125862   0.382   3.028   5.208  0.8314  0.5041  2.5636
 4742SOL    HW225863   0.446   3.158   5.210 -0.3441  1.5519 -1.2641
 4743SOL     OW25864   1.763   3.979   4.362  0.4013  0.1158  0.1526
 4743SOL    HW125865   1.728   3.973   4.273  1.3113 -1.4782 -0.0973
 4743SOL    HW225866   1.807   3.894   4.371 -1.9387 -0.9311  1.7403
 4744SOL     OW25867   1.465   2.287   9.309 -0.4264 -0.8201 -0.6233
 4744SOL    HW125868   1.420   2.372   9.302  0.6154 -0.2370 -0.2758
 4744SOL    HW225869   1.450   2.262   9.400  1.2083 -1.5540 -0.5492
 4745SOL     OW25870   1.465   1.175   8.831  0.8120  0.3592  0.1056
 4745SOL    HW125871   1.374   1.149   8.820  2.0097 -3.6781 -0.3239
 4745SOL    HW225872   1.473   1.178   8.735  2.4706 -1.8524  0.1923
 4746SOL     OW25873   4.561   1.183   8.634  0.2375  0.3550 -0.3026
 4746SOL    HW125874   4.500   1.243   8.591 -1.7395 -0.4565  1.3643
 4746SOL    HW225875   4.590   1.232   8.711 -1.8176  1.5700 -0.3131
 4747SOL     OW25876   0.006   2.328   7.259  0.1846 -0.5048  0.4562
 4747SOL    HW125877   4.691   2.250   7.238  0.5459 -0.9763  1.3390
 4747SOL    HW225878   0.092   2.302   7.227 -0.5244 -2.0393 -0.2444
 4748SOL     OW25879   1.886   1.656  16.560 -0.1039 -0.5213 -0.3073
 4748SOL    HW125880   1.821   1.598  16.521 -1.0698  2.0262 -2.4865
 4748SOL    HW225881   1.843   1.687  16.639  0.9712 -0.7037  0.3434
 4749SOL     OW25882   4.659   4.070   8.631 -0.1562 -0.0780 -0.1883
 4749SOL    HW125883   4.584   4.090   8.687  0.0172  1.2607 -0.4344
 4749SOL    HW225884   4.634   3.979   8.618 -1.1425  0.3208 -1.0305
 4750SOL     OW25885   3.981   0.521   2.695 -0.4486  0.1548 -0.3753
 4750SOL    HW125886   3.951   0.593   2.750  0.2075 -0.3271  0.6182
 4750SOL    HW225887   4.073   0.545   2.685 -0.4533 -0.1578 -1.1859
 4751SOL     OW25888   1.054   3.328   4.415  0.1406  0.5381 -0.1244
 4751SOL    HW125889   1.008   3.314   4.498 -0.9163  0.0486 -0.7910
 4751SOL    HW225890   0.975   3.331   4.361  0.5052  0.0383 -0.6850
 4752SOL     OW25891   2.467   0.306   7.228  0.1070 -0.1059  0.1317
 4752SOL    HW125892   2.416   0.314   7.309  0.7104  0.0980  0.4909
 4752SOL    HW225893   2.557   0.319   7.256  0.0103  2.2589 -0.6739
 4753SOL     OW25894   1.805   2.493  12.526 -0.4700 -0.0140  0.0337
 4753SOL    HW125895   1.736   2.556  12.547  1.5911  2.2874 -0.0826
 4753SOL    HW225896   1.833   2.527  12.441  1.2619 -2.4164 -0.3563
 4754SOL     OW25897   4.372   2.098   4.625 -0.2397  0.1115 -0.2296
 4754SOL    HW125898   4.340   2.100   4.715  1.9378 -2.5215  0.5902
 4754SOL    HW225899   4.430   2.022   4.620 -1.0700 -0.3551 -2.9510
 4755SOL     OW25900   1.667   4.571  15.339  0.2637 -0.0931  0.6000
 4755SOL    HW125901   1.675   4.477  15.321  1.9123  0.2296 -0.2897
 4755SOL    HW225902   1.722   4.603  15.268  0.6916  0.1057  1.0226
 4756SOL     OW25903   0.861   1.107   9.387  0.0084  0.6473  0.9476
 4756SOL    HW125904   0.937   1.060   9.422 -0.0033  1.2529  1.7969
 4756SOL    HW225905   0.898   1.139   9.304  1.5910 -1.0262  0.9997
 4757SOL     OW25906   1.016   2.196   7.888  0.0746  0.2689 -0.2842
 4757SOL    HW125907   1.059   2.267   7.935  1.0384  0.3794 -1.3284
 4757SOL    HW225908   1.051   2.116   7.926 -2.1791  1.5978  4.5392
 4758SOL     OW25909   4.721   0.956   9.958 -0.0658  0.0392 -0.0553
 4758SOL    HW125910   0.034   0.931   9.881  0.4983 -2.8828  1.2768
 4758SOL    HW225911   0.030   0.905  10.024  0.1193 -0.3568 -0.4942
 4759SOL     OW25912   0.512   0.245   8.237 -0.3324 -0.3427  0.6552
 4759SOL    HW125913   0.564   0.257   8.158  0.5806 -0.2886  1.2672
 4759SOL    HW225914   0.493   0.152   8.223 -0.2547 -0.1870 -0.4930
 4760SOL     OW25915   4.091   1.574   5.975 -0.6692  0.0602  0.2028
 4760SOL    HW125916   4.015   1.627   5.950 -0.9688  0.5351  2.1140
 4760SOL    HW225917   4.167   1.629   5.954 -3.3280  3.5874 -0.1211
 4761SOL     OW25918   3.809   3.516   6.868 -0.2874  0.1580 -0.1766
 4761SOL    HW125919   3.823   3.444   6.929 -1.6521 -0.7388 -0.9346
 4761SOL    HW225920   3.758   3.579   6.920  0.3450  0.7605 -0.2751
 4762SOL     OW25921   1.846   2.169   7.741 -0.0043 -0.3868  0.4886
 4762SOL    HW125922   1.834   2.236   7.809  0.7085  2.0197 -1.7691
 4762SOL    HW225923   1.789   2.098   7.771  0.2453 -0.9279 -0.3201
 4763SOL     OW25924   4.571   1.563   8.047 -0.3988 -0.0903  0.9427
 4763SOL    HW125925   4.588   1.639   8.102 -0.0989 -0.5321  1.4643
 4763SOL    HW225926   4.662   1.535   8.056  0.0123  0.7610 -0.7089
 4764SOL     OW25927   3.819   3.312   6.543  0.3586 -0.0680 -0.2115
 4764SOL    HW125928   3.853   3.231   6.581 -0.3365 -0.7856 -1.1369
 4764SOL    HW225929   3.729   3.305   6.575  0.6410 -0.5623  0.4840
 4765SOL     OW25930   3.296   3.557   6.041 -0.3446  0.2887 -0.1378
 4765SOL    HW125931   3.238   3.486   6.012 -0.4266  0.4034 -0.2613
 4765SOL    HW225932   3.375   3.552   5.987  0.4738  0.0813  1.0802
 4766SOL     OW25933   4.617   3.825   4.548  0.0837 -0.6382 -0.6091
 4766SOL    HW125934   4.571   3.908   4.545 -0.6055 -1.0763 -2.1501
 4766SOL    HW225935   4.676   3.831   4.472  1.3501 -0.2670  0.4058
 4767SOL     OW25936   3.178   4.085  13.006 -0.6586  0.3886  0.0104
 4767SOL    HW125937   3.149   4.144  13.076 -1.4754 -1.7293  1.4457
 4767SOL    HW225938   3.109   4.021  13.023 -1.5966  1.7380  1.2540
 4768SOL     OW25939   2.641   3.863  17.497 -0.0604  0.9903  0.3634
 4768SOL    HW125940   2.702   3.814  17.443 -0.3806 -0.1239  1.0055
 4768SOL    HW225941   2.619   3.790  17.555 -1.0745  0.5992 -0.5082
 4769SOL     OW25942   1.477   3.285   3.258  0.2098 -0.1424  0.4785
 4769SOL    HW125943   1.449   3.350   3.322 -0.7039 -0.6584  0.5950
 4769SOL    HW225944   1.481   3.203   3.306  0.3765 -1.2361 -1.4020
 4770SOL     OW25945   2.211   3.494   0.293 -0.0523  0.0832 -0.1065
 4770SOL    HW125946   2.185   3.402   0.290  0.7048 -0.0835 -1.4486
 4770SOL    HW225947   2.178   3.511   0.382  2.7829  0.9242  0.7931
 4771SOL     OW25948   4.663   1.291   7.041  0.2729  0.1934 -0.1633
 4771SOL    HW125949   4.596   1.360   7.041  0.4918  0.4047 -0.0347
 4771SOL    HW225950   4.654   1.263   6.950  2.3625  1.2854 -0.7014
 4772SOL     OW25951   4.283   2.902  11.567 -0.1213  0.2778 -0.0204
 4772SOL    HW125952   4.314   2.965  11.502 -0.1922 -1.3508 -1.6326
 4772SOL    HW225953   4.347   2.915  11.637 -1.0562  1.4817  0.6233
 4773SOL     OW25954   4.659   0.405  15.646 -0.1406 -0.5529  0.3495
 4773SOL    HW125955   4.600   0.458  15.700 -0.8370 -0.2453 -0.7035
 4773SOL    HW225956   4.619   0.320  15.660  0.6033 -1.0603 -0.6157
 4774SOL     OW25957   0.879   1.288   6.420 -0.1765 -0.6861  0.2800
 4774SOL    HW125958   0.916   1.356   6.476 -1.9434  1.0201 -0.6238
 4774SOL    HW225959   0.940   1.217   6.437  0.5759 -0.3878 -1.1625
 4775SOL     OW25960   0.827   4.027   0.452  0.4211  0.4268 -0.6321
 4775SOL    HW125961   0.775   4.031   0.532 -1.9889  1.9565 -2.2591
 4775SOL    HW225962   0.855   4.118   0.449  2.2371 -0.0790  0.9681
 4776SOL     OW25963   2.915   0.376  11.569 -0.4789  0.3244  0.4692
 4776SOL    HW125964   2.892   0.304  11.628  1.0109 -1.6901 -1.3803
 4776SOL    HW225965   2.833   0.393  11.524 -0.3850  0.7994  0.4753
 4777SOL     OW25966   2.499   4.277   3.343 -0.1884 -0.1961 -0.0668
 4777SOL    HW125967   2.462   4.226   3.271  0.7140 -1.3081  0.2497
 4777SOL    HW225968   2.585   4.295   3.306 -0.1465  0.0275  0.1340
 4778SOL     OW25969   0.246   1.032   1.219  0.0246  0.4613 -0.6084
 4778SOL    HW125970   0.202   1.117   1.224 -0.1199  0.2849  1.0336
 4778SOL    HW225971   0.233   0.996   1.307  0.7237  2.0478  0.1511
 4779SOL     OW25972   1.822   4.137   2.439 -0.5926  0.3619 -0.0707
 4779SOL    HW125973   1.830   4.216   2.386 -1.2540 -0.2307 -1.0604
 4779SOL    HW225974   1.750   4.160   2.498 -0.6950  1.8383 -0.7572
 4780SOL     OW25975   4.187   0.541   4.598 -0.1146  0.6551 -0.6861
 4780SOL    HW125976   4.230   0.623   4.620 -0.4737  0.3682  1.1079
 4780SOL    HW225977   4.108   0.572   4.555 -1.6791  1.7155  3.0212
 4781SOL     OW25978   0.473   1.047   8.242 -0.4894  0.1416  0.2618
 4781SOL    HW125979   0.401   0.995   8.206 -0.9357 -0.4673  1.9966
 4781SOL    HW225980   0.471   1.028   8.336  1.5274 -0.6886  0.1401
 4782SOL     OW25981   2.571   3.314   9.694 -0.1117 -0.2214  0.1425
 4782SOL    HW125982   2.649   3.266   9.722 -2.1562 -2.6052  1.7890
 4782SOL    HW225983   2.514   3.264   9.752 -0.8746  2.6320  1.8264
 4783SOL     OW25984   2.627   3.067   5.754  0.1658  0.1403 -0.1465
 4783SOL    HW125985   2.722   3.072   5.742  0.0232 -0.3154 -1.3873
 4783SOL    HW225986   2.598   3.034   5.669 -0.3455  1.1362 -0.3511
 4784SOL     OW25987   1.862   1.381   1.991  0.0741 -0.5536  0.2585
 4784SOL    HW125988   1.846   1.426   1.908 -1.1993 -1.6223 -0.0772
 4784SOL    HW225989   1.912   1.304   1.965  1.2023  0.8638 -1.8064
 4785SOL     OW25990   3.192   4.681   7.611 -0.4642 -0.3930  0.0342
 4785SOL    HW125991   3.160   4.644   7.693 -0.1653 -2.6918 -0.8835
 4785SOL    HW225992   3.217   0.033   7.630  1.6144 -0.7254 -1.1187
 4786SOL     OW25993   0.480   1.733   8.752 -0.0546 -0.0953 -0.0120
 4786SOL    HW125994   0.549   1.719   8.688 -1.1722  0.6094 -1.3629
 4786SOL    HW225995   0.472   1.649   8.797 -0.3222 -0.2932 -0.4330
 4787SOL     OW25996   0.880   2.217   6.484  0.2256  0.4155 -0.7386
 4787SOL    HW125997   0.958   2.233   6.538  1.3458 -4.1886 -1.0015
 4787SOL    HW225998   0.893   2.125   6.460 -0.8477 -0.0627  0.4523
 4788SOL     OW25999   2.737   4.120   5.830  0.0807  0.3092  0.0774
 4788SOL    HW126000   2.695   4.049   5.782  1.0392 -0.0097 -0.2857
 4788SOL    HW226001   2.828   4.108   5.802  0.3006 -1.7675  1.7049
 4789SOL     OW26002   3.244   0.194   7.703  0.6041  0.5022 -0.1675
 4789SOL    HW126003   3.332   0.161   7.723 -0.5454 -1.5728  1.4045
 4789SOL    HW226004   3.205   0.206   7.789  2.9823  3.3986  0.4863
 4790SOL     OW26005   1.433   3.014   7.049  0.4201 -0.6504  0.0484
 4790SOL    HW126006   1.387   3.079   7.102  0.7920 -0.3793  0.0371
 4790SOL    HW226007   1.381   2.935   7.063  0.7551 -0.7476  0.7584
 4791SOL     OW26008   2.781   3.556  10.089  0.4531 -0.5966 -0.3775
 4791SOL    HW126009   2.721   3.491  10.050 -0.6658 -0.7562  1.6323
 4791SOL    HW226010   2.864   3.527  10.050  0.6623 -1.6869  0.8901
 4792SOL     OW26011   2.147   2.893  14.840 -0.0867 -0.0195  0.3984
 4792SOL    HW126012   2.176   2.802  14.845  1.3127  0.5218  1.8255
 4792SOL    HW226013   2.196   2.916  14.761 -1.2185  1.8055  0.2212
 4793SOL     OW26014   3.041   3.987   2.171 -0.9414 -0.2443  0.4013
 4793SOL    HW126015   3.043   3.898   2.206  0.2468  0.0661  1.1186
 4793SOL    HW226016   3.029   4.024   2.259  2.0899  1.4704  0.0809
 4794SOL     OW26017   2.977   0.378   8.527 -0.2053  0.0024 -0.5945
 4794SOL    HW126018   2.966   0.284   8.512  1.2136 -0.1453 -0.7285
 4794SOL    HW226019   3.017   0.381   8.614  1.1771  3.2872 -1.3387
 4795SOL     OW26020   1.370   2.337   8.991  0.2262 -0.7675  0.0027
 4795SOL    HW126021   1.357   2.305   8.902  1.6858  4.7458 -2.1964
 4795SOL    HW226022   1.393   2.253   9.030  0.7482  0.6372  2.7015
 4796SOL     OW26023   2.673   2.535   7.979 -0.5093 -0.0966 -0.2253
 4796SOL    HW126024   2.603   2.485   8.020 -0.7888  1.2928  0.9886
 4796SOL    HW226025   2.696   2.597   8.048 -0.1710 -0.4837  0.0003
 4797SOL     OW26026   3.532   1.806   7.153 -0.0810 -0.4582 -0.0743
 4797SOL    HW126027   3.489   1.838   7.232 -0.7447 -0.3613 -0.4780
 4797SOL    HW226028   3.589   1.879   7.126  0.8223 -1.1500 -0.0612
 4798SOL     OW26029   0.182   4.281   4.988  0.0920 -0.5690  0.0106
 4798SOL    HW126030   0.185   4.242   5.076  0.3112 -0.3587  0.0968
 4798SOL    HW226031   0.244   4.354   5.000  0.5551 -0.4556 -3.1809
 4799SOL     OW26032   3.781   4.687   8.098  0.5129 -0.4600 -0.1986
 4799SOL    HW126033   3.834   4.633   8.039  0.8636 -1.6130  1.1610
 4799SOL    HW226034   3.710   4.622   8.105 -0.3973  0.5117 -0.4535
 4800SOL     OW26035   2.689   1.100   7.559 -0.0301  0.1604 -0.1401
 4800SOL    HW126036   2.645   1.016   7.547 -1.5342  0.5795  2.4095
 4800SOL    HW226037   2.776   1.089   7.520 -0.7355 -0.1500 -1.6274
 4801SOL     OW26038   1.595   1.031   8.232 -0.3308 -0.6070  0.0823
 4801SOL    HW126039   1.513   0.997   8.268  0.4422  0.8509  3.2543
 4801SOL    HW226040   1.569   1.093   8.164  1.6296  0.4932  0.3315
 4802SOL     OW26041   3.233   4.676  15.810  0.3197  0.0582 -0.1551
 4802SOL    HW126042   3.213   4.688  15.717 -0.1823 -2.9683 -0.4674
 4802SOL    HW226043   3.321   4.638  15.813  0.0274 -0.7826 -1.8804
 4803SOL     OW26044   1.920   0.354  14.906 -0.8867  0.3564  0.1546
 4803SOL    HW126045   1.867   0.281  14.873  1.2767 -0.9836 -0.3320
 4803SOL    HW226046   1.861   0.401  14.964  0.3391  3.0713 -0.7824
 4804SOL     OW26047   2.356   3.742   2.614  0.0552  0.0910 -0.7400
 4804SOL    HW126048   2.359   3.659   2.662 -1.2554 -0.7876 -2.1703
 4804SOL    HW226049   2.437   3.785   2.641  0.0364  0.0918 -0.6843
 4805SOL     OW26050   3.915   1.384   8.443  0.1190  0.0296  0.6048
 4805SOL    HW126051   3.965   1.342   8.513 -0.1951 -0.8731  0.2954
 4805SOL    HW226052   3.964   1.347   8.370 -1.2005 -0.0605 -0.2355
 4806SOL     OW26053   2.245   2.969   5.738 -0.2924 -0.0057 -0.2740
 4806SOL    HW126054   2.319   2.908   5.744 -0.8848 -0.6977  0.0480
 4806SOL    HW226055   2.286   3.047   5.702  0.9714 -0.2763  0.5931
 4807SOL     OW26056   4.281   1.342   8.976 -0.4857 -0.4735  0.3079
 4807SOL    HW126057   4.239   1.408   9.032  2.1649  0.0200  1.7709
 4807SOL    HW226058   4.293   1.401   8.902 -0.1875  2.1805  2.4349
 4808SOL     OW26059   2.109   3.425   7.358  0.0594 -0.5072 -0.0942
 4808SOL    HW126060   2.081   3.336   7.378 -0.6970  0.6208  3.9304
 4808SOL    HW226061   2.187   3.430   7.414 -1.0017  1.4805  1.2043
 4809SOL     OW26062   0.200   3.100   8.063 -0.2544  0.2107 -0.4077
 4809SOL    HW126063   0.204   3.022   8.119 -0.7635  0.0535 -0.5875
 4809SOL    HW226064   0.293   3.120   8.063 -0.4037  0.9490  0.7446
 4810SOL     OW26065   3.629   4.551   8.833 -0.1915  0.3135  0.2651
 4810SOL    HW126066   3.601   4.477   8.887 -1.6841 -0.3524 -1.3986
 4810SOL    HW226067   3.600   4.627   8.884  0.2102  0.5980  0.0685
 4811SOL     OW26068   0.905   1.840   3.148 -0.2391  0.4447  0.3411
 4811SOL    HW126069   0.811   1.847   3.161 -0.6432  1.0771 -2.7396
 4811SOL    HW226070   0.931   1.923   3.107  0.4985  0.6908  1.3178
 4812SOL     OW26071   3.577   3.870   8.505 -0.0521  0.1012  0.1104
 4812SOL    HW126072   3.610   3.881   8.416 -0.2478  0.6493  0.1064
 4812SOL    HW226073   3.658   3.859   8.556  1.0167 -0.9139 -1.7784
 4813SOL     OW26074   4.283   0.755   3.910  0.7843 -0.2131  0.2510
 4813SOL    HW126075   4.222   0.790   3.975  0.4344 -0.5108  0.0744
 4813SOL    HW226076   4.316   0.678   3.957  0.9352 -0.0672  0.3870
 4814SOL     OW26077   1.564   2.970   8.604 -0.4052  0.1588  0.0214
 4814SOL    HW126078   1.526   3.035   8.663 -0.3841 -1.6800  2.0631
 4814SOL    HW226079   1.500   2.899   8.605 -0.8099  0.5250  0.2434
 4815SOL     OW26080   1.018   4.613  15.790  0.3529  0.2544  0.8003
 4815SOL    HW126081   0.976   4.680  15.736  1.6671 -0.4540 -1.0921
 4815SOL    HW226082   1.080   4.573  15.729 -1.2737 -1.6202  0.3750
 4816SOL     OW26083   0.996   4.332   9.297  0.2462  0.1576 -0.6240
 4816SOL    HW126084   1.013   4.366   9.209  0.6666 -0.3577 -0.7423
 4816SOL    HW226085   1.080   4.287   9.308  0.7077  0.8256 -1.5076
 4817SOL     OW26086   1.297   2.415   6.416  0.6629  0.4584 -0.2690
 4817SOL    HW126087   1.216   2.462   6.437  0.2881  0.8321 -2.5383
 4817SOL    HW226088   1.350   2.419   6.495  1.5306  0.6150 -0.8606
 4818SOL     OW26089   2.559   2.898   0.338  0.5087 -0.6565 -0.2975
 4818SOL    HW126090   2.573   2.856   0.423  2.3567 -0.3555 -0.4514
 4818SOL    HW226091   2.504   2.830   0.299 -0.2526 -1.0897  1.4881
 4819SOL     OW26092   0.030   4.613   8.968  0.1936 -0.0240  0.3550
 4819SOL    HW126093   0.095   4.683   8.970  1.3312 -1.0758  0.3885
 4819SOL    HW226094   0.090   4.542   8.947  1.5910  0.6681  2.0412
 4820SOL     OW26095   2.661   1.275   8.378  0.1695 -0.2569 -0.2407
 4820SOL    HW126096   2.675   1.181   8.368 -1.3335 -0.6042  0.8994
 4820SOL    HW226097   2.666   1.282   8.474  0.8647  2.0238 -0.4347
 4821SOL     OW26098   4.176   3.844   8.770  0.0362 -0.2008 -0.2189
 4821SOL    HW126099   4.220   3.825   8.853 -0.7557 -3.6767 -0.5643
 4821SOL    HW226100   4.236   3.801   8.708 -0.2781 -0.4732 -0.3329
 4822SOL     OW26101   3.672   3.778  13.002 -0.4155  0.3500  0.0309
 4822SOL    HW126102   3.635   3.850  12.951 -0.8835 -0.1421 -0.3215
 4822SOL    HW226103   3.711   3.731  12.928 -1.0157 -0.9976  0.5665
 4823SOL     OW26104   1.280   4.449   7.766 -0.2053  0.7227 -0.0781
 4823SOL    HW126105   1.192   4.411   7.762  0.1431  0.1038 -1.5965
 4823SOL    HW226106   1.323   4.372   7.804 -0.0509  1.3326  0.9994
 4824SOL     OW26107   2.690   2.828   1.905 -0.0473 -0.0586  0.3527
 4824SOL    HW126108   2.779   2.860   1.912 -0.9785  1.9532  2.8561
 4824SOL    HW226109   2.694   2.734   1.922  2.9681 -0.2019 -1.2585
 4825SOL     OW26110   4.618   3.132   2.898  0.3479 -0.0897  0.2577
 4825SOL    HW126111   4.711   3.142   2.875 -0.0382 -0.2351 -1.3867
 4825SOL    HW226112   4.626   3.156   2.990 -0.5349  0.5613  0.1672
 4826SOL     OW26113   1.690   2.305  14.170  0.3804 -0.2556  0.6030
 4826SOL    HW126114   1.763   2.344  14.218  1.2818  0.9235 -1.7420
 4826SOL    HW226115   1.663   2.242  14.237 -1.8288  0.3524  0.3068
 4827SOL     OW26116   4.269   2.452   7.804  0.1334  0.4209  0.4424
 4827SOL    HW126117   4.281   2.364   7.842  0.4830  0.3439  0.1513
 4827SOL    HW226118   4.315   2.505   7.870 -0.7862  0.7706  0.7968
 4828SOL     OW26119   0.539   2.457   2.676  0.2799 -0.1534  0.1160
 4828SOL    HW126120   0.605   2.390   2.693 -0.9068 -1.5172 -0.6489
 4828SOL    HW226121   0.569   2.501   2.596  2.5555 -3.9522 -1.1080
 4829SOL     OW26122   2.293   0.915  16.762 -0.0579  0.4591  0.1277
 4829SOL    HW126123   2.277   0.980  16.695 -1.8142  2.4657  2.4956
 4829SOL    HW226124   2.304   0.967  16.842 -3.6001 -0.1255  0.9790
 4830SOL     OW26125   4.211   1.789  10.163 -0.0430 -0.1073  0.2208
 4830SOL    HW126126   4.220   1.722  10.230  2.0324  1.8632  1.9430
 4830SOL    HW226127   4.299   1.781  10.125  0.4176 -0.1639  1.3082
 4831SOL     OW26128   0.877   3.447   3.274 -0.5133  0.2436  0.0989
 4831SOL    HW126129   0.916   3.361   3.263  2.9811  1.8849 -0.5273
 4831SOL    HW226130   0.894   3.461   3.368  1.7353  0.3973 -0.3302
 4832SOL     OW26131   2.627   3.699   1.660 -0.1809  0.2367  0.1769
 4832SOL    HW126132   2.622   3.640   1.585  1.4397 -0.0633  0.2919
 4832SOL    HW226133   2.603   3.783   1.621 -0.3203 -0.6639 -1.6804
 4833SOL     OW26134   2.982   4.557   3.498 -0.1122  0.3567 -0.0866
 4833SOL    HW126135   2.921   4.541   3.571  0.9733  0.4469  0.8469
 4833SOL    HW226136   3.058   4.503   3.518 -0.5618 -0.4082 -0.4437
 4834SOL     OW26137   2.688   0.987  14.875 -0.5019 -0.2258 -0.4777
 4834SOL    HW126138   2.760   0.961  14.818  0.6080  1.8432 -0.0199
 4834SOL    HW226139   2.674   1.080  14.858  1.8416  0.5426  1.8181
 4835SOL     OW26140   2.584   0.149  12.649 -0.3293  0.1856 -0.2042
 4835SOL    HW126141   2.646   0.193  12.591 -0.6843 -0.7896 -1.3396
 4835SOL    HW226142   2.627   0.063  12.652  1.2100  1.0096  0.8559
 4836SOL     OW26143   4.657   1.986   8.379 -0.1301 -0.5176  0.2290
 4836SOL    HW126144   4.655   1.911   8.439 -0.1322 -0.7345 -0.0454
 4836SOL    HW226145   4.618   2.058   8.430  1.0909 -0.0724  0.5389
 4837SOL     OW26146   4.610   1.963   6.389 -0.3374  0.6581  0.3078
 4837SOL    HW126147   4.564   2.000   6.465 -2.4437 -0.5253 -0.3655
 4837SOL    HW226148   4.587   1.870   6.385  0.5343  0.4342  0.5301
 4838SOL     OW26149   2.929   3.728  12.220  0.0336 -0.1053  0.2617
 4838SOL    HW126150   2.963   3.808  12.180  2.1460 -0.7864  0.7023
 4838SOL    HW226151   2.997   3.711  12.285  0.1589  1.7525  0.6136
 4839SOL     OW26152   1.751   0.605   7.531 -0.4073  0.3203  0.1074
 4839SOL    HW126153   1.695   0.548   7.479 -1.5319  1.6671 -0.1784
 4839SOL    HW226154   1.699   0.685   7.544 -0.0933  0.5948 -0.3619
 4840SOL     OW26155   4.132   1.972  15.052  0.3260 -0.1474 -0.0665
 4840SOL    HW126156   4.162   1.894  15.098 -0.5240 -0.1304  0.5074
 4840SOL    HW226157   4.150   1.951  14.960 -0.8113  1.9904 -0.7755
 4841SOL     OW26158   3.499   1.651   5.725  0.6223  0.4916  0.6445
 4841SOL    HW126159   3.593   1.633   5.734  0.8752  0.9246 -1.1592
 4841SOL    HW226160   3.475   1.700   5.804  3.0610 -0.9620  2.2915
 4842SOL     OW26161   3.548   0.994   9.026 -0.0588  0.0737  0.6638
 4842SOL    HW126162   3.556   0.915   9.080  0.7479 -0.4975 -0.2864
 4842SOL    HW226163   3.560   0.958   8.939  1.5478  2.2083  0.0092
 4843SOL     OW26164   1.257   3.519   3.698 -0.0665  0.1195  0.3941
 4843SOL    HW126165   1.252   3.609   3.729  2.9090  0.6029 -0.5519
 4843SOL    HW226166   1.218   3.469   3.769  0.8818 -0.9677  0.1553
 4844SOL     OW26167   0.581   4.276   4.422 -0.1588  0.2619  0.4362
 4844SOL    HW126168   0.582   4.251   4.514 -1.8854 -0.3209  0.3090
 4844SOL    HW226169   0.489   4.297   4.407  0.4302  1.7575 -1.0682
 4845SOL     OW26170   0.720   3.468   5.930  0.2903 -0.1385  0.3170
 4845SOL    HW126171   0.693   3.559   5.915  0.5685  0.0730  1.0973
 4845SOL    HW226172   0.716   3.445   5.837 -0.4150  0.4471  0.1964
 4846SOL     OW26173   2.876   3.811  17.105 -0.2632 -0.0371 -0.9328
 4846SOL    HW126174   2.942   3.874  17.131  0.3303 -2.1685  2.6555
 4846SOL    HW226175   2.826   3.857  17.038  0.8263  1.2645 -0.8345
 4847SOL     OW26176   1.581   1.376   5.760 -0.1921 -0.2094 -0.0995
 4847SOL    HW126177   1.528   1.379   5.840  1.4905 -2.4647  1.1117
 4847SOL    HW226178   1.619   1.288   5.765  0.4378  0.1519  1.6351
 4848SOL     OW26179   2.547   1.550   0.225  0.2682  0.0877  0.4780
 4848SOL    HW126180   2.470   1.508   0.262  1.0557 -2.8633 -1.2339
 4848SOL    HW226181   2.566   1.596   0.307 -1.6664 -1.6650  1.9107
 4849SOL     OW26182   4.540   3.471   7.047 -0.4987  0.2705 -0.5777
 4849SOL    HW126183   4.634   3.465   7.060 -0.4068  2.2826 -0.3514
 4849SOL    HW226184   4.537   3.552   6.996  0.4835  0.7759  0.1856
 4850SOL     OW26185   2.078   0.024  15.146  0.3812 -0.3379  0.0864
 4850SOL    HW126186   2.116   0.104  15.110 -0.7282 -0.1721 -0.7087
 4850SOL    HW226187   2.148   4.701  15.167  2.0834  1.2019 -1.1822
 4851SOL     OW26188   2.487   1.347   3.711  0.4986 -0.1728 -0.0186
 4851SOL    HW126189   2.549   1.404   3.665  2.1984 -4.2201 -2.6908
 4851SOL    HW226190   2.536   1.266   3.706 -0.7156 -1.0564  2.4998
 4852SOL     OW26191   2.028   2.137   9.306 -0.4009  0.1069  0.3400
 4852SOL    HW126192   1.938   2.128   9.274  0.0799 -2.6913 -0.2410
 4852SOL    HW226193   2.021   2.209   9.369 -0.8018  0.8249 -0.5246
 4853SOL     OW26194   1.827   3.702   0.607 -0.5680 -0.5127  0.1519
 4853SOL    HW126195   1.793   3.747   0.530  0.4549  1.0612  0.6257
 4853SOL    HW226196   1.761   3.633   0.616  1.0571 -2.1528 -0.4225
 4854SOL     OW26197   2.770   0.094   8.062 -0.2749 -0.6619  0.3546
 4854SOL    HW126198   2.757   0.182   8.099 -2.2625  0.0011 -1.9152
 4854SOL    HW226199   2.683   0.065   8.035 -0.9009  1.0176  0.5702
 4855SOL     OW26200   4.675   0.421   8.977  1.1069 -0.2889  0.3877
 4855SOL    HW126201   4.733   0.447   9.048  2.8886  2.2593 -1.9995
 4855SOL    HW226202   4.605   0.483   8.998  1.2058 -0.1545  0.3240
 4856SOL     OW26203   2.679   1.773   2.282 -0.5230  0.1598  0.1161
 4856SOL    HW126204   2.664   1.841   2.217 -1.6126 -0.3722 -0.1813
 4856SOL    HW226205   2.718   1.815   2.359  0.9740  4.1920 -2.8622
 4857SOL     OW26206   1.882   0.951   3.983  0.1565 -0.9856 -0.1041
 4857SOL    HW126207   1.838   0.915   4.060 -3.2409  0.7437 -1.2802
 4857SOL    HW226208   1.816   0.987   3.924  1.3037  0.6179 -0.4137
 4858SOL     OW26209   3.447   1.666   0.181  0.1190 -0.0101 -0.2810
 4858SOL    HW126210   3.521   1.724   0.166  0.6138 -0.9398 -1.5266
 4858SOL    HW226211   3.385   1.714   0.126  0.4741  0.3339 -0.3866
 4859SOL     OW26212   3.494   4.298   4.823  0.0635  0.2632  0.1666
 4859SOL    HW126213   3.538   4.359   4.765  0.5427  1.7736  2.1230
 4859SOL    HW226214   3.560   4.271   4.887  2.2377 -0.9202 -2.6197
 4860SOL     OW26215   4.563   4.227  13.258 -0.0784 -0.1119  0.2809
 4860SOL    HW126216   4.561   4.221  13.354  1.9135  0.3584  0.3602
 4860SOL    HW226217   4.652   4.193  13.248 -0.5149 -1.1410 -0.1115
 4861SOL     OW26218   3.695   3.754  15.512 -0.0566  0.0748  0.1705
 4861SOL    HW126219   3.688   3.670  15.558 -0.3111  0.7149  1.2842
 4861SOL    HW226220   3.731   3.722  15.428  1.3556 -0.4602  0.9790
 4862SOL     OW26221   4.634   1.987   9.583  0.1414  0.1678 -0.3622
 4862SOL    HW126222   4.674   1.926   9.520  3.3853  0.3461  1.5173
 4862SOL    HW226223   4.713   2.026   9.620  0.2768  1.2471 -1.8289
 4863SOL     OW26224   0.047   2.497  16.772  0.0479  0.0499  0.7573
 4863SOL    HW126225   0.015   2.538  16.853  0.4286  0.2920  0.7866
 4863SOL    HW226226   4.698   2.487  16.733  0.7412 -2.1843 -0.1873
 4864SOL     OW26227   2.436   4.062  17.580  0.0473  0.6286 -0.2765
 4864SOL    HW126228   2.464   3.998  17.515  0.5357 -0.2073  0.7659
 4864SOL    HW226229   2.505   4.127  17.565 -0.1934  0.5544 -1.7413
 4865SOL     OW26230   0.365   0.322   3.566  0.5411  0.2464 -0.1090
 4865SOL    HW126231   0.334   0.402   3.523 -1.1397  0.1124  0.8582
 4865SOL    HW226232   0.340   0.350   3.655  0.8102  0.4596 -0.0982
 4866SOL     OW26233   4.590   2.575   8.742 -0.1549 -0.6505 -0.8014
 4866SOL    HW126234   4.506   2.536   8.720 -2.3893  3.4518  0.5145
 4866SOL    HW226235   4.656   2.516   8.704  0.2711 -1.2868  0.9083
 4867SOL     OW26236   1.599   3.147  16.727 -0.8532 -0.2748  0.1724
 4867SOL    HW126237   1.599   3.052  16.716 -1.1794 -0.3022  0.4371
 4867SOL    HW226238   1.550   3.160  16.808 -1.0258 -1.8088  0.3185
 4868SOL     OW26239   2.232   3.718   1.495  1.3601 -0.1605 -0.4789
 4868SOL    HW126240   2.140   3.712   1.468  0.4216  0.6134  2.5060
 4868SOL    HW226241   2.238   3.808   1.526  2.3230 -0.2812 -0.3255
 4869SOL     OW26242   2.774   4.361   3.305  0.2437  0.0964  0.6002
 4869SOL    HW126243   2.846   4.404   3.352  0.8210 -1.7451  1.4103
 4869SOL    HW226244   2.805   4.271   3.315  2.6581  0.9136  0.5032
 4870SOL     OW26245   0.743   3.902  11.856  0.0903  0.0508 -0.6164
 4870SOL    HW126246   0.797   3.909  11.778  0.3979 -3.2382 -0.7137
 4870SOL    HW226247   0.763   3.813  11.885 -0.5408  0.4203  0.9759
 4871SOL     OW26248   0.494   0.397   7.764  0.6848  0.2641 -0.0717
 4871SOL    HW126249   0.478   0.491   7.763 -0.5158  0.0574 -1.5831
 4871SOL    HW226250   0.406   0.359   7.772 -1.4445  4.8847 -1.5242
 4872SOL     OW26251   1.071   1.595   4.294 -0.4810 -0.0858 -0.1554
 4872SOL    HW126252   1.043   1.538   4.223 -1.1315  1.8073 -1.4012
 4872SOL    HW226253   1.160   1.562   4.309 -0.1212 -0.3896 -2.9193
 4873SOL     OW26254   3.311   2.973   5.155  0.3745  0.2755  0.0106
 4873SOL    HW126255   3.365   2.948   5.080  0.6491  0.9865 -0.0261
 4873SOL    HW226256   3.306   2.889   5.200  1.7864 -0.2429 -0.7977
 4874SOL     OW26257   2.035   1.013   6.496  0.1774 -0.3565 -0.6061
 4874SOL    HW126258   2.026   1.080   6.429  1.2130  1.3736  0.9791
 4874SOL    HW226259   2.112   0.963   6.469  1.3201  0.6641  0.7742
 4875SOL     OW26260   2.676   4.717   7.395 -0.5777 -0.0626 -0.1654
 4875SOL    HW126261   2.769   4.694   7.398 -0.4009  0.6667 -0.2205
 4875SOL    HW226262   2.645   4.691   7.482  2.3507 -1.5030  0.4617
 4876SOL     OW26263   3.218   3.401   9.828  0.2981  0.2137 -0.4809
 4876SOL    HW126264   3.305   3.399   9.868 -0.4803 -1.0088  1.1561
 4876SOL    HW226265   3.236   3.470   9.765 -1.0099  1.3995  0.4419
 4877SOL     OW26266   3.095   0.182   7.259 -0.3305  0.5126 -0.2267
 4877SOL    HW126267   3.083   0.263   7.209  0.2554  0.2676 -0.7649
 4877SOL    HW226268   3.116   0.222   7.344  0.1884 -0.1472 -0.0429
 4878SOL     OW26269   3.526   4.350   3.105 -0.0913  0.0910 -0.5287
 4878SOL    HW126270   3.608   4.385   3.070  0.0311  0.3342 -0.0011
 4878SOL    HW226271   3.498   4.418   3.166 -1.2131 -0.2065 -0.7159
 4879SOL     OW26272   0.133   4.056   2.961 -0.3444  0.2483 -0.2650
 4879SOL    HW126273   0.188   4.103   2.899 -0.7603 -0.1581 -0.9433
 4879SOL    HW226274   0.157   3.963   2.963 -1.5638 -0.1441 -3.9094
 4880SOL     OW26275   3.798   1.076  14.044  0.4966  0.1236  0.4394
 4880SOL    HW126276   3.818   1.071  14.138  1.6580  0.2971  0.1901
 4880SOL    HW226277   3.817   1.168  14.026 -1.6874  0.1540 -1.7326
 4881SOL     OW26278   4.143   1.240   5.563 -0.1429 -0.2500  1.1667
 4881SOL    HW126279   4.138   1.274   5.653 -0.4640 -0.6457  1.2962
 4881SOL    HW226280   4.056   1.202   5.563  0.4459 -1.5961  0.3091
 4882SOL     OW26281   3.571   1.978  15.191  0.2653 -0.2792  0.1834
 4882SOL    HW126282   3.627   2.007  15.118 -0.9328 -0.4597 -0.8136
 4882SOL    HW226283   3.507   1.917  15.155  0.3545  0.1890 -0.7597
 4883SOL     OW26284   2.963   2.845   3.204 -0.0153  0.2124  0.6469
 4883SOL    HW126285   2.999   2.893   3.279  0.3419  0.4873  0.3009
 4883SOL    HW226286   2.951   2.918   3.143  1.2305  0.3155  0.5200
 4884SOL     OW26287   0.684   1.284   3.615  0.6175  0.1991 -0.0164
 4884SOL    HW126288   0.673   1.210   3.555 -0.5205  1.1376 -0.9812
 4884SOL    HW226289   0.693   1.242   3.701 -1.3377 -1.6500 -0.7050
 4885SOL     OW26290   2.332   1.411   0.303  0.2702 -0.1134 -0.4695
 4885SOL    HW126291   2.338   1.316   0.303  1.6888 -0.0204 -1.2052
 4885SOL    HW226292   2.270   1.428   0.231  1.7386  1.3470 -1.3985
 4886SOL     OW26293   3.748   1.954   5.774  0.0612  0.7496  0.1475
 4886SOL    HW126294   3.759   1.991   5.862 -1.3252  3.8386 -0.9879
 4886SOL    HW226295   3.657   1.977   5.756 -0.4355 -0.3431  1.2133
 4887SOL     OW26296   2.927   4.295   7.135 -0.1634  0.1300  0.4347
 4887SOL    HW126297   2.853   4.267   7.081 -0.9220  1.0973  0.9900
 4887SOL    HW226298   2.915   4.389   7.124 -1.1703  0.2167  2.2315
 4888SOL     OW26299   3.476   2.662   2.731 -0.1530 -0.5250 -0.5286
 4888SOL    HW126300   3.542   2.731   2.729 -0.4854 -0.2542 -2.1036
 4888SOL    HW226301   3.495   2.619   2.648  1.4599  2.1661 -1.5526
 4889SOL     OW26302   1.345   3.682   2.370 -0.2543 -0.3705 -0.0226
 4889SOL    HW126303   1.274   3.703   2.430 -1.6298 -1.3124 -1.3106
 4889SOL    HW226304   1.414   3.725   2.420  0.0000 -0.2776 -0.4530
 4890SOL     OW26305   3.012   3.712   9.885  0.4565 -0.0404 -0.6207
 4890SOL    HW126306   3.039   3.625   9.914 -2.2846 -0.1939  1.4602
 4890SOL    HW226307   2.950   3.693   9.815  1.5627  1.4951 -2.0258
 4891SOL     OW26308   3.871   1.943   9.090  0.2021  0.2619 -0.1957
 4891SOL    HW126309   3.873   1.891   9.170 -1.2113  1.9843  0.9559
 4891SOL    HW226310   3.943   2.003   9.113 -0.1123  0.3006  0.6925
 4892SOL     OW26311   1.026   2.385  16.267  0.1950 -0.2665  0.5921
 4892SOL    HW126312   1.008   2.324  16.339 -0.8019 -1.6987 -0.8785
 4892SOL    HW226313   1.114   2.420  16.283  0.3204  0.7811 -2.3744
 4893SOL     OW26314   2.313   0.368   7.805 -0.5737  0.3623  0.8678
 4893SOL    HW126315   2.300   0.358   7.899  0.0227  0.1859  0.9328
 4893SOL    HW226316   2.339   0.458   7.786 -1.1648  0.4412  0.4243
 4894SOL     OW26317   2.494   0.882   7.559 -0.0193  0.2345 -0.5494
 4894SOL    HW126318   2.399   0.894   7.566  0.0449 -0.1812  1.0741
 4894SOL    HW226319   2.511   0.788   7.560 -2.3076 -0.2041 -2.0330
 4895SOL     OW26320   3.753   2.623   2.413 -0.2881 -0.1015  0.0409
 4895SOL    HW126321   3.777   2.700   2.361 -0.6886 -0.7188 -1.0673
 4895SOL    HW226322   3.658   2.616   2.406 -0.3678  1.6938 -0.5906
 4896SOL     OW26323   3.632   3.300   5.718 -0.1160 -0.7139 -0.3560
 4896SOL    HW126324   3.671   3.212   5.712 -0.3991 -1.0645  2.5888
 4896SOL    HW226325   3.553   3.292   5.665  1.0764 -0.8448 -2.1055
 4897SOL     OW26326   3.005   1.135  11.208 -0.6115 -0.2042 -0.3631
 4897SOL    HW126327   2.937   1.094  11.262  0.4580  2.3074  2.8796
 4897SOL    HW226328   3.039   1.057  11.163 -1.3178 -1.7086  1.7059
 4898SOL     OW26329   2.205   3.777   1.082  0.2681 -0.1632 -0.2846
 4898SOL    HW126330   2.169   3.712   1.022  0.7162 -0.6593 -0.0139
 4898SOL    HW226331   2.134   3.841   1.078 -0.7309 -1.2375  0.4068
 4899SOL     OW26332   0.696   2.730   7.040 -0.1905  0.2645 -0.4049
 4899SOL    HW126333   0.674   2.731   6.947  0.4995  1.0216 -0.5629
 4899SOL    HW226334   0.678   2.816   7.078  1.2399  0.1662  0.4813
 4900SOL     OW26335   1.517   4.611   5.898  0.2290  0.5170  0.4056
 4900SOL    HW126336   1.464   4.691   5.901 -2.6428 -1.5460  3.9547
 4900SOL    HW226337   1.594   4.652   5.938  0.3087 -1.3919  2.2269
 4901SOL     OW26338   2.940   3.603   4.441 -0.9886  0.1722 -0.2213
 4901SOL    HW126339   2.965   3.513   4.462 -2.1306 -0.2592 -0.6975
 4901SOL    HW226340   2.968   3.639   4.526  0.8781  0.7235 -1.0749
 4902SOL     OW26341   1.633   3.210   3.035  0.4775 -0.4405  0.1370
 4902SOL    HW126342   1.576   3.153   2.984 -1.0050  0.5503  0.6958
 4902SOL    HW226343   1.580   3.227   3.113 -1.2574 -0.2686 -1.0880
 4903SOL     OW26344   0.387   2.224  14.603  0.1604 -0.4364 -0.4965
 4903SOL    HW126345   0.480   2.242  14.595 -0.1600  1.2486 -0.5037
 4903SOL    HW226346   0.352   2.312  14.585 -0.3749 -0.6652 -0.5907
 4904SOL     OW26347   4.151   1.711  13.442 -0.5678 -0.5486 -0.2315
 4904SOL    HW126348   4.156   1.674  13.354 -0.1481 -0.5710 -0.1999
 4904SOL    HW226349   4.058   1.729  13.455  0.4070  2.9825  1.7373
 4905SOL     OW26350   2.682   0.337   8.176  0.8993  0.2626  0.0384
 4905SOL    HW126351   2.689   0.395   8.100  1.3379  1.8363  1.2766
 4905SOL    HW226352   2.742   0.381   8.236  0.5107 -0.5608  1.0252
 4906SOL     OW26353   2.213   2.502   1.457 -0.4557  0.4212 -0.5747
 4906SOL    HW126354   2.160   2.563   1.508 -2.0645 -2.6017  1.3671
 4906SOL    HW226355   2.265   2.554   1.395 -1.8629  0.2005 -1.9285
 4907SOL     OW26356   4.125   0.137   9.766  0.1937 -0.6894 -0.2945
 4907SOL    HW126357   4.133   0.043   9.754  0.1662 -0.7169 -0.1034
 4907SOL    HW226358   4.153   0.182   9.686 -1.3627  0.4009 -0.2228
 4908SOL     OW26359   2.169   0.998   5.964 -0.2566 -0.0385  0.3073
 4908SOL    HW126360   2.146   1.066   5.900 -3.4665 -0.5833  0.8870
 4908SOL    HW226361   2.264   0.996   5.953 -0.5062 -0.3949 -1.8354
 4909SOL     OW26362   0.550   2.415  14.203  0.0533 -0.1022  0.0742
 4909SOL    HW126363   0.629   2.383  14.246 -0.1285 -1.5377 -0.6731
 4909SOL    HW226364   0.485   2.359  14.245  0.1733 -0.0351  0.3472
 4910SOL     OW26365   0.129   0.834   9.788 -0.4782 -0.8992 -0.3093
 4910SOL    HW126366   0.212   0.786   9.785  0.6927  1.0151  1.3572
 4910SOL    HW226367   0.114   0.847   9.694 -1.7676  1.1252  0.1935
 4911SOL     OW26368   2.262   0.676  17.074  0.3464  0.0432 -0.2906
 4911SOL    HW126369   2.245   0.584  17.055 -1.0269  0.6121 -1.8694
 4911SOL    HW226370   2.253   0.690  17.168  2.0313  0.6108 -0.2130
 4912SOL     OW26371   2.191   1.871   6.792  0.6233 -0.1201 -0.0214
 4912SOL    HW126372   2.163   1.960   6.810  0.5257 -0.2371  0.4114
 4912SOL    HW226373   2.284   1.889   6.778  0.7416  0.9542  2.1169
 4913SOL     OW26374   2.644   4.393   4.626 -0.3058  0.8820 -0.0632
 4913SOL    HW126375   2.667   4.367   4.715 -0.4898  0.4420 -0.1433
 4913SOL    HW226376   2.608   4.479   4.646  0.6270  1.0936  0.6824
 4914SOL     OW26377   1.561   1.810   7.682  0.1914 -0.3873 -0.0983
 4914SOL    HW126378   1.565   1.906   7.680  1.2263 -0.4752 -1.6209
 4914SOL    HW226379   1.589   1.789   7.594  1.5925  0.5623  0.1151
 4915SOL     OW26380   3.315   3.768  17.082 -0.7846  0.4554 -0.2490
 4915SOL    HW126381   3.239   3.711  17.070  0.0622 -0.6419 -0.4097
 4915SOL    HW226382   3.275   3.832  17.140  1.0726 -1.6891  3.3991
 4916SOL     OW26383   3.404   2.581   8.227  0.4106  0.3019  0.1675
 4916SOL    HW126384   3.373   2.616   8.310  1.2053  1.2366  0.0584
 4916SOL    HW226385   3.496   2.576   8.252 -0.2752  0.0594  2.6612
 4917SOL     OW26386   2.036   0.192   9.391  0.1851  0.2931  0.2877
 4917SOL    HW126387   2.005   0.230   9.473 -0.7630  2.4443 -1.0674
 4917SOL    HW226388   2.072   0.113   9.431  0.6432  0.4669  0.2236
 4918SOL     OW26389   1.717   0.175  14.449 -0.1811  0.9028 -0.1518
 4918SOL    HW126390   1.768   0.230  14.390 -0.5902  1.7347  0.2714
 4918SOL    HW226391   1.787   0.156  14.511 -1.1073  0.4277  0.7520
 4919SOL     OW26392   1.500   2.636  13.467  0.0772  0.2657  0.0802
 4919SOL    HW126393   1.497   2.566  13.401 -1.1079  0.4496 -0.0661
 4919SOL    HW226394   1.474   2.708  13.410 -0.2862  0.5683  0.6238
 4920SOL     OW26395   3.497   3.682   9.948 -0.0242 -0.8340  0.4026
 4920SOL    HW126396   3.478   3.670  10.041  1.2780  0.2700  0.8207
 4920SOL    HW226397   3.436   3.623   9.904 -2.6062  1.7667  0.4716
 4921SOL     OW26398   2.146   1.209   6.169 -0.0627 -0.1150 -0.3685
 4921SOL    HW126399   2.058   1.190   6.201  0.2804  0.0153  0.6491
 4921SOL    HW226400   2.156   1.151   6.093 -0.5881 -1.0507  0.2751
 4922SOL     OW26401   4.434   1.133  10.021  0.4296 -0.2232  0.2325
 4922SOL    HW126402   4.517   1.085  10.023  1.5129  1.7016  1.1430
 4922SOL    HW226403   4.387   1.072   9.963 -0.3558  1.3734 -0.8278
 4923SOL     OW26404   1.799   0.598  14.223  0.5122  0.8303 -0.2093
 4923SOL    HW126405   1.772   0.580  14.133  0.1718 -2.6270  0.5833
 4923SOL    HW226406   1.729   0.654  14.256  0.2790 -1.1793  2.7250
 4924SOL     OW26407   0.222   2.068  14.783  0.0161  0.2476  0.3092
 4924SOL    HW126408   0.297   2.039  14.835 -0.8872 -3.4259 -0.4288
 4924SOL    HW226409   0.273   2.100  14.709  0.7011  2.0856  1.5779
 4925SOL     OW26410   2.319   3.400   4.421  0.5010 -0.2562 -0.5343
 4925SOL    HW126411   2.363   3.484   4.433  0.2478  0.0135 -1.4725
 4925SOL    HW226412   2.359   3.376   4.337  1.0216 -0.4619 -0.2229
 4926SOL     OW26413   2.749   4.374   3.019  0.4498 -0.4423 -0.5904
 4926SOL    HW126414   2.738   4.380   3.114  2.0269  1.4866 -0.5268
 4926SOL    HW226415   2.800   4.294   3.005 -0.5977 -0.8967 -1.8091
 4927SOL     OW26416   2.415   4.346   8.556 -0.2809 -0.3536  0.1453
 4927SOL    HW126417   2.383   4.410   8.620 -0.5230 -0.7560  0.4288
 4927SOL    HW226418   2.450   4.398   8.484 -1.3950  1.2934  0.7971
 4928SOL     OW26419   3.103   4.630   8.312  0.0018 -0.7236  0.2224
 4928SOL    HW126420   3.169   4.570   8.276  2.2802  1.7750  0.1972
 4928SOL    HW226421   3.090   4.583   8.394  3.4310 -1.3073  0.4357
 4929SOL     OW26422   2.506   0.734   5.755  1.2441 -0.1257  0.0169
 4929SOL    HW126423   2.598   0.755   5.739  0.6076  3.5670  1.3526
 4929SOL    HW226424   2.481   0.713   5.664 -0.6683 -1.7501  0.9171
 4930SOL     OW26425   2.170   4.217  17.570  0.5140 -0.0381  0.2238
 4930SOL    HW126426   2.180   4.247  17.480  1.7345  0.2003  0.4461
 4930SOL    HW226427   2.204   4.129  17.559  0.3003 -0.0641 -0.2281
 4931SOL     OW26428   1.349   3.345   6.375 -0.0360 -0.9020  0.3141
 4931SOL    HW126429   1.283   3.411   6.353  1.2540 -0.1399 -1.2190
 4931SOL    HW226430   1.309   3.266   6.337  0.2029 -1.1194  0.5172
 4932SOL     OW26431   0.190   1.856   5.203  0.4793 -0.3597  0.4266
 4932SOL    HW126432   0.119   1.795   5.227  2.5697 -2.4418  1.2973
 4932SOL    HW226433   0.244   1.830   5.278 -1.8364  0.7758  2.4957
 4933SOL     OW26434   4.680   3.173  17.343  0.0719  0.3992  0.2674
 4933SOL    HW126435   0.033   3.151  17.320  0.7794  2.0708  1.4843
 4933SOL    HW226436   4.644   3.223  17.270  1.0658  0.8384  0.0896
 4934SOL     OW26437   1.816   1.669  15.074  0.3179 -0.1137 -0.1552
 4934SOL    HW126438   1.848   1.635  14.991  0.1957  1.6351 -0.9026
 4934SOL    HW226439   1.760   1.742  15.047  0.8420  0.3444 -0.0093
 4935SOL     OW26440   0.244   3.418   8.919  0.2221  0.3375 -0.1973
 4935SOL    HW126441   0.157   3.387   8.895  0.4857 -0.9338  0.4987
 4935SOL    HW226442   0.240   3.503   8.875 -1.7858 -0.6732 -1.9808
 4936SOL     OW26443   4.042   1.097   4.422  0.5473 -0.1270  0.8189
 4936SOL    HW126444   4.071   1.006   4.409  1.6211  0.8352 -3.4221
 4936SOL    HW226445   4.097   1.117   4.497  2.1818 -1.5910  0.0123
 4937SOL     OW26446   1.501   4.017   6.725 -0.3076  0.1614  0.9932
 4937SOL    HW126447   1.525   4.041   6.815  3.4777  1.3060 -0.3304
 4937SOL    HW226448   1.489   4.101   6.681  0.9345  0.1816  0.6876
 4938SOL     OW26449   0.532   3.235   9.281 -0.0327  0.1880  0.3542
 4938SOL    HW126450   0.583   3.160   9.250  0.1653  0.7477 -0.6741
 4938SOL    HW226451   0.482   3.263   9.204  3.2452  0.2386 -1.7763
 4939SOL     OW26452   0.728   4.710   0.952  0.0818  0.4758 -0.9319
 4939SOL    HW126453   0.815   4.694   0.916  0.8648  2.0005  0.2698
 4939SOL    HW226454   0.699   0.030   0.881  2.1170 -0.2269 -2.3522
 4940SOL     OW26455   3.966   3.053  13.528  0.0667  0.3672  0.6737
 4940SOL    HW126456   3.938   3.105  13.603 -1.1412  1.5539 -0.5939
 4940SOL    HW226457   3.965   3.125  13.465 -0.4993  0.8755  1.2657
 4941SOL     OW26458   2.243   1.171   2.139  0.4806 -0.4355  0.6168
 4941SOL    HW126459   2.313   1.229   2.109 -0.2395 -0.8821 -1.9734
 4941SOL    HW226460   2.169   1.231   2.144 -0.7501 -1.9898  1.0338
 4942SOL     OW26461   3.402   1.560   0.735 -0.1020 -0.0963  0.7244
 4942SOL    HW126462   3.371   1.504   0.663 -0.5159  0.0135  0.8154
 4942SOL    HW226463   3.492   1.589   0.720 -0.4421 -1.5161 -4.1428
 4943SOL     OW26464   1.970   4.109   6.607  0.0123 -0.5522 -0.4759
 4943SOL    HW126465   1.906   4.058   6.657  0.2617  0.7463  1.1249
 4943SOL    HW226466   2.018   4.155   6.675  0.5039  1.3722 -2.1396
 4944SOL     OW26467   3.561   0.028   4.029  0.5116 -0.5637 -0.1091
 4944SOL    HW126468   3.491   0.085   3.997 -1.0463 -0.7763  2.9780
 4944SOL    HW226469   3.601   0.085   4.094  1.7950 -0.3047 -1.1142
 4945SOL     OW26470   3.751   4.724   5.094 -0.1923 -0.3199 -0.2678
 4945SOL    HW126471   3.705   0.053   5.043 -0.6202 -0.6253 -0.2787
 4945SOL    HW226472   3.798   0.035   5.162 -2.0941  0.4036  0.5474
 4946SOL     OW26473   4.505   2.798   7.080  0.0618  0.6905  0.2442
 4946SOL    HW126474   4.509   2.808   6.985 -1.5568  0.1610  0.1313
 4946SOL    HW226475   4.553   2.880   7.095 -1.1402  1.3754  0.3176
 4947SOL     OW26476   2.470   1.398  11.967  1.1268  0.1395  0.0921
 4947SOL    HW126477   2.473   1.337  11.893 -1.3506  0.3123 -0.1576
 4947SOL    HW226478   2.520   1.360  12.039 -0.4040 -0.2758  0.9453
 4948SOL     OW26479   4.260   0.534  13.298 -0.0474 -0.2323 -0.0984
 4948SOL    HW126480   4.240   0.614  13.347 -0.1966 -0.9709  1.0252
 4948SOL    HW226481   4.355   0.547  13.295 -0.1084  0.4357  0.9204
 4949SOL     OW26482   3.326   4.439   9.747 -0.8374 -0.7726  0.2723
 4949SOL    HW126483   3.330   4.380   9.822 -1.4277 -1.3141 -0.1241
 4949SOL    HW226484   3.410   4.484   9.756 -1.5237 -0.0410  2.9803
 4950SOL     OW26485   3.220   2.292   4.942 -0.3131  0.0736  0.0222
 4950SOL    HW126486   3.170   2.363   4.903  0.4901  0.3309 -0.5187
 4950SOL    HW226487   3.301   2.340   4.959 -0.4228  0.1285  0.4045
 4951SOL     OW26488   3.907   4.271   2.756 -0.0249  0.2526 -0.0365
 4951SOL    HW126489   3.925   4.330   2.830 -0.4238 -1.1672  1.1818
 4951SOL    HW226490   3.990   4.223   2.751  0.5409  1.1840  0.3813
 4952SOL     OW26491   0.301   3.374   9.173  0.1893  0.6550  0.2134
 4952SOL    HW126492   0.230   3.333   9.221 -0.8354  0.3445 -1.5564
 4952SOL    HW226493   0.277   3.366   9.081 -1.7559  2.2262  0.5924
 4953SOL     OW26494   3.895   4.182   5.580  0.1188 -0.7336  0.4307
 4953SOL    HW126495   3.973   4.237   5.589 -0.4678 -0.1207  1.7136
 4953SOL    HW226496   3.860   4.189   5.669 -0.7394 -0.2210  0.0611
 4954SOL     OW26497   0.227   1.157   2.042 -0.0600  0.4040  0.4637
 4954SOL    HW126498   0.136   1.143   2.016  0.3013 -0.2711 -0.4260
 4954SOL    HW226499   0.278   1.095   1.990  0.4076  0.8926  0.3418
 4955SOL     OW26500   1.434   4.059   5.140  0.0133  0.1026 -0.2018
 4955SOL    HW126501   1.369   4.099   5.084 -1.6300 -0.4832  1.3012
 4955SOL    HW226502   1.517   4.057   5.092 -2.1765 -0.9286 -3.9498
 4956SOL     OW26503   0.779   2.716   8.182 -0.0808  0.0411 -0.1513
 4956SOL    HW126504   0.866   2.747   8.159 -0.6639  0.5646 -1.6823
 4956SOL    HW226505   0.786   2.627   8.146 -0.9822 -0.7474  1.6229
 4957SOL     OW26506   0.145   4.436   8.808  0.1961  0.1460  0.2310
 4957SOL    HW126507   0.240   4.431   8.806  0.2607  1.2734  0.4421
 4957SOL    HW226508   0.125   4.379   8.734 -1.5174  2.3086 -0.9628
 4958SOL     OW26509   3.338   4.656   8.061 -0.1409 -0.6839 -0.2232
 4958SOL    HW126510   3.419   4.699   8.090 -1.0952  0.6650  0.4134
 4958SOL    HW226511   3.274   4.727   8.056  0.5734 -0.1953 -2.3866
 4959SOL     OW26512   3.251   0.612   6.109 -0.1966 -0.5613  0.4943
 4959SOL    HW126513   3.164   0.584   6.083  0.3494 -0.4746 -1.4418
 4959SOL    HW226514   3.302   0.531   6.110 -1.8653 -1.5839  1.1626
 4960SOL     OW26515   3.783   0.273   1.666 -0.2406  0.1338  0.4193
 4960SOL    HW126516   3.800   0.251   1.574 -0.4256 -0.2519  0.4767
 4960SOL    HW226517   3.869   0.308   1.689  0.4770 -2.0069  1.0799
 4961SOL     OW26518   0.103   1.296   2.622  0.0412  0.2222  0.7910
 4961SOL    HW126519   0.134   1.366   2.680 -2.5032 -0.5785  3.1120
 4961SOL    HW226520   0.070   1.345   2.547 -0.0757  0.0261  0.7141
 4962SOL     OW26521   3.679   0.921   9.627 -0.4054 -0.2641 -0.0762
 4962SOL    HW126522   3.704   0.881   9.711  0.3565  1.7802  0.6761
 4962SOL    HW226523   3.617   0.863   9.583  1.0086 -0.7497 -1.3973
 4963SOL     OW26524   3.390   4.263  15.185 -0.2776 -0.1220 -0.7854
 4963SOL    HW126525   3.405   4.326  15.255 -0.1733 -1.6115  0.5388
 4963SOL    HW226526   3.376   4.325  15.113 -0.6459  0.0766 -0.5415
 4964SOL     OW26527   4.369   0.686   7.511  0.0377 -0.2257 -0.2825
 4964SOL    HW126528   4.414   0.658   7.431 -0.8784  0.8850 -1.1766
 4964SOL    HW226529   4.441   0.713   7.569 -0.0207 -0.4788 -0.0930
 4965SOL     OW26530   0.732   0.084  11.146 -0.5433 -0.2619  0.3243
 4965SOL    HW126531   0.655   0.142  11.150  1.4653  2.4148 -0.0563
 4965SOL    HW226532   0.696   0.004  11.184  0.5955  1.0001  4.0927
 4966SOL     OW26533   2.488   0.524   1.998  0.0522 -0.6310 -0.7940
 4966SOL    HW126534   2.448   0.490   2.079  0.0998 -1.0019 -0.9234
 4966SOL    HW226535   2.550   0.585   2.038 -3.5515  1.6781  1.3189
 4967SOL     OW26536   2.480   0.791  16.961  0.0730  0.1346  0.3931
 4967SOL    HW126537   2.433   0.811  16.881 -1.0104 -1.3425  0.6587
 4967SOL    HW226538   2.416   0.738  17.010 -2.0322  1.0396 -1.4169
 4968SOL     OW26539   4.121   0.862   7.617  0.1447  0.1062 -0.1607
 4968SOL    HW126540   4.056   0.894   7.555 -1.0569  1.2815  1.7012
 4968SOL    HW226541   4.190   0.844   7.553  0.4992 -2.0784  0.8334
 4969SOL     OW26542   2.672   1.422   4.337  0.1767 -0.0914  0.3622
 4969SOL    HW126543   2.685   1.443   4.430  2.2537  0.3850 -0.0217
 4969SOL    HW226544   2.712   1.499   4.296  1.2845  0.2991  2.1615
 4970SOL     OW26545   2.589   3.476   5.128  0.0046 -0.3804  0.2101
 4970SOL    HW126546   2.497   3.450   5.135 -0.2431  0.9685  1.8073
 4970SOL    HW226547   2.584   3.557   5.179  2.8453  1.1274 -1.8643
 4971SOL     OW26548   1.910   2.727   6.636  0.4105 -0.1597  0.0522
 4971SOL    HW126549   1.830   2.681   6.662  0.5558 -1.3740 -1.6365
 4971SOL    HW226550   1.882   2.818   6.642  1.9963  0.1220  2.9024
 4972SOL     OW26551   1.675   2.675   3.504 -0.5405 -0.0556  0.2084
 4972SOL    HW126552   1.756   2.625   3.506 -0.4449  0.1078  0.4720
 4972SOL    HW226553   1.624   2.630   3.437  0.3725  0.6149 -0.9209
 4973SOL     OW26554   1.609   0.177   7.999 -0.4435 -0.5786 -0.0948
 4973SOL    HW126555   1.588   0.088   8.028  1.1247 -0.5521  1.1418
 4973SOL    HW226556   1.598   0.170   7.904 -0.2426  3.9279 -0.4669
 4974SOL     OW26557   2.134   0.917  15.445 -0.2202 -0.5281  0.6976
 4974SOL    HW126558   2.156   0.922  15.352 -0.2482 -1.2227  0.6491
 4974SOL    HW226559   2.118   0.823  15.454 -1.1533 -0.4939 -0.5635
 4975SOL     OW26560   0.717   0.200   7.521  0.6214  0.0854  0.2805
 4975SOL    HW126561   0.700   0.113   7.557 -2.7516 -0.4287 -2.5565
 4975SOL    HW226562   0.738   0.179   7.430 -0.6766 -0.2074  0.0496
 4976SOL     OW26563   4.050   4.202  17.579  0.4097  0.1232 -0.1877
 4976SOL    HW126564   4.061   4.114  17.542  1.4202  0.1174  0.1427
 4976SOL    HW226565   4.104   4.258  17.524  1.3818 -2.4082 -1.8339
 4977SOL     OW26566   0.436   3.051   3.784  0.5336  0.3159  0.1474
 4977SOL    HW126567   0.500   2.990   3.747 -0.4859 -1.6981  1.6845
 4977SOL    HW226568   0.358   3.009   3.748  0.6678 -0.6657  1.0184
 4978SOL     OW26569   3.719   1.544   8.733  0.2725  0.2485  0.2132
 4978SOL    HW126570   3.768   1.623   8.755 -2.5529  2.0293  0.1527
 4978SOL    HW226571   3.629   1.576   8.733  1.0655  2.4791  0.8721
 4979SOL     OW26572   1.119   3.342   8.932 -1.0071  0.3189 -0.0256
 4979SOL    HW126573   1.078   3.401   8.995  0.2495  0.6981  0.4311
 4979SOL    HW226574   1.042   3.310   8.884 -1.0223  0.5458 -0.1528
 4980SOL     OW26575   4.610   0.303  11.873  0.6082 -0.3318  0.1517
 4980SOL    HW126576   4.547   0.283  11.942 -2.0520 -0.2607 -2.2525
 4980SOL    HW226577   4.687   0.304  11.929 -0.2213  2.9063  1.2243
 4981SOL     OW26578   1.271   2.448   5.366 -0.0382 -0.1883  0.2419
 4981SOL    HW126579   1.217   2.507   5.418 -1.9122  0.8196 -2.8466
 4981SOL    HW226580   1.333   2.411   5.429 -1.4522 -1.9279  0.6193
 4982SOL     OW26581   1.690   0.606  12.484 -0.0838 -0.4633 -0.4354
 4982SOL    HW126582   1.782   0.579  12.480 -0.4671 -1.4636 -2.4657
 4982SOL    HW226583   1.682   0.680  12.544  1.0938 -1.3272  0.7765
 4983SOL     OW26584   1.989   0.067   7.796 -0.0421  0.1575 -0.4131
 4983SOL    HW126585   1.967   0.099   7.884  1.0954  2.0490 -0.8119
 4983SOL    HW226586   2.082   0.089   7.803  0.2831 -1.4539  0.2037
 4984SOL     OW26587   0.085   0.543   1.758  0.0219 -0.0906  0.5757
 4984SOL    HW126588   4.733   0.510   1.756  0.4460 -1.1130 -2.3830
 4984SOL    HW226589   0.103   0.567   1.667 -2.7547 -2.0293 -0.4650
 4985SOL     OW26590   2.993   0.567  12.811  0.2828 -0.2888  0.1926
 4985SOL    HW126591   3.019   0.538  12.724 -1.3988  0.7311 -0.6515
 4985SOL    HW226592   2.954   0.651  12.787 -1.1565 -0.7156  1.0076
 4986SOL     OW26593   0.877   1.142  11.721  0.0710 -0.3634  0.4528
 4986SOL    HW126594   0.942   1.072  11.728 -0.7702 -1.1745  0.0676
 4986SOL    HW226595   0.800   1.086  11.710  1.2881 -1.5144 -2.3888
 4987SOL     OW26596   3.484   3.396   3.791  0.4555 -0.3636 -0.2481
 4987SOL    HW126597   3.437   3.319   3.824  1.1946  0.0878  1.8145
 4987SOL    HW226598   3.472   3.392   3.696 -1.7922  0.5886 -0.0097
 4988SOL     OW26599   0.011   2.514   2.894  0.0476 -0.2609  0.4513
 4988SOL    HW126600   4.693   2.558   2.830  1.9915  0.8381 -0.4970
 4988SOL    HW226601   0.100   2.514   2.859 -1.4708 -2.5107 -3.3008
 4989SOL     OW26602   0.168   4.017  17.433  0.2589 -0.6119 -0.6309
 4989SOL    HW126603   0.098   4.050  17.376  0.7065 -0.5877 -1.1723
 4989SOL    HW226604   0.227   4.092  17.436  0.9685 -1.3340  3.1316
 4990SOL     OW26605   1.402   2.467   8.600  0.4757 -0.0602  0.5825
 4990SOL    HW126606   1.394   2.392   8.658  1.1996  1.3330  2.4848
 4990SOL    HW226607   1.334   2.447   8.536  1.0653 -1.2186  0.3305
 4991SOL     OW26608   0.800   4.291   8.392 -0.4703 -0.5546 -0.3371
 4991SOL    HW126609   0.834   4.346   8.463  0.2341 -0.4733 -0.7369
 4991SOL    HW226610   0.768   4.218   8.444 -1.7641  0.4164  0.2327
 4992SOL     OW26611   4.075   1.090   2.649  0.0472 -0.2220  0.3435
 4992SOL    HW126612   3.979   1.080   2.652 -0.0984  1.1521 -0.1145
 4992SOL    HW226613   4.077   1.168   2.595 -1.9630  0.9066  1.8686
 4993SOL     OW26614   4.549   3.340   7.590 -0.1991 -0.2350 -0.6350
 4993SOL    HW126615   4.621   3.278   7.578  0.7518  1.0456 -1.6596
 4993SOL    HW226616   4.553   3.337   7.685 -0.4466  0.5695 -0.5948
 4994SOL     OW26617   2.334   2.873   5.365 -0.4814 -0.1069 -0.2943
 4994SOL    HW126618   2.359   2.876   5.273  1.9184 -3.0492  0.2752
 4994SOL    HW226619   2.413   2.895   5.415 -1.0479  1.6559 -0.1678
 4995SOL     OW26620   0.716   0.249   0.222 -0.7461 -0.1046  0.0733
 4995SOL    HW126621   0.741   0.318   0.284 -0.3136  0.7994 -1.1079
 4995SOL    HW226622   0.801   0.239   0.180  0.0237  0.0655  1.5806
 4996SOL     OW26623   3.129   4.108   5.456  0.0315  0.5445  0.6895
 4996SOL    HW126624   3.155   4.039   5.517 -0.6178  0.1733  0.5507
 4996SOL    HW226625   3.203   4.108   5.395 -1.6986  2.2173 -1.4346
 4997SOL     OW26626   1.352   1.271   5.562 -0.0636 -0.4623  0.0884
 4997SOL    HW126627   1.378   1.340   5.622  1.9999  0.4450 -1.8034
 4997SOL    HW226628   1.293   1.328   5.514 -0.2167 -1.7748 -1.2867
 4998SOL     OW26629   1.132   2.298   4.972  0.3430  0.0465  0.8852
 4998SOL    HW126630   1.185   2.251   4.908  0.4344 -0.2064  1.1462
 4998SOL    HW226631   1.199   2.310   5.041  3.7576 -1.0915 -2.2270
 4999SOL     OW26632   0.350   3.828   8.600 -0.4538 -0.0109 -0.0693
 4999SOL    HW126633   0.308   3.817   8.515  1.1527 -1.1157 -0.7201
 4999SOL    HW226634   0.356   3.923   8.597 -1.0796  0.1048  2.4034
 5000SOL     OW26635   4.391   0.523   0.622  0.1296  0.0730 -0.1192
 5000SOL    HW126636   4.414   0.525   0.715 -2.8720 -0.0191  0.6193
 5000SOL    HW226637   4.345   0.439   0.617  1.7645 -0.9033  1.1019
 5001SOL     OW26638   1.315   1.620   7.504  0.5063  0.4961  0.6807
 5001SOL    HW126639   1.396   1.588   7.466 -0.5613  0.0671 -1.2176
 5001SOL    HW226640   1.293   1.537   7.546  1.2029 -0.7095 -1.3647
 5002SOL     OW26641   3.919   1.071   6.083  0.2314 -0.0406  0.5539
 5002SOL    HW126642   3.865   0.992   6.093 -1.5679  1.2630  1.1902
 5002SOL    HW226643   3.885   1.109   6.002  2.8971  0.3680 -0.3693
 5003SOL     OW26644   3.122   2.573   3.766  0.0751 -1.0994 -0.3211
 5003SOL    HW126645   3.084   2.521   3.695  0.3128 -1.8174  0.0784
 5003SOL    HW226646   3.076   2.540   3.843 -2.3734  1.3884 -0.7166
 5004SOL     OW26647   2.137   4.421   4.124  0.4386  0.2140 -0.1865
 5004SOL    HW126648   2.141   4.421   4.219  2.0298 -0.7894 -0.2512
 5004SOL    HW226649   2.229   4.417   4.098  0.3220  1.6633 -0.8234
 5005SOL     OW26650   3.660   1.708   8.054  0.2433 -0.1082 -0.5160
 5005SOL    HW126651   3.716   1.633   8.034 -1.2394 -1.7270  1.4560
 5005SOL    HW226652   3.637   1.683   8.143 -0.5286  1.3891 -0.2871
 5006SOL     OW26653   4.561   1.053   7.457 -0.0782 -0.9406 -0.5339
 5006SOL    HW126654   4.558   1.050   7.362  2.3099  1.9980 -0.7132
 5006SOL    HW226655   4.501   1.127   7.469 -0.5587 -1.3367 -0.4944
 5007SOL     OW26656   3.253   1.449   9.753  0.1143  0.5371 -0.7348
 5007SOL    HW126657   3.297   1.529   9.724 -0.2400  1.4013  1.0665
 5007SOL    HW226658   3.331   1.393   9.750 -0.7042 -0.4346 -4.0098
 5008SOL     OW26659   3.019   4.228  13.793 -0.6042 -1.1448  0.5205
 5008SOL    HW126660   3.006   4.184  13.877 -3.5439 -0.2417  0.5474
 5008SOL    HW226661   2.969   4.180  13.727 -1.0685  1.8029 -1.2722
 5009SOL     OW26662   2.936   1.813  16.628  0.3586  0.8754 -0.1043
 5009SOL    HW126663   2.902   1.723  16.628  0.9926  0.6318 -1.5755
 5009SOL    HW226664   3.002   1.808  16.697  1.7812 -0.6388 -1.5543
 5010SOL     OW26665   3.047   0.896   9.298 -0.3107 -0.5665  0.1407
 5010SOL    HW126666   2.969   0.938   9.334 -0.4727 -1.3810  0.7330
 5010SOL    HW226667   3.109   0.931   9.361 -0.8431 -1.5425  1.2021
 5011SOL     OW26668   0.367   3.542   5.204  0.2603 -0.2700 -0.2762
 5011SOL    HW126669   0.346   3.636   5.205 -1.3651 -0.6268  0.5065
 5011SOL    HW226670   0.288   3.519   5.254 -0.0764  3.5128  0.9077
 5012SOL     OW26671   1.377   0.496   6.873  0.3420 -0.5232  0.1590
 5012SOL    HW126672   1.360   0.406   6.845  0.2453 -0.2996 -0.4898
 5012SOL    HW226673   1.455   0.520   6.824 -0.4117 -1.3052 -1.4098
 5013SOL     OW26674   2.171   4.483   5.296 -0.1512 -0.0879  0.7432
 5013SOL    HW126675   2.112   4.411   5.276  1.1541 -0.1154 -2.8864
 5013SOL    HW226676   2.234   4.463   5.227 -1.0437  1.9072 -0.6579
 5014SOL     OW26677   4.637   3.422  12.320 -0.2207  0.4134 -0.3970
 5014SOL    HW126678   4.685   3.468  12.389  0.2661  0.4149 -0.7360
 5014SOL    HW226679   4.701   3.413  12.250 -0.3336 -1.5820 -0.2450
 5015SOL     OW26680   3.666   0.938   4.365 -0.0028 -0.5179  0.1466
 5015SOL    HW126681   3.700   1.022   4.395 -1.5342  0.0687  0.2668
 5015SOL    HW226682   3.600   0.924   4.433  3.1759 -0.4530  3.2207
 5016SOL     OW26683   3.295   4.359   4.396  0.1335  0.5733  0.1903
 5016SOL    HW126684   3.374   4.362   4.450 -0.6211  0.4863  1.3151
 5016SOL    HW226685   3.303   4.274   4.354 -1.9016  0.5784 -0.2006
 5017SOL     OW26686   3.612   2.949   2.180  0.6366 -0.2470 -0.0846
 5017SOL    HW126687   3.665   2.870   2.167  0.4871 -0.3219 -0.2265
 5017SOL    HW226688   3.639   2.967   2.270  0.4478  0.8224 -0.2401
 5018SOL     OW26689   1.405   2.824   5.648 -0.4540  0.1520  0.0053
 5018SOL    HW126690   1.333   2.769   5.678  0.3014 -0.9611 -0.2147
 5018SOL    HW226691   1.384   2.810   5.555  2.4713 -0.3084 -0.5818
 5019SOL     OW26692   3.990   3.763   6.462  1.0445  0.1657 -0.2020
 5019SOL    HW126693   3.999   3.826   6.533 -0.7413  1.5258 -1.2061
 5019SOL    HW226694   3.910   3.713   6.480  1.1236  0.3126  0.5255
 5020SOL     OW26695   2.927   1.576   8.699 -0.0004  0.2126  0.3621
 5020SOL    HW126696   2.989   1.503   8.693  1.6193  1.5078  1.5227
 5020SOL    HW226697   2.899   1.566   8.790 -0.8211  0.5787  0.1495
 5021SOL     OW26698   0.057   4.126  14.073  0.2999  0.0855 -0.1032
 5021SOL    HW126699   0.054   4.217  14.102 -1.4824 -0.1528  0.4865
 5021SOL    HW226700   0.079   4.081  14.155 -0.3063  0.6385  0.3567
 5022SOL     OW26701   3.241   2.942   4.143  0.0156 -0.0193 -0.7302
 5022SOL    HW126702   3.276   2.872   4.198 -0.1463  1.9642  1.9210
 5022SOL    HW226703   3.155   2.911   4.117  0.1999  1.2403 -2.8040
 5023SOL     OW26704   2.808   0.117  17.637 -0.0978  0.1144 -0.1955
 5023SOL    HW126705   2.856   0.047  17.592  1.1405  0.4054  0.6779
 5023SOL    HW226706   2.843   0.110  17.726 -1.3810  0.2270  0.3211
 5024SOL     OW26707   4.685   1.376   3.181  0.2570  0.2036  0.8708
 5024SOL    HW126708   4.689   1.308   3.114 -0.9638  1.5146 -0.5384
 5024SOL    HW226709   0.032   1.353   3.218  0.6540 -0.6230 -0.5878
 5025SOL     OW26710   2.459   0.856   5.133 -0.2982 -0.0035 -0.3770
 5025SOL    HW126711   2.371   0.836   5.103 -0.0265 -0.9974 -0.5459
 5025SOL    HW226712   2.450   0.883   5.225  1.2659 -0.2004 -0.1607
 5026SOL     OW26713   1.345   4.182   6.140 -0.1374 -0.2425 -0.1931
 5026SOL    HW126714   1.404   4.228   6.080  0.6663  1.5752  2.0136
 5026SOL    HW226715   1.368   4.092   6.120 -1.5549 -0.9095  1.1757
 5027SOL     OW26716   3.127   3.349   4.844 -0.7418 -0.0422 -0.2373
 5027SOL    HW126717   3.135   3.440   4.870  4.2729  0.0796 -2.1143
 5027SOL    HW226718   3.160   3.301   4.921 -0.3574  0.1327 -0.2923
 5028SOL     OW26719   3.091   3.959   0.920 -0.0743 -0.3555  0.0249
 5028SOL    HW126720   3.042   3.918   0.849 -0.9480  0.2217  0.2887
 5028SOL    HW226721   3.029   3.944   0.992  0.6892 -1.5322  0.4354
 5029SOL     OW26722   1.988   3.109   1.257  0.0974 -0.8460 -0.2262
 5029SOL    HW126723   2.068   3.072   1.296  0.6558 -1.3729 -1.8860
 5029SOL    HW226724   2.016   3.149   1.175 -0.6277  0.7758  0.3325
 5030SOL     OW26725   1.949   1.561   5.724 -0.0677 -0.0741 -0.2894
 5030SOL    HW126726   2.043   1.578   5.733  0.1217 -0.5335 -1.4093
 5030SOL    HW226727   1.948   1.466   5.708 -0.0998 -0.1609  0.2288
 5031SOL     OW26728   3.492   3.616   1.777 -0.3977 -0.0602  0.0142
 5031SOL    HW126729   3.517   3.679   1.709  0.9256 -0.6734 -0.0653
 5031SOL    HW226730   3.443   3.559   1.718 -0.1380 -0.6358  0.3500
 5032SOL     OW26731   4.218   0.259   6.503  0.1482 -0.2915  0.2744
 5032SOL    HW126732   4.206   0.184   6.562 -1.7105  0.5970  1.0521
 5032SOL    HW226733   4.181   0.235   6.418  0.7728 -0.0496 -0.0634
 5033SOL     OW26734   4.620   3.509   9.412 -0.3005  0.4158  0.4310
 5033SOL    HW126735   4.638   3.538   9.502 -0.2023  0.2819  0.4538
 5033SOL    HW226736   4.526   3.492   9.419 -0.0166 -0.2499  2.6026
 5034SOL     OW26737   2.640   2.096   0.962  0.1624 -0.1426  0.2630
 5034SOL    HW126738   2.598   2.106   0.876 -0.5094 -2.9570  0.2580
 5034SOL    HW226739   2.633   2.184   0.998 -0.5168  0.0709 -0.3825
 5035SOL     OW26740   3.078   1.584   8.115  0.1442 -0.2004 -0.8122
 5035SOL    HW126741   3.105   1.640   8.188 -0.3105 -0.5275 -0.3904
 5035SOL    HW226742   2.985   1.571   8.134  0.4914 -0.8164  0.4581
 5036SOL     OW26743   1.952   1.044   4.634 -0.2401  0.4864  0.7712
 5036SOL    HW126744   1.903   0.961   4.639  0.9853 -0.2336  0.9417
 5036SOL    HW226745   1.975   1.065   4.725 -1.8823 -3.4781  2.1038
 5037SOL     OW26746   1.324   0.637   5.550 -0.3454 -0.3923 -0.4964
 5037SOL    HW126747   1.261   0.567   5.530 -0.7298  0.6169 -2.9060
 5037SOL    HW226748   1.390   0.605   5.611 -1.2707 -1.1706  0.0958
 5038SOL     OW26749   3.162   2.241   1.022 -0.0216  0.1641 -0.5327
 5038SOL    HW126750   3.106   2.268   0.950 -1.0655 -0.4927  0.0263
 5038SOL    HW226751   3.219   2.174   0.984 -2.1252 -1.7319 -0.3346
 5039SOL     OW26752   0.279   3.875   9.888  0.3944  0.4993  0.3337
 5039SOL    HW126753   0.240   3.788   9.876  1.0263  0.4568 -1.4619
 5039SOL    HW226754   0.255   3.926   9.810  1.7676  1.3145  0.4547
 5040SOL     OW26755   2.697   0.913   8.640 -1.0444  0.2665  0.3740
 5040SOL    HW126756   2.612   0.948   8.610 -1.8498 -1.0413  1.1402
 5040SOL    HW226757   2.746   0.993   8.654 -0.0957 -0.1519 -0.5406
 5041SOL     OW26758   3.064   3.934   0.020 -0.3074  0.4264 -0.4457
 5041SOL    HW126759   2.991   3.924   0.081 -1.6042  2.2893 -1.6905
 5041SOL    HW226760   3.047   3.861  17.709 -1.3437  0.3354 -0.0256
 5042SOL     OW26761   0.975   1.079   2.538  0.2993  0.1163 -0.4684
 5042SOL    HW126762   0.935   1.115   2.617 -0.9086 -2.7199  0.2005
 5042SOL    HW226763   1.066   1.069   2.568  0.5298 -1.1943 -1.6082
 5043SOL     OW26764   3.592   3.001   5.677  0.1982 -0.2623  0.1888
 5043SOL    HW126765   3.561   3.014   5.587 -0.2673 -0.2010  0.3578
 5043SOL    HW226766   3.676   2.958   5.658  0.3278 -0.0514  0.2800
 5044SOL     OW26767   2.560   1.546   2.080 -0.7513 -0.3468 -0.4689
 5044SOL    HW126768   2.622   1.478   2.056  0.8796  1.3325 -1.0910
 5044SOL    HW226769   2.482   1.532   2.026 -0.9505  1.5750 -0.7138
 5045SOL     OW26770   4.120   3.661   3.780 -0.2354 -0.0290  0.0422
 5045SOL    HW126771   4.195   3.684   3.836 -0.4279  1.1269 -0.1696
 5045SOL    HW226772   4.079   3.588   3.827 -1.8536  0.4164 -0.6756
 5046SOL     OW26773   2.395   0.877   3.085 -0.2736 -0.6802 -0.5597
 5046SOL    HW126774   2.488   0.859   3.075  0.3168  0.5234  2.7069
 5046SOL    HW226775   2.370   0.792   3.122 -0.0909 -0.6906 -0.4593
 5047SOL     OW26776   2.306   2.626   6.858 -0.1323 -0.3648 -0.3390
 5047SOL    HW126777   2.275   2.688   6.791  1.3942  0.8877  0.1281
 5047SOL    HW226778   2.387   2.590   6.822  0.1481 -2.5553  2.5479
 5048SOL     OW26779   3.627   2.952  10.514 -0.5707  0.6118  0.3058
 5048SOL    HW126780   3.546   2.922  10.473  1.9267 -2.5203 -2.4171
 5048SOL    HW226781   3.665   2.973  10.428  1.1034 -0.8633  0.6840
 5049SOL     OW26782   3.482   2.048  14.314  0.0617 -0.0609 -0.3206
 5049SOL    HW126783   3.402   2.065  14.363  0.1055 -0.8397  0.0198
 5049SOL    HW226784   3.524   2.134  14.317  1.3761 -0.7747  1.3995
 5050SOL     OW26785   3.803   0.166   5.530  0.2471  0.0369  0.2185
 5050SOL    HW126786   3.838   0.253   5.512 -0.9036 -0.0342 -2.2535
 5050SOL    HW226787   3.876   0.125   5.578  0.2915 -1.1041 -0.8167
 5051SOL     OW26788   1.768   2.271   9.161  0.0469 -0.0206 -0.1099
 5051SOL    HW126789   1.820   2.342   9.200 -2.8562  2.2720 -0.3843
 5051SOL    HW226790   1.733   2.326   9.091 -2.2016 -0.0728  0.9689
 5052SOL     OW26791   2.145   0.678   5.975 -0.0256 -0.3509  0.0227
 5052SOL    HW126792   2.164   0.591   5.940 -2.7983 -0.3366 -1.4888
 5052SOL    HW226793   2.206   0.687   6.049 -2.0670  0.2179  1.6360
 5053SOL     OW26794   3.138   1.824   4.748  0.1379 -0.5751 -0.4617
 5053SOL    HW126795   3.122   1.776   4.829 -2.3644  2.1952  0.6769
 5053SOL    HW226796   3.197   1.894   4.777  0.0107 -0.8567  0.4549
 5054SOL     OW26797   1.506   2.214   2.439  0.1265 -0.0964  0.4137
 5054SOL    HW126798   1.501   2.228   2.344 -0.6910  1.7836  0.7334
 5054SOL    HW226799   1.465   2.128   2.449  0.4241 -0.2929 -0.0380
 5055SOL     OW26800   0.583   3.809   7.001  0.1482 -0.1903 -0.1857
 5055SOL    HW126801   0.624   3.830   7.085  0.4632  1.0553 -0.6634
 5055SOL    HW226802   0.608   3.885   6.949  5.9862 -2.4840 -0.7368
 5056SOL     OW26803   2.899   3.929  14.749  0.7482  0.0774  0.2124
 5056SOL    HW126804   2.840   3.987  14.702  0.8427  1.2443  1.5367
 5056SOL    HW226805   2.901   3.963  14.839  1.0778 -0.9119  0.5874
 5057SOL     OW26806   0.553   4.526   1.527  0.0577  1.0240 -0.1056
 5057SOL    HW126807   0.602   4.444   1.530 -2.6724 -0.5632  1.2080
 5057SOL    HW226808   0.465   4.491   1.546 -0.1429  1.2531 -0.6153
 5058SOL     OW26809   4.432   4.008   2.072 -0.0644 -0.2810  0.4625
 5058SOL    HW126810   4.496   3.939   2.055  1.3564  1.3044 -0.6194
 5058SOL    HW226811   4.434   4.008   2.168  2.9535  0.6721  0.3976
 5059SOL     OW26812   0.990   0.434   5.337 -0.3309 -0.6593 -0.2904
 5059SOL    HW126813   1.005   0.510   5.280 -1.0792 -2.2193 -2.5816
 5059SOL    HW226814   1.058   0.372   5.312  1.0046  0.2094  1.1805
 5060SOL     OW26815   2.661   1.514   8.024 -0.5409 -0.3019  0.0842
 5060SOL    HW126816   2.576   1.490   8.063 -0.9952 -1.0754 -1.3753
 5060SOL    HW226817   2.673   1.448   7.956 -1.5700 -0.9017  0.4658
 5061SOL     OW26818   4.614   0.691   5.182  0.3866  0.2150  0.2121
 5061SOL    HW126819   4.662   0.620   5.139 -0.8572  0.2273 -1.1993
 5061SOL    HW226820   4.590   0.744   5.105  1.3120  1.6189  0.8841
 5062SOL     OW26821   3.349   4.293   5.767  0.0853  0.1633  0.0809
 5062SOL    HW126822   3.304   4.331   5.692  2.0447 -1.5821 -2.0250
 5062SOL    HW226823   3.398   4.222   5.725  0.5277  0.7457 -0.3880
 5063SOL     OW26824   1.004   0.513   0.822  0.0474 -0.4606 -0.1394
 5063SOL    HW126825   0.998   0.561   0.905 -2.4886  0.8782 -1.1198
 5063SOL    HW226826   1.069   0.567   0.779 -2.2011  2.9849  0.7941
 5064SOL     OW26827   3.781   0.709   0.698  0.5087 -0.6066  0.3054
 5064SOL    HW126828   3.720   0.673   0.634 -0.7970  0.6825  0.8366
 5064SOL    HW226829   3.851   0.651   0.666 -0.0491 -1.7552  1.1805
 5065SOL     OW26830   3.887   2.012  13.342  0.1854 -0.3191 -0.1583
 5065SOL    HW126831   3.926   1.936  13.385 -1.4906 -0.7442  0.5909
 5065SOL    HW226832   3.905   1.997  13.249 -0.4485  0.1183 -0.3503
 5066SOL     OW26833   2.515   0.482   4.312  0.3304  0.3399  0.0602
 5066SOL    HW126834   2.466   0.408   4.276  1.1069  0.0862 -0.4783
 5066SOL    HW226835   2.549   0.515   4.229  0.4444  1.5990  0.5969
 5067SOL     OW26836   0.183   3.365  13.991  0.3385  0.8479  0.0284
 5067SOL    HW126837   0.171   3.333  13.902  2.1964  1.1328 -0.3138
 5067SOL    HW226838   0.094   3.402  13.997  0.9991  2.5316 -0.5669
 5068SOL     OW26839   2.344   2.627   0.781 -0.3285  0.0221  0.6626
 5068SOL    HW126840   2.262   2.592   0.748  0.7184 -0.7846 -1.0644
 5068SOL    HW226841   2.407   2.566   0.743 -0.7257  1.5293 -2.3936
 5069SOL     OW26842   0.898   0.806   9.967  0.3988  0.1237  0.1978
 5069SOL    HW126843   0.952   0.884   9.954  2.4297 -0.9559  2.0968
 5069SOL    HW226844   0.924   0.779  10.055 -0.8912  1.6229  1.0278
 5070SOL     OW26845   3.978   1.515   4.939  0.4411  0.4927 -0.1199
 5070SOL    HW126846   4.008   1.549   5.023  0.9942 -0.5022  0.0737
 5070SOL    HW226847   4.049   1.546   4.883  0.8622 -1.7592 -0.8147
 5071SOL     OW26848   0.213   0.807   2.196  0.3659  0.0372  0.3954
 5071SOL    HW126849   0.153   0.871   2.234  1.2679  1.6036 -0.8457
 5071SOL    HW226850   0.176   0.792   2.109  0.8078 -0.3716  0.2802
 5072SOL     OW26851   2.370   4.463   3.756  0.6415 -0.0084 -0.4172
 5072SOL    HW126852   2.443   4.525   3.753 -0.7495  1.5900 -0.5827
 5072SOL    HW226853   2.291   4.514   3.769  1.1839  0.5824  0.5442
 5073SOL     OW26854   2.938   3.246  16.233  0.1320 -0.1901 -0.0419
 5073SOL    HW126855   2.992   3.320  16.263 -1.6286  1.8326 -1.8521
 5073SOL    HW226856   2.905   3.293  16.157 -2.3749 -2.0028 -0.0671
 5074SOL     OW26857   3.416   1.033   8.499  0.3935 -0.1915 -0.4855
 5074SOL    HW126858   3.322   1.017   8.498  0.6542 -1.9886  4.3749
 5074SOL    HW226859   3.424   1.079   8.582 -2.4987  0.7028 -0.7091
 5075SOL     OW26860   2.904   2.165   2.944 -0.3912 -0.0690 -0.6284
 5075SOL    HW126861   2.847   2.191   2.871  1.7110  1.5230 -1.6931
 5075SOL    HW226862   2.865   2.082   2.974 -0.0978 -0.9831 -2.7459
 5076SOL     OW26863   3.474   4.653   0.030 -0.3961  0.0326 -0.4313
 5076SOL    HW126864   3.411   4.583   0.018 -0.0111 -1.1151  4.0805
 5076SOL    HW226865   3.423   4.732   0.013  0.5815  0.8888  0.5898
 5077SOL     OW26866   0.868   0.789   8.358  0.0824 -0.0496  1.3341
 5077SOL    HW126867   0.843   0.699   8.338 -0.3115  0.4315 -0.3494
 5077SOL    HW226868   0.963   0.789   8.340 -0.0036  1.0403  0.8714
 5078SOL     OW26869   3.595   1.729   4.420 -0.2886  0.0164  1.0970
 5078SOL    HW126870   3.502   1.716   4.440  0.2325 -2.9177  1.6167
 5078SOL    HW226871   3.635   1.672   4.485 -0.9625  0.7356  2.1421
 5079SOL     OW26872   2.292   0.919   1.995  0.4100 -0.4166 -0.0033
 5079SOL    HW126873   2.384   0.945   2.005  0.6999 -2.1021  1.5179
 5079SOL    HW226874   2.249   0.995   2.035  0.3526  0.1456 -1.1285
 5080SOL     OW26875   2.188   3.634   6.843 -0.6173  0.1419  0.2175
 5080SOL    HW126876   2.121   3.699   6.823 -1.0709 -0.8288 -1.4178
 5080SOL    HW226877   2.262   3.689   6.869 -1.9857  1.2246  1.7997
 5081SOL     OW26878   4.570   0.503   3.019 -0.3701  0.2209  0.1545
 5081SOL    HW126879   4.589   0.544   2.934 -1.0495  0.1519 -0.0355
 5081SOL    HW226880   4.483   0.466   3.004 -0.5449  0.1965  1.2552
 5082SOL     OW26881   1.373   4.248   7.354  0.4744  0.3027  0.1076
 5082SOL    HW126882   1.438   4.314   7.331 -0.1012  1.2144  1.1218
 5082SOL    HW226883   1.310   4.308   7.393 -2.3643 -0.1430 -3.7792
 5083SOL     OW26884   3.615   4.166   7.073  0.2549  0.0737 -0.0290
 5083SOL    HW126885   3.706   4.141   7.086  0.2382 -0.0692 -0.1839
 5083SOL    HW226886   3.617   4.236   7.007  2.3082  0.9981  1.0145
 5084SOL     OW26887   2.106   0.545  11.615 -0.2281  0.0443  0.2879
 5084SOL    HW126888   2.105   0.634  11.579  0.7579 -0.6319 -1.4179
 5084SOL    HW226889   2.194   0.521  11.587 -0.0692 -0.1641  0.9848
 5085SOL     OW26890   4.188   0.333   5.774  0.4941  0.4368 -0.5613
 5085SOL    HW126891   4.267   0.359   5.726  0.7500  1.9554  0.6854
 5085SOL    HW226892   4.122   0.355   5.709  0.7362  1.7047 -0.3765
 5086SOL     OW26893   3.870   2.096  11.689  0.1402 -0.2609  0.2443
 5086SOL    HW126894   3.912   2.171  11.647 -3.1359 -0.0620 -2.6347
 5086SOL    HW226895   3.790   2.144  11.707  0.1651 -0.7994  1.8367
 5087SOL     OW26896   4.600   1.538   6.227 -0.1290  0.2442  0.3970
 5087SOL    HW126897   4.694   1.531   6.215 -0.1398  2.1708 -0.8454
 5087SOL    HW226898   4.578   1.445   6.229 -0.8804  0.4151  0.1324
 5088SOL     OW26899   3.469   3.605   7.714  0.1259 -0.5335  0.3692
 5088SOL    HW126900   3.379   3.600   7.683  0.0008 -2.6596  1.0249
 5088SOL    HW226901   3.503   3.515   7.718  0.2993 -0.5639 -2.1014
 5089SOL     OW26902   1.863   0.114   7.440 -0.0703 -0.2339  0.2240
 5089SOL    HW126903   1.908   0.030   7.451 -0.5294 -0.7867 -2.1862
 5089SOL    HW226904   1.885   0.135   7.349  0.9441 -0.8565  0.3281
 5090SOL     OW26905   3.914   1.788  13.515 -0.0234 -0.5343  0.4813
 5090SOL    HW126906   3.917   1.834  13.599  0.7110 -0.0772  0.2029
 5090SOL    HW226907   3.819   1.788  13.507  0.0252  1.6246 -0.0210
 5091SOL     OW26908   2.229   4.466   0.620 -0.3430 -0.1056 -0.7499
 5091SOL    HW126909   2.282   4.497   0.693 -1.7447 -0.6124  0.5054
 5091SOL    HW226910   2.178   4.396   0.662 -0.2483  0.4872  0.3625
 5092SOL     OW26911   1.464   4.305  15.239  0.2591  0.1521  0.0747
 5092SOL    HW126912   1.448   4.217  15.204 -1.4752  0.9145 -1.0440
 5092SOL    HW226913   1.559   4.314  15.245  0.3800 -1.1936  0.2142
 5093SOL     OW26914   0.896   4.148  12.080 -0.0062  0.5300 -0.3191
 5093SOL    HW126915   0.905   4.053  12.085 -0.4041  0.4804 -0.5395
 5093SOL    HW226916   0.894   4.148  11.985 -1.2145  0.3068 -0.3005
 5094SOL     OW26917   0.017   2.793   5.256  0.3591 -0.3349 -0.5903
 5094SOL    HW126918   0.032   2.801   5.161 -1.5378 -0.1512 -0.8726
 5094SOL    HW226919   0.091   2.736   5.281  0.1626  0.6682  2.2088
 5095SOL     OW26920   0.759   4.696   5.931  0.6311  0.1319 -0.0932
 5095SOL    HW126921   0.719   0.025   5.988 -1.7187 -2.0082  0.7489
 5095SOL    HW226922   0.765   0.013   5.853  1.0099 -1.4379 -1.1516
 5096SOL     OW26923   3.408   0.140  16.747 -0.0102 -0.8018 -0.1080
 5096SOL    HW126924   3.317   0.158  16.771 -0.0495  0.2346 -1.0468
 5096SOL    HW226925   3.400   0.079  16.674 -0.6823 -0.9929  0.1221
 5097SOL     OW26926   2.598   1.753   9.672 -0.6194  0.0977  0.5185
 5097SOL    HW126927   2.607   1.658   9.668  3.1265  0.3899  1.7376
 5097SOL    HW226928   2.682   1.782   9.710 -1.3824  0.5781  1.8418
 5098SOL     OW26929   2.638   0.614   4.121  0.2842 -0.5341 -0.3803
 5098SOL    HW126930   2.554   0.642   4.084 -0.5665 -2.2296  0.2882
 5098SOL    HW226931   2.698   0.624   4.047  0.3575  2.5841  0.0790
 5099SOL     OW26932   0.611   0.179   8.789 -0.3496  0.3682 -0.3490
 5099SOL    HW126933   0.567   0.137   8.715 -0.4143 -2.2879  1.2022
 5099SOL    HW226934   0.531   0.191   8.841  1.0932 -0.9119  2.1670
 5100SOL     OW26935   2.419   0.239  17.557 -0.2383 -0.4299  0.2162
 5100SOL    HW126936   2.443   0.151  17.587 -3.6244 -2.3703 -2.7113
 5100SOL    HW226937   2.392   0.219  17.468  0.1318  0.0129  0.0038
 5101SOL     OW26938   0.675   0.900   8.150 -0.4044 -0.0419  0.1688
 5101SOL    HW126939   0.730   0.862   8.219  0.7015 -0.2621 -0.8370
 5101SOL    HW226940   0.617   0.954   8.203 -2.5572 -0.1198 -2.1257
 5102SOL     OW26941   4.198   3.294   6.518  0.3162 -0.3901 -0.1999
 5102SOL    HW126942   4.287   3.272   6.491  0.0512 -0.3160 -1.1136
 5102SOL    HW226943   4.203   3.388   6.497 -2.3531 -0.0733  0.6220
 5103SOL     OW26944   3.550   4.208   6.504  0.5365  0.0763 -1.0003
 5103SOL    HW126945   3.504   4.135   6.545 -0.0665  0.5822 -0.7826
 5103SOL    HW226946   3.599   4.173   6.429  1.7281  0.3933 -0.3730
 5104SOL     OW26947   0.019   3.461   3.498  0.3252  0.2336 -0.0882
 5104SOL    HW126948   0.063   3.541   3.526 -0.3299 -0.1574  2.0872
 5104SOL    HW226949   0.045   3.401   3.568 -1.8332 -1.4450 -0.7430
 5105SOL     OW26950   4.734   4.166   7.147  0.3829 -0.1340  0.4573
 5105SOL    HW126951   0.048   4.089   7.168  0.8894  0.1852  0.3754
 5105SOL    HW226952   0.036   4.231   7.205 -0.2209 -0.1548  0.8921
 5106SOL     OW26953   4.506   1.243   6.231  0.1751  0.0742 -0.1298
 5106SOL    HW126954   4.422   1.218   6.268 -0.7106  1.9634 -0.8731
 5106SOL    HW226955   4.540   1.165   6.188 -2.8548 -0.3012 -1.8085
 5107SOL     OW26956   4.022   2.207   7.427  0.6118 -0.0025 -0.3519
 5107SOL    HW126957   3.930   2.194   7.405  1.0223  0.3371 -2.2430
 5107SOL    HW226958   4.031   2.301   7.412 -0.4427 -0.0232 -1.0962
 5108SOL     OW26959   0.816   2.113  13.899 -0.0974 -1.0331  0.6148
 5108SOL    HW126960   0.769   2.079  13.823 -1.6983 -0.2097  1.2402
 5108SOL    HW226961   0.838   2.199  13.862  1.7944 -0.0873  3.9233
 5109SOL     OW26962   0.505   3.363   5.357 -0.1221 -0.4991 -0.2996
 5109SOL    HW126963   0.583   3.410   5.326 -1.1820  1.1731 -0.4133
 5109SOL    HW226964   0.447   3.380   5.282 -1.4812 -1.4949  0.5376
 5110SOL     OW26965   3.325   3.254   5.050  0.1179 -0.3168  0.7274
 5110SOL    HW126966   3.308   3.317   5.120 -1.0577  0.2574 -0.0835
 5110SOL    HW226967   3.335   3.177   5.106  1.3686  0.4315  1.5378
 5111SOL     OW26968   2.028   1.840  14.014  0.7357  0.0119 -0.3719
 5111SOL    HW126969   2.014   1.850  13.920  0.7874  0.0757 -0.3729
 5111SOL    HW226970   1.974   1.915  14.041  0.6315  0.0728 -0.7492
 5112SOL     OW26971   2.115   3.393   8.429 -0.0926 -0.0299 -0.1917
 5112SOL    HW126972   2.198   3.358   8.397 -0.6834 -1.5198 -0.1143
 5112SOL    HW226973   2.134   3.419   8.519  1.7130 -0.7905 -0.3464
 5113SOL     OW26974   1.712   0.382   7.060  0.3119 -0.9520  0.2987
 5113SOL    HW126975   1.782   0.348   7.004 -1.3875 -0.7709 -1.9560
 5113SOL    HW226976   1.753   0.464   7.087 -2.1184 -0.3010  1.9987
 5114SOL     OW26977   3.526   0.537   3.228 -0.2060 -0.4922  0.4427
 5114SOL    HW126978   3.536   0.510   3.137 -0.9310 -0.1855  0.2697
 5114SOL    HW226979   3.616   0.546   3.259  0.0415  0.4468 -0.5782
 5115SOL     OW26980   3.851   0.770   6.051  0.0827 -0.0336  0.3561
 5115SOL    HW126981   3.781   0.705   6.052 -0.4110  0.5163  1.6107
 5115SOL    HW226982   3.856   0.797   5.959 -1.6340  2.0304  0.8583
 5116SOL     OW26983   0.372   1.821   5.407  0.7434 -0.3970 -0.1743
 5116SOL    HW126984   0.379   1.728   5.430 -0.5290 -0.4694 -0.0389
 5116SOL    HW226985   0.448   1.831   5.350 -0.2686 -1.2473 -1.6848
 5117SOL     OW26986   4.731   3.127   5.940  0.5010 -0.3732  0.6421
 5117SOL    HW126987   4.701   3.128   5.849  0.5422 -1.2071  0.6152
 5117SOL    HW226988   0.089   3.115   5.933  0.4466 -0.0046 -0.7905
 5118SOL     OW26989   4.020   3.878  14.630 -0.1655  0.0449  0.3828
 5118SOL    HW126990   3.933   3.852  14.662  0.0738 -0.2057  0.8345
 5118SOL    HW226991   4.053   3.928  14.704 -0.4465  1.8568 -0.7383
 5119SOL     OW26992   1.071   1.255   5.782 -0.1774  0.7500  0.3843
 5119SOL    HW126993   1.065   1.350   5.793  0.0371  0.8649 -0.5293
 5119SOL    HW226994   0.990   1.231   5.826 -0.6902  1.4988 -0.1580
 5120SOL     OW26995   3.206   1.997   8.127  0.0279  0.3751  0.3641
 5120SOL    HW126996   3.241   1.931   8.067  0.4470 -0.5996  1.6747
 5120SOL    HW226997   3.276   2.061   8.138  0.3982 -0.0044  0.1693
 5121SOL     OW26998   4.153   4.271   4.638 -0.2105  0.0214  0.2544
 5121SOL    HW126999   4.157   4.181   4.607 -2.3712 -0.2443  0.7750
 5121SOL    HW227000   4.083   4.264   4.703 -2.0805 -3.1642 -2.1286
 5122SOL     OW27001   3.428   2.034   4.522  0.0283 -0.3746  0.0592
 5122SOL    HW127002   3.370   1.974   4.476 -0.5919 -0.6718  1.2378
 5122SOL    HW227003   3.476   2.081   4.453 -0.3389  1.1069  0.8013
 5123SOL     OW27004   4.211   0.234   3.499 -0.1844  0.5384 -0.4318
 5123SOL    HW127005   4.200   0.171   3.570  0.6851  0.8204 -0.0396
 5123SOL    HW227006   4.171   0.186   3.427  0.5063 -1.0867  0.2665
 5124SOL     OW27007   0.456   3.176   8.013 -0.4131  0.2185 -0.7749
 5124SOL    HW127008   0.495   3.110   7.956  1.4556  1.1194 -0.5447
 5124SOL    HW227009   0.485   3.141   8.097 -1.3427  1.8705  0.2295
 5125SOL     OW27010   2.760   1.309   8.656  0.2852 -0.2605 -0.2057
 5125SOL    HW127011   2.722   1.270   8.735  1.5172  1.6031  1.2984
 5125SOL    HW227012   2.840   1.258   8.662 -0.1650 -1.1345 -1.5922
 5126SOL     OW27013   2.424   1.989  10.816  0.1683 -0.3547  0.0903
 5126SOL    HW127014   2.379   2.021  10.894  1.2582  2.1723 -0.3032
 5126SOL    HW227015   2.350   1.949  10.771  0.8828 -2.9980  1.2844
 5127SOL     OW27016   3.784   2.256  13.715  0.2273 -0.2623 -0.2579
 5127SOL    HW127017   3.749   2.183  13.665 -0.6337 -0.0786  0.0714
 5127SOL    HW227018   3.747   2.326  13.661  0.3805 -0.4684 -0.6267
 5128SOL     OW27019   3.329   2.182   6.133 -0.5388 -0.3816  0.3556
 5128SOL    HW127020   3.308   2.151   6.045  1.2489  0.0255 -0.2055
 5128SOL    HW227021   3.315   2.276   6.130  2.4498  0.0060 -0.8986
 5129SOL     OW27022   3.866   1.713   0.104  0.0258  0.3902  0.1488
 5129SOL    HW127023   3.817   1.795   0.108  1.6172  1.3280  0.2267
 5129SOL    HW227024   3.861   1.704   0.199 -0.2798 -1.3313 -0.0210
 5130SOL     OW27025   3.801   3.260   3.300  0.5187  0.3525 -0.1739
 5130SOL    HW127026   3.764   3.183   3.343  0.3448 -0.6298 -2.0898
 5130SOL    HW227027   3.881   3.225   3.261  0.0745 -1.9959  1.0086
 5131SOL     OW27028   0.113   0.284   7.061  0.5083  0.4743  0.2712
 5131SOL    HW127029   0.027   0.289   7.100  0.2994 -1.3655  0.0234
 5131SOL    HW227030   0.176   0.312   7.128  2.4675 -4.4663  0.4802
 5132SOL     OW27031   2.791   1.319  11.293  0.1761  0.2850  0.2920
 5132SOL    HW127032   2.867   1.311  11.236  0.1476 -0.2179  0.3260
 5132SOL    HW227033   2.815   1.395  11.347 -1.8169 -0.4546  2.2389
 5133SOL     OW27034   2.179   0.185   5.892  0.3054  0.4234 -0.1537
 5133SOL    HW127035   2.205   0.097   5.919  2.2498  0.6405 -1.2934
 5133SOL    HW227036   2.174   0.181   5.796  0.4512  0.1784 -0.1514
 5134SOL     OW27037   4.522   2.792   6.032  0.1480 -0.0161  0.1658
 5134SOL    HW127038   4.551   2.830   6.115 -2.3953  3.9443 -0.7321
 5134SOL    HW227039   4.577   2.822   5.959 -2.8954 -0.8776 -2.5226
 5135SOL     OW27040   4.542   1.595   4.171 -0.3313  0.6517  0.1242
 5135SOL    HW127041   4.471   1.612   4.108  1.6674  1.6773 -1.8713
 5135SOL    HW227042   4.552   1.501   4.156  0.8025  0.9149 -0.8174
 5136SOL     OW27043   3.713   0.264   9.020  0.3493 -0.3383 -0.1239
 5136SOL    HW127044   3.705   0.266   8.925 -0.2159  1.9140 -0.0471
 5136SOL    HW227045   3.651   0.192   9.029  0.0922 -0.2456 -1.1640
 5137SOL     OW27046   0.965   2.099   5.099 -0.6772 -0.2630 -0.4535
 5137SOL    HW127047   0.967   2.125   5.007 -1.3876  0.8047 -0.1635
 5137SOL    HW227048   0.982   2.008   5.075 -0.9290 -0.2914 -0.5227
 5138SOL     OW27049   1.589   2.986   4.653  0.0459  0.5375  0.4961
 5138SOL    HW127050   1.606   3.041   4.576 -0.6038  0.6627  0.4453
 5138SOL    HW227051   1.640   3.029   4.722  0.2355  0.1107  0.6206
 5139SOL     OW27052   2.626   1.728   5.802  0.0398 -0.4137 -0.4518
 5139SOL    HW127053   2.708   1.714   5.851 -0.7401 -3.5626 -0.0598
 5139SOL    HW227054   2.670   1.752   5.721  3.7505 -0.1211  1.6261
 5140SOL     OW27055   3.038   0.988  15.370 -0.1529 -0.5139  0.4523
 5140SOL    HW127056   3.018   0.908  15.419  0.5887 -0.7666  0.3494
 5140SOL    HW227057   2.990   0.972  15.288  1.0674 -2.3728  0.0780
 5141SOL     OW27058   1.485   1.861   2.273 -0.1463 -0.0319  0.0690
 5141SOL    HW127059   1.421   1.911   2.324 -0.9521  0.4825 -1.4340
 5141SOL    HW227060   1.563   1.902   2.310  0.3246 -1.0127  0.1703
 5142SOL     OW27061   3.019   0.678   8.757 -0.2789  0.0652  0.1862
 5142SOL    HW127062   3.015   0.583   8.769 -0.3386  0.2014  1.2059
 5142SOL    HW227063   2.962   0.711   8.826 -0.9898  0.1107 -0.4165
 5143SOL     OW27064   3.520   1.949   8.851 -0.4792 -0.2285 -0.0865
 5143SOL    HW127065   3.475   1.909   8.925  1.2229 -0.3496  0.8810
 5143SOL    HW227066   3.452   1.959   8.784 -1.7060  1.8342  1.4705
 5144SOL     OW27067   2.053   2.653   7.343  0.0969  0.4813  0.4722
 5144SOL    HW127068   1.993   2.579   7.348  0.2286  0.4854  2.0029
 5144SOL    HW227069   2.075   2.642   7.251 -0.5333  0.6549  0.2984
 5145SOL     OW27070   2.487   3.269   4.708 -0.0517 -0.3812 -0.2813
 5145SOL    HW127071   2.578   3.269   4.739 -0.2531  0.4489  0.2949
 5145SOL    HW227072   2.458   3.194   4.761 -0.8866  0.4333  0.4107
 5146SOL     OW27073   4.687   3.304  15.664 -0.0040  0.2767 -0.1020
 5146SOL    HW127074   4.597   3.336  15.657 -0.5453 -1.3447 -0.4804
 5146SOL    HW227075   4.688   3.242  15.591  0.9958  0.6502 -0.4093
 5147SOL     OW27076   0.010   1.398   1.336 -0.1002 -0.2707  0.3234
 5147SOL    HW127077   0.007   1.322   1.278 -0.0124 -1.2461  1.5972
 5147SOL    HW227078   0.100   1.420   1.310  0.2453 -1.3466  0.6091
 5148SOL     OW27079   2.397   4.533   8.985 -0.0372 -0.0704 -0.3305
 5148SOL    HW127080   2.463   4.601   9.004  0.7968 -0.0908 -3.0695
 5148SOL    HW227081   2.325   4.582   8.945  0.7668  1.8854  0.6170
 5149SOL     OW27082   1.631   1.359  10.012  0.4828 -0.4608 -0.0203
 5149SOL    HW127083   1.674   1.315  10.084 -1.2643 -0.9726  0.7248
 5149SOL    HW227084   1.614   1.438  10.063  1.2285 -0.0957 -0.3335
 5150SOL     OW27085   1.304   2.718   2.384 -0.6307 -0.4292 -0.1787
 5150SOL    HW127086   1.272   2.796   2.339  2.4298  1.8902  1.6840
 5150SOL    HW227087   1.363   2.679   2.320  0.7048  1.3396 -0.0274
 5151SOL     OW27088   4.124   2.198   5.811  0.3766  0.1995 -0.9148
 5151SOL    HW127089   4.199   2.208   5.869  0.7343  0.9582 -1.5030
 5151SOL    HW227090   4.082   2.128   5.861  2.6864  0.0820  0.8502
 5152SOL     OW27091   2.044   0.738   7.814 -0.3671  0.3787  0.1534
 5152SOL    HW127092   2.090   0.675   7.759  0.5329  1.3261 -0.1785
 5152SOL    HW227093   2.109   0.749   7.883 -0.6177 -3.2822  0.9469
 5153SOL     OW27094   3.273   0.919   9.048 -0.3727  0.3877 -0.0839
 5153SOL    HW127095   3.357   0.963   9.054  1.6217 -3.7899  3.0935
 5153SOL    HW227096   3.272   0.860   9.124 -1.3883 -0.7077 -0.9320
 5154SOL     OW27097   2.500   0.813   8.309 -0.1151 -0.5121 -0.0967
 5154SOL    HW127098   2.440   0.741   8.326  0.7059 -0.8534  1.3183
 5154SOL    HW227099   2.533   0.795   8.221  2.4513  0.3566  0.7105
 5155SOL     OW27100   0.065   2.815  12.726  0.7193  0.3506 -0.1371
 5155SOL    HW127101   0.018   2.896  12.708 -0.7579  0.1296  2.7468
 5155SOL    HW227102   0.148   2.855  12.753  1.0385 -1.3108  1.2898
 5156SOL     OW27103   2.721   4.170   7.990  0.0349  0.2182 -0.3272
 5156SOL    HW127104   2.685   4.105   8.051  0.3945  0.4773  0.1656
 5156SOL    HW227105   2.646   4.223   7.965  0.7487  1.7365  0.7349
 5157SOL     OW27106   2.363   0.563   8.946 -0.1135 -0.2781  0.4902
 5157SOL    HW127107   2.458   0.562   8.934 -0.6207  0.2820 -3.7381
 5157SOL    HW227108   2.352   0.654   8.972 -0.0743 -0.0599 -0.2441
 5158SOL     OW27109   1.445   3.264  11.106  0.7121 -0.0592  0.0496
 5158SOL    HW127110   1.410   3.352  11.091  0.1199 -0.1268  1.0882
 5158SOL    HW227111   1.510   3.262  11.035  1.7665  0.5639  0.9856
 5159SOL     OW27112   2.294   1.079   6.864 -0.0570 -0.2401 -0.9163
 5159SOL    HW127113   2.382   1.089   6.899  0.0699  1.8139 -1.7952
 5159SOL    HW227114   2.253   1.018   6.925  1.2304  0.3427  0.5244
 5160SOL     OW27115   0.671   0.047   8.429  0.0280 -0.1034  0.0378
 5160SOL    HW127116   0.701   0.071   8.341 -1.1434  1.0882 -0.0269
 5160SOL    HW227117   0.751   0.054   8.482  0.8566  1.7311 -1.4305
 5161SOL     OW27118   3.955   2.192   2.551 -0.4584 -0.0098 -1.0013
 5161SOL    HW127119   3.869   2.223   2.579 -0.5695 -1.7634  0.6938
 5161SOL    HW227120   3.932   2.101   2.531 -0.3049  0.2090 -2.1351
 5162SOL     OW27121   0.287   0.320   9.219  0.5520 -0.8904 -0.0909
 5162SOL    HW127122   0.310   0.247   9.277 -1.5668 -2.1865 -0.8539
 5162SOL    HW227123   0.218   0.288   9.161 -0.9837  1.3993  0.4999
 5163SOL     OW27124   0.375   4.018   1.774 -0.5652 -0.4279  0.4400
 5163SOL    HW127125   0.306   3.953   1.764  0.5193 -1.6532  1.0077
 5163SOL    HW227126   0.397   4.036   1.682 -2.8995 -0.2128 -0.0779
 5164SOL     OW27127   2.959   0.427   4.583  0.2492  0.1827  0.1390
 5164SOL    HW127128   2.969   0.474   4.500 -2.2659  1.3520  0.5187
 5164SOL    HW227129   3.051   0.419   4.609 -0.3210 -1.0215  1.8176
 5165SOL     OW27130   0.852   3.499   2.443  0.0341 -0.7865 -0.1407
 5165SOL    HW127131   0.871   3.500   2.536  2.7863  0.0259 -0.7222
 5165SOL    HW227132   0.941   3.500   2.407 -1.3479 -0.1751 -3.5894
 5166SOL     OW27133   0.881   4.383   1.257 -0.2114 -0.0871  0.5385
 5166SOL    HW127134   0.937   4.341   1.321  1.5134  1.5165  0.0772
 5166SOL    HW227135   0.931   4.385   1.175 -1.9964  1.5082 -0.5261
 5167SOL     OW27136   1.504   2.641   3.255 -0.7574 -0.0290  0.4275
 5167SOL    HW127137   1.471   2.559   3.292  0.6019 -0.2400  1.1667
 5167SOL    HW227138   1.491   2.636   3.161 -1.7944 -0.4261  0.5997
 5168SOL     OW27139   3.743   0.398   7.207 -0.5049 -0.0541 -0.0185
 5168SOL    HW127140   3.754   0.338   7.281 -2.2129 -0.9939 -0.5098
 5168SOL    HW227141   3.661   0.373   7.165 -0.1424 -0.7893 -0.3033
 5169SOL     OW27142   4.661   1.190   1.984  0.1927 -0.0991 -0.3050
 5169SOL    HW127143   4.599   1.124   2.014 -1.9835  1.2212 -1.8650
 5169SOL    HW227144   4.614   1.273   1.988 -0.1971 -0.2698 -1.3143
 5170SOL     OW27145   4.096   3.922  14.333  0.2591  0.1404  0.3697
 5170SOL    HW127146   4.060   3.917  14.422  1.1595 -1.0484  0.6792
 5170SOL    HW227147   4.190   3.928  14.353  0.1707 -2.3854  1.4971
 5171SOL     OW27148   4.508   4.608   6.456  0.4679  0.2699 -0.0875
 5171SOL    HW127149   4.512   4.516   6.430 -2.3041  0.2702 -0.4892
 5171SOL    HW227150   4.430   4.640   6.411 -1.5516 -0.8790  2.6216
 5172SOL     OW27151   2.551   0.748  12.832 -0.2115 -0.3540  0.2282
 5172SOL    HW127152   2.627   0.721  12.884 -0.7684  0.7641  1.5958
 5172SOL    HW227153   2.548   0.666  12.782  1.5767 -0.9196  1.0538
 5173SOL     OW27154   3.121   0.812  14.451  0.9333  0.3954 -0.6066
 5173SOL    HW127155   3.061   0.773  14.514 -0.1857  1.4851 -1.0098
 5173SOL    HW227156   3.209   0.810  14.488 -0.2223 -0.3488  2.0335
 5174SOL     OW27157   1.104   0.601  15.800  0.2016  0.1446 -0.1879
 5174SOL    HW127158   1.060   0.643  15.874 -0.4617 -1.8860  0.5788
 5174SOL    HW227159   1.171   0.542  15.836 -1.0887 -0.9335  0.4457
 5175SOL     OW27160   4.302   1.012   5.961  0.1081 -0.1174  0.5579
 5175SOL    HW127161   4.294   0.918   5.943 -2.1972  0.3548 -0.7472
 5175SOL    HW227162   4.255   1.016   6.044  0.6079  0.2246  0.8285
 5176SOL     OW27163   2.818   0.722   5.361 -0.0426 -0.6284  0.0803
 5176SOL    HW127164   2.797   0.745   5.451 -1.5532 -1.2617 -0.1212
 5176SOL    HW227165   2.741   0.673   5.333 -0.9500  1.0002 -0.2743
 5177SOL     OW27166   1.570   2.913   3.584  0.1312 -0.0735  0.3485
 5177SOL    HW127167   1.608   2.826   3.568 -1.2854  0.0286 -3.5761
 5177SOL    HW227168   1.590   2.954   3.500  0.9700 -0.0482  0.5700
 5178SOL     OW27169   4.562   2.987   3.428 -0.1306 -0.1339 -0.1755
 5178SOL    HW127170   4.496   2.991   3.360  0.5598 -0.1485 -0.8416
 5178SOL    HW227171   4.501   3.016   3.496  1.5754  1.8806  0.4727
 5179SOL     OW27172   4.464   3.974   4.215  0.6779  0.1589 -0.5407
 5179SOL    HW127173   4.478   3.974   4.120 -0.0587  0.8118 -0.6491
 5179SOL    HW227174   4.536   4.030   4.244  0.4217  0.0319  0.3466
 5180SOL     OW27175   3.820   0.948   2.365  0.0848 -0.4217 -0.3063
 5180SOL    HW127176   3.821   0.896   2.284  0.4146 -3.0976  1.4195
 5180SOL    HW227177   3.837   1.033   2.324 -0.9094  0.1495  0.4573
 5181SOL     OW27178   4.683   4.181  10.736 -0.6029  0.4329  0.2054
 5181SOL    HW127179   4.617   4.194  10.804 -0.8857 -0.1122  0.0391
 5181SOL    HW227180   4.634   4.144  10.662  1.7020 -0.7338 -0.7156
 5182SOL     OW27181   0.486   0.860   5.399  0.6975 -0.0963  0.9412
 5182SOL    HW127182   0.397   0.863   5.434 -0.2110 -1.0316 -1.2735
 5182SOL    HW227183   0.505   0.952   5.386  0.2454 -0.3165 -1.2318
 5183SOL     OW27184   4.098   3.954  14.882 -0.7370  0.2695  0.0287
 5183SOL    HW127185   4.049   3.893  14.937  1.1662 -1.2517  0.0273
 5183SOL    HW227186   4.139   4.010  14.948 -2.6853  0.9238  0.7009
 5184SOL     OW27187   4.736   0.531   9.763  0.3189  0.3227 -0.4611
 5184SOL    HW127188   4.650   0.495   9.743  0.1878 -0.2613  1.1356
 5184SOL    HW227189   4.714   0.614   9.804  1.4773 -0.0548  0.9356
 5185SOL     OW27190   0.690   4.319   2.338  0.5405  0.6919  0.2360
 5185SOL    HW127191   0.656   4.408   2.334 -1.7137 -0.1456  0.3707
 5185SOL    HW227192   0.777   4.331   2.301 -0.0645  0.0433 -1.4056
 5186SOL     OW27193   2.719   1.579   3.943 -0.1132  0.0485  0.1790
 5186SOL    HW127194   2.763   1.507   3.899 -1.9481 -0.1246 -1.3674
 5186SOL    HW227195   2.796   1.633   3.959  0.4645 -1.5330  2.8358
 5187SOL     OW27196   2.286   2.023   6.153  0.0052 -0.2235  0.3307
 5187SOL    HW127197   2.348   2.093   6.132  0.7836 -0.3502  2.1565
 5187SOL    HW227198   2.299   1.969   6.075 -1.7247 -0.4135  0.1863
 5188SOL     OW27199   3.867   3.221  14.858 -0.6507  0.2730 -0.2831
 5188SOL    HW127200   3.796   3.283  14.873  1.8513  2.7042  1.6377
 5188SOL    HW227201   3.841   3.155  14.922 -0.4163 -0.5870 -1.0835
 5189SOL     OW27202   3.864   2.490   7.603 -0.2887 -0.1251 -0.0848
 5189SOL    HW127203   3.820   2.542   7.670 -1.6438 -0.8026 -0.4549
 5189SOL    HW227204   3.829   2.404   7.623  0.5028  0.0509  2.1038
 5190SOL     OW27205   0.425   0.014   8.567  0.4906  0.1955  0.1351
 5190SOL    HW127206   0.503   0.047   8.522  0.5732 -1.0333 -0.6345
 5190SOL    HW227207   0.362   0.013   8.495 -0.9780 -0.0980  1.4242
 5191SOL     OW27208   4.519   0.395   4.357 -0.3083 -0.0593 -0.4848
 5191SOL    HW127209   4.481   0.375   4.443 -2.6240  0.1226 -1.4591
 5191SOL    HW227210   4.478   0.328   4.301 -0.4943 -1.1693  0.9615
 5192SOL     OW27211   1.709   1.564   2.158 -0.2862 -0.0247  0.1949
 5192SOL    HW127212   1.664   1.610   2.087 -1.6941 -1.6359  0.0460
 5192SOL    HW227213   1.749   1.489   2.113  0.5813 -0.5409  1.7948
 5193SOL     OW27214   2.836   1.450  11.710 -0.0454  0.1127  0.0435
 5193SOL    HW127215   2.896   1.378  11.729 -1.6323 -0.7722  1.6894
 5193SOL    HW227216   2.808   1.478  11.797  0.1071 -0.2344  0.2051
 5194SOL     OW27217   4.010   1.596   6.561  0.1439 -0.2401 -0.0519
 5194SOL    HW127218   4.001   1.579   6.468 -0.3537 -3.4852  0.5704
 5194SOL    HW227219   3.923   1.574   6.596  0.2826  0.3592  0.6822
 5195SOL     OW27220   0.476   3.022   6.379 -0.5838 -0.1574  0.5521
 5195SOL    HW127221   0.554   2.979   6.343 -1.9446 -2.1123 -0.1178
 5195SOL    HW227222   0.424   3.001   6.301 -2.4645 -0.9998  2.0468
 5196SOL     OW27223   3.164   2.559   9.821  0.2360 -0.1597 -0.0661
 5196SOL    HW127224   3.134   2.515   9.900  0.6870  0.2120  0.3093
 5196SOL    HW227225   3.091   2.533   9.765 -0.3400  1.1156  0.0892
 5197SOL     OW27226   1.155   3.388   3.900  0.5655 -0.2157 -0.3309
 5197SOL    HW127227   1.112   3.318   3.950 -1.9459  0.9881 -0.7893
 5197SOL    HW227228   1.226   3.404   3.961 -0.1361  1.9229 -0.0686
 5198SOL     OW27229   0.644   3.122   7.257  0.2965 -0.1529  0.3507
 5198SOL    HW127230   0.595   3.184   7.311 -0.4444 -0.0313 -0.4657
 5198SOL    HW227231   0.726   3.168   7.239  0.7970 -1.0964  0.2531
 5199SOL     OW27232   4.417   3.962   3.953 -0.4588  0.4291  1.0201
 5199SOL    HW127233   4.506   3.941   3.926 -0.6380 -1.1836  1.6680
 5199SOL    HW227234   4.397   4.038   3.899 -1.7437 -2.4390 -2.4777
 5200SOL     OW27235   3.128   1.869   3.264 -0.1400  0.4279 -0.0420
 5200SOL    HW127236   3.130   1.900   3.355 -1.7761 -0.2476  0.2366
 5200SOL    HW227237   3.194   1.801   3.257 -2.2470 -1.1478 -4.6168
 5201SOL     OW27238   2.924   2.301   7.021  0.1902 -0.0994 -0.1818
 5201SOL    HW127239   2.937   2.361   7.094  0.5430  0.5423 -0.7800
 5201SOL    HW227240   2.970   2.344   6.950 -0.5836  0.8535 -0.1036
 5202SOL     OW27241   0.776   4.189   2.770  0.2317 -0.0373 -0.2042
 5202SOL    HW127242   0.683   4.212   2.777  0.2119 -0.1050 -0.2529
 5202SOL    HW227243   0.817   4.275   2.783 -1.8483  0.8423  0.5909
 5203SOL     OW27244   0.596   3.833  15.925 -0.4998 -0.4656 -0.5423
 5203SOL    HW127245   0.635   3.751  15.956 -1.1895  0.2908  2.3431
 5203SOL    HW227246   0.504   3.808  15.919 -0.2278 -1.4819 -0.4925
 5204SOL     OW27247   2.807   2.810   9.108  0.4772  0.6993 -0.2806
 5204SOL    HW127248   2.764   2.888   9.076 -0.0002 -0.5469 -2.6622
 5204SOL    HW227249   2.794   2.805   9.203 -0.0686 -0.3786 -0.4108
 5205SOL     OW27250   3.676   1.307   8.052  0.0487 -0.8840 -0.2008
 5205SOL    HW127251   3.717   1.332   7.968 -0.7450 -0.1903 -0.3818
 5205SOL    HW227252   3.724   1.359   8.116  0.5416 -1.1311 -0.3703
 5206SOL     OW27253   2.313   1.861   3.341  0.0915 -0.2446  0.0976
 5206SOL    HW127254   2.387   1.896   3.291  3.0748 -3.0217  2.5420
 5206SOL    HW227255   2.355   1.776   3.355 -0.5073 -0.6744 -0.6950
 5207SOL     OW27256   1.309   4.435   0.353 -0.1660  0.2070 -0.5739
 5207SOL    HW127257   1.386   4.415   0.406 -0.0026  2.9407  0.2207
 5207SOL    HW227258   1.305   4.353   0.305  0.1904  0.4606 -1.0343
 5208SOL     OW27259   2.888   3.984   2.794 -0.0584 -0.9529  0.2790
 5208SOL    HW127260   2.975   3.950   2.775  0.2810 -0.2883  0.6338
 5208SOL    HW227261   2.865   4.009   2.705  0.6623 -0.5492  0.2135
 5209SOL     OW27262   1.805   2.308   2.249 -0.1403 -0.3119  0.6329
 5209SOL    HW127263   1.788   2.401   2.256  2.9228  0.2787  0.5258
 5209SOL    HW227264   1.724   2.267   2.220 -0.0605 -0.3008  0.3929
 5210SOL     OW27265   2.577   3.192  12.921  0.2534  0.1671  0.2445
 5210SOL    HW127266   2.537   3.207  13.006  1.0524 -1.8840  1.0103
 5210SOL    HW227267   2.582   3.278  12.880  0.6617  0.4227  0.8261
 5211SOL     OW27268   2.977   1.679  16.889  0.0442 -0.0580  0.1182
 5211SOL    HW127269   3.055   1.730  16.868 -0.8093  1.8792  1.6778
 5211SOL    HW227270   3.011   1.590  16.894  1.0597  0.3422  0.4800
 5212SOL     OW27271   3.695   2.389  14.689  0.2240 -0.1569  0.4541
 5212SOL    HW127272   3.778   2.342  14.688  1.2749  1.7061  0.4063
 5212SOL    HW227273   3.734   2.476  14.679  0.1776  0.0894  2.3555
 5213SOL     OW27274   3.285   0.577  14.824 -0.3952 -0.4048 -0.5151
 5213SOL    HW127275   3.364   0.525  14.841 -0.4740 -0.6652 -0.9717
 5213SOL    HW227276   3.225   0.505  14.836  0.3657 -1.2183 -1.6091
 5214SOL     OW27277   0.322   0.206   4.742  0.4314 -0.1592  1.2095
 5214SOL    HW127278   0.391   0.196   4.808  2.3894 -1.1389 -0.9847
 5214SOL    HW227279   0.279   0.121   4.750 -1.0477  0.4150 -0.7669
 5215SOL     OW27280   1.274   2.859   2.129 -0.4587 -0.6579 -0.0354
 5215SOL    HW127281   1.317   2.859   2.044 -1.8888 -2.1632 -0.7562
 5215SOL    HW227282   1.183   2.864   2.100 -0.2883 -1.7280 -0.7535
 5216SOL     OW27283   4.656   1.044  16.738 -0.1038 -0.0066 -0.2546
 5216SOL    HW127284   0.001   1.084  16.766 -0.8721  1.1936  0.2945
 5216SOL    HW227285   4.649   1.069  16.646 -0.0973  0.2567 -0.1830
 5217SOL     OW27286   3.134   1.552  11.406  0.5136  0.0985  0.2171
 5217SOL    HW127287   3.042   1.532  11.420  0.8524 -1.1105  0.7858
 5217SOL    HW227288   3.166   1.462  11.397 -3.1444 -0.8491 -2.8903
 5218SOL     OW27289   3.539   2.795   6.217  0.5587  0.2730 -0.0796
 5218SOL    HW127290   3.483   2.873   6.215  2.4022  1.6213  0.7268
 5218SOL    HW227291   3.499   2.743   6.147  2.0720  0.1471 -0.8495
 5219SOL     OW27292   1.803   2.400   7.923  0.2755 -0.1404  0.5149
 5219SOL    HW127293   1.805   2.395   8.019  1.1613 -3.4874  0.3084
 5219SOL    HW227294   1.843   2.487   7.920  0.5747 -0.3109 -0.3149
 5220SOL     OW27295   3.247   3.880   9.595 -0.4513  0.3488 -0.3484
 5220SOL    HW127296   3.152   3.875   9.586 -0.6336  0.8369  1.3707
 5220SOL    HW227297   3.282   3.878   9.506 -2.8444 -1.4186 -1.2412
 5221SOL     OW27298   3.374   0.227   2.570  0.1910  0.1579 -0.3061
 5221SOL    HW127299   3.415   0.247   2.485 -3.4090  1.4783 -1.7429
 5221SOL    HW227300   3.417   0.145   2.595  1.3162  0.3210 -1.6707
 5222SOL     OW27301   2.735   3.323   7.443 -0.5303  0.4167  0.0920
 5222SOL    HW127302   2.728   3.291   7.354 -0.4698 -1.9224  0.9343
 5222SOL    HW227303   2.811   3.269   7.465  0.9559  2.7032  0.5706
 5223SOL     OW27304   1.924   0.870  15.824 -0.2222  0.3412 -0.4263
 5223SOL    HW127305   1.849   0.906  15.872  0.3836  0.7004  0.2465
 5223SOL    HW227306   1.987   0.849  15.892 -0.4735 -1.2574 -0.6913
 5224SOL     OW27307   4.023   4.090   4.364  0.7269 -0.1404 -0.1329
 5224SOL    HW127308   3.984   4.003   4.351 -0.9107  0.5343  0.2117
 5224SOL    HW227309   4.029   4.110   4.271 -0.0684 -1.2974 -0.4271
 5225SOL     OW27310   3.551   3.277   3.193  0.2259  0.6410  0.3653
 5225SOL    HW127311   3.560   3.308   3.103  1.2494 -2.2709 -0.5256
 5225SOL    HW227312   3.641   3.272   3.225  0.4004  0.4997 -0.1656
 5226SOL     OW27313   0.588   1.524   3.387 -0.1103  0.0875  0.6170
 5226SOL    HW127314   0.595   1.451   3.449  1.1158  1.3160  1.9100
 5226SOL    HW227315   0.535   1.587   3.436 -0.0972 -1.0137  2.0645
 5227SOL     OW27316   2.138   1.606   4.696 -0.5503 -0.1791 -0.3994
 5227SOL    HW127317   2.099   1.596   4.783  1.5686 -0.0241  0.5701
 5227SOL    HW227318   2.191   1.526   4.688 -2.8731 -1.6929 -0.5507
 5228SOL     OW27319   2.365   3.043  14.914  0.0902 -0.4883  0.1698
 5228SOL    HW127320   2.419   2.969  14.889  2.8435  2.2700 -2.0736
 5228SOL    HW227321   2.277   3.018  14.889 -0.6177  2.5360 -0.4374
 5229SOL     OW27322   0.847   3.978   8.319 -0.9021  0.1376  0.1590
 5229SOL    HW127323   0.792   3.919   8.267  0.0049 -0.7959  0.2590
 5229SOL    HW227324   0.787   4.021   8.379 -0.3142  1.3872 -0.1385
 5230SOL     OW27325   2.867   3.595   3.194  0.1901  0.6437  0.3949
 5230SOL    HW127326   2.860   3.690   3.179  0.4274  0.7689  1.1078
 5230SOL    HW227327   2.962   3.601   3.183  0.2103 -0.8714 -0.1896
 5231SOL     OW27328   1.650   2.306   1.926 -0.2164  0.0190 -0.4198
 5231SOL    HW127329   1.620   2.224   1.886  0.9370 -0.0137 -1.2160
 5231SOL    HW227330   1.736   2.307   1.883  0.1130 -1.1360  0.1971
 5232SOL     OW27331   3.777   3.296   5.161 -0.5496 -0.5201 -0.3092
 5232SOL    HW127332   3.841   3.366   5.164 -1.9320  0.7062  0.5970
 5232SOL    HW227333   3.722   3.333   5.092 -3.6651 -1.5618  1.6289
 5233SOL     OW27334   0.342   0.493   8.955 -0.1548 -0.2236 -0.0451
 5233SOL    HW127335   0.326   0.505   9.048  0.1706 -1.0566  0.1207
 5233SOL    HW227336   0.258   0.527   8.925 -0.2778 -0.0986  0.4465
 5234SOL     OW27337   1.311   3.886   9.540 -0.0165  0.3884 -0.5152
 5234SOL    HW127338   1.268   3.945   9.601 -1.3756 -0.9386 -0.1695
 5234SOL    HW227339   1.347   3.940   9.469 -2.1942  1.8866 -0.5004
 5235SOL     OW27340   2.507   1.614   2.435 -0.1757  0.5932  0.9356
 5235SOL    HW127341   2.557   1.669   2.375 -1.9582  0.0533 -1.0525
 5235SOL    HW227342   2.449   1.579   2.367 -0.6714  0.1777  1.5644
 5236SOL     OW27343   0.092   2.192   3.832  0.4060 -0.3555  0.3891
 5236SOL    HW127344   0.098   2.163   3.741  1.0850 -0.0191  0.3216
 5236SOL    HW227345   0.011   2.149   3.858 -0.6283  1.1712 -0.3089
 5237SOL     OW27346   3.381   3.021   7.346 -0.7472 -0.0791  0.6536
 5237SOL    HW127347   3.472   2.992   7.335 -0.7456 -0.7302  2.4341
 5237SOL    HW227348   3.383   3.080   7.270  0.4120 -2.5287 -1.2362
 5238SOL     OW27349   0.288   2.287   0.024 -0.6052  0.3585  0.4323
 5238SOL    HW127350   0.271   2.193   0.016 -0.0966  0.2484  0.6605
 5238SOL    HW227351   0.323   2.286   0.113  1.4185  0.5050 -0.3632
 5239SOL     OW27352   0.644   0.933   9.585 -0.2484  0.1870  0.4366
 5239SOL    HW127353   0.690   1.015   9.603 -1.4717  0.8763  0.4447
 5239SOL    HW227354   0.650   0.906   9.676 -0.1333  2.6830  1.1468
 5240SOL     OW27355   2.875   0.032  16.063 -0.2252 -1.2342 -0.0744
 5240SOL    HW127356   2.939   0.103  16.062 -1.4679 -0.1042  0.2231
 5240SOL    HW227357   2.807   0.078  16.013  1.8690  0.7160 -1.1270
 5241SOL     OW27358   0.406   1.287   1.639 -0.2664 -0.1234  0.3933
 5241SOL    HW127359   0.371   1.199   1.644 -0.1912 -0.3728 -3.5181
 5241SOL    HW227360   0.429   1.301   1.731  0.8437 -0.7472  0.2058
 5242SOL     OW27361   4.328   1.490   8.196  0.0550  0.2288  0.5331
 5242SOL    HW127362   4.409   1.480   8.144  0.1126 -0.5147  0.7656
 5242SOL    HW227363   4.352   1.536   8.276 -1.7612  2.8587 -0.4425
 5243SOL     OW27364   2.081   4.656   5.700  0.2505 -0.1855  0.3461
 5243SOL    HW127365   2.154   4.608   5.662  0.7189 -0.5566  1.7168
 5243SOL    HW227366   2.066   4.610   5.782  0.8945  2.6053  2.0144
 5244SOL     OW27367   4.492   1.494   8.527 -0.8323  0.2383 -0.2400
 5244SOL    HW127368   4.415   1.443   8.502 -0.9965 -0.0975  0.9186
 5244SOL    HW227369   4.490   1.519   8.620 -0.5973  0.9108 -0.4108
 5245SOL     OW27370   1.200   0.961   6.619 -0.0912  0.2128  0.1582
 5245SOL    HW127371   1.155   0.933   6.698 -0.2595  0.9800  0.3389
 5245SOL    HW227372   1.281   0.988   6.663  0.4039  0.2233 -0.7584
 5246SOL     OW27373   4.676   1.582   7.297 -0.3833 -0.3935  0.0575
 5246SOL    HW127374   4.612   1.535   7.243 -0.9609 -0.2268  0.5902
 5246SOL    HW227375   4.630   1.666   7.306  1.9271  1.0494 -1.5106
 5247SOL     OW27376   1.208   0.756  13.108  0.0903  0.3766 -0.2495
 5247SOL    HW127377   1.218   0.816  13.034  3.2723  2.1541  1.6335
 5247SOL    HW227378   1.264   0.681  13.086  0.5999  0.8891 -0.6939
 5248SOL     OW27379   1.049   3.867  16.847 -0.1185  0.3489  0.0962
 5248SOL    HW127380   1.125   3.835  16.799 -2.1397 -5.7477  0.9206
 5248SOL    HW227381   1.037   3.953  16.808 -1.5138  0.1691  0.1469
 5249SOL     OW27382   0.404   3.480   2.256  1.1582  1.0396 -0.0852
 5249SOL    HW127383   0.405   3.550   2.322  1.1464  0.2994  0.6899
 5249SOL    HW227384   0.488   3.437   2.273 -0.2176 -1.7655 -0.3951
 5250SOL     OW27385   1.444   4.022   1.098  0.5898  0.3150  0.2845
 5250SOL    HW127386   1.476   4.025   1.188 -0.2402  0.0803  0.5898
 5250SOL    HW227387   1.352   4.000   1.115  1.0816 -1.0855  1.1511
 5251SOL     OW27388   4.032   3.432   8.537 -0.0399 -0.2812 -0.7693
 5251SOL    HW127389   3.995   3.520   8.526  3.2179  1.0753 -0.9318
 5251SOL    HW227390   4.016   3.426   8.631  1.0039 -1.3127 -0.6606
 5252SOL     OW27391   2.102   2.133  10.815 -0.1704  0.0202 -0.1280
 5252SOL    HW127392   2.162   2.139  10.888 -1.1186  0.5896  0.6005
 5252SOL    HW227393   2.086   2.038  10.818  0.0991  0.0353  1.6304
 5253SOL     OW27394   1.738   1.741  16.776  0.0925  0.4393 -0.0483
 5253SOL    HW127395   1.774   1.793  16.848 -0.6844  0.4194  0.3527
 5253SOL    HW227396   1.644   1.740  16.795 -0.6110  1.2409 -3.5649
 5254SOL     OW27397   2.695   3.371   3.550  0.5250 -0.6828 -0.3721
 5254SOL    HW127398   2.709   3.446   3.492  0.3855 -0.0854  0.3548
 5254SOL    HW227399   2.781   3.331   3.542  1.0787  0.4469 -0.0454
 5255SOL     OW27400   3.398   0.617   8.697  0.1735 -0.2009  0.0318
 5255SOL    HW127401   3.352   0.700   8.707 -0.2067 -0.4712  0.5131
 5255SOL    HW227402   3.365   0.553   8.760 -3.1510  1.7087  0.2407
 5256SOL     OW27403   2.991   0.385   7.102  0.4898 -0.1973 -0.3000
 5256SOL    HW127404   3.048   0.449   7.059  1.3009 -0.5940  0.1739
 5256SOL    HW227405   2.940   0.438   7.162 -0.1355 -0.2888 -0.7493
 5257SOL     OW27406   1.353   0.477  16.476  0.1713  0.6217 -0.0556
 5257SOL    HW127407   1.327   0.462  16.567 -2.1759 -0.0911 -0.8231
 5257SOL    HW227408   1.331   0.395  16.432 -0.7294  0.3474  0.9022
 5258SOL     OW27409   4.318   1.948   9.390 -0.3435  0.5333  0.1099
 5258SOL    HW127410   4.351   2.012   9.453 -1.0220  0.6983  0.2905
 5258SOL    HW227411   4.274   1.883   9.444  1.7489  0.3281  1.5594
 5259SOL     OW27412   4.118   2.845   7.634  0.0563  0.0120  0.0916
 5259SOL    HW127413   4.142   2.754   7.617  0.3541 -0.0756  0.9756
 5259SOL    HW227414   4.095   2.847   7.727  0.9791  1.4451  0.2842
 5260SOL     OW27415   4.416   4.543   3.532  0.0707  0.0623 -0.5064
 5260SOL    HW127416   4.362   4.539   3.453  0.1994 -1.3033 -0.5244
 5260SOL    HW227417   4.472   4.619   3.516 -0.4221  0.7649  1.1193
 5261SOL     OW27418   2.693   3.602   2.918  0.5802  0.3130  0.5842
 5261SOL    HW127419   2.705   3.508   2.933 -0.5560 -0.1572 -1.3907
 5261SOL    HW227420   2.770   3.640   2.958  0.8956  0.4196 -0.1265
 5262SOL     OW27421   4.442   0.111   7.918  0.3069  0.0668  0.3671
 5262SOL    HW127422   4.387   0.176   7.963  2.4616  1.7305  0.5549
 5262SOL    HW227423   4.525   0.149   7.890 -0.3600  0.6944 -0.7391
 5263SOL     OW27424   2.632   0.252   4.832 -0.4317  0.1081 -0.3303
 5263SOL    HW127425   2.608   0.290   4.747  0.2528 -0.6726 -0.8748
 5263SOL    HW227426   2.631   0.156   4.825  0.2136  0.1234 -0.5957
 5264SOL     OW27427   4.597   2.262   5.644 -0.2127 -0.4088 -0.5587
 5264SOL    HW127428   4.664   2.202   5.677 -0.2801 -0.9205 -1.3620
 5264SOL    HW227429   4.531   2.198   5.618  0.9189 -3.1651  3.3335
 5265SOL     OW27430   4.058   1.029   1.748  0.0434  0.1726  0.3463
 5265SOL    HW127431   4.089   1.112   1.713  2.0032 -0.6849  0.0677
 5265SOL    HW227432   4.140   0.994   1.784 -1.1120 -1.0761  1.7670
 5266SOL     OW27433   2.649   1.204  17.477  0.9834 -0.1323 -0.5194
 5266SOL    HW127434   2.724   1.151  17.451  1.3505  0.7337 -1.2580
 5266SOL    HW227435   2.631   1.245  17.392  0.9355  0.4499 -0.2352
 5267SOL     OW27436   0.556   0.862   0.940 -0.1735 -0.5830 -0.5682
 5267SOL    HW127437   0.579   0.789   0.998 -1.5170 -2.2463 -2.1078
 5267SOL    HW227438   0.541   0.933   1.002  1.1776 -0.2180 -0.6499
 5268SOL     OW27439   2.399   0.675  16.443  0.7236 -0.3677  0.2468
 5268SOL    HW127440   2.468   0.648  16.383  0.9448  0.8195 -0.0219
 5268SOL    HW227441   2.380   0.762  16.409 -0.4285 -0.8903 -0.4659
 5269SOL     OW27442   1.141   0.881  11.144 -0.4133  0.0836 -0.2786
 5269SOL    HW127443   1.196   0.803  11.146 -2.4659 -1.3469  0.7617
 5269SOL    HW227444   1.209   0.948  11.134 -0.7063  0.6739  1.5970
 5270SOL     OW27445   3.102   1.822  14.539 -0.4891 -0.4032  0.3116
 5270SOL    HW127446   3.067   1.733  14.550  1.0314 -1.0181  0.1639
 5270SOL    HW227447   3.195   1.811  14.557 -0.5929 -2.9430 -0.7238
 5271SOL     OW27448   2.436   2.166  15.190 -0.4370 -0.5233 -0.0980
 5271SOL    HW127449   2.493   2.122  15.254 -0.7002  0.6178  0.8995
 5271SOL    HW227450   2.356   2.115  15.205 -0.9924  0.7234  1.1625
 5272SOL     OW27451   4.126   0.887   2.318 -0.3020  0.0789  0.3081
 5272SOL    HW127452   4.125   0.912   2.410 -1.3607  1.3503 -0.0474
 5272SOL    HW227453   4.194   0.821   2.326 -0.4913 -0.2140 -0.4823
 5273SOL     OW27454   2.901   4.714   1.053  0.3521 -0.0164 -0.2801
 5273SOL    HW127455   2.827   0.037   1.043  2.1795  1.9872 -1.5398
 5273SOL    HW227456   2.866   4.639   1.102  1.0364 -1.3442 -1.8436
 5274SOL     OW27457   0.402   0.904   6.392  0.3603  0.2649  0.0802
 5274SOL    HW127458   0.456   0.899   6.470  1.5568  1.3013 -0.6778
 5274SOL    HW227459   0.323   0.857   6.418  0.9677  0.6658  2.6572
 5275SOL     OW27460   2.622   1.919  15.292 -0.0727  0.9238 -0.3931
 5275SOL    HW127461   2.586   1.915  15.204  0.3231  2.3836 -0.6298
 5275SOL    HW227462   2.698   1.865  15.275 -0.6389  0.7300 -2.3254
 5276SOL     OW27463   3.484   3.996   2.805  0.4310  0.3227 -0.0510
 5276SOL    HW127464   3.482   4.073   2.748 -1.6102 -0.6342 -1.2463
 5276SOL    HW227465   3.539   4.029   2.877  2.1013 -1.4304 -0.5386
 5277SOL     OW27466   2.791   3.875   9.171  0.1986  0.1704  0.0309
 5277SOL    HW127467   2.782   3.780   9.170  0.8761  0.0667  3.4296
 5277SOL    HW227468   2.759   3.890   9.260  1.3564 -0.6681  0.5862
 5278SOL     OW27469   3.210   3.938   5.655 -0.6198 -0.1853  0.0504
 5278SOL    HW127470   3.297   3.901   5.639 -1.5074 -1.8585 -0.8874
 5278SOL    HW227471   3.157   3.859   5.647 -1.9139  0.7567 -0.6985
 5279SOL     OW27472   4.100   4.457  12.309 -0.8985 -0.3638  0.4374
 5279SOL    HW127473   4.005   4.461  12.309 -0.8916 -0.1401  0.9901
 5279SOL    HW227474   4.121   4.496  12.394  1.1383 -1.6454  0.5300
 5280SOL     OW27475   2.432   1.446   8.155 -0.2570 -0.4028 -0.2233
 5280SOL    HW127476   2.417   1.507   8.227 -0.1439  0.3187 -0.8106
 5280SOL    HW227477   2.437   1.359   8.193  0.2693 -0.2368  0.0820
 5281SOL     OW27478   1.362   0.055  17.233  0.0421  0.4662 -0.0676
 5281SOL    HW127479   1.305   0.091  17.165 -0.5825 -0.6676 -0.1385
 5281SOL    HW227480   1.296   0.036  17.298  0.5791 -0.2262  0.2715
 5282SOL     OW27481   0.894   4.708   2.909  0.1767 -0.5761 -0.0299
 5282SOL    HW127482   0.909   0.062   2.930 -2.6920  0.2519 -1.5097
 5282SOL    HW227483   0.983   4.673   2.904  0.9365  1.3854  0.0696
 5283SOL     OW27484   3.808   3.830   8.679  0.2087 -0.1579 -0.1917
 5283SOL    HW127485   3.869   3.902   8.698  0.7715 -0.2613 -1.5963
 5283SOL    HW227486   3.847   3.798   8.598  1.6908 -1.0726  0.9009
 5284SOL     OW27487   3.005   0.171   7.877 -0.5897 -0.0446 -0.3526
 5284SOL    HW127488   2.926   0.144   7.925 -1.9014  2.3055 -1.1945
 5284SOL    HW227489   3.049   0.087   7.867  2.5096  1.5434 -0.0458
 5285SOL     OW27490   1.212   2.788   4.268 -0.4212 -0.0379 -0.3217
 5285SOL    HW127491   1.275   2.718   4.288 -0.5055 -0.1147 -0.3239
 5285SOL    HW227492   1.218   2.845   4.345 -0.5435 -1.0716  0.4660
 5286SOL     OW27493   2.130   3.290   7.724  0.0559 -0.3565 -0.0459
 5286SOL    HW127494   2.133   3.195   7.715 -3.8319 -0.6821  2.1803
 5286SOL    HW227495   2.037   3.311   7.722  0.5935  1.8383 -1.6684
 5287SOL     OW27496   1.846   0.782   2.372  0.3434 -0.2066 -0.0825
 5287SOL    HW127497   1.811   0.826   2.295  0.7571 -1.9449 -1.2916
 5287SOL    HW227498   1.882   0.862   2.411  1.3089 -0.3557 -0.6554
 5288SOL     OW27499   0.386   0.032   2.214 -0.8176 -0.1767 -0.0998
 5288SOL    HW127500   0.362   0.121   2.242  3.1663  1.4620 -1.9281
 5288SOL    HW227501   0.301   4.726   2.210 -0.3568 -1.0592 -0.3008
 5289SOL     OW27502   2.623   0.720   3.298  0.0331 -0.0742  0.5951
 5289SOL    HW127503   2.574   0.638   3.310 -2.3028  1.3312  0.6432
 5289SOL    HW227504   2.697   0.701   3.241 -0.8675 -2.4884  0.2117
 5290SOL     OW27505   1.833   2.842   8.670  0.2612  0.1072  0.1336
 5290SOL    HW127506   1.816   2.854   8.763 -1.0483 -1.1190  0.0579
 5290SOL    HW227507   1.748   2.874   8.640  0.8377  1.1807 -0.3560
 5291SOL     OW27508   1.190   3.285   0.659 -0.7732  0.6544  0.1874
 5291SOL    HW127509   1.143   3.304   0.740 -2.7076 -1.2240 -0.4868
 5291SOL    HW227510   1.190   3.189   0.664  2.8105  0.6688  0.5375
 5292SOL     OW27511   0.533   2.489   0.664 -0.3067  0.1069  0.0288
 5292SOL    HW127512   0.543   2.556   0.597 -1.4017 -1.1531 -1.4038
 5292SOL    HW227513   0.610   2.501   0.721 -1.4916 -1.0098  1.8746
 5293SOL     OW27514   2.590   1.192   2.649  0.7406  0.0926  0.1213
 5293SOL    HW127515   2.594   1.159   2.560 -0.0857 -0.5525  0.3218
 5293SOL    HW227516   2.541   1.274   2.642 -0.7102 -0.8884 -1.0687
 5294SOL     OW27517   3.136   1.172   1.809 -0.2934 -0.1629  0.0397
 5294SOL    HW127518   3.153   1.078   1.810  1.0074  0.1076  2.4541
 5294SOL    HW227519   3.220   1.217   1.804 -1.2079  1.5249 -0.3431
 5295SOL     OW27520   2.853   1.023   9.775 -0.5335 -0.0317  0.0527
 5295SOL    HW127521   2.925   1.084   9.788 -1.0431  1.2233 -2.9241
 5295SOL    HW227522   2.880   0.956   9.838 -0.4187 -0.0482 -0.0151
 5296SOL     OW27523   4.677   0.058   8.723 -0.2812  0.0553 -0.0074
 5296SOL    HW127524   4.705   4.718   8.770 -0.9708 -0.6883 -0.7995
 5296SOL    HW227525   4.590   0.078   8.758  0.4348  2.6915  0.2692
 5297SOL     OW27526   3.819   2.083   2.774  0.3772  0.4766  0.2527
 5297SOL    HW127527   3.811   1.995   2.738 -0.8124  0.6793  0.0194
 5297SOL    HW227528   3.742   2.081   2.831 -1.5741 -0.8362 -2.4013
 5298SOL     OW27529   0.078   0.222   9.573  0.1459 -0.3808  0.6241
 5298SOL    HW127530   0.105   0.141   9.531 -1.4803 -0.5557 -0.0605
 5298SOL    HW227531   0.030   0.183   9.646 -0.8690 -1.1923 -0.4810
 5299SOL     OW27532   1.140   3.768   9.898  0.2742  0.3743 -0.4089
 5299SOL    HW127533   1.083   3.841   9.921  0.6271  1.0391 -1.6638
 5299SOL    HW227534   1.081   3.705   9.857 -1.1354  1.6149 -0.2819
 5300SOL     OW27535   0.555   3.360   6.099 -0.4211 -0.6627  0.0280
 5300SOL    HW127536   0.603   3.399   6.026 -2.9514 -0.5840 -1.6065
 5300SOL    HW227537   0.581   3.425   6.164 -0.2239  0.3045 -1.0150
 5301SOL     OW27538   1.623   1.824   8.921 -0.1022  0.0962 -0.2424
 5301SOL    HW127539   1.650   1.831   8.830  0.4306 -1.8009 -0.2377
 5301SOL    HW227540   1.678   1.888   8.966  0.8829 -1.4544  0.7886
 5302SOL     OW27541   0.423   2.404   6.686 -0.2969 -0.1141  0.7199
 5302SOL    HW127542   0.460   2.345   6.752  1.2058  1.3132  1.1705
 5302SOL    HW227543   0.333   2.385   6.713 -0.7301 -0.3460 -0.8656
 5303SOL     OW27544   3.099   4.428   0.119  0.2001 -0.0786 -0.3490
 5303SOL    HW127545   3.131   4.511   0.083 -1.2235  0.9943  0.8104
 5303SOL    HW227546   3.134   4.445   0.207 -1.0238 -1.1426  0.3411
 5304SOL     OW27547   0.534   1.137   7.422 -0.2390  0.0390  0.3871
 5304SOL    HW127548   0.550   1.230   7.408 -2.5745  0.5795  1.5016
 5304SOL    HW227549   0.485   1.123   7.341 -1.7653 -1.3563  1.5530
 5305SOL     OW27550   3.609   3.713   4.049  0.1856  0.8734  0.7452
 5305SOL    HW127551   3.618   3.699   3.955  0.4813 -0.0983  0.9140
 5305SOL    HW227552   3.526   3.666   4.053  0.1626  0.8781  0.2896
 5306SOL     OW27553   4.656   0.543   6.374  0.2652 -0.6158 -0.3417
 5306SOL    HW127554   4.672   0.636   6.355  0.2812 -0.3634  0.9702
 5306SOL    HW227555   4.568   0.557   6.409  1.0534  0.9967  0.9760
 5307SOL     OW27556   2.316   0.072   5.391  0.3723  0.5821 -0.3883
 5307SOL    HW127557   2.254   0.050   5.321  1.2997 -0.7652 -0.8066
 5307SOL    HW227558   2.390   0.098   5.337 -0.5300  2.5510 -0.6750
 5308SOL     OW27559   0.759   3.806   4.355 -0.3292 -0.4989  0.0485
 5308SOL    HW127560   0.724   3.809   4.445 -2.4885  4.7294 -0.9882
 5308SOL    HW227561   0.724   3.890   4.328 -0.1577 -0.3488  0.2904
 5309SOL     OW27562   4.413   4.264   8.512 -0.4849 -0.1391  0.3844
 5309SOL    HW127563   4.507   4.259   8.494 -0.4938  0.8289  0.0738
 5309SOL    HW227564   4.406   4.348   8.466 -1.5159 -0.6114 -0.3286
 5310SOL     OW27565   3.382   0.285   3.291  0.2541  0.1129  0.0466
 5310SOL    HW127566   3.294   0.250   3.283  0.5469 -0.3350 -1.3291
 5310SOL    HW227567   3.383   0.354   3.224  0.8972 -0.6148 -0.6905
 5311SOL     OW27568   1.716   1.551   6.365 -0.5690  0.5699 -0.2799
 5311SOL    HW127569   1.636   1.542   6.313 -1.0724  0.0344  0.6077
 5311SOL    HW227570   1.757   1.630   6.328  0.8578 -1.0309 -2.1422
 5312SOL     OW27571   2.344   0.599   1.590 -0.2531 -0.3130  0.6490
 5312SOL    HW127572   2.321   0.651   1.667  0.8862 -0.5403  1.1404
 5312SOL    HW227573   2.438   0.618   1.589 -0.5167  0.9706  0.1007
 5313SOL     OW27574   1.245   4.022   5.817  0.1597  0.1686 -0.3811
 5313SOL    HW127575   1.250   3.971   5.898 -3.9620 -1.6083 -1.2763
 5313SOL    HW227576   1.150   4.027   5.806  0.0432  0.4801  0.7338
 5314SOL     OW27577   4.677   2.098   7.157 -0.1597  0.3238  0.8201
 5314SOL    HW127578   4.725   2.069   7.080 -1.2864  0.5046  0.0520
 5314SOL    HW227579   4.727   2.034   7.209 -0.7179 -0.4040  0.4567
 5315SOL     OW27580   4.383   0.710   5.346 -0.7403  0.4032 -0.4844
 5315SOL    HW127581   4.330   0.632   5.357  2.4521 -1.9126 -1.6813
 5315SOL    HW227582   4.454   0.680   5.289  0.7052  1.2018  0.8916
 5316SOL     OW27583   1.367   3.800   6.606  0.3642 -0.1422 -0.2532
 5316SOL    HW127584   1.274   3.817   6.616  0.7620  0.5920  2.0146
 5316SOL    HW227585   1.412   3.882   6.627 -1.4078  0.5347  0.8228
 5317SOL     OW27586   4.110   3.393  15.075 -0.0363  0.3959 -0.0513
 5317SOL    HW127587   4.107   3.487  15.058 -0.5379  0.2434 -0.7921
 5317SOL    HW227588   4.030   3.359  15.035 -0.2172  0.8729 -0.0898
 5318SOL     OW27589   0.513   0.331   3.848  0.1185  0.0890  0.5298
 5318SOL    HW127590   0.546   0.377   3.925 -0.9612 -0.7869  1.5095
 5318SOL    HW227591   0.470   0.260   3.896  0.0845  1.5837  2.7277
 5319SOL     OW27592   2.734   3.310  17.431  0.2202  0.3838 -0.3942
 5319SOL    HW127593   2.778   3.228  17.411 -1.3681 -0.6896  0.5488
 5319SOL    HW227594   2.640   3.296  17.446  0.7964 -1.9601  0.8749
 5320SOL     OW27595   2.382   3.819   5.756  0.8389  0.3522  0.0935
 5320SOL    HW127596   2.470   3.847   5.732  0.9462  0.6032  0.7732
 5320SOL    HW227597   2.327   3.884   5.712 -0.5182 -1.9674 -1.6217
 5321SOL     OW27598   1.754   1.558   5.948 -0.2226  0.1132  0.0317
 5321SOL    HW127599   1.806   1.572   5.869 -0.0514 -0.6818  0.0033
 5321SOL    HW227600   1.816   1.509   6.002  0.7018  0.3614 -0.8203
 5322SOL     OW27601   2.746   0.614   2.659  0.7367 -0.3549 -0.4106
 5322SOL    HW127602   2.704   0.531   2.639 -1.1477  0.3641  0.4751
 5322SOL    HW227603   2.771   0.599   2.750  1.1322 -2.2313 -0.8296
 5323SOL     OW27604   0.585   1.282   8.200 -0.5912  0.2175  0.5955
 5323SOL    HW127605   0.542   1.197   8.190  0.9679 -0.6593  1.3680
 5323SOL    HW227606   0.575   1.279   8.295  0.0790  1.8939  0.7147
 5324SOL     OW27607   2.917   3.375   1.854 -0.5510 -0.1711  0.4365
 5324SOL    HW127608   2.886   3.458   1.890 -0.4251  0.1993 -0.3193
 5324SOL    HW227609   3.011   3.380   1.872 -0.3738 -0.0775 -0.5338
 5325SOL     OW27610   2.392   3.682   1.263  0.3601 -0.6228 -0.2830
 5325SOL    HW127611   2.342   3.747   1.214  2.2098 -0.2480 -1.6885
 5325SOL    HW227612   2.325   3.668   1.329 -0.1799 -2.6991 -1.2576
 5326SOL     OW27613   1.326   4.477   3.577  0.1258 -0.4834  0.2488
 5326SOL    HW127614   1.236   4.495   3.550  0.1389 -1.0912 -0.1963
 5326SOL    HW227615   1.365   4.559   3.545 -1.8135 -0.8534 -3.0067
 5327SOL     OW27616   2.231   0.594   5.340  0.2625  0.2894  0.2255
 5327SOL    HW127617   2.266   0.531   5.277 -1.4298 -0.3784 -0.0463
 5327SOL    HW227618   2.149   0.613   5.293  0.8395  1.0476 -0.4608
 5328SOL     OW27619   3.121   1.927   6.599  0.2624 -0.3602  0.0133
 5328SOL    HW127620   3.102   1.833   6.598  1.1631 -0.5357 -2.0129
 5328SOL    HW227621   3.215   1.936   6.582  0.2136 -0.4178 -0.2845
 5329SOL     OW27622   3.098   1.873  15.904  0.2860  0.1317 -0.0996
 5329SOL    HW127623   3.053   1.821  15.837 -0.5340 -1.7859  1.9140
 5329SOL    HW227624   3.109   1.958  15.863 -3.2592  0.9021  0.6133
 5330SOL     OW27625   2.821   3.665   6.465  0.5268 -0.6776 -0.4907
 5330SOL    HW127626   2.845   3.612   6.389  1.4566 -0.0068 -0.6641
 5330SOL    HW227627   2.899   3.712   6.492  0.1337 -0.6637  0.6219
 5331SOL     OW27628   3.789   2.328   7.867 -0.3711  0.5672  0.0607
 5331SOL    HW127629   3.797   2.423   7.863 -1.3246  0.6217 -0.6070
 5331SOL    HW227630   3.775   2.319   7.961  1.7082 -0.2589  0.2867
 5332SOL     OW27631   0.105   2.554   3.174 -0.0193 -0.6513  0.5200
 5332SOL    HW127632   0.120   2.638   3.132  0.3691 -1.5065 -1.0645
 5332SOL    HW227633   0.066   2.520   3.094 -1.8916 -0.5278  1.3886
 5333SOL     OW27634   0.718   4.668  17.003 -0.1372  0.6771  0.3764
 5333SOL    HW127635   0.708   4.585  17.049  1.7578  0.1217 -0.2156
 5333SOL    HW227636   0.799   4.700  17.041  0.8583 -0.5635 -0.7100
 5334SOL     OW27637   2.922   1.090   8.705  0.1354 -0.2817  0.6707
 5334SOL    HW127638   2.945   1.113   8.795 -1.9709 -2.9912  1.9033
 5334SOL    HW227639   3.007   1.062   8.671  0.1105 -1.3760  1.5092
 5335SOL     OW27640   0.957   1.452  11.373  0.4689  0.2674 -0.3006
 5335SOL    HW127641   0.950   1.359  11.390 -1.1948  0.6640  1.1463
 5335SOL    HW227642   0.958   1.484  11.464 -1.9045 -2.0627  0.5326
 5336SOL     OW27643   1.022   0.148   7.546  0.4332  0.0552 -0.0374
 5336SOL    HW127644   0.958   0.174   7.480 -0.8965  1.9088  2.0026
 5336SOL    HW227645   1.089   0.216   7.538 -0.1950  0.6712  0.0407
 5337SOL     OW27646   3.824   2.994  14.975 -0.2037 -0.2686  0.0839
 5337SOL    HW127647   3.816   2.917  14.919  2.0899 -0.0334 -0.5732
 5337SOL    HW227648   3.889   2.973  15.042 -1.3540  1.0711  1.6222
 5338SOL     OW27649   2.608   3.092   2.023  0.1831 -0.1338  0.1987
 5338SOL    HW127650   2.616   3.001   1.994 -1.0385 -0.0857 -0.2732
 5338SOL    HW227651   2.620   3.134   1.938 -0.1678 -1.7673 -0.6596
 5339SOL     OW27652   4.309   4.417  14.564 -0.4063 -0.2276 -0.2157
 5339SOL    HW127653   4.258   4.483  14.517 -0.8243  0.2862  0.9613
 5339SOL    HW227654   4.399   4.445  14.548  0.5064 -2.3509  1.2379
 5340SOL     OW27655   4.545   3.614   1.410 -0.1376 -0.4057 -0.0209
 5340SOL    HW127656   4.612   3.640   1.473 -0.3093 -0.0732  0.0242
 5340SOL    HW227657   4.575   3.654   1.329  1.5306  0.2504  0.9150
 5341SOL     OW27658   3.914   4.170   7.057 -0.3375 -0.1447  0.5835
 5341SOL    HW127659   3.960   4.197   6.977 -0.8154  0.5287  0.5381
 5341SOL    HW227660   3.983   4.128   7.108 -0.4212 -1.1475 -0.1255
 5342SOL     OW27661   0.786   1.352  15.092  0.0459 -0.8471  0.2936
 5342SOL    HW127662   0.727   1.287  15.053 -0.6312 -0.4164  0.5943
 5342SOL    HW227663   0.724   1.389  15.156  0.4071  1.2932 -0.5844
 5343SOL     OW27664   2.138   4.143   1.816  0.2653  0.0031  0.3932
 5343SOL    HW127665   2.094   4.079   1.871 -0.6152 -1.9665 -2.6132
 5343SOL    HW227666   2.143   4.216   1.878 -0.4573  1.2699 -1.0291
 5344SOL     OW27667   3.181   1.677   7.028  0.2961 -0.2919  0.1436
 5344SOL    HW127668   3.123   1.752   7.038 -0.1903 -0.3339 -2.5232
 5344SOL    HW227669   3.167   1.655   6.936 -0.4621  1.5390 -0.1756
 5345SOL     OW27670   2.962   2.946  15.792  0.9956  0.6420 -0.5356
 5345SOL    HW127671   2.931   3.031  15.823 -0.1625 -0.5099  1.4770
 5345SOL    HW227672   2.934   2.946  15.701  2.3119  0.2254 -0.9399
 5346SOL     OW27673   2.445   1.596   4.571  0.8435  0.1311  0.5985
 5346SOL    HW127674   2.453   1.674   4.626 -0.5223 -0.3231  1.4421
 5346SOL    HW227675   2.473   1.624   4.484 -1.6017 -3.4946 -1.3783
 5347SOL     OW27676   0.140   4.458   5.779  0.3293  0.4505 -0.2099
 5347SOL    HW127677   0.222   4.492   5.815  0.0497 -2.1519  2.8564
 5347SOL    HW227678   0.081   4.483   5.850  1.4083  0.8384  0.5416
 5348SOL     OW27679   1.949   1.614   3.723  0.1913  0.3704  0.6248
 5348SOL    HW127680   1.989   1.701   3.720  2.3672 -0.6024  1.0493
 5348SOL    HW227681   1.973   1.581   3.809  0.8847  0.9182  0.6410
 5349SOL     OW27682   1.577   4.026   8.564 -0.3676  0.0126 -0.6394
 5349SOL    HW127683   1.623   3.946   8.538  1.5991  1.1920 -0.7635
 5349SOL    HW227684   1.524   4.025   8.485 -0.5788 -0.4112 -0.4983
 5350SOL     OW27685   0.378   4.534   0.735 -0.2931  0.1257 -0.0312
 5350SOL    HW127686   0.341   4.606   0.786 -1.0830  0.3644 -0.9487
 5350SOL    HW227687   0.397   4.587   0.657  2.7590  1.4575  1.5743
 5351SOL     OW27688   0.564   1.481   2.077  0.2285  0.1933  0.1027
 5351SOL    HW127689   0.607   1.480   2.163  1.5050 -0.7526 -0.5351
 5351SOL    HW227690   0.478   1.507   2.109 -0.5929 -0.1391 -1.8067
 5352SOL     OW27691   2.890   3.964   8.686 -0.0986  1.0626 -0.3784
 5352SOL    HW127692   2.894   3.978   8.781  0.9508 -1.4797 -0.0333
 5352SOL    HW227693   2.956   3.895   8.676 -1.0998  0.2950 -1.6027
 5353SOL     OW27694   3.285   2.884  11.931  0.1699 -0.5429  0.5760
 5353SOL    HW127695   3.377   2.878  11.957  0.6216 -1.1011 -1.2094
 5353SOL    HW227696   3.241   2.806  11.964 -1.5522 -0.0960 -0.6859
 5354SOL     OW27697   1.884   1.350   9.239 -0.5719  0.4764 -0.0215
 5354SOL    HW127698   1.924   1.434   9.262 -0.7892  0.4885  0.2990
 5354SOL    HW227699   1.943   1.279   9.263 -1.4169 -0.8342 -1.7883
 5355SOL     OW27700   3.854   2.200   6.892 -0.8308  0.5237  0.1026
 5355SOL    HW127701   3.815   2.288   6.894 -0.2551  0.8039 -0.8193
 5355SOL    HW227702   3.903   2.207   6.974  0.8404 -0.8233 -0.7806
 5356SOL     OW27703   0.266   3.058   5.872 -0.0506  0.0125 -0.3209
 5356SOL    HW127704   0.355   3.040   5.904 -0.4736  0.3900  1.0584
 5356SOL    HW227705   0.251   2.970   5.838 -2.4161 -0.8248  2.9561
 5357SOL     OW27706   1.039   0.441   2.927 -0.5493  0.2313  0.4244
 5357SOL    HW127707   0.962   0.387   2.945 -1.1839 -0.2628 -3.8268
 5357SOL    HW227708   1.055   0.466   3.018  0.0740  0.0889  0.3557
 5358SOL     OW27709   4.554   1.373   6.473  0.1692 -0.1243  0.5200
 5358SOL    HW127710   4.648   1.385   6.456  0.4667  0.1293  2.3925
 5358SOL    HW227711   4.523   1.339   6.389 -1.7188 -0.5738  1.4195
 5359SOL     OW27712   2.825   3.334  12.005  0.1571  0.4582 -0.3554
 5359SOL    HW127713   2.887   3.269  11.974 -1.1938 -0.9832 -0.0181
 5359SOL    HW227714   2.803   3.284  12.084 -0.0317  1.5411  0.2851
 5360SOL     OW27715   1.016   1.990  15.639 -0.3773 -0.0695 -0.1453
 5360SOL    HW127716   1.038   2.078  15.611  0.5737 -0.6361 -1.1838
 5360SOL    HW227717   0.980   1.958  15.556 -2.5334 -1.9999  1.5488
 5361SOL     OW27718   3.294   0.675   2.242 -0.3356 -0.3069  0.0766
 5361SOL    HW127719   3.255   0.622   2.173 -0.9963  1.3459 -0.8263
 5361SOL    HW227720   3.386   0.682   2.216  0.4037 -4.1563  1.7219
 5362SOL     OW27721   2.858   4.548   8.154  0.4796 -0.3469  0.0028
 5362SOL    HW127722   2.803   4.622   8.128  1.0461  0.0885  0.0443
 5362SOL    HW227723   2.928   4.594   8.200  0.6048  0.5728 -1.1152
 5363SOL     OW27724   4.631   4.671   9.496 -0.1672 -0.1903 -0.2457
 5363SOL    HW127725   4.662   4.601   9.554 -1.3997  0.3137  0.9968
 5363SOL    HW227726   4.616   4.618   9.417 -1.4729 -1.6636  0.9736
 5364SOL     OW27727   3.685   1.627  14.650 -0.1219 -0.3523  0.6692
 5364SOL    HW127728   3.644   1.612  14.565  0.6165 -0.2337  0.2915
 5364SOL    HW227729   3.768   1.662  14.616 -0.6996  1.7174  1.3526
 5365SOL     OW27730   2.505   2.248   4.687 -0.3429  0.5865 -0.0763
 5365SOL    HW127731   2.588   2.270   4.729 -0.1424 -1.8844  0.8359
 5365SOL    HW227732   2.498   2.155   4.709  0.2294  1.1042  2.3361
 5366SOL     OW27733   4.087   2.637   0.215  0.5604 -0.8306  0.3823
 5366SOL    HW127734   4.124   2.564   0.166 -0.2883 -3.8683  4.2714
 5366SOL    HW227735   4.121   2.621   0.303 -0.0866 -0.6917  0.6571
 5367SOL     OW27736   2.971   0.843  14.236 -0.1569 -0.3449 -0.9585
 5367SOL    HW127737   2.887   0.810  14.267 -0.6092  2.0138  0.3346
 5367SOL    HW227738   3.028   0.812  14.307 -2.3988 -1.0943  0.5142
 5368SOL     OW27739   0.586   3.449  13.756 -0.5204  0.5017  0.5967
 5368SOL    HW127740   0.618   3.370  13.713  1.4678  1.5820  0.0371
 5368SOL    HW227741   0.621   3.521  13.703  0.6555 -0.2662  0.3204
 5369SOL     OW27742   0.056   1.422   8.683 -0.2369  0.3221  0.6074
 5369SOL    HW127743   4.703   1.452   8.680 -1.2677 -2.9266 -1.4931
 5369SOL    HW227744   0.105   1.502   8.665  0.4125 -0.4375 -1.0258
 5370SOL     OW27745   2.812   2.799   3.565 -0.5715  0.2018 -0.7160
 5370SOL    HW127746   2.797   2.758   3.479  0.8322 -1.3345 -0.2286
 5370SOL    HW227747   2.902   2.772   3.582 -1.2748 -2.1611 -0.6792
 5371SOL     OW27748   3.394   3.636  15.196 -0.1076 -0.0058 -0.0789
 5371SOL    HW127749   3.326   3.670  15.253  1.0939  1.8749  0.2255
 5371SOL    HW227750   3.428   3.715  15.154 -1.8288  1.8461  2.0617
 5372SOL     OW27751   3.327   1.001   4.377 -0.1488  0.5738  0.8406
 5372SOL    HW127752   3.378   0.921   4.368  1.3910  1.7596 -1.2258
 5372SOL    HW227753   3.247   0.967   4.417  1.1681 -1.2058  1.9294
 5373SOL     OW27754   0.471   2.965   7.575  0.9564  0.2661 -0.0723
 5373SOL    HW127755   0.425   2.882   7.589 -2.8156  2.4752  0.7262
 5373SOL    HW227756   0.503   2.983   7.663  2.2523 -0.3188 -0.4241
 5374SOL     OW27757   2.542   3.033   9.359  0.2386 -0.5252  0.4664
 5374SOL    HW127758   2.608   2.964   9.371  0.6611 -0.4061 -1.2083
 5374SOL    HW227759   2.511   3.032   9.268 -2.3729 -1.7549  1.3575
 5375SOL     OW27760   3.936   2.726   9.584 -0.6172 -0.5621 -0.1794
 5375SOL    HW127761   3.941   2.632   9.572  1.8879 -0.6237  1.3961
 5375SOL    HW227762   3.907   2.762   9.500  1.5181  0.2530 -0.5638
 5376SOL     OW27763   1.678   2.136   9.491  0.1086  0.1542  0.2826
 5376SOL    HW127764   1.623   2.101   9.421  0.1156  3.7210 -1.5137
 5376SOL    HW227765   1.648   2.227   9.489 -2.3911 -0.6651  0.1542
 5377SOL     OW27766   2.013   3.517  14.590  0.5567  0.6288  0.4998
 5377SOL    HW127767   1.954   3.585  14.557  0.0340  1.1831  2.5307
 5377SOL    HW227768   1.951   3.468  14.644 -1.1457  1.0524 -1.0815
 5378SOL     OW27769   0.844   1.965   8.653  0.6853 -0.1696  0.0086
 5378SOL    HW127770   0.811   1.916   8.728 -0.2035 -0.6574 -0.6956
 5378SOL    HW227771   0.938   1.946   8.658  0.2312 -1.1352  4.8011
 5379SOL     OW27772   0.827   1.002   4.172  0.2646 -0.3324 -0.7501
 5379SOL    HW127773   0.756   0.942   4.146 -0.3983 -0.4145  1.2514
 5379SOL    HW227774   0.853   1.026   4.083 -0.3848 -0.9239 -1.1020
 5380SOL     OW27775   3.755   1.681  13.768  0.1501 -0.2531  0.2871
 5380SOL    HW127776   3.747   1.670  13.863  1.4046  0.4813  0.4882
 5380SOL    HW227777   3.689   1.617  13.742  1.4766 -0.9529 -1.3927
 5381SOL     OW27778   2.162   2.990  10.890  0.3017  0.3709 -1.1116
 5381SOL    HW127779   2.070   3.013  10.901  0.5340 -0.8499  3.2715
 5381SOL    HW227780   2.204   3.067  10.929  4.0003 -1.6259 -1.1041
 5382SOL     OW27781   4.093   1.162  15.366 -0.5285 -0.0951  0.3892
 5382SOL    HW127782   4.136   1.170  15.280 -1.2554  1.4690  0.1771
 5382SOL    HW227783   4.030   1.097  15.337  0.9764 -0.6207 -1.7586
 5383SOL     OW27784   4.071   0.817  11.031  0.0242 -0.0292 -0.2265
 5383SOL    HW127785   3.993   0.841  11.081  0.0342  1.3005 -0.8510
 5383SOL    HW227786   4.135   0.795  11.099  0.0058 -3.3712 -1.2884
 5384SOL     OW27787   4.150   2.868   1.308 -0.0483  0.3392  0.2161
 5384SOL    HW127788   4.190   2.936   1.362  0.2019  1.2047 -1.0734
 5384SOL    HW227789   4.216   2.861   1.239 -1.0242 -1.7603 -0.5141
 5385SOL     OW27790   0.960   3.963   2.338  0.2204  0.0453 -0.2049
 5385SOL    HW127791   0.916   4.045   2.363  3.1365  1.0066  1.7502
 5385SOL    HW227792   0.888   3.901   2.323  0.8970 -0.4610 -1.3325
 5386SOL     OW27793   3.610   1.353   5.255 -0.4388 -0.4075 -0.0833
 5386SOL    HW127794   3.693   1.377   5.297 -0.4116 -0.0511 -0.3433
 5386SOL    HW227795   3.557   1.416   5.304  0.1043  0.7268 -0.9537
 5387SOL     OW27796   1.845   2.867   4.991 -0.1703 -0.5126  0.2704
 5387SOL    HW127797   1.804   2.894   5.074  0.9099  1.1288  0.2697
 5387SOL    HW227798   1.779   2.802   4.966  0.8889 -0.3287 -3.0225
 5388SOL     OW27799   1.802   0.108   4.202 -0.3364 -0.2528 -0.0439
 5388SOL    HW127800   1.763   0.144   4.282  1.9803  1.6680  0.2305
 5388SOL    HW227801   1.860   0.041   4.238  0.1392  1.0920  1.6723
 5389SOL     OW27802   0.069   3.829   6.557 -0.7868 -0.1770 -0.0245
 5389SOL    HW127803   0.061   3.769   6.631 -0.5350 -1.4201 -0.9996
 5389SOL    HW227804   0.073   3.916   6.597 -0.6465 -0.2853  0.1963
 5390SOL     OW27805   0.892   1.991   6.854 -0.5930 -0.5860 -0.3724
 5390SOL    HW127806   0.848   2.071   6.826  0.5914  0.0530 -0.4228
 5390SOL    HW227807   0.828   1.921   6.864 -1.0242  0.1227  1.6744
 5391SOL     OW27808   0.628   3.113   8.250 -0.0572 -0.0251 -0.2744
 5391SOL    HW127809   0.587   3.040   8.297 -1.3482  0.4079 -0.7205
 5391SOL    HW227810   0.672   3.154   8.324  2.2494 -0.7314 -1.2311
 5392SOL     OW27811   1.124   1.914  14.569  0.0692 -1.1186 -0.4158
 5392SOL    HW127812   1.173   1.840  14.603 -0.0017 -0.9490  0.0556
 5392SOL    HW227813   1.174   1.937  14.490 -1.8863 -1.9851 -1.9126
 5393SOL     OW27814   1.824   1.204   3.829  0.1313  0.6415 -0.7661
 5393SOL    HW127815   1.837   1.209   3.923 -0.4170 -2.6449 -0.4989
 5393SOL    HW227816   1.771   1.282   3.816 -1.4770 -0.5256 -1.1784
 5394SOL     OW27817   1.093   0.473  10.662  0.3135  0.4100 -0.7742
 5394SOL    HW127818   1.083   0.395  10.716 -0.9876  2.3282  1.7428
 5394SOL    HW227819   1.126   0.545  10.715  1.5560 -0.8387  0.1723
 5395SOL     OW27820   2.100   3.731   5.717 -0.2676  0.1662  0.1329
 5395SOL    HW127821   2.186   3.773   5.717 -1.0890  1.8790 -3.0480
 5395SOL    HW227822   2.101   3.679   5.798  0.3590  0.3806  0.2632
 5396SOL     OW27823   2.216   1.762   4.098 -0.1922 -0.2628 -0.4264
 5396SOL    HW127824   2.177   1.699   4.037 -0.4930 -1.4119  0.9538
 5396SOL    HW227825   2.276   1.803   4.036 -0.4405  3.8004  2.0175
 5397SOL     OW27826   2.825   1.999   3.470  0.0297 -0.6358 -0.3958
 5397SOL    HW127827   2.886   2.037   3.406  1.5986  0.4367  1.7127
 5397SOL    HW227828   2.765   1.950   3.414 -1.0502 -0.9394  1.0569
 5398SOL     OW27829   0.646   0.094   2.222  0.2759  0.4736  0.2647
 5398SOL    HW127830   0.691   0.016   2.256  0.5837 -0.1082 -1.4625
 5398SOL    HW227831   0.556   0.064   2.216  1.1664 -2.2195  0.2189
 5399SOL     OW27832   0.488   3.924   3.267  0.7660 -0.2066 -0.0490
 5399SOL    HW127833   0.504   3.839   3.226  2.0294  0.2470 -0.5045
 5399SOL    HW227834   0.503   3.906   3.360 -0.4792 -2.8337 -0.3541
 5400SOL     OW27835   1.847   4.574   7.778 -0.3164  0.2213  0.1564
 5400SOL    HW127836   1.887   4.660   7.792 -1.2273  1.0761 -2.4343
 5400SOL    HW227837   1.851   4.539   7.867 -2.2515 -0.4790 -0.0287
 5401SOL     OW27838   0.702   1.294   3.002 -0.1902 -0.0743  0.7367
 5401SOL    HW127839   0.716   1.313   3.095  0.7956  0.2070  0.5359
 5401SOL    HW227840   0.682   1.201   3.011 -1.5468  0.2768  1.3536
 5402SOL     OW27841   0.892   4.732   4.770 -0.1138  0.1136  0.4222
 5402SOL    HW127842   0.959   0.028   4.829 -1.4780  0.3253  1.8250
 5402SOL    HW227843   0.920   4.640   4.765  1.3143  0.4968  1.5067
 5403SOL     OW27844   1.889   4.674   5.517 -0.1266 -0.5528  0.1775
 5403SOL    HW127845   1.957   4.671   5.584  0.5336 -2.0198 -0.5386
 5403SOL    HW227846   1.870   4.580   5.510  0.7381 -0.6938 -0.2754
 5404SOL     OW27847   3.663   0.064  16.186 -0.0724  0.0782  0.6171
 5404SOL    HW127848   3.657   0.140  16.128  3.9011  0.0718  0.1993
 5404SOL    HW227849   3.609   0.098  16.257 -0.7588 -1.1885  0.7039
 5405SOL     OW27850   3.048   0.034   4.135  0.0958 -0.4653 -0.3985
 5405SOL    HW127851   2.974   4.710   4.135  1.0108 -1.5661 -3.1594
 5405SOL    HW227852   3.105   4.729   4.199 -0.1598 -1.2380 -0.6848
 5406SOL     OW27853   0.867   3.815   7.491  0.2043  0.2046 -0.5502
 5406SOL    HW127854   0.881   3.730   7.451  1.5546  0.6627 -1.0368
 5406SOL    HW227855   0.791   3.797   7.547  0.0282 -0.2940 -0.9532
 5407SOL     OW27856   0.557   0.903   2.317  0.3966 -0.7686 -0.1890
 5407SOL    HW127857   0.624   0.852   2.362 -1.4325 -1.1608  2.1306
 5407SOL    HW227858   0.596   0.990   2.323 -1.2389  0.1321 -2.3869
 5408SOL     OW27859   3.837   4.497  12.556 -0.4700 -0.2458 -0.0516
 5408SOL    HW127860   3.880   4.418  12.524 -2.4910 -0.8268 -1.2897
 5408SOL    HW227861   3.823   4.475  12.648  1.0113  0.4393  0.3410
 5409SOL     OW27862   4.316   4.651   0.164 -0.3573 -0.1945 -0.1456
 5409SOL    HW127863   4.263   4.710   0.111  0.2922 -0.0157 -0.5944
 5409SOL    HW227864   4.254   4.580   0.182 -2.1845  1.3447 -0.3996
 5410SOL     OW27865   0.730   0.360   2.215  0.0431  0.3819  0.7131
 5410SOL    HW127866   0.665   0.372   2.146  0.9155  1.1837  0.0154
 5410SOL    HW227867   0.722   0.265   2.223  0.4793  0.3335  0.5851
 5411SOL     OW27868   1.613   2.854   4.055  0.0830 -0.2739  0.6470
 5411SOL    HW127869   1.530   2.888   4.089 -0.2702 -0.8237  0.3374
 5411SOL    HW227870   1.655   2.936   4.029 -1.9010  0.6117  0.2314
 5412SOL     OW27871   3.383   2.685   0.518  0.3119 -0.0762  0.0896
 5412SOL    HW127872   3.418   2.679   0.607 -0.0061  1.5601  0.3359
 5412SOL    HW227873   3.432   2.618   0.471 -0.9684  0.0678 -1.4448
 5413SOL     OW27874   3.007   2.102  10.290 -1.0208 -0.0286 -0.3737
 5413SOL    HW127875   2.953   2.121  10.214 -2.0651  0.3390  0.4662
 5413SOL    HW227876   3.003   2.008  10.303 -0.9305  0.1781  1.2213
 5414SOL     OW27877   2.985   0.636   8.083 -0.8626 -0.2745  0.2247
 5414SOL    HW127878   3.028   0.572   8.141  1.2214  0.7164 -0.2100
 5414SOL    HW227879   3.023   0.618   7.996  2.5877  1.9953  1.2634
 5415SOL     OW27880   2.828   4.330   0.095 -0.1663  0.2378 -0.2647
 5415SOL    HW127881   2.918   4.324   0.128  0.4692  4.0823 -1.4214
 5415SOL    HW227882   2.783   4.252   0.130  1.3254 -0.1620  0.7417
 5416SOL     OW27883   4.248   1.226  14.166 -0.6313 -0.0007  0.2239
 5416SOL    HW127884   4.285   1.146  14.203 -1.5860 -1.1818 -1.3797
 5416SOL    HW227885   4.315   1.282  14.207 -0.4925  1.0101 -1.3815
 5417SOL     OW27886   2.121   3.604   4.211  0.4648  0.1884  0.1948
 5417SOL    HW127887   2.202   3.587   4.260  1.1087 -2.3268 -1.7912
 5417SOL    HW227888   2.078   3.519   4.207  0.2201  0.3017  0.3861
 5418SOL     OW27889   4.693   0.056   0.102  0.2071  0.0895  0.0085
 5418SOL    HW127890   4.646   0.122   0.051 -1.6341 -0.8028  0.5706
 5418SOL    HW227891   0.044   0.061   0.065  0.8280 -0.0355  1.4783
 5419SOL     OW27892   3.872   4.558   2.584 -0.0642 -0.5292  0.2264
 5419SOL    HW127893   3.837   4.518   2.504 -0.9760  0.2167  0.2614
 5419SOL    HW227894   3.955   4.509   2.590 -0.2444 -0.8673 -0.0592
 5420SOL     OW27895   3.991   2.795   7.874  0.6839 -0.1440 -0.6551
 5420SOL    HW127896   3.998   2.889   7.888  0.3028 -0.1496 -0.4359
 5420SOL    HW227897   4.034   2.755   7.949  0.0659 -0.3112 -0.3927
 5421SOL     OW27898   1.789   3.404  12.096  0.3327 -0.1006 -0.5292
 5421SOL    HW127899   1.722   3.336  12.107  2.2961 -1.6905  1.7642
 5421SOL    HW227900   1.798   3.438  12.185 -0.3076 -1.8683  0.2169
 5422SOL     OW27901   1.420   4.389   8.824 -0.4578 -0.3229 -0.2384
 5422SOL    HW127902   1.477   4.316   8.801 -1.1367 -0.7888 -0.4463
 5422SOL    HW227903   1.336   4.343   8.833 -0.1686 -1.1589 -1.9661
 5423SOL     OW27904   4.137   4.252   9.000 -0.3369 -0.3209  0.0867
 5423SOL    HW127905   4.194   4.295   8.936 -0.7084  0.7858  0.5068
 5423SOL    HW227906   4.106   4.324   9.054 -0.7644 -0.8267  0.5193
 5424SOL     OW27907   3.430   0.584   1.983 -0.2659 -0.2825 -0.4401
 5424SOL    HW127908   3.383   0.500   1.991 -2.0093  0.8323  1.0218
 5424SOL    HW227909   3.522   0.560   1.997  0.5735  3.1463 -0.2661
 5425SOL     OW27910   2.335   3.176   1.566  0.5814 -0.1778  0.7148
 5425SOL    HW127911   2.424   3.143   1.576  0.9121  0.7515  0.8646
 5425SOL    HW227912   2.343   3.271   1.577  1.2721  0.0404 -1.7897
 5426SOL     OW27913   2.805   4.599   5.666 -0.5250  0.1084  0.1869
 5426SOL    HW127914   2.844   4.538   5.728 -0.1456  1.3660  1.1781
 5426SOL    HW227915   2.806   4.683   5.712 -1.1738  0.4633 -0.4558
 5427SOL     OW27916   1.281   3.713   4.494 -0.1450 -0.6860  0.2163
 5427SOL    HW127917   1.345   3.752   4.433 -1.2850  0.6708 -0.1149
 5427SOL    HW227918   1.236   3.656   4.431  1.5184 -2.2427  0.4225
 5428SOL     OW27919   2.666   4.102   7.730  0.2142  0.6264 -0.3042
 5428SOL    HW127920   2.688   4.147   7.812  0.6093 -1.0594  0.5202
 5428SOL    HW227921   2.604   4.036   7.761 -1.9375  2.4861 -0.6679
 5429SOL     OW27922   2.209   0.876   4.542 -0.0201 -0.2218  0.8054
 5429SOL    HW127923   2.255   0.795   4.524 -0.3554  0.3801 -2.6359
 5429SOL    HW227924   2.139   0.844   4.600 -1.1640 -3.9327 -2.7062
 5430SOL     OW27925   2.414   2.893  14.353 -0.9068  0.6296 -0.8708
 5430SOL    HW127926   2.404   2.835  14.278  2.1880 -3.4113  1.8941
 5430SOL    HW227927   2.341   2.953  14.336 -1.1248 -0.0641 -2.3158
 5431SOL     OW27928   0.319   0.996   2.769 -0.4226 -0.5701 -0.0357
 5431SOL    HW127929   0.295   1.036   2.853  0.7737 -0.9752  0.5099
 5431SOL    HW227930   0.390   0.935   2.789  0.3521  0.3273 -0.0171
 5432SOL     OW27931   2.224   3.197   9.694 -0.8948 -0.4870 -0.6476
 5432SOL    HW127932   2.274   3.130   9.646 -0.0714 -0.5391  0.2641
 5432SOL    HW227933   2.198   3.143   9.768 -0.7166 -0.8347 -0.8357
 5433SOL     OW27934   2.832   1.518   8.233  0.2109  0.4789  0.2466
 5433SOL    HW127935   2.789   1.461   8.296  0.2747 -1.3814 -1.3867
 5433SOL    HW227936   2.768   1.504   8.163 -1.5697  1.3819  1.7037
 5434SOL     OW27937   0.759   4.474   7.862 -0.1964  0.5443 -0.3067
 5434SOL    HW127938   0.726   4.450   7.948 -0.9288 -2.5622 -1.4797
 5434SOL    HW227939   0.808   4.550   7.895  0.1137  0.0426  0.3912
 5435SOL     OW27940   0.704   1.777   6.890 -0.8746  0.0057  0.0691
 5435SOL    HW127941   0.630   1.720   6.908 -1.0847  0.6029  1.1202
 5435SOL    HW227942   0.729   1.788   6.982  0.3117  4.1791 -0.7508
 5436SOL     OW27943   4.352   2.515   4.164 -0.1519 -0.3162 -0.6094
 5436SOL    HW127944   4.372   2.608   4.162 -0.7839 -0.1189  2.1280
 5436SOL    HW227945   4.439   2.483   4.142  0.0091  1.0896 -2.0437
 5437SOL     OW27946   2.895   1.160   5.010  0.3102 -0.1540  0.1032
 5437SOL    HW127947   2.911   1.107   5.088  0.7832  3.2868  2.2911
 5437SOL    HW227948   2.799   1.155   5.008  0.2366  1.8085 -0.6863
 5438SOL     OW27949   3.303   2.229   4.231 -0.0887 -0.0541 -0.4168
 5438SOL    HW127950   3.385   2.195   4.267 -0.3395  0.0849  0.2906
 5438SOL    HW227951   3.307   2.200   4.140 -0.6633 -0.1113 -0.4244
 5439SOL     OW27952   0.566   2.332  17.338 -0.0105  0.7597  0.1946
 5439SOL    HW127953   0.549   2.340  17.432  0.0709  0.0737  0.2679
 5439SOL    HW227954   0.549   2.238  17.331  0.2196  0.8588 -1.5880
 5440SOL     OW27955   2.103   1.784   4.520  0.3546  0.1659  0.2461
 5440SOL    HW127956   2.105   1.722   4.593 -2.6841 -0.5779 -0.3274
 5440SOL    HW227957   2.068   1.723   4.456 -1.3899  3.4415 -1.9453
 5441SOL     OW27958   0.394   4.604   3.694  0.1486  0.2490 -0.4086
 5441SOL    HW127959   0.312   4.585   3.647 -0.8864  2.4192  0.5076
 5441SOL    HW227960   0.461   4.580   3.630  2.1746  3.8912  0.3659
 5442SOL     OW27961   2.990   0.687   8.468  0.6785  0.0315  0.4744
 5442SOL    HW127962   2.905   0.646   8.451  0.9279 -0.1659 -0.3148
 5442SOL    HW227963   2.987   0.690   8.563  2.3568  2.0361  0.4710
 5443SOL     OW27964   2.492   2.441   0.650 -0.0226 -0.1111 -0.3946
 5443SOL    HW127965   2.558   2.457   0.582 -0.6059 -1.1203 -1.1993
 5443SOL    HW227966   2.459   2.359   0.613 -0.7002 -0.1448  0.2879
 5444SOL     OW27967   1.535   0.537   1.376  0.0215  0.3415  0.3913
 5444SOL    HW127968   1.482   0.575   1.446 -0.8060 -0.6112  0.2721
 5444SOL    HW227969   1.557   0.452   1.414  0.5210  0.9826  1.5379
 5445SOL     OW27970   1.397   3.580   8.610 -0.4317 -0.1131 -0.0370
 5445SOL    HW127971   1.382   3.506   8.669 -0.4457 -0.0588  0.0274
 5445SOL    HW227972   1.457   3.532   8.552 -2.2480 -0.2250 -1.8175
 5446SOL     OW27973   0.500   0.796   2.876 -0.3773  0.0478  0.2172
 5446SOL    HW127974   0.428   0.733   2.880 -0.9259  0.7217  0.9362
 5446SOL    HW227975   0.571   0.742   2.912  0.1268  0.1383 -0.6403
 5447SOL     OW27976   2.628   2.258   0.100  0.6548  0.8993  0.0377
 5447SOL    HW127977   2.586   2.245   0.185  0.2867  0.2130 -0.2528
 5447SOL    HW227978   2.715   2.288   0.127  0.3529  2.3645 -0.6301
 5448SOL     OW27979   0.860   2.449   9.970  0.0301 -0.1169 -0.5223
 5448SOL    HW127980   0.769   2.478   9.975  0.0584 -0.6081  2.9259
 5448SOL    HW227981   0.901   2.532   9.944  1.2349  0.1177  2.1810
 5449SOL     OW27982   2.898   2.533   4.940  0.2290  0.2461  0.0178
 5449SOL    HW127983   2.924   2.532   5.032 -3.3290 -1.6719  1.0077
 5449SOL    HW227984   2.872   2.623   4.919  1.7110  0.4056 -1.0772
 5450SOL     OW27985   3.786   2.397   2.284  0.0720 -0.2665 -0.4050
 5450SOL    HW127986   3.727   2.390   2.209 -2.4431  0.1002  1.5466
 5450SOL    HW227987   3.779   2.488   2.312  0.1755 -0.8342  1.4621
 5451SOL     OW27988   0.749   0.510   5.406 -0.9186 -0.2992  0.1431
 5451SOL    HW127989   0.786   0.597   5.391  1.6753 -1.2626  1.0316
 5451SOL    HW227990   0.832   0.463   5.416 -0.0725  0.2282 -4.3417
 5452SOL     OW27991   1.762   0.663   9.259  0.3023 -0.0470 -0.4158
 5452SOL    HW127992   1.787   0.713   9.336 -2.6451  3.0814 -1.4931
 5452SOL    HW227993   1.722   0.731   9.205  0.9931 -0.3326 -1.2899
 5453SOL     OW27994   2.471   3.126  16.652  0.3198 -0.0840  1.0978
 5453SOL    HW127995   2.412   3.171  16.713  1.5930  2.3530  0.5065
 5453SOL    HW227996   2.557   3.164  16.668  0.9287 -0.6625 -0.8539
 5454SOL     OW27997   2.908   2.782   6.605 -0.4308 -0.1085  0.3474
 5454SOL    HW127998   2.853   2.715   6.647 -2.5520  2.8257  2.2118
 5454SOL    HW227999   2.852   2.857   6.621 -2.7969 -1.3283 -2.0899
 5455SOL     OW28000   1.591   0.488   9.059 -0.1516  0.2098 -0.3830
 5455SOL    HW128001   1.532   0.563   9.060 -0.3286  0.0616  0.3037
 5455SOL    HW228002   1.610   0.475   9.152 -1.4957  0.1369 -0.1230
 5456SOL     OW28003   2.531   2.378   0.959 -0.2356  0.3806  0.8993
 5456SOL    HW128004   2.463   2.311   0.945 -1.7245  1.6991  1.8600
 5456SOL    HW228005   2.469   2.442   0.993 -1.4374 -0.8995  1.1111
 5457SOL     OW28006   3.316   2.660   4.912 -0.5323 -0.2770 -0.2012
 5457SOL    HW128007   3.250   2.620   4.856 -0.1278  0.0747 -0.9291
 5457SOL    HW228008   3.272   2.641   4.995  0.6917  0.3343  0.5990
 5458SOL     OW28009   3.612   0.278   9.554  0.1522 -0.0123  0.7622
 5458SOL    HW128010   3.572   0.279   9.641 -0.0023  1.7919  0.6775
 5458SOL    HW228011   3.536   0.276   9.496 -0.2566  0.8099  1.2735
 5459SOL     OW28012   3.662   4.346   6.866  0.0557 -0.3706  0.8572
 5459SOL    HW128013   3.726   4.352   6.795  1.4186 -0.6434  2.0545
 5459SOL    HW228014   3.591   4.403   6.836 -0.1963 -0.7044  0.8250
 5460SOL     OW28015   4.262   1.872   6.757 -0.7895 -0.1981  0.3200
 5460SOL    HW128016   4.261   1.928   6.834  0.4471 -0.0226  0.1999
 5460SOL    HW228017   4.230   1.790   6.797 -1.6324 -0.1982 -0.3568
 5461SOL     OW28018   1.028   4.456   4.640 -0.2275  0.1708  0.2083
 5461SOL    HW128019   0.994   4.455   4.550 -0.5134  1.2354  0.3032
 5461SOL    HW228020   0.949   4.442   4.692 -0.0143  1.2347  0.7999
 5462SOL     OW28021   3.230   0.272   4.700  0.4193  0.3579  0.1673
 5462SOL    HW128022   3.224   0.184   4.663 -1.5666  0.1992  0.8789
 5462SOL    HW228023   3.217   0.251   4.792 -0.4434 -4.7078 -1.1014
 5463SOL     OW28024   4.480   2.104  16.468  0.1864 -0.2886 -1.0657
 5463SOL    HW128025   4.547   2.038  16.483  0.7445  0.5996  0.3214
 5463SOL    HW228026   4.402   2.050  16.481  1.8228 -1.6364  3.1913
 5464SOL     OW28027   3.568   3.614   8.013  0.5697  0.0605 -1.0401
 5464SOL    HW128028   3.524   3.575   7.938  0.5839 -0.1319 -0.9466
 5464SOL    HW228029   3.640   3.656   7.966  2.8365  0.7408  3.0300
 5465SOL     OW28030   2.159   2.411  12.302  0.0370 -0.2961 -0.2763
 5465SOL    HW128031   2.191   2.348  12.237  0.4152 -1.9495  1.4917
 5465SOL    HW228032   2.103   2.467  12.248 -0.5484 -0.5296  0.0931
 5466SOL     OW28033   0.494   1.141   5.301  0.6191  0.6702 -0.2695
 5466SOL    HW128034   0.585   1.166   5.286  0.4799  0.7692 -0.9294
 5466SOL    HW228035   0.489   1.080   5.228 -4.0459  0.8218 -0.0617
 5467SOL     OW28036   2.065   3.659   4.683 -0.5883  0.6277 -0.1993
 5467SOL    HW128037   2.080   3.650   4.777  0.6725 -1.3622 -0.5730
 5467SOL    HW228038   2.103   3.575   4.656  0.8239  0.9766  0.6887
 5468SOL     OW28039   1.001   0.684   5.636 -0.4458 -0.2736 -0.4454
 5468SOL    HW128040   1.084   0.697   5.590  0.5255 -0.0690  1.3834
 5468SOL    HW228041   0.998   0.593   5.666 -1.4853  0.0436  0.4300
 5469SOL     OW28042   3.782   2.064   9.394 -0.1381 -0.0869 -0.1412
 5469SOL    HW128043   3.875   2.041   9.400 -0.2117 -0.3201  0.1264
 5469SOL    HW228044   3.789   2.148   9.351  1.7521 -1.2116 -2.0106
 5470SOL     OW28045   2.110   2.444   0.590 -0.4207 -0.3931  0.2365
 5470SOL    HW128046   2.041   2.402   0.539 -0.9166  1.7935 -0.9033
 5470SOL    HW228047   2.174   2.469   0.523 -0.6929  1.3384  0.6228
 5471SOL     OW28048   0.195   4.542   3.535  0.1391  0.4775 -0.5765
 5471SOL    HW128049   0.125   4.500   3.584  0.8089  0.6304  0.5175
 5471SOL    HW228050   0.235   4.469   3.489 -2.9060 -1.4182 -0.1638
 5472SOL     OW28051   3.050   1.905   6.239  0.0223  0.6093  0.6179
 5472SOL    HW128052   3.031   1.994   6.268 -1.8694  0.7230 -0.9295
 5472SOL    HW228053   3.143   1.885   6.234 -0.2066 -0.8087  1.9591
 5473SOL     OW28054   2.726   1.507   5.075 -0.4729  0.2698  0.2439
 5473SOL    HW128055   2.799   1.497   5.136  2.6233 -1.4745 -3.8170
 5473SOL    HW228056   2.670   1.434   5.102 -1.7880  1.0612 -0.3009
 5474SOL     OW28057   4.299   1.468   3.734 -0.1566  0.6165 -0.1665
 5474SOL    HW128058   4.258   1.389   3.768  0.4714 -0.3056 -1.5753
 5474SOL    HW228059   4.300   1.437   3.644 -0.5659 -2.4929  0.9119
 5475SOL     OW28060   1.597   3.290   6.287  0.2172 -0.5838 -0.2424
 5475SOL    HW128061   1.506   3.309   6.310  0.7622  1.4167  0.3026
 5475SOL    HW228062   1.589   3.242   6.204  2.3746  0.3665 -1.0127
 5476SOL     OW28063   3.494   0.611   8.137  0.1799 -0.4618  0.1229
 5476SOL    HW128064   3.476   0.704   8.153 -0.7870 -0.2744 -2.0953
 5476SOL    HW228065   3.582   0.618   8.100 -0.4715  1.1314 -1.1050
 5477SOL     OW28066   2.404   4.266   4.048 -0.8476 -0.7519  0.8241
 5477SOL    HW128067   2.387   4.305   3.962  0.8099  2.1790  1.8419
 5477SOL    HW228068   2.447   4.181   4.041  3.2763  1.3413  0.8008
 5478SOL     OW28069   1.801   1.774   1.833 -0.0471 -0.0944  0.2164
 5478SOL    HW128070   1.862   1.702   1.816  0.6468  0.8753 -1.4057
 5478SOL    HW228071   1.784   1.810   1.746 -0.5399 -1.2962 -0.1936
 5479SOL     OW28072   3.018   3.298   6.736  0.4618  0.3919 -0.8003
 5479SOL    HW128073   2.931   3.290   6.697  0.2818 -1.0831 -0.0981
 5479SOL    HW228074   3.079   3.292   6.662  2.3459  0.6405  0.7361
 5480SOL     OW28075   0.067   3.478   7.040 -0.3764  0.4773 -0.4889
 5480SOL    HW128076   0.116   3.501   6.960 -2.2403 -2.2290 -2.4011
 5480SOL    HW228077   0.109   3.528   7.110 -1.6339 -1.0237  1.3207
 5481SOL     OW28078   0.343   3.109  15.860 -0.3658  0.1371 -0.2124
 5481SOL    HW128079   0.375   3.199  15.855 -1.5908  0.5093 -1.5849
 5481SOL    HW228080   0.418   3.059  15.892 -1.2187  0.1666  1.8279
 5482SOL     OW28081   4.381   3.109   1.227  0.0233  0.8190 -0.5487
 5482SOL    HW128082   4.420   3.195   1.215 -0.3366  0.4881 -4.0718
 5482SOL    HW228083   4.338   3.089   1.143 -0.5180 -2.2952  0.4496
 5483SOL     OW28084   2.716   3.480  14.614  0.2402 -1.0436  0.3646
 5483SOL    HW128085   2.703   3.426  14.692 -1.2560 -2.1979 -0.6934
 5483SOL    HW228086   2.632   3.457  14.575 -0.3838  0.1664  1.0021
 5484SOL     OW28087   4.630   4.533   1.803 -0.0939 -0.4743  0.3768
 5484SOL    HW128088   4.644   4.628   1.801 -0.1763 -0.4677  0.0103
 5484SOL    HW228089   4.535   4.539   1.815  0.0368  1.0262  0.7091
 5485SOL     OW28090   2.838   0.143   9.276  0.4871  0.4881  0.5954
 5485SOL    HW128091   2.884   0.129   9.359  1.3275  0.6644  0.1537
 5485SOL    HW228092   2.768   0.206   9.296  0.4683  0.7095 -0.1677
 5486SOL     OW28093   4.689   3.807   6.311  0.5620  0.6130 -0.5615
 5486SOL    HW128094   0.023   3.757   6.271  0.6544  1.0724 -0.9723
 5486SOL    HW228095   4.728   3.823   6.397  0.2482 -1.8409  0.0418
 5487SOL     OW28096   1.077   3.594   5.386 -1.1977 -0.5545 -0.1562
 5487SOL    HW128097   1.099   3.558   5.300  1.9162 -1.9689  1.2638
 5487SOL    HW228098   1.128   3.532   5.438 -1.3870 -0.2689  0.3771
 5488SOL     OW28099   4.102   4.177  16.783  0.2253 -0.0792  0.0167
 5488SOL    HW128100   4.135   4.094  16.819 -0.1562  0.4173  1.5243
 5488SOL    HW228101   4.066   4.144  16.702  1.3869  0.1217 -0.5880
 5489SOL     OW28102   1.179   3.975   0.871  0.3515  0.0290  0.1394
 5489SOL    HW128103   1.104   4.024   0.839  0.3838 -0.3064 -0.4687
 5489SOL    HW228104   1.161   3.976   0.965  0.7154  0.5260  0.2042
 5490SOL     OW28105   2.538   3.321   5.833 -0.1555  0.2458 -0.2856
 5490SOL    HW128106   2.557   3.245   5.778  0.3295 -0.0160  0.2448
 5490SOL    HW228107   2.598   3.301   5.905 -2.9427 -0.7210  1.7890
 5491SOL     OW28108   1.893   2.811   6.179  0.4191  0.7578 -0.0309
 5491SOL    HW128109   1.933   2.898   6.180 -0.1190  1.0018  1.2767
 5491SOL    HW228110   1.922   2.774   6.262 -0.9591 -2.6547 -1.0893
 5492SOL     OW28111   2.368   1.019  11.184 -0.1616 -0.7144  0.3944
 5492SOL    HW128112   2.361   1.109  11.215 -0.9777 -0.7635  0.3539
 5492SOL    HW228113   2.303   0.976  11.240  0.6544 -1.5040  0.7316
 5493SOL     OW28114   2.302   4.662   2.055  0.1637 -0.7395  0.3842
 5493SOL    HW128115   2.320   4.601   2.127 -1.8787 -1.5572  0.2089
 5493SOL    HW228116   2.249   4.732   2.095  3.0507  2.4907 -1.4713
 5494SOL     OW28117   4.236   4.052   3.733 -0.2354 -0.1692  0.2986
 5494SOL    HW128118   4.185   4.096   3.664  0.8041 -0.5552 -0.7187
 5494SOL    HW228119   4.269   3.974   3.687 -0.3406 -0.9819  1.5985
 5495SOL     OW28120   4.440   4.042   4.498  0.2033 -0.1905 -0.3596
 5495SOL    HW128121   4.351   4.047   4.532  0.7699  1.8153  0.8586
 5495SOL    HW228122   4.430   4.007   4.410 -1.5936 -1.2353  0.2637
 5496SOL     OW28123   4.267   3.947   5.518 -0.2163 -0.3594 -0.7389
 5496SOL    HW128124   4.225   3.897   5.588  1.5159 -2.4219 -1.1434
 5496SOL    HW228125   4.186   3.979   5.479  0.2140  0.5271 -0.8936
 5497SOL     OW28126   0.788   0.579  10.561 -0.0212  0.3085 -0.3286
 5497SOL    HW128127   0.791   0.504  10.620 -0.2742  0.0437 -0.6555
 5497SOL    HW228128   0.865   0.558  10.508 -0.2441 -2.1547  0.3114
 5498SOL     OW28129   2.940   2.463   3.935 -0.2220  0.7797  0.4668
 5498SOL    HW128130   2.882   2.524   3.979 -2.4321 -0.3547 -0.8835
 5498SOL    HW228131   2.954   2.388   3.993 -0.6215  1.3252  1.2537
 5499SOL     OW28132   4.273   2.561  15.985  0.2164 -0.0465 -0.4120
 5499SOL    HW128133   4.289   2.641  16.034  1.9817  0.1914 -1.3845
 5499SOL    HW228134   4.342   2.571  15.919  0.5785  1.1392  0.1435
 5500SOL     OW28135   2.937   0.794   9.560 -0.2786 -0.1692  0.3637
 5500SOL    HW128136   2.894   0.848   9.494  1.4035  0.7269  0.0103
 5500SOL    HW228137   2.909   0.843   9.637 -1.2708 -1.3598  0.7680
 5501SOL     OW28138   1.935   4.429   0.827  0.0726  0.4689 -0.8291
 5501SOL    HW128139   1.879   4.479   0.886 -1.1792 -0.4298 -1.2505
 5501SOL    HW228140   2.017   4.463   0.864  0.0902 -1.9632  1.3331
 5502SOL     OW28141   0.891   1.747   9.118  0.3026  0.4978 -0.1377
 5502SOL    HW128142   0.887   1.829   9.167 -0.5185  0.6998 -0.5343
 5502SOL    HW228143   0.982   1.720   9.130 -0.9342 -2.6767  2.0311
 5503SOL     OW28144   3.961   1.691  14.218  0.5524 -0.2792 -0.1271
 5503SOL    HW128145   4.002   1.612  14.184  0.8667  0.8753 -2.4394
 5503SOL    HW228146   3.910   1.713  14.139 -0.6577  0.9654  0.9927
 5504SOL     OW28147   4.622   0.506   6.710  0.2156  0.3707 -0.2814
 5504SOL    HW128148   4.659   0.512   6.798  1.3456 -2.6279 -0.5782
 5504SOL    HW228149   4.642   0.420   6.673 -0.0103  0.0758  0.2754
 5505SOL     OW28150   3.281   3.199   3.783 -0.1380 -0.0532  0.2928
 5505SOL    HW128151   3.256   3.181   3.873  0.4479  0.1213  0.4903
 5505SOL    HW228152   3.231   3.278   3.764 -2.5778 -1.9155 -0.9666
 5506SOL     OW28153   0.045   2.985   3.313  0.7662 -0.3194 -0.4401
 5506SOL    HW128154   4.697   2.985   3.355  1.9981  1.0666  2.0678
 5506SOL    HW228155   0.086   3.013   3.395  1.4056 -1.6588 -0.2993
 5507SOL     OW28156   0.703   1.560   9.414 -0.4134  0.3687 -0.0223
 5507SOL    HW128157   0.659   1.521   9.489 -0.0853  0.7896  0.3819
 5507SOL    HW228158   0.686   1.651   9.439 -1.0755  0.1650  0.2766
 5508SOL     OW28159   3.135   2.497  14.929  0.1952 -0.3263 -1.0670
 5508SOL    HW128160   3.048   2.462  14.947 -0.0418  0.9100  0.1570
 5508SOL    HW228161   3.183   2.429  14.975 -0.5904  0.2475  0.5938
 5509SOL     OW28162   2.187   4.385   8.757 -0.3389  0.0075 -0.0475
 5509SOL    HW128163   2.209   4.470   8.718 -1.1223  0.5604  0.7215
 5509SOL    HW228164   2.159   4.416   8.843  1.6739  0.9852  0.2699
 5510SOL     OW28165   2.192   3.840   0.655  0.4391 -0.3229  0.2142
 5510SOL    HW128166   2.207   3.766   0.596 -0.3415 -1.8574  1.9493
 5510SOL    HW228167   2.276   3.885   0.664  0.9898 -1.6190  1.5959
 5511SOL     OW28168   3.785   0.501  11.046 -0.2700  0.2158  0.3914
 5511SOL    HW128169   3.778   0.521  10.952 -0.2447 -1.7156 -0.0222
 5511SOL    HW228170   3.767   0.407  11.043 -0.6975  0.2611  1.7297
 5512SOL     OW28171   2.722   2.361   4.859  0.0328  0.1399 -0.0971
 5512SOL    HW128172   2.673   2.354   4.941  0.6416  0.6618  0.3149
 5512SOL    HW228173   2.784   2.431   4.880 -0.4716 -0.0953  2.2062
 5513SOL     OW28174   4.681   2.629  15.924 -0.3695 -0.2512 -0.2988
 5513SOL    HW128175   4.642   2.705  15.880  0.0059  0.6082  0.8581
 5513SOL    HW228176   4.606   2.568  15.923 -0.6748  0.1805 -3.7997
 5514SOL     OW28177   0.448   2.607   4.390 -0.0717 -0.0378  0.2692
 5514SOL    HW128178   0.439   2.527   4.339  0.8341 -0.1978  0.3500
 5514SOL    HW228179   0.356   2.631   4.400 -0.5104 -0.5831 -2.4416
 5515SOL     OW28180   2.212   1.457   5.860  0.0668  0.8963  0.0164
 5515SOL    HW128181   2.274   1.508   5.807 -0.8085 -0.0415 -1.9462
 5515SOL    HW228182   2.270   1.436   5.932  0.0052 -2.1389 -0.7819
 5516SOL     OW28183   4.131   2.415   2.781 -0.0410 -0.5395  0.0972
 5516SOL    HW128184   4.192   2.359   2.733 -0.1928 -0.8754  0.3022
 5516SOL    HW228185   4.048   2.379   2.751  1.0342 -1.0544 -2.2856
 5517SOL     OW28186   3.538   1.970  13.298 -0.1623 -0.2098  0.3274
 5517SOL    HW128187   3.535   1.952  13.204  0.5309  2.7236 -0.2523
 5517SOL    HW228188   3.549   1.877  13.317 -0.0193  0.0413  1.4743
 5518SOL     OW28189   0.152   0.205   0.369  0.1022  0.3189  0.0676
 5518SOL    HW128190   0.155   0.127   0.424 -0.0993 -0.7612 -1.4592
 5518SOL    HW228191   0.062   0.236   0.381  0.1177  0.0946  0.7334
 5519SOL     OW28192   2.130   3.866   4.488  0.5380 -0.3462 -0.8647
 5519SOL    HW128193   2.097   3.795   4.544 -2.6167  2.0787  0.3426
 5519SOL    HW228194   2.157   3.923   4.560  0.3671 -2.5794  0.9812
 5520SOL     OW28195   2.221   0.876   2.596  0.0321  0.7911 -0.4009
 5520SOL    HW128196   2.261   0.890   2.510  0.8944 -0.4862 -0.2044
 5520SOL    HW228197   2.290   0.908   2.654 -0.3066  1.4082 -0.3360
 5521SOL     OW28198   2.312   3.394   5.140 -0.0774  0.4675 -0.5407
 5521SOL    HW128199   2.272   3.307   5.140 -1.5998  1.1723 -0.0160
 5521SOL    HW228200   2.260   3.441   5.205  1.1310  1.1782 -0.0993
 5522SOL     OW28201   3.877   4.630   3.665 -0.2646 -0.1694  0.2189
 5522SOL    HW128202   3.915   4.544   3.648 -2.6956 -0.7558 -2.2220
 5522SOL    HW228203   3.818   4.621   3.740 -0.1198 -0.7072  0.2678
 5523SOL     OW28204   1.045   0.960   7.822 -0.6266  0.3998 -0.0918
 5523SOL    HW128205   1.030   1.045   7.863 -1.1194  0.2618  0.0092
 5523SOL    HW228206   0.955   0.934   7.804  0.1557  0.1143 -3.6123
 5524SOL     OW28207   2.988   1.189   5.931 -0.2871 -0.5127 -0.2277
 5524SOL    HW128208   2.957   1.238   5.854 -1.6711  0.6640  1.0940
 5524SOL    HW228209   2.990   1.244   6.009  0.5958  0.3105 -0.8377
 5525SOL     OW28210   1.261   3.471  11.171 -0.1877 -0.0345  0.4126
 5525SOL    HW128211   1.225   3.525  11.242 -1.0031 -0.4826  0.3354
 5525SOL    HW228212   1.196   3.464  11.100  0.0363  0.2507  0.1779
 5526SOL     OW28213   0.477   4.110  12.979  0.0047 -0.1608  0.0318
 5526SOL    HW128214   0.530   4.036  13.010  2.2858  1.5167  0.1738
 5526SOL    HW228215   0.513   4.125  12.891  0.5960 -1.1124  0.1102
 5527SOL     OW28216   1.101   3.462  10.168  0.4877  0.2863 -0.2205
 5527SOL    HW128217   1.180   3.508  10.137  1.0883 -0.7899 -0.3120
 5527SOL    HW228218   1.089   3.498  10.255  0.5579  2.4297 -1.1083
 5528SOL     OW28219   0.416   1.757   7.120 -0.1595  0.4865 -0.0329
 5528SOL    HW128220   0.464   1.742   7.202 -0.7065 -1.9649 -0.1517
 5528SOL    HW228221   0.331   1.746   7.162 -0.9744  0.6051 -1.6550
 5529SOL     OW28222   4.550   0.999   0.636 -0.2406  0.3654  0.4823
 5529SOL    HW128223   4.538   0.906   0.619 -0.6227  0.7934 -1.5978
 5529SOL    HW228224   4.639   0.991   0.668 -0.4595 -1.0049  0.7487
 5530SOL     OW28225   3.712   0.369   8.773  0.5396  0.6978 -0.1113
 5530SOL    HW128226   3.683   0.340   8.686  3.5810 -0.4230 -0.7708
 5530SOL    HW228227   3.788   0.424   8.752  2.0639 -0.9704  1.1032
 5531SOL     OW28228   3.958   0.286   4.928 -0.3439 -0.3532  0.0395
 5531SOL    HW128229   3.956   0.252   5.018 -0.6834 -1.2709 -0.3215
 5531SOL    HW228230   3.890   0.350   4.948  0.4817  0.2716  0.8714
 5532SOL     OW28231   0.551   1.043  10.273  0.2531 -0.2130 -1.1228
 5532SOL    HW128232   0.568   1.045  10.367  0.5490 -0.1430 -1.1776
 5532SOL    HW228233   0.514   0.956  10.262 -1.0090 -0.1090  2.2778
 5533SOL     OW28234   1.187   3.515   7.976 -0.1063  0.4038 -0.0826
 5533SOL    HW128235   1.243   3.526   8.053  0.5066  1.5631 -0.6923
 5533SOL    HW228236   1.189   3.605   7.943 -2.5885  0.0559 -1.1301
 5534SOL     OW28237   4.591   1.266   6.800  0.1539  0.1451  0.4216
 5534SOL    HW128238   4.503   1.258   6.762 -0.3036 -1.3759  1.8572
 5534SOL    HW228239   4.662   1.245   6.738  1.5982  3.6216  0.8648
 5535SOL     OW28240   2.226   2.596   3.708  0.0376  0.1045  0.3814
 5535SOL    HW128241   2.282   2.646   3.649 -1.4847  2.9123  1.2858
 5535SOL    HW228242   2.261   2.507   3.704 -0.2196 -0.0245  1.0205
 5536SOL     OW28243   3.221   2.890   4.513  0.0550  0.3100  0.1664
 5536SOL    HW128244   3.226   2.832   4.437 -1.0892  0.2301  0.1586
 5536SOL    HW228245   3.310   2.880   4.548 -0.1592  0.5523  0.7818
 5537SOL     OW28246   1.707   4.234   8.977 -0.1528 -0.2121 -0.3794
 5537SOL    HW128247   1.737   4.285   8.902  0.8235 -1.5072 -0.8780
 5537SOL    HW228248   1.637   4.178   8.943  0.9361 -1.1650 -1.0604
 5538SOL     OW28249   1.304   1.285   2.810 -0.5667  0.1411 -0.2828
 5538SOL    HW128250   1.347   1.233   2.742  2.1921 -0.3847  1.8650
 5538SOL    HW228251   1.381   1.335   2.838  0.5387 -2.6633  1.5989
 5539SOL     OW28252   1.815   4.179  14.802  0.3120  0.3927 -0.2472
 5539SOL    HW128253   1.723   4.153  14.790  0.6976  0.0637 -2.4028
 5539SOL    HW228254   1.836   4.125  14.878 -3.0109 -2.8880 -1.6142
 5540SOL     OW28255   4.059   3.912   7.578  0.3447 -0.1277 -0.0201
 5540SOL    HW128256   3.979   3.861   7.582 -1.2565  2.5695  2.5491
 5540SOL    HW228257   4.029   4.002   7.595 -0.5249 -0.4707  0.2493
 5541SOL     OW28258   1.061   4.155   6.716  0.5884  0.5181 -0.0671
 5541SOL    HW128259   1.081   4.225   6.778  0.4474 -1.0598  1.7680
 5541SOL    HW228260   1.076   4.090   6.785 -0.3531 -1.3794 -1.6410
 5542SOL     OW28261   2.997   3.716   7.967  0.3202 -0.7173  0.3633
 5542SOL    HW128262   2.903   3.706   7.984  0.0888 -0.0267 -0.5145
 5542SOL    HW228263   3.016   3.784   8.032 -2.0864  0.5861 -0.3022
 5543SOL     OW28264   3.253   3.901   0.313 -0.1756 -0.0547 -0.3649
 5543SOL    HW128265   3.273   3.956   0.237 -0.6797 -0.5093 -0.8228
 5543SOL    HW228266   3.228   3.819   0.270 -1.0764 -1.4058  2.7162
 5544SOL     OW28267   2.385   3.333   0.964  0.3979  0.1614  0.1813
 5544SOL    HW128268   2.297   3.309   0.995  0.3924 -0.1778 -0.0947
 5544SOL    HW228269   2.411   3.367   1.050  2.7482 -0.7028 -0.2001
 5545SOL     OW28270   1.330   2.747   5.970 -1.0076 -0.7252  0.4082
 5545SOL    HW128271   1.339   2.757   6.065 -0.6595 -1.0938  0.4132
 5545SOL    HW228272   1.315   2.837   5.942  1.4488 -1.0503 -1.9983
 5546SOL     OW28273   3.266   3.371   3.505 -0.2707  0.2405 -0.1822
 5546SOL    HW128274   3.271   3.382   3.411 -0.8318  0.8794 -0.1323
 5546SOL    HW228275   3.353   3.333   3.513 -0.2309  0.7971  2.0271
 5547SOL     OW28276   2.933   4.642   6.479 -0.5574  0.1510  0.2173
 5547SOL    HW128277   2.859   4.593   6.443 -1.7826  3.1504 -1.3545
 5547SOL    HW228278   2.985   4.575   6.523 -2.6578 -1.3528  0.4374
 5548SOL     OW28279   1.746   0.402  13.048 -0.5823  0.0580  0.5632
 5548SOL    HW128280   1.776   0.403  13.139  0.5960 -0.7463  0.1830
 5548SOL    HW228281   1.787   0.320  13.020  1.9788  1.5094  0.0843
 5549SOL     OW28282   3.540   1.965   3.238 -0.2458  0.2401  0.4774
 5549SOL    HW128283   3.633   1.959   3.213 -0.5566 -2.3794 -0.0582
 5549SOL    HW228284   3.533   1.939   3.330 -1.6955  1.7784  0.7865
 5550SOL     OW28285   2.967   0.021   7.454 -0.2067 -0.5584 -0.1012
 5550SOL    HW128286   2.965   0.076   7.376  0.1851  0.4278  0.5955
 5550SOL    HW228287   3.043   0.039   7.508 -0.3171 -1.1221  0.2506
 5551SOL     OW28288   0.551   1.271   5.612 -0.0321 -0.0419  0.2687
 5551SOL    HW128289   0.465   1.234   5.593 -0.1137 -0.0420  0.6357
 5551SOL    HW228290   0.591   1.197   5.657  1.6095  0.8822  0.3069
 5552SOL     OW28291   0.483   2.885   4.353  0.5924  0.2360  0.5945
 5552SOL    HW128292   0.482   2.899   4.447 -1.1634 -0.9415  0.7629
 5552SOL    HW228293   0.490   2.790   4.348  0.4065  0.1880  1.3326
 5553SOL     OW28294   0.477   2.113   4.848  0.2951  0.8296  0.5191
 5553SOL    HW128295   0.416   2.088   4.778 -1.0182 -2.9375  3.0558
 5553SOL    HW228296   0.462   2.052   4.920  0.3465  0.9270  0.6122
 5554SOL     OW28297   3.968   3.948   2.478  1.0017  0.7363 -0.4913
 5554SOL    HW128298   4.006   3.987   2.557 -0.7718  0.5305  0.4742
 5554SOL    HW228299   4.001   4.004   2.408 -1.1374  0.4181 -1.7422
 5555SOL     OW28300   1.346   2.665   4.906  0.0585 -0.3536 -0.4994
 5555SOL    HW128301   1.347   2.598   4.837  0.1882 -1.1561  0.2894
 5555SOL    HW228302   1.367   2.748   4.863  1.8598 -0.9446 -0.7479
 5556SOL     OW28303   4.285   0.014   6.842 -0.3394 -0.1381  0.0610
 5556SOL    HW128304   4.369   4.714   6.815 -0.2690  0.3062 -0.3277
 5556SOL    HW228305   4.232   4.674   6.860 -2.3146  1.2219  0.0719
 5557SOL     OW28306   4.355   0.260  12.648 -0.6892  0.3399 -0.2293
 5557SOL    HW128307   4.411   0.336  12.635 -0.7862  0.6623  1.1571
 5557SOL    HW228308   4.273   0.300  12.674 -0.4531 -1.0321  2.7269
 5558SOL     OW28309   1.738   2.063  12.542  0.4338  0.1154  0.3384
 5558SOL    HW128310   1.800   1.992  12.560 -0.1473 -0.3594  0.4733
 5558SOL    HW228311   1.774   2.094  12.459  0.3197 -2.1590 -0.5782
 5559SOL     OW28312   2.389   2.012   1.856 -0.1845  0.3456 -0.0924
 5559SOL    HW128313   2.339   2.079   1.902 -1.0763  0.8081 -1.7437
 5559SOL    HW228314   2.307   1.970   1.829 -0.9238  1.2139  0.8316
 5560SOL     OW28315   0.755   2.402   5.187 -0.2039 -0.1480  0.1708
 5560SOL    HW128316   0.785   2.386   5.097  0.0929  1.6433 -0.0426
 5560SOL    HW228317   0.819   2.355   5.240 -1.0245 -0.5550  0.7845
 5561SOL     OW28318   0.778   0.142  10.795 -0.1998 -0.0768 -0.0149
 5561SOL    HW128319   0.774   0.237  10.790  2.7967 -0.0197 -1.5231
 5561SOL    HW228320   0.686   0.130  10.818  0.1001  0.1494  1.3052
 5562SOL     OW28321   4.515   3.245   9.839  0.2172  0.3069 -0.8160
 5562SOL    HW128322   4.524   3.336   9.866  0.2225  0.0547  0.0382
 5562SOL    HW228323   4.422   3.223   9.834 -0.5540  3.4098 -0.3507
 5563SOL     OW28324   4.013   4.577   7.933 -0.9230 -0.5541  0.4044
 5563SOL    HW128325   4.076   4.506   7.919  1.2907  1.2898  1.1099
 5563SOL    HW228326   4.074   4.645   7.961 -1.5406  1.6897 -3.7955
 5564SOL     OW28327   2.282   2.497   0.377 -0.0885 -0.0407  0.3593
 5564SOL    HW128328   2.332   2.577   0.365  0.7101 -0.4200  1.1572
 5564SOL    HW228329   2.336   2.427   0.338 -0.9101 -0.1572 -0.5713
 5565SOL     OW28330   2.179   0.718   4.112  0.1687 -0.6623 -0.2751
 5565SOL    HW128331   2.114   0.657   4.078 -0.1639 -1.6130  2.0641
 5565SOL    HW228332   2.124   0.762   4.177  1.6794  0.0296  0.5377
 5566SOL     OW28333   4.330   0.945   8.678 -0.0901  0.0511 -0.1472
 5566SOL    HW128334   4.237   0.939   8.656 -0.4868 -0.9549  1.8124
 5566SOL    HW228335   4.334   1.034   8.713 -0.8965  1.8594 -4.7376
 5567SOL     OW28336   0.140   1.706   7.634 -0.7192 -0.1069  0.6515
 5567SOL    HW128337   0.208   1.744   7.578 -0.3507  0.4356  1.4821
 5567SOL    HW228338   0.082   1.779   7.657 -1.2674 -0.3033 -0.0908
 5568SOL     OW28339   1.115   3.724   8.243  0.5443  0.5321  0.1475
 5568SOL    HW128340   1.069   3.764   8.317  0.6832 -0.0203  0.5368
 5568SOL    HW228341   1.107   3.801   8.187  1.8964  0.5198 -0.0704
 5569SOL     OW28342   2.362   4.258   4.314  0.4310 -0.1083  0.3631
 5569SOL    HW128343   2.449   4.227   4.339  1.4398  0.8523 -2.0287
 5569SOL    HW228344   2.364   4.267   4.219 -1.0429 -1.9207  0.1518
 5570SOL     OW28345   0.806   1.572   4.279  0.4631 -0.5613 -0.6191
 5570SOL    HW128346   0.806   1.477   4.288 -2.2698 -0.7543 -2.4387
 5570SOL    HW228347   0.899   1.591   4.284  0.5593 -1.2935  0.3243
 5571SOL     OW28348   2.803   0.115   3.975  0.5315 -0.0436  0.8120
 5571SOL    HW128349   2.866   0.156   4.034  0.4187 -0.7833  1.4341
 5571SOL    HW228350   2.783   0.189   3.918  2.2842 -0.6979 -0.6331
 5572SOL     OW28351   1.337   2.003  14.397 -0.3288  0.2385 -0.0041
 5572SOL    HW128352   1.418   2.054  14.404 -0.0138 -0.1098 -1.0621
 5572SOL    HW228353   1.327   2.008  14.301 -0.6091 -1.6852 -0.0723
 5573SOL     OW28354   3.222   0.313   5.299 -0.8284  0.0110  0.6736
 5573SOL    HW128355   3.277   0.250   5.345  2.0012  1.0104 -1.3329
 5573SOL    HW228356   3.146   0.256   5.296  0.4951 -1.6870 -0.9049
 5574SOL     OW28357   0.230   2.768  17.036 -0.1900 -0.3068 -0.5999
 5574SOL    HW128358   0.297   2.703  17.014 -2.6692 -2.5982 -1.2909
 5574SOL    HW228359   0.209   2.804  16.950  0.3426  0.7460 -0.2853
 5575SOL     OW28360   1.861   1.390   7.135  0.3055 -0.5853 -0.3292
 5575SOL    HW128361   1.943   1.425   7.102 -0.2627  1.1652  0.1211
 5575SOL    HW228362   1.824   1.340   7.063 -1.2879 -0.5854  0.4910
 5576SOL     OW28363   3.623   0.491  13.315 -0.2475  0.5212  0.2070
 5576SOL    HW128364   3.692   0.428  13.298 -2.3392 -1.5229 -0.6122
 5576SOL    HW228365   3.554   0.455  13.260 -0.2414  0.3076  0.3390
 5577SOL     OW28366   1.829   0.375   4.602 -0.5708 -0.2875 -0.8261
 5577SOL    HW128367   1.771   0.330   4.663 -0.6216  0.9687  0.0459
 5577SOL    HW228368   1.792   0.463   4.611 -0.3307 -0.1960 -0.7227
 5578SOL     OW28369   0.156   0.309   1.933 -0.0017 -0.1848 -0.2524
 5578SOL    HW128370   0.149   0.393   1.887  2.2515 -0.1856 -0.5598
 5578SOL    HW228371   0.122   0.248   1.867 -2.5772  1.3633 -0.3850
 5579SOL     OW28372   0.470   3.525  16.439 -0.0089  0.0889 -0.9199
 5579SOL    HW128373   0.465   3.581  16.517 -1.5625 -0.8799 -0.3354
 5579SOL    HW228374   0.512   3.585  16.377 -0.8971  1.3606 -0.2821
 5580SOL     OW28375   4.040   1.218   0.739 -0.7374 -0.0381 -0.1477
 5580SOL    HW128376   3.945   1.210   0.745 -0.7765  0.7984  0.3476
 5580SOL    HW228377   4.063   1.127   0.718 -1.1619 -0.5612  1.6386
 5581SOL     OW28378   0.081   3.977   6.123 -0.2013  0.3681  0.2658
 5581SOL    HW128379   0.140   3.911   6.087 -1.9601 -1.9507  1.6151
 5581SOL    HW228380   0.013   3.923   6.163  0.5627 -1.3773 -0.8319
 5582SOL     OW28381   0.449   1.442  14.742 -0.4207 -0.3119 -0.2801
 5582SOL    HW128382   0.411   1.502  14.805 -0.6386  0.1189 -0.8199
 5582SOL    HW228383   0.381   1.449  14.675  1.7770  1.8629 -2.3100
 5583SOL     OW28384   0.239   0.313   2.621 -0.1679 -0.0359  0.4235
 5583SOL    HW128385   0.310   0.346   2.567  0.1993  1.8534  2.0280
 5583SOL    HW228386   0.286   0.257   2.683 -0.6107  0.6546  1.3847
 5584SOL     OW28387   2.877   0.823  13.393 -0.1693 -0.3653 -0.4260
 5584SOL    HW128388   2.850   0.908  13.428 -0.0256  0.5268 -2.5142
 5584SOL    HW228389   2.973   0.832  13.397 -0.1930  0.0279 -0.7980
 5585SOL     OW28390   2.682   2.103   8.656 -0.4618  0.2345  0.0565
 5585SOL    HW128391   2.611   2.156   8.620  0.0209  0.0273 -1.1967
 5585SOL    HW228392   2.650   2.015   8.635 -0.0285  0.1611 -0.2995
 5586SOL     OW28393   4.514   0.417  15.226  0.1459  0.6762 -0.3669
 5586SOL    HW128394   4.432   0.390  15.267  0.5117 -1.2447 -0.9324
 5586SOL    HW228395   4.566   0.342  15.252 -1.2224 -0.0097  0.3767
 5587SOL     OW28396   3.670   1.708   9.764 -0.0551 -0.0304  0.0131
 5587SOL    HW128397   3.746   1.687   9.819  0.7277 -1.1868 -1.5108
 5587SOL    HW228398   3.711   1.785   9.726 -0.8336  0.0704 -0.6158
 5588SOL     OW28399   4.244   0.718   9.286  0.3150 -0.5926  0.1819
 5588SOL    HW128400   4.194   0.637   9.279  0.1136 -0.5504  1.0819
 5588SOL    HW228401   4.198   0.741   9.366  0.4899 -1.8205  0.6313
 5589SOL     OW28402   4.388   2.549  11.816  0.0985 -0.1171  0.1434
 5589SOL    HW128403   4.415   2.475  11.871  4.0128  1.2650  0.1301
 5589SOL    HW228404   4.382   2.611  11.888 -0.3661 -0.0775  0.0676
 5590SOL     OW28405   1.127   1.812   3.878 -0.4021 -0.3691 -0.7117
 5590SOL    HW128406   1.157   1.721   3.878 -1.2857 -0.6572 -0.3275
 5590SOL    HW228407   1.133   1.826   3.973  0.8968 -0.7995 -0.7312
 5591SOL     OW28408   2.952   1.686  13.290 -0.5073  0.3947 -0.2293
 5591SOL    HW128409   2.972   1.748  13.360  0.6953 -0.0667 -0.1823
 5591SOL    HW228410   2.900   1.618  13.332  0.6003  0.4604  1.2235
 5592SOL     OW28411   0.137   3.878   1.774 -0.1469  0.0110 -0.7328
 5592SOL    HW128412   0.136   3.787   1.745  1.3874 -0.2829  0.1641
 5592SOL    HW228413   0.073   3.886   1.845 -0.3323  0.6180 -0.9675
 5593SOL     OW28414   0.312   2.764   4.726  0.1571  0.1899 -0.5239
 5593SOL    HW128415   0.391   2.800   4.686 -0.2102 -0.3594 -1.7515
 5593SOL    HW228416   0.253   2.765   4.651 -0.4185  1.1311 -0.0520
 5594SOL     OW28417   1.031   4.076  10.222  0.2226 -0.0157 -0.5226
 5594SOL    HW128418   1.101   4.141  10.224  1.1148 -1.0039  0.2787
 5594SOL    HW228419   0.958   4.136  10.238  1.4457  1.2330  0.3592
 5595SOL     OW28420   2.879   0.781   5.883 -0.1590  0.4856 -0.2110
 5595SOL    HW128421   2.889   0.712   5.818  0.4993 -1.3324  1.8199
 5595SOL    HW228422   2.919   0.857   5.841  0.0903  0.4558 -0.0248
 5596SOL     OW28423   2.914   1.158   1.976  0.3956 -0.2451  0.2473
 5596SOL    HW128424   2.974   1.173   1.904  0.6767 -0.7315  0.3786
 5596SOL    HW228425   2.917   1.062   1.981 -0.2587 -0.2849 -0.1859
 5597SOL     OW28426   1.181   0.648   1.388 -0.1669 -0.2417  0.0033
 5597SOL    HW128427   1.152   0.737   1.412 -0.1609 -0.4710  0.8726
 5597SOL    HW228428   1.247   0.634   1.456  0.8748  1.5116 -0.6482
 5598SOL     OW28429   2.455   0.259   3.614 -0.4485 -0.0118  0.0618
 5598SOL    HW128430   2.539   0.299   3.591 -0.6703  0.6126  0.3535
 5598SOL    HW228431   2.424   0.317   3.682  0.0625  0.1342  0.1684
 5599SOL     OW28432   4.202   2.731   9.668  0.0372 -1.0986  0.1848
 5599SOL    HW128433   4.257   2.749   9.591 -0.7880  4.8385  0.9687
 5599SOL    HW228434   4.115   2.732   9.629  0.2141  1.3334 -0.1860
 5600SOL     OW28435   4.214   2.303  11.647  0.0202 -0.1481  0.0013
 5600SOL    HW128436   4.238   2.395  11.657 -0.9856  0.0436  0.7037
 5600SOL    HW228437   4.283   2.247  11.683 -0.4510 -1.0282 -0.4419
 5601SOL     OW28438   1.604   1.196   2.373 -0.1792 -0.2835  0.5787
 5601SOL    HW128439   1.556   1.268   2.414  1.7828  1.3211  0.0214
 5601SOL    HW228440   1.558   1.183   2.290  1.9647  3.0043 -1.1371
 5602SOL     OW28441   1.166   0.511   8.046  0.9145 -0.5929 -0.7390
 5602SOL    HW128442   1.241   0.570   8.046 -0.7143  1.4746  2.9612
 5602SOL    HW228443   1.108   0.553   7.982  1.8567  0.8258 -0.6691
 5603SOL     OW28444   1.482   1.945  17.594 -0.2968 -0.1441 -0.0990
 5603SOL    HW128445   1.389   1.938  17.571  0.1078 -1.4959 -1.2959
 5603SOL    HW228446   1.508   2.036  17.610 -0.2898 -0.2684  0.5739
 5604SOL     OW28447   4.231   2.969   1.743  0.2587  0.2944 -0.0088
 5604SOL    HW128448   4.284   2.994   1.668 -0.6816  2.2017 -0.0519
 5604SOL    HW228449   4.158   2.918   1.709 -0.5845  1.2631  0.3499
 5605SOL     OW28450   3.953   4.366   3.536  0.3663  0.3221 -0.3011
 5605SOL    HW128451   3.980   4.275   3.520  3.1273  1.4527 -1.9458
 5605SOL    HW228452   3.896   4.389   3.462 -0.0917 -0.9379 -0.3383
 5606SOL     OW28453   0.420   3.345   6.379  0.2540  0.4256 -0.9006
 5606SOL    HW128454   0.489   3.311   6.323  1.0399 -1.1107  0.9913
 5606SOL    HW228455   0.336   3.319   6.343  1.0924 -1.4558 -1.4810
 5607SOL     OW28456   1.241   2.311   2.516 -0.4014 -0.3907  0.4229
 5607SOL    HW128457   1.335   2.310   2.501 -0.4304  2.6927 -0.0686
 5607SOL    HW228458   1.253   2.278   2.605  2.0814  0.2126  0.2960
 5608SOL     OW28459   0.981   1.806   5.042  0.0776 -0.7644  0.3484
 5608SOL    HW128460   0.941   1.721   5.060 -1.3311 -0.3197 -0.6650
 5608SOL    HW228461   1.011   1.798   4.952  2.6621  1.3872  1.0143
 5609SOL     OW28462   2.868   3.501   5.825  0.5380 -0.1023  0.6074
 5609SOL    HW128463   2.952   3.462   5.799 -0.3082 -0.8933 -0.8777
 5609SOL    HW228464   2.832   3.423   5.867 -1.6622 -0.2007 -1.4956
 5610SOL     OW28465   1.208   2.099  13.443 -0.0582  0.3922 -0.5388
 5610SOL    HW128466   1.256   2.017  13.452 -0.0825  0.1589 -2.6397
 5610SOL    HW228467   1.262   2.149  13.383 -2.4438  1.5574 -1.7215
 5611SOL     OW28468   3.029   0.467  17.441  0.1618  0.3747  0.1257
 5611SOL    HW128469   2.950   0.500  17.485 -0.7263  0.3588 -1.4530
 5611SOL    HW228470   3.093   0.521  17.487  0.6061  0.1813 -0.2719
 5612SOL     OW28471   2.350   1.001   7.786 -0.3358  0.3759  0.1169
 5612SOL    HW128472   2.300   1.072   7.826 -0.9257  0.8237 -1.4247
 5612SOL    HW228473   2.437   1.037   7.767  0.3009 -1.7443 -0.9733
 5613SOL     OW28474   3.768   0.799   2.121  0.1278  0.3576  0.6465
 5613SOL    HW128475   3.693   0.795   2.180 -0.1366 -0.7478  0.2516
 5613SOL    HW228476   3.745   0.721   2.070  1.7144  0.3594 -0.0724
 5614SOL     OW28477   3.676   0.024   9.354  0.9113 -0.2766  0.0173
 5614SOL    HW128478   3.666   0.116   9.378 -0.1281 -0.4255  0.1500
 5614SOL    HW228479   3.586   4.736   9.335  0.8401 -0.9868  1.3162
 5615SOL     OW28480   4.554   2.228  12.503 -0.2571 -0.6481 -0.3014
 5615SOL    HW128481   4.524   2.317  12.524 -0.7490 -0.5025 -1.6229
 5615SOL    HW228482   4.480   2.177  12.469  0.4076 -1.5564 -0.3824
 5616SOL     OW28483   1.809   4.356   5.413 -0.7145 -0.2141  0.0562
 5616SOL    HW128484   1.738   4.332   5.473 -0.9099 -1.0987 -0.5221
 5616SOL    HW228485   1.840   4.267   5.393  0.6606  0.7312 -1.9517
 5617SOL     OW28486   2.979   1.847   6.954  0.8030 -0.2767 -0.2012
 5617SOL    HW128487   3.014   1.931   6.982  0.6949  0.7974 -3.3330
 5617SOL    HW228488   2.905   1.881   6.905  1.4985  0.3284 -0.8158
 5618SOL     OW28489   1.890   1.442  13.166 -0.1416 -0.1524  0.5644
 5618SOL    HW128490   1.976   1.479  13.185  0.3349 -1.1175  0.3010
 5618SOL    HW228491   1.836   1.517  13.189  0.4799 -0.3702  2.7323
 5619SOL     OW28492   2.127   4.030   2.964 -0.1468  0.6129  0.6352
 5619SOL    HW128493   2.093   4.047   3.052 -0.7152 -1.6304  0.8513
 5619SOL    HW228494   2.061   3.972   2.925 -0.8410  1.7191  0.1701
 5620SOL     OW28495   1.719   1.567   4.067 -0.2210 -0.5614  0.2956
 5620SOL    HW128496   1.753   1.651   4.036 -1.4511  0.6343  2.2021
 5620SOL    HW228497   1.668   1.602   4.140  0.0178 -1.4169  0.8698
 5621SOL     OW28498   3.221   3.275   2.143  0.4340  0.4484  0.0597
 5621SOL    HW128499   3.316   3.265   2.132  0.4930  0.7630  0.2803
 5621SOL    HW228500   3.205   3.206   2.208 -0.9268  1.3786  0.7089
 5622SOL     OW28501   0.946   1.667   4.576  0.4058 -0.4042 -0.3223
 5622SOL    HW128502   0.912   1.594   4.627 -0.3012  1.8504  2.4947
 5622SOL    HW228503   0.866   1.716   4.558 -0.3968 -1.9091 -0.7379
 5623SOL     OW28504   3.899   1.485   7.016 -0.4726 -0.5624  0.1812
 5623SOL    HW128505   3.970   1.457   7.074  0.1029  0.7088  0.0971
 5623SOL    HW228506   3.890   1.405   6.964 -0.4454 -0.6683  0.3405
 5624SOL     OW28507   2.297   0.779   0.927 -0.0167  0.0588  0.7835
 5624SOL    HW128508   2.217   0.832   0.933 -0.3811 -0.4990  0.8081
 5624SOL    HW228509   2.301   0.776   0.831 -1.5321  1.8702  0.6468
 5625SOL     OW28510   1.380   3.311   2.723  0.2935 -0.5204 -0.1215
 5625SOL    HW128511   1.360   3.335   2.632  2.3107  0.3739 -0.3379
 5625SOL    HW228512   1.474   3.295   2.712  0.3825 -1.2142  1.8294
 5626SOL     OW28513   2.829   2.949  14.704  0.2649 -0.5346 -0.0007
 5626SOL    HW128514   2.897   2.963  14.637  0.7606  0.3745  0.7029
 5626SOL    HW228515   2.805   3.038  14.729 -0.5292 -1.4777  2.5483
 5627SOL     OW28516   2.751   3.993  16.857 -0.6846 -0.0553 -0.5146
 5627SOL    HW128517   2.847   3.988  16.864 -0.6530 -0.3085 -1.0821
 5627SOL    HW228518   2.726   4.085  16.846  3.5819  0.8903 -2.2649
 5628SOL     OW28519   4.468   1.802  14.858  0.5250 -0.3489 -0.4699
 5628SOL    HW128520   4.465   1.866  14.787 -0.1620 -2.5143 -2.4193
 5628SOL    HW228521   4.561   1.776  14.854  1.3133  1.8751  3.4267
 5629SOL     OW28522   3.083   2.043   4.962  0.1450 -0.8833 -0.1839
 5629SOL    HW128523   3.142   2.118   4.968 -0.8837 -0.0244 -0.8997
 5629SOL    HW228524   3.014   2.072   4.903  1.9926  1.8160 -1.0095
 5630SOL     OW28525   1.310   0.426  16.734  0.1854  0.1378  0.6583
 5630SOL    HW128526   1.250   0.370  16.784  0.8796 -1.4725 -0.3196
 5630SOL    HW228527   1.365   0.460  16.805  1.4723  0.6149 -0.5773
 5631SOL     OW28528   2.128   1.526  16.094  0.4442 -0.0159 -0.0687
 5631SOL    HW128529   2.219   1.550  16.112  0.4445  1.1307 -1.5478
 5631SOL    HW228530   2.121   1.538  15.999 -1.2524 -1.9921 -0.1989
 5632SOL     OW28531   4.212   3.538   7.539 -0.0524 -0.1868  0.0193
 5632SOL    HW128532   4.267   3.608   7.504 -2.8795  1.6198 -0.8914
 5632SOL    HW228533   4.222   3.479   7.464  0.6161 -1.1397  0.8696
 5633SOL     OW28534   4.085   2.214  13.703 -0.4712 -0.0980 -0.0565
 5633SOL    HW128535   4.001   2.239  13.743 -0.2481 -0.1639  0.4485
 5633SOL    HW228536   4.093   2.294  13.652 -1.6704 -0.8471 -1.4063
 5634SOL     OW28537   3.833   0.224   4.708  0.0672 -0.1750  0.0135
 5634SOL    HW128538   3.878   0.272   4.778 -1.2023  0.3557  0.4545
 5634SOL    HW228539   3.893   0.150   4.701  0.5789  0.3865 -1.5859
 5635SOL     OW28540   2.142   0.625   8.417 -0.0581 -0.0836 -0.3883
 5635SOL    HW128541   2.098   0.696   8.464  0.9110 -0.0942  0.5316
 5635SOL    HW228542   2.083   0.623   8.342 -0.7142  0.5367  0.1090
 5636SOL     OW28543   0.159   4.250   8.296  0.1254  0.2187 -0.1231
 5636SOL    HW128544   0.166   4.221   8.205 -0.4075  1.3212 -0.5244
 5636SOL    HW228545   0.108   4.329   8.277  2.9167  2.1616  0.4738
 5637SOL     OW28546   2.413   0.103   6.404  0.3789 -0.2583  0.0934
 5637SOL    HW128547   2.427   0.196   6.388  2.7393 -0.9600 -1.8391
 5637SOL    HW228548   2.442   0.066   6.321  2.6953  0.4164  0.5901
 5638SOL     OW28549   4.069   2.679   8.095 -0.5888  0.3568  0.5205
 5638SOL    HW128550   4.109   2.594   8.113  1.3409  1.2212  0.2285
 5638SOL    HW228551   4.132   2.739   8.134 -0.4556  0.2806  0.4226
 5639SOL     OW28552   0.931   2.667   9.842 -0.2685 -0.0905  0.6292
 5639SOL    HW128553   0.938   2.760   9.863  2.4466 -0.1190 -0.0413
 5639SOL    HW228554   0.972   2.675   9.755 -1.6440 -3.4071 -0.3081
 5640SOL     OW28555   2.060   3.735   0.276 -0.2876 -0.2198 -0.1020
 5640SOL    HW128556   2.138   3.791   0.273  0.1892 -0.8820  0.0501
 5640SOL    HW228557   2.097   3.647   0.270  1.7303  0.6255  0.2904
 5641SOL     OW28558   1.439   0.285   5.534  0.6305  0.3543  0.2197
 5641SOL    HW128559   1.395   0.215   5.583 -1.3692  0.4612 -1.3720
 5641SOL    HW228560   1.365   0.345   5.523 -0.0273 -0.2725  1.2258
 5642SOL     OW28561   0.347   3.123   4.897 -0.3495  0.9723  0.7141
 5642SOL    HW128562   0.339   3.147   4.989 -4.6337  1.8370  0.0929
 5642SOL    HW228563   0.309   3.035   4.895 -0.2031  0.9172  0.2182
 5643SOL     OW28564   3.221   0.327   8.002 -0.2652  0.3172  0.1574
 5643SOL    HW128565   3.142   0.276   7.988 -0.8628  0.7751  1.8174
 5643SOL    HW228566   3.189   0.355   8.088 -0.3860 -1.2900  0.6453
 5644SOL     OW28567   0.677   3.969   7.208 -0.0467 -0.6471 -0.0163
 5644SOL    HW128568   0.686   3.986   7.302  0.3650 -0.8658 -0.0171
 5644SOL    HW228569   0.723   4.046   7.175  2.0598 -1.7042  0.4751
 5645SOL     OW28570   3.557   3.213   1.361 -0.0568  0.6791 -0.4464
 5645SOL    HW128571   3.624   3.233   1.426 -0.0960  1.6912 -0.7182
 5645SOL    HW228572   3.487   3.181   1.418  0.2299  1.9133  0.5917
 5646SOL     OW28573   4.597   3.702   8.683  0.1233 -0.1646  0.2834
 5646SOL    HW128574   4.684   3.667   8.665  0.5755  2.1802 -2.0377
 5646SOL    HW228575   4.613   3.736   8.771  0.8892  0.8922 -0.2589
 5647SOL     OW28576   1.162   2.018  13.951 -0.6315  0.3187  0.6727
 5647SOL    HW128577   1.154   2.072  13.872  0.0819  1.9859  1.7373
 5647SOL    HW228578   1.242   2.034  14.001  0.0058 -2.2937  0.4861
 5648SOL     OW28579   1.637   1.197  11.590 -0.8647 -0.1046 -0.0353
 5648SOL    HW128580   1.583   1.257  11.642 -1.5492 -1.3517  0.6906
 5648SOL    HW228581   1.725   1.204  11.628  0.2738  0.0332 -2.6918
 5649SOL     OW28582   0.067   3.229  16.481  0.5181  0.0011  0.0514
 5649SOL    HW128583   0.081   3.321  16.459  2.2730 -0.2525  0.0974
 5649SOL    HW228584   0.125   3.189  16.416  1.0640 -2.1644  1.8403
 5650SOL     OW28585   3.145   0.783  17.643 -0.4448 -0.4625 -0.4560
 5650SOL    HW128586   3.098   0.849  17.693  1.8664 -0.2367  1.3818
 5650SOL    HW228587   3.103   0.705  17.680 -0.1430  0.3386  1.5551
 5651SOL     OW28588   4.738   2.457  10.841  0.2129  0.5684  0.1290
 5651SOL    HW128589   0.028   2.390  10.904 -2.3351  0.9528  1.6713
 5651SOL    HW228590   4.702   2.524  10.900 -1.0389  0.1146 -0.1062
 5652SOL     OW28591   3.525   0.110   3.018 -0.0231 -0.3951  0.0866
 5652SOL    HW128592   3.542   0.017   3.005 -0.2535 -0.3796 -0.3117
 5652SOL    HW228593   3.440   0.104   3.063 -0.4996 -0.6819 -0.8508
 5653SOL     OW28594   3.793   3.870  15.744  0.2430  0.1183  0.3816
 5653SOL    HW128595   3.725   3.847  15.807  0.5087  0.4469  0.7866
 5653SOL    HW228596   3.748   3.850  15.662  0.0765 -2.8776  1.2095
 5654SOL     OW28597   4.376   4.734   3.139  0.3433 -0.0501 -0.0362
 5654SOL    HW128598   4.454   4.706   3.187 -0.2776  0.6327  1.3569
 5654SOL    HW228599   4.324   4.725   3.219 -0.2175  2.1316 -0.1478
 5655SOL     OW28600   0.407   1.103  12.468  0.4407 -0.5358  0.5514
 5655SOL    HW128601   0.501   1.087  12.454  0.2999 -0.1377 -0.8802
 5655SOL    HW228602   0.402   1.119  12.562 -1.3520  0.2533  0.3189
 5656SOL     OW28603   3.097   0.113   3.638 -0.1666  0.0974  0.0556
 5656SOL    HW128604   3.046   0.054   3.694  1.4471 -0.7348  0.6460
 5656SOL    HW228605   3.095   0.198   3.683  1.7674  0.1860 -0.0350
 5657SOL     OW28606   0.263   0.386   8.588  0.3237  0.0254 -0.2685
 5657SOL    HW128607   0.232   0.328   8.657  2.0653 -1.9357 -1.1253
 5657SOL    HW228608   0.230   0.467   8.627  1.3274 -0.0560  0.7393
 5658SOL     OW28609   3.274   0.723  10.068 -0.4515 -0.4360  0.2481
 5658SOL    HW128610   3.196   0.689  10.111  0.3024 -1.1565  1.0496
 5658SOL    HW228611   3.288   0.811  10.105 -0.7342 -1.0158  1.7146
 5659SOL     OW28612   4.374   1.866   2.846 -0.6432 -0.1311 -0.1614
 5659SOL    HW128613   4.318   1.944   2.838 -0.4498  0.5225  4.8889
 5659SOL    HW228614   4.311   1.803   2.812 -1.0728 -0.2588  0.8732
 5660SOL     OW28615   2.215   4.715   1.405  0.3545 -0.2571 -0.2315
 5660SOL    HW128616   2.218   4.707   1.310 -2.2858 -0.5963 -0.2787
 5660SOL    HW228617   2.137   0.032   1.414 -0.5390 -1.3800 -1.0438
 5661SOL     OW28618   3.252   0.371  11.896 -0.0503 -0.2348 -0.3148
 5661SOL    HW128619   3.335   0.385  11.851  1.7043  0.2513  3.0148
 5661SOL    HW228620   3.267   0.292  11.948  2.0341  0.1093 -0.4165
 5662SOL     OW28621   4.192   1.785   8.404  0.0967 -0.4201  0.2162
 5662SOL    HW128622   4.288   1.785   8.407  0.0900 -0.6436  0.4872
 5662SOL    HW228623   4.163   1.732   8.479  0.4460 -0.0892  0.5855
 5663SOL     OW28624   2.057   1.344   2.188 -0.1702  0.7760  0.1044
 5663SOL    HW128625   1.998   1.305   2.252 -3.1542 -0.0680 -3.1714
 5663SOL    HW228626   1.999   1.357   2.113  0.3650  1.2740 -0.2238
 5664SOL     OW28627   4.537   4.213  10.982  1.1733 -0.5290  0.2066
 5664SOL    HW128628   4.465   4.172  11.029  2.0650 -1.8451  0.4284
 5664SOL    HW228629   4.556   4.285  11.042  0.5347 -1.2187  1.2271
 5665SOL     OW28630   3.976   0.663   3.927 -0.3744 -0.3665 -0.3023
 5665SOL    HW128631   4.069   0.649   3.909 -1.2284 -3.4727 -2.3194
 5665SOL    HW228632   3.969   0.619   4.012 -2.7055 -2.1416 -1.4037
 5666SOL     OW28633   1.266   1.634   4.986  0.0690  0.3522  0.7644
 5666SOL    HW128634   1.187   1.600   4.943  0.1896  2.3882 -1.0559
 5666SOL    HW228635   1.242   1.726   4.994  0.2263  0.3492  1.2462
 5667SOL     OW28636   3.269   2.877   1.525  0.7054  0.2999 -0.6640
 5667SOL    HW128637   3.250   2.790   1.490 -0.3157 -0.8770  2.8112
 5667SOL    HW228638   3.290   2.855   1.616 -0.5021 -1.0413 -0.7106
 5668SOL     OW28639   1.536   2.500   9.689 -0.3303  0.6072  0.5689
 5668SOL    HW128640   1.555   2.448   9.767 -1.2300 -0.5604  0.0155
 5668SOL    HW228641   1.579   2.578   9.723 -2.3845  1.5606  0.9788
 5669SOL     OW28642   1.126   1.213   3.035  0.3417  0.4336  0.0646
 5669SOL    HW128643   1.093   1.303   3.042  1.3467  0.9569 -2.1286
 5669SOL    HW228644   1.190   1.219   2.965 -0.5722  1.5206 -0.6843
 5670SOL     OW28645   3.766   3.669   1.091  0.3611  0.0204 -0.1172
 5670SOL    HW128646   3.674   3.692   1.095  0.1506 -0.9939  1.1651
 5670SOL    HW228647   3.763   3.578   1.121 -1.0878  0.0737 -0.1140
 5671SOL     OW28648   0.261   1.425   6.871 -0.2705  0.6927  0.4809
 5671SOL    HW128649   0.282   1.344   6.917  3.7888  1.9984  0.9268
 5671SOL    HW228650   0.239   1.384   6.788 -2.9173 -1.1202  2.0727
 5672SOL     OW28651   2.961   3.266   6.292  0.1327 -0.1193 -0.1174
 5672SOL    HW128652   3.015   3.262   6.371  0.5155 -2.8164 -0.5104
 5672SOL    HW228653   3.004   3.200   6.237  1.4278  2.6683 -2.4829
 5673SOL     OW28654   3.642   0.338   0.872  0.4516 -0.5767 -0.1676
 5673SOL    HW128655   3.633   0.244   0.859  1.2655 -1.2420  4.0445
 5673SOL    HW228656   3.559   0.378   0.846 -0.4248 -1.1401  1.7529
 5674SOL     OW28657   1.798   1.469   7.795  0.8860 -0.2124 -0.1194
 5674SOL    HW128658   1.782   1.457   7.701  0.3305  1.3029 -0.2093
 5674SOL    HW228659   1.726   1.526   7.822  0.4130  0.1955 -2.2043
 5675SOL     OW28660   2.831   0.670   7.034  0.7881 -0.3127 -0.0936
 5675SOL    HW128661   2.782   0.752   7.027  0.3519 -0.5988 -0.4175
 5675SOL    HW228662   2.776   0.606   7.080  0.8666  0.2164  0.7405
 5676SOL     OW28663   0.654   0.763  10.410 -0.3217  0.6719  0.3049
 5676SOL    HW128664   0.663   0.803  10.496  1.5409 -0.6726  0.7275
 5676SOL    HW228665   0.678   0.675  10.439  2.1494  0.7384 -1.4909
 5677SOL     OW28666   3.632   2.062   5.982 -0.0377 -0.5270 -0.6811
 5677SOL    HW128667   3.596   2.133   5.929 -1.0539 -1.4799 -1.2750
 5677SOL    HW228668   3.564   2.062   6.049  1.2999 -1.0222  0.6738
 5678SOL     OW28669   3.132   4.305   5.962 -0.0888 -0.3758 -0.2571
 5678SOL    HW128670   3.180   4.265   5.890  0.6380 -1.6162  0.9229
 5678SOL    HW228671   3.100   4.226   6.005  0.5499 -0.0067  0.9158
 5679SOL     OW28672   4.359   0.383   9.190 -0.4843 -0.4187  0.0346
 5679SOL    HW128673   4.386   0.457   9.135  0.0474 -0.3777  0.3397
 5679SOL    HW228674   4.446   0.352   9.216  0.4487  1.1737 -1.2119
 5680SOL     OW28675   3.594   0.398   7.810  0.0810 -0.1705  0.3442
 5680SOL    HW128676   3.573   0.306   7.824  2.6156 -0.7430  0.3413
 5680SOL    HW228677   3.505   0.426   7.835  0.3764  0.3526  0.8208
 5681SOL     OW28678   3.602   3.445   2.014  0.1461 -0.9811 -0.2198
 5681SOL    HW128679   3.647   3.528   2.000 -1.7465  0.1520  0.4168
 5681SOL    HW228680   3.561   3.430   1.929 -0.2773 -0.6280 -0.0759
 5682SOL     OW28681   2.181   4.013   8.350  0.0013 -0.3373 -0.1749
 5682SOL    HW128682   2.209   4.073   8.420 -0.5077  0.0607 -0.3056
 5682SOL    HW228683   2.264   3.975   8.323 -0.6369 -0.0461 -2.5504
 5683SOL     OW28684   0.097   0.161   1.717 -0.1192  0.4114 -0.4408
 5683SOL    HW128685   0.174   0.207   1.685  0.3870  0.0485  0.2561
 5683SOL    HW228686   0.118   0.069   1.699 -0.4786  0.3989 -0.8039
 5684SOL     OW28687   2.051   3.518   0.544 -0.6251  0.0752  0.1405
 5684SOL    HW128688   2.002   3.439   0.565 -1.6907 -0.2175 -3.4958
 5684SOL    HW228689   1.995   3.589   0.576  0.3763  0.6985  0.5236
 5685SOL     OW28690   4.184   2.827   5.418  0.2261 -0.1215  0.2836
 5685SOL    HW128691   4.190   2.749   5.473  1.8704  0.2667  0.6476
 5685SOL    HW228692   4.105   2.867   5.454 -0.7357  0.9360 -2.9693
 5686SOL     OW28693   3.268   0.934   3.819  0.5168  0.4665 -0.6060
 5686SOL    HW128694   3.357   0.899   3.825 -0.3997 -1.6656  0.4331
 5686SOL    HW228695   3.258   0.961   3.910 -0.4761  0.3527 -0.6826
 5687SOL     OW28696   3.400   4.459   6.538 -0.1430  0.4701 -0.5740
 5687SOL    HW128697   3.362   4.507   6.464  1.1326  1.5719 -0.5197
 5687SOL    HW228698   3.378   4.367   6.526  1.8567  0.0871 -1.3583
 5688SOL     OW28699   3.629   0.291   8.512  0.3988 -0.4802 -0.1068
 5688SOL    HW128700   3.549   0.320   8.470  0.0917  1.2643  1.6785
 5688SOL    HW228701   3.594   0.210   8.550 -0.1346  1.1632  2.9247
 5689SOL     OW28702   4.064   2.170   7.763 -0.1518  0.6811 -0.4181
 5689SOL    HW128703   4.152   2.133   7.762 -0.3691  0.1844 -1.2440
 5689SOL    HW228704   4.073   2.225   7.841 -0.1998  0.6301 -0.3770
 5690SOL     OW28705   3.864   1.707  14.476 -0.2952 -0.1348 -0.3402
 5690SOL    HW128706   3.903   1.791  14.498 -0.7076  0.2615 -1.1119
 5690SOL    HW228707   3.888   1.707  14.384  1.3356  1.9903  0.0895
 5691SOL     OW28708   1.427   2.091  13.030 -0.8582 -0.4378  0.8069
 5691SOL    HW128709   1.489   2.030  13.071 -1.3650 -1.5903 -0.1857
 5691SOL    HW228710   1.481   2.123  12.958 -1.0743 -0.0254  0.8269
 5692SOL     OW28711   0.757   3.227   7.548 -0.0771 -0.1665 -0.4652
 5692SOL    HW128712   0.744   3.172   7.625 -2.2561 -1.0314 -1.4426
 5692SOL    HW228713   0.666   3.237   7.519  0.2241  0.5600 -1.1701
 5693SOL     OW28714   3.935   1.954  11.461 -0.2861  0.4523 -0.4254
 5693SOL    HW128715   3.864   1.890  11.458  1.1052 -0.9489 -4.1048
 5693SOL    HW228716   3.910   1.986  11.548 -0.9278 -2.2567  0.3909
 5694SOL     OW28717   2.302   3.126   4.491  0.0132  0.3351  0.3542
 5694SOL    HW128718   2.286   3.216   4.463  1.1273  0.0422 -1.2503
 5694SOL    HW228719   2.397   3.133   4.493 -0.0032  0.8954 -0.5450
 5695SOL     OW28720   1.085   1.395   6.150 -0.3057  0.6136  0.2717
 5695SOL    HW128721   1.116   1.454   6.220 -0.1456  0.5723  0.2349
 5695SOL    HW228722   1.131   1.420   6.071  2.0850 -1.7820  0.9281
 5696SOL     OW28723   4.522   0.782   9.865 -0.0446 -0.1747  0.6050
 5696SOL    HW128724   4.601   0.836   9.868  0.5788 -1.0944  0.5843
 5696SOL    HW228725   4.506   0.763   9.773  0.2879 -0.6493  0.6491
 5697SOL     OW28726   0.836   2.881   7.513  0.0662 -0.4088  0.6546
 5697SOL    HW128727   0.861   2.936   7.588  1.6593  0.9364 -0.8710
 5697SOL    HW228728   0.742   2.879   7.529 -0.4232  1.5209 -1.9305
 5698SOL     OW28729   4.552   3.811  16.333  0.5518  0.6287  0.3638
 5698SOL    HW128730   4.468   3.767  16.348  0.5378  0.2483 -0.8967
 5698SOL    HW228731   4.602   3.736  16.301 -0.2736 -0.7461  2.2319
 5699SOL     OW28732   3.435   4.172   9.353  0.4650 -0.0602 -0.4750
 5699SOL    HW128733   3.486   4.147   9.430  0.1583  2.2230  0.4828
 5699SOL    HW228734   3.350   4.187   9.393  1.1107  1.8707  0.1601
 5700SOL     OW28735   0.886   0.704  10.217 -0.3339 -0.0479 -0.1974
 5700SOL    HW128736   0.921   0.628  10.264  0.2138 -0.2263 -0.9083
 5700SOL    HW228737   0.804   0.731  10.260  0.1930  0.5885  0.4128
 5701SOL     OW28738   4.321   1.398  12.620 -0.0781 -0.0584 -0.3301
 5701SOL    HW128739   4.257   1.415  12.552 -0.3258 -0.1871 -0.1292
 5701SOL    HW228740   4.294   1.462  12.686 -1.0054 -1.7150  0.9131
 5702SOL     OW28741   1.458   0.189   4.591 -0.0757  0.4559  0.3029
 5702SOL    HW128742   1.444   0.097   4.569  0.0828  0.0714  1.8194
 5702SOL    HW228743   1.373   0.229   4.612 -0.8781 -1.3015  0.4336
 5703SOL     OW28744   1.142   4.714  16.016  0.1130 -0.1997 -0.5730
 5703SOL    HW128745   1.103   4.675  15.938  0.5667  1.7948 -1.7918
 5703SOL    HW228746   1.064   4.734  16.068  1.2302  1.6324  0.4048
 5704SOL     OW28747   3.681   3.708  15.946 -0.2184  0.3372  0.0263
 5704SOL    HW128748   3.769   3.732  15.974 -0.3840  0.7094  0.2258
 5704SOL    HW228749   3.684   3.612  15.951 -1.0708  0.4843  3.5229
 5705SOL     OW28750   4.068   0.672   1.341 -0.4956  0.5178 -0.1779
 5705SOL    HW128751   4.060   0.728   1.418  1.5145 -2.7509  2.3947
 5705SOL    HW228752   4.158   0.638   1.337 -1.4139 -1.7948 -1.1497
 5706SOL     OW28753   3.749   2.765   8.836  0.6481 -0.0678  0.0715
 5706SOL    HW128754   3.813   2.735   8.901  0.6566 -0.8724 -0.3105
 5706SOL    HW228755   3.732   2.855   8.864 -0.4374  0.2281 -1.5920
 5707SOL     OW28756   2.012   0.126   6.632 -0.3621 -0.3871  0.2608
 5707SOL    HW128757   2.106   0.109   6.626 -0.2006  0.3759  0.5804
 5707SOL    HW228758   1.993   0.201   6.576 -1.2185 -1.0495 -0.3379
 5708SOL     OW28759   1.381   1.257   4.628 -0.0012  0.1957 -0.5426
 5708SOL    HW128760   1.405   1.188   4.566  0.6585 -0.7934  0.8197
 5708SOL    HW228761   1.437   1.326   4.594 -0.5440  0.0499 -1.7184
 5709SOL     OW28762   1.200   3.815   4.760  0.0400 -0.0232  0.1516
 5709SOL    HW128763   1.219   3.803   4.667  0.9053  1.0664  0.1785
 5709SOL    HW228764   1.243   3.900   4.768  0.5513 -0.3441  0.7986
 5710SOL     OW28765   0.703   3.477   6.336 -0.2359  0.1482  1.0756
 5710SOL    HW128766   0.757   3.399   6.348  0.5474  0.6539  0.8031
 5710SOL    HW228767   0.635   3.467   6.403 -2.6309 -1.4594 -1.5699
 5711SOL     OW28768   2.358   3.528   8.506 -0.3458 -0.2656 -0.0949
 5711SOL    HW128769   2.313   3.558   8.585 -0.5746 -1.6604  0.3086
 5711SOL    HW228770   2.410   3.607   8.490 -0.1556 -0.1462  1.0775
 5712SOL     OW28771   1.391   4.720   4.226  0.7008  0.0020 -0.5077
 5712SOL    HW128772   1.453   4.716   4.299  1.4426 -4.1210 -1.3429
 5712SOL    HW228773   1.456   4.710   4.156  0.1836 -0.1074 -0.9727
 5713SOL     OW28774   2.341   0.964   2.380  0.5232  0.1464 -0.4331
 5713SOL    HW128775   2.307   1.022   2.313  0.7210 -0.7250 -1.2830
 5713SOL    HW228776   2.423   1.009   2.398  0.5040  0.9277 -2.3104
 5714SOL     OW28777   2.677   1.844   7.067 -0.3556 -0.2195 -0.2474
 5714SOL    HW128778   2.645   1.774   7.011  0.5831  1.2281 -2.5731
 5714SOL    HW228779   2.706   1.906   7.001  0.3898 -0.8200 -0.4806
 5715SOL     OW28780   3.050   4.643   7.872 -1.1265  0.8449  0.4813
 5715SOL    HW128781   3.011   4.586   7.938 -0.6962  1.8470  1.6058
 5715SOL    HW228782   3.021   4.601   7.791 -0.5060  0.2876  0.5505
 5716SOL     OW28783   3.036   1.231   9.732 -0.4188  0.5669  0.3174
 5716SOL    HW128784   3.094   1.307   9.736  0.5047 -0.1417  0.3124
 5716SOL    HW228785   3.014   1.226   9.638 -1.5799 -2.6796  0.7487
 5717SOL     OW28786   2.990   3.861   1.345 -0.0076 -0.2783 -0.2810
 5717SOL    HW128787   2.964   3.769   1.347  0.4794 -0.4041  0.3021
 5717SOL    HW228788   3.071   3.861   1.396 -1.7754  1.4438  2.4940
 5718SOL     OW28789   1.922   4.385   4.969  0.7266 -0.4103 -0.2095
 5718SOL    HW128790   1.882   4.427   4.893 -1.1656 -1.5655  0.1533
 5718SOL    HW228791   1.857   4.409   5.035  1.2873  1.0420 -0.1806
 5719SOL     OW28792   3.415   2.790   8.043 -0.3881 -0.2122  0.2552
 5719SOL    HW128793   3.379   2.710   8.082  0.3474 -0.8911 -0.4519
 5719SOL    HW228794   3.339   2.843   8.018 -0.3136 -0.3834 -0.3550
 5720SOL     OW28795   0.549   3.189   2.877 -0.2073  0.2653 -0.1433
 5720SOL    HW128796   0.518   3.202   2.967  0.7189  2.0028 -0.0815
 5720SOL    HW228797   0.510   3.104   2.856  0.7603  0.1116 -1.3186
 5721SOL     OW28798   3.700   3.419  14.937  0.5295  0.1677  0.3037
 5721SOL    HW128799   3.718   3.512  14.953  0.8759  0.5747 -2.5082
 5721SOL    HW228800   3.671   3.389  15.024  2.3225 -5.4833 -1.0547
 5722SOL     OW28801   2.333   0.465  10.935  0.1235  0.7412 -0.0570
 5722SOL    HW128802   2.300   0.500  11.018  0.5261  0.4732  0.2154
 5722SOL    HW228803   2.426   0.482  10.949  0.3324  0.7690 -1.5343
 5723SOL     OW28804   1.544   3.375   7.288 -0.4327  0.3226 -0.5602
 5723SOL    HW128805   1.600   3.356   7.213  3.3843  1.1003  2.0955
 5723SOL    HW228806   1.461   3.361   7.242  0.6890 -1.7740 -1.9460
 5724SOL     OW28807   4.614   2.024   3.902  0.1056 -0.5651  0.0909
 5724SOL    HW128808   4.618   2.080   3.979  1.6931 -1.9691  1.0197
 5724SOL    HW228809   4.530   1.985   3.927 -0.4871  1.3334  1.0588
 5725SOL     OW28810   2.311   1.116   7.387 -0.2759  0.1587 -0.0249
 5725SOL    HW128811   2.268   1.175   7.325  1.3550  0.7916 -0.5318
 5725SOL    HW228812   2.245   1.100   7.455  1.8854 -0.2200  1.9998
 5726SOL     OW28813   2.444   4.185   5.291  0.0015 -0.1508  0.3480
 5726SOL    HW128814   2.495   4.149   5.219  2.0893  1.6106  0.9428
 5726SOL    HW228815   2.423   4.273   5.258 -2.0312 -1.2515 -1.2900
 5727SOL     OW28816   2.442   3.824   0.437 -0.4815 -0.1650 -0.2609
 5727SOL    HW128817   2.462   3.780   0.520  1.7989  1.3963  0.0198
 5727SOL    HW228818   2.487   3.767   0.375 -3.0404 -1.9994 -0.4584
 5728SOL     OW28819   2.196   1.672   6.251 -0.1473  0.4197  0.0762
 5728SOL    HW128820   2.171   1.627   6.331  1.2050  0.7782  0.6875
 5728SOL    HW228821   2.132   1.743   6.257 -0.7168 -0.3443  2.8543
 5729SOL     OW28822   3.957   3.828   4.737  0.4975 -0.2089 -0.7871
 5729SOL    HW128823   4.001   3.743   4.744  1.1081  0.1615 -0.0539
 5729SOL    HW228824   3.889   3.814   4.671  0.0599 -3.6692  0.3666
 5730SOL     OW28825   4.176   1.318   1.888  0.2116  0.6448 -0.7240
 5730SOL    HW128826   4.163   1.306   1.982 -0.1915  1.2822 -0.6936
 5730SOL    HW228827   4.230   1.245   1.859  0.6882  0.7502 -0.1101
 5731SOL     OW28828   3.794   0.905   7.721  0.5569 -0.0166  0.2326
 5731SOL    HW128829   3.723   0.918   7.784 -0.3123 -0.6085 -0.6292
 5731SOL    HW228830   3.852   0.857   7.781  1.1569  1.5258  0.9046
 5732SOL     OW28831   1.746   0.665  17.457  0.3627  0.9152 -0.2090
 5732SOL    HW128832   1.790   0.720  17.521 -1.8188  0.1427  1.9501
 5732SOL    HW228833   1.827   0.636  17.416  1.2774  1.0539  1.5072
 5733SOL     OW28834   1.847   4.093   5.473  0.1891 -0.0281  0.1901
 5733SOL    HW128835   1.821   4.155   5.540 -0.8973  0.0205 -0.2757
 5733SOL    HW228836   1.806   4.013   5.507 -1.0268 -0.3466 -2.0041
 5734SOL     OW28837   1.126   4.001   9.706 -0.0500 -0.2288  0.5060
 5734SOL    HW128838   1.080   3.917   9.702 -2.8033  1.3416  0.0151
 5734SOL    HW228839   1.102   4.036   9.792 -2.1131  0.9649 -0.5799
 5735SOL     OW28840   1.369   3.347  16.486 -0.4906 -0.4193  0.8154
 5735SOL    HW128841   1.382   3.287  16.412  1.1540  0.2066  0.5973
 5735SOL    HW228842   1.385   3.429  16.438  0.4715 -0.7161  0.6370
 5736SOL     OW28843   3.841   2.407   9.949  0.0232  0.1495  0.0246
 5736SOL    HW128844   3.843   2.352  10.027 -1.0821  0.3083  0.1641
 5736SOL    HW228845   3.762   2.371   9.908  0.7986 -1.1014 -0.3961
 5737SOL     OW28846   0.557   3.090   0.822  0.2873  0.6087 -0.2745
 5737SOL    HW128847   0.543   3.151   0.750 -1.7764  1.5331  0.9145
 5737SOL    HW228848   0.471   3.072   0.861  0.3964 -2.0761 -1.2330
 5738SOL     OW28849   0.903   0.227  14.836  0.0679 -0.2440 -0.3514
 5738SOL    HW128850   0.982   0.177  14.855 -0.6584 -1.0391  0.5709
 5738SOL    HW228851   0.912   0.243  14.742  1.3699 -1.1190 -0.3727
 5739SOL     OW28852   4.719   4.406   5.404 -0.2111 -0.5820 -0.2593
 5739SOL    HW128853   0.055   4.384   5.347 -0.5057  0.0728 -0.9004
 5739SOL    HW228854   4.723   4.333   5.466 -0.0176  1.6577  2.3520
 5740SOL     OW28855   3.135   3.095   8.585  0.0671 -0.0845 -0.1132
 5740SOL    HW128856   3.161   3.170   8.638  1.9228 -2.0839  1.8201
 5740SOL    HW228857   3.046   3.084   8.619  1.0883  0.1143  2.5525
 5741SOL     OW28858   2.275   4.676   5.965  0.0477  0.2037 -0.4691
 5741SOL    HW128859   2.335   4.619   5.917 -1.3114 -0.1072 -1.7855
 5741SOL    HW228860   2.201   4.618   5.985 -1.0846  2.0462  0.7896
 5742SOL     OW28861   4.200   4.037   9.529 -0.0556  0.5880  0.5998
 5742SOL    HW128862   4.154   4.078   9.455 -1.4497 -1.2680  0.4401
 5742SOL    HW228863   4.274   4.096   9.542 -0.4102  1.2246 -0.2772
 5743SOL     OW28864   1.820   2.135   8.696  0.4409 -0.2117 -0.2749
 5743SOL    HW128865   1.869   2.119   8.777  0.1104  0.5768  0.0848
 5743SOL    HW228866   1.853   2.224   8.682 -0.3598  0.2217  0.6107
 5744SOL     OW28867   2.004   2.828   2.239  0.1725  0.0120 -0.4605
 5744SOL    HW128868   1.929   2.854   2.293 -1.8035 -0.4373 -2.9444
 5744SOL    HW228869   2.043   2.751   2.280 -2.6443 -1.0630  0.2415
 5745SOL     OW28870   4.186   3.068   9.101  0.7084  0.0081  0.4347
 5745SOL    HW128871   4.153   3.095   9.015 -0.4049  2.3601  1.6057
 5745SOL    HW228872   4.106   3.079   9.151 -0.3850 -1.6139 -0.9494
 5746SOL     OW28873   2.753   1.646   4.219 -0.5955  0.1935 -0.0876
 5746SOL    HW128874   2.773   1.644   4.125  2.6365  0.3563  0.6237
 5746SOL    HW228875   2.829   1.677   4.267  0.1223 -1.1118 -0.3597
 5747SOL     OW28876   2.042   2.493   4.327 -0.2276  0.3821 -0.0084
 5747SOL    HW128877   2.048   2.488   4.422 -0.8566  2.3461  0.1388
 5747SOL    HW228878   2.046   2.588   4.315 -2.5599  0.5654  0.6592
 5748SOL     OW28879   0.754   4.683   6.351  0.0479 -0.0615  0.0490
 5748SOL    HW128880   0.678   4.712   6.400 -0.2405  0.0501 -0.4688
 5748SOL    HW228881   0.817   4.675   6.423 -0.4498  1.0281  0.5948
 5749SOL     OW28882   3.400   3.713  13.557  0.2794  0.1900  0.1534
 5749SOL    HW128883   3.495   3.719  13.570  0.5399 -1.8221 -0.7021
 5749SOL    HW228884   3.384   3.771  13.482 -1.1271  0.3227  0.5653
 5750SOL     OW28885   3.386   1.504   7.854 -0.2465 -0.5294 -0.4767
 5750SOL    HW128886   3.314   1.567   7.846 -0.5933 -1.0356 -1.4014
 5750SOL    HW228887   3.423   1.530   7.938 -0.9741  0.0803 -0.3462
 5751SOL     OW28888   0.276   0.862   1.429  0.2183  0.4667 -0.0835
 5751SOL    HW128889   0.321   0.794   1.479  0.1004  1.3331  1.2213
 5751SOL    HW228890   0.249   0.813   1.352  2.6731 -1.9080  0.5657
 5752SOL     OW28891   2.368   1.907   9.647 -0.1225  0.6796 -0.3801
 5752SOL    HW128892   2.454   1.866   9.653  0.4887  2.1634  1.1967
 5752SOL    HW228893   2.321   1.824   9.647  2.8745 -1.0154 -0.4865
 5753SOL     OW28894   1.955   1.035   7.091 -0.5341 -0.0672 -0.4725
 5753SOL    HW128895   1.944   1.009   7.183 -1.3929 -0.4345 -0.6861
 5753SOL    HW228896   1.876   0.991   7.061 -1.2322  1.0502 -0.2922
 5754SOL     OW28897   2.700   3.286   0.021 -0.0361  0.2525  0.3081
 5754SOL    HW128898   2.742   3.362   0.061  0.5496  0.1333 -0.0913
 5754SOL    HW228899   2.611   3.303   0.054  0.4094 -0.5551  1.9271
 5755SOL     OW28900   1.946   2.689   7.005  0.6412 -0.2370 -0.0515
 5755SOL    HW128901   1.907   2.772   7.035 -2.3752 -0.8782 -2.2479
 5755SOL    HW228902   2.029   2.722   6.971  1.9145 -0.2196  3.1174
 5756SOL     OW28903   0.131   0.240   1.264 -0.6902 -0.6658 -0.3602
 5756SOL    HW128904   0.093   0.169   1.315 -3.4014  0.5867 -0.6138
 5756SOL    HW228905   0.224   0.220   1.263 -0.3643  0.7822  0.8540
 5757SOL     OW28906   4.047   2.991   5.595  0.4761  0.0891  0.6998
 5757SOL    HW128907   4.006   3.072   5.625 -2.8245 -1.3039 -0.0811
 5757SOL    HW228908   3.979   2.928   5.619  0.6724  0.1059  1.3052
 5758SOL     OW28909   1.860   2.189   6.328 -0.2200 -0.0886  0.0274
 5758SOL    HW128910   1.922   2.233   6.270 -0.5188  0.5858  0.2195
 5758SOL    HW228911   1.919   2.183   6.404  1.5454 -0.7347 -1.3955
 5759SOL     OW28912   0.943   1.018   5.557  0.1622  0.3740 -0.3762
 5759SOL    HW128913   1.014   0.981   5.610 -1.7316 -0.5044  1.5537
 5759SOL    HW228914   0.965   0.998   5.466  0.6278 -1.2527  0.0955
 5760SOL     OW28915   4.424   1.886   6.035 -0.0472 -0.5907  0.0172
 5760SOL    HW128916   4.494   1.929   6.085 -2.4108  2.4785  0.7182
 5760SOL    HW228917   4.353   1.903   6.096 -2.2365  0.0130 -2.7272
 5761SOL     OW28918   1.373   1.624   2.616 -0.1376  0.3934  0.1608
 5761SOL    HW128919   1.278   1.638   2.615  0.0882  2.1045  2.3866
 5761SOL    HW228920   1.412   1.694   2.563 -1.5538  1.0431 -0.0193
 5762SOL     OW28921   0.360   2.683   2.788 -0.0601 -0.2436  0.9558
 5762SOL    HW128922   0.358   2.641   2.873 -2.5644 -0.2373  0.9025
 5762SOL    HW228923   0.401   2.615   2.734 -0.6631  1.9772 -2.3375
 5763SOL     OW28924   4.405   2.054   1.169 -0.0935  0.1906  0.1247
 5763SOL    HW128925   4.455   2.124   1.210 -2.2791  1.4956  0.5941
 5763SOL    HW228926   4.328   2.040   1.224 -1.0891 -0.0420 -1.3176
 5764SOL     OW28927   1.219   4.566  15.593  0.2029 -0.3228 -0.0624
 5764SOL    HW128928   1.227   4.641  15.534 -1.0786  0.3874  0.6726
 5764SOL    HW228929   1.303   4.525  15.570 -0.1767 -0.0596 -1.8716
 5765SOL     OW28930   3.273   1.636   2.957 -0.5317 -0.2248 -0.4196
 5765SOL    HW128931   3.326   1.715   2.959  1.3379 -1.4489 -2.4096
 5765SOL    HW228932   3.196   1.670   2.910 -0.0517 -0.5712 -1.4571
 5766SOL     OW28933   0.965   0.846   2.980  0.3972 -0.3474  0.0523
 5766SOL    HW128934   1.015   0.916   3.023 -0.2494  1.7286 -2.5135
 5766SOL    HW228935   0.916   0.803   3.050 -1.6112  3.0197  0.7223
 5767SOL     OW28936   3.889   2.808   3.125  0.5497  0.2710  0.3222
 5767SOL    HW128937   3.891   2.725   3.076  2.6972 -0.1545  1.0999
 5767SOL    HW228938   3.958   2.858   3.081  0.3199  1.6976  1.5823
 5768SOL     OW28939   4.448   4.000   2.373 -0.1484  0.3727  0.8687
 5768SOL    HW128940   4.528   4.032   2.414  1.7212 -2.5938 -0.4299
 5768SOL    HW228941   4.467   3.906   2.374  2.5531  0.8888 -1.4143
 5769SOL     OW28942   1.062   4.225   8.623  0.4134  0.2855 -0.1739
 5769SOL    HW128943   1.147   4.221   8.579 -0.4929  0.4015 -1.9545
 5769SOL    HW228944   1.034   4.311   8.592 -1.7545 -0.7730 -1.1542
 5770SOL     OW28945   0.090   3.170   5.204 -0.2007  0.3100  0.0168
 5770SOL    HW128946   0.185   3.159   5.211 -0.5546 -3.5067 -0.7951
 5770SOL    HW228947   0.060   3.102   5.265 -0.6958  2.4265  2.1367
 5771SOL     OW28948   1.446   3.698   0.304  0.1076 -0.1408 -0.6183
 5771SOL    HW128949   1.472   3.613   0.268  2.0886 -0.1101  0.7666
 5771SOL    HW228950   1.428   3.748   0.225 -1.0294 -1.6658 -1.3325
 5772SOL     OW28951   2.474   1.093  13.613  0.2578 -0.3320 -0.1387
 5772SOL    HW128952   2.458   1.173  13.564  0.3507  0.2785  0.8262
 5772SOL    HW228953   2.395   1.101  13.668  1.4684 -0.9222  1.6998
 5773SOL     OW28954   2.476   3.068   7.374 -0.8249  0.0476  0.1749
 5773SOL    HW128955   2.523   3.032   7.450 -1.8928  0.3740  0.9799
 5773SOL    HW228956   2.406   3.008   7.348  1.5564 -2.1701 -1.2999
 5774SOL     OW28957   2.274   0.910  11.826 -0.2035  0.1949  0.0265
 5774SOL    HW128958   2.241   0.910  11.916  0.2993  0.1157  0.2123
 5774SOL    HW228959   2.351   0.856  11.842  1.5553  2.1379 -1.9480
 5775SOL     OW28960   2.490   2.233   2.167  0.1922  0.8029  0.4606
 5775SOL    HW128961   2.478   2.138   2.154 -1.2123  1.2986 -1.9444
 5775SOL    HW228962   2.498   2.220   2.261 -0.8119 -1.8831  0.1946
 5776SOL     OW28963   1.548   3.119  11.469  0.0150  0.6258 -0.5693
 5776SOL    HW128964   1.607   3.135  11.396 -1.1260  1.2361 -1.3657
 5776SOL    HW228965   1.611   3.135  11.540 -0.1823 -1.2517  0.0416
 5777SOL     OW28966   2.223   2.838   9.326  0.4843 -0.0227 -0.4926
 5777SOL    HW128967   2.277   2.799   9.257  0.5408 -0.2966 -0.2923
 5777SOL    HW228968   2.175   2.910   9.286 -0.0862 -0.6882 -1.0193
 5778SOL     OW28969   0.832   1.273   1.746  0.0317  0.4301  0.5331
 5778SOL    HW128970   0.890   1.297   1.818  0.2525  0.6262  0.2910
 5778SOL    HW228971   0.753   1.253   1.797  0.0485 -0.3054  0.2617
 5779SOL     OW28972   1.151   1.035   4.262  0.1162 -0.4044 -0.4172
 5779SOL    HW128973   1.111   0.948   4.263 -1.1099  0.1867  1.9234
 5779SOL    HW228974   1.161   1.044   4.167 -0.1051 -1.5921 -0.5600
 5780SOL     OW28975   0.859   1.193  11.394  0.2785  0.0505 -0.3800
 5780SOL    HW128976   0.847   1.131  11.466 -1.1180 -1.9860 -2.3862
 5780SOL    HW228977   0.863   1.140  11.315 -0.7730 -1.5130  0.6216
 5781SOL     OW28978   3.951   3.056   5.103 -0.0859 -0.3382 -0.4070
 5781SOL    HW128979   3.983   3.101   5.025 -0.6169  3.1906  1.4150
 5781SOL    HW228980   3.901   3.130   5.139  0.5076  0.9541 -2.2190
 5782SOL     OW28981   3.095   2.673   9.525  0.3871 -0.4574 -0.7644
 5782SOL    HW128982   2.999   2.667   9.525  0.4161 -0.9170  0.7339
 5782SOL    HW228983   3.121   2.581   9.522 -0.5627 -0.7465 -0.3688
 5783SOL     OW28984   4.237   0.138  17.317 -0.0261  0.1675 -0.4014
 5783SOL    HW128985   4.164   0.192  17.287 -1.3924 -1.9245 -0.8467
 5783SOL    HW228986   4.283   0.127  17.234  0.2875  0.0461 -0.2128
 5784SOL     OW28987   3.726   0.146   7.321  0.0137  0.0307  0.2577
 5784SOL    HW128988   3.806   0.100   7.345  0.0047 -0.9082 -1.4434
 5784SOL    HW228989   3.675   0.111   7.394  0.6755 -1.0571  0.1946
 5785SOL     OW28990   4.225   1.231  10.303 -0.2827 -0.5115  0.7008
 5785SOL    HW128991   4.230   1.282  10.222  0.3473 -1.3870  0.1876
 5785SOL    HW228992   4.302   1.175  10.299  0.4457  0.5313 -0.1337
 5786SOL     OW28993   4.608   0.301   7.840 -0.5768 -0.1025  0.2573
 5786SOL    HW128994   4.668   0.258   7.779 -1.1655 -2.0984  1.0841
 5786SOL    HW228995   4.590   0.384   7.795 -1.9305  0.7042  2.2437
 5787SOL     OW28996   3.940   2.282  14.745  0.0567  0.1771  0.0432
 5787SOL    HW128997   4.035   2.286  14.752  0.0042 -0.2917  0.9673
 5787SOL    HW228998   3.918   2.261  14.836  0.6519  0.4889  0.2562
 5788SOL     OW28999   3.920   1.867   7.979 -0.5142  0.0477  0.0957
 5788SOL    HW129000   3.885   1.901   8.062  0.5493  0.0738  0.5283
 5788SOL    HW229001   3.967   1.949   7.965 -1.9815  0.8400 -0.2885
 5789SOL     OW29002   3.859   0.390   0.725  0.1018  0.4249  0.3439
 5789SOL    HW129003   3.813   0.371   0.807 -2.4467  1.6563 -0.7751
 5789SOL    HW229004   3.793   0.369   0.658  0.3598 -0.9638  0.5377
 5790SOL     OW29005   0.397   3.175   2.148  0.5374  0.0031 -0.1614
 5790SOL    HW129006   0.369   3.099   2.199  1.5819  1.3184  2.3481
 5790SOL    HW229007   0.416   3.240   2.216  2.4434  0.3059 -0.9784
 5791SOL     OW29008   3.519   2.670   5.484  0.5851 -0.2814  0.4901
 5791SOL    HW129009   3.495   2.724   5.408  0.4965  1.0028  1.4254
 5791SOL    HW229010   3.601   2.641   5.444 -0.4724 -0.6200 -1.4140
 5792SOL     OW29011   1.666   3.273  16.371  0.1205 -0.4576  0.0639
 5792SOL    HW129012   1.604   3.200  16.380  0.5825 -0.6533  1.5250
 5792SOL    HW229013   1.688   3.288  16.279  0.8209 -0.7274  0.1901
 5793SOL     OW29014   0.390   2.038  12.066  0.5570 -0.0908  0.0015
 5793SOL    HW129015   0.469   1.999  12.029  0.7019 -0.5064  0.7649
 5793SOL    HW229016   0.407   2.127  12.034 -4.5787  1.1868  0.8791
 5794SOL     OW29017   1.191   2.751   9.664 -0.2826 -0.0088 -0.1200
 5794SOL    HW129018   1.258   2.818   9.680  0.7372 -1.5441  2.0665
 5794SOL    HW229019   1.192   2.764   9.569  0.8684  0.6617 -0.0227
 5795SOL     OW29020   1.926   1.445  16.293  0.0622  0.1392  0.1431
 5795SOL    HW129021   1.836   1.424  16.270  0.0444 -0.1708  0.4986
 5795SOL    HW229022   1.974   1.444  16.209 -3.0927 -1.0278 -1.6547
 5796SOL     OW29023   3.746   2.474   6.082 -0.3208  0.3146  0.5867
 5796SOL    HW129024   3.823   2.430   6.047  1.1591  0.3761  3.8438
 5796SOL    HW229025   3.769   2.565   6.062 -1.8898  0.8534  1.2757
 5797SOL     OW29026   1.107   3.507   7.453 -0.1094  0.1589  0.5048
 5797SOL    HW129027   1.016   3.517   7.480 -0.5874  1.8071 -1.7804
 5797SOL    HW229028   1.104   3.471   7.364 -2.4288 -0.4064  0.8089
 5798SOL     OW29029   3.268   1.848   5.603  0.5420 -0.6126 -0.5265
 5798SOL    HW129030   3.276   1.936   5.640  0.4741 -1.2316  0.9617
 5798SOL    HW229031   3.324   1.790   5.655 -0.7345 -1.8962 -0.5890
 5799SOL     OW29032   3.331   1.679   4.530  0.3459 -0.6569  0.2002
 5799SOL    HW129033   3.306   1.731   4.454  0.1716 -1.1390 -0.0737
 5799SOL    HW229034   3.296   1.735   4.599 -1.0047 -1.8697  0.4948
 5800SOL     OW29035   3.101   1.264   6.399 -0.0116 -0.0779 -0.3803
 5800SOL    HW129036   3.054   1.233   6.476  0.5738 -0.7379 -0.2891
 5800SOL    HW229037   3.175   1.313   6.436  0.0349  0.9444 -1.8165
 5801SOL     OW29038   1.668   3.618   8.716  0.5167 -0.3730 -0.0415
 5801SOL    HW129039   1.576   3.639   8.729  0.3485 -0.7287 -0.6184
 5801SOL    HW229040   1.685   3.677   8.643  0.7186  1.9889  1.9312
 5802SOL     OW29041   4.017   2.152   6.401 -0.0360 -0.7218  0.3096
 5802SOL    HW129042   4.099   2.103   6.397  1.1660  1.1503  1.7958
 5802SOL    HW229043   3.978   2.101   6.473 -0.5193  0.3941  0.8337
 5803SOL     OW29044   1.504   1.732   8.256  0.0739  0.5634  0.1391
 5803SOL    HW129045   1.537   1.658   8.206 -3.5562 -0.5597 -0.6362
 5803SOL    HW229046   1.519   1.809   8.201  1.2037  1.3760  1.6004
 5804SOL     OW29047   1.874   2.752   8.145 -0.2845 -0.6613 -0.5461
 5804SOL    HW129048   1.841   2.839   8.121 -1.0539 -2.0694 -4.5185
 5804SOL    HW229049   1.900   2.731   8.055  3.2432 -1.3642  0.6337
 5805SOL     OW29050   1.989   2.358   9.450  0.0581 -0.1025 -0.2109
 5805SOL    HW129051   1.981   2.434   9.507 -0.2585 -0.8547  0.7385
 5805SOL    HW229052   1.920   2.378   9.386 -1.5679 -0.2333  1.5130
 5806SOL     OW29053   4.119   4.607   9.719 -0.6433 -0.3840 -0.4724
 5806SOL    HW129054   4.127   4.512   9.728 -1.4704 -0.4321 -0.2770
 5806SOL    HW229055   4.143   4.634   9.630  1.2632 -1.0630 -0.1648
 5807SOL     OW29056   0.000   0.554   7.303  0.6650  0.1184  0.3825
 5807SOL    HW129057   0.077   0.497   7.314  1.0634  0.4246 -0.8431
 5807SOL    HW229058   4.686   0.528   7.379  0.1495 -1.9025 -0.6581
 5808SOL     OW29059   4.222   0.931   7.364  0.3075  0.1080 -0.2834
 5808SOL    HW129060   4.301   0.881   7.344  0.1821 -0.4055  0.4881
 5808SOL    HW229061   4.195   0.973   7.282 -1.8648  2.1699  1.4809
 5809SOL     OW29062   0.385   3.161   6.832  0.2414 -0.3005 -0.5638
 5809SOL    HW129063   0.388   3.092   6.766 -3.6866 -2.5734  1.5722
 5809SOL    HW229064   0.477   3.186   6.826 -0.4473  1.8561 -1.9553
 5810SOL     OW29065   2.088   3.269   1.986  0.3512  0.2723  0.1121
 5810SOL    HW129066   2.164   3.270   2.044  0.8591  1.0060 -0.5667
 5810SOL    HW229067   2.021   3.234   2.046 -0.0597  0.7012 -0.0959
 5811SOL     OW29068   3.626   3.612   5.636  0.0103  0.0694  0.8510
 5811SOL    HW129069   3.673   3.638   5.556  0.5364 -0.9948  0.8044
 5811SOL    HW229070   3.679   3.534   5.654  0.6127  0.8272  2.2999
 5812SOL     OW29071   0.306   2.322   9.401  0.0280 -0.5318  0.4674
 5812SOL    HW129072   0.399   2.311   9.382 -0.0863 -1.9153  0.7252
 5812SOL    HW229073   0.323   2.349   9.492  0.0918  0.7971  0.0663
 5813SOL     OW29074   0.220   2.600   5.361  0.5114 -0.2741 -0.4076
 5813SOL    HW129075   0.248   2.524   5.413  0.3561 -0.5960 -0.7916
 5813SOL    HW229076   0.253   2.670   5.417  1.3392  1.0180 -2.5550
 5814SOL     OW29077   1.974   0.982   1.291  0.2530  1.0043  0.1684
 5814SOL    HW129078   1.909   0.937   1.344  0.2124 -0.3310 -0.9852
 5814SOL    HW229079   1.941   0.946   1.208  1.5896 -0.1531  0.1330
 5815SOL     OW29080   1.728   2.774  15.341 -0.0024 -0.2657  0.1740
 5815SOL    HW129081   1.634   2.791  15.347 -0.1158 -0.5143 -0.9022
 5815SOL    HW229082   1.758   2.835  15.273  1.5153 -1.2514 -0.0462
 5816SOL     OW29083   1.163   2.786   9.393  0.1789 -0.4568  0.0432
 5816SOL    HW129084   1.114   2.736   9.329 -1.4564 -0.2553  1.1485
 5816SOL    HW229085   1.120   2.872   9.395 -0.1161 -0.5866 -1.1210
 5817SOL     OW29086   1.221   3.177   7.946 -0.1487 -0.1413 -0.0769
 5817SOL    HW129087   1.130   3.147   7.941 -0.3461 -0.0829  3.0773
 5817SOL    HW229088   1.221   3.268   7.977 -1.0617  0.0458 -0.6493
 5818SOL     OW29089   3.837   3.801   5.014 -0.1609 -0.1446 -0.0224
 5818SOL    HW129090   3.914   3.853   5.038  0.2845 -0.6112 -0.4672
 5818SOL    HW229091   3.859   3.776   4.924  3.2770 -0.8452  1.0279
 5819SOL     OW29092   4.031   4.499   0.976  0.1898 -0.6312  0.0565
 5819SOL    HW129093   3.958   4.447   1.009 -0.8582  0.9140  0.1190
 5819SOL    HW229094   4.099   4.504   1.044  0.8172  2.7914 -0.8070
 5820SOL     OW29095   4.445   1.687   4.777 -0.2514 -0.5189 -0.2810
 5820SOL    HW129096   4.486   1.602   4.794 -4.2723 -2.2930  0.4358
 5820SOL    HW229097   4.493   1.751   4.829  2.0970 -0.2949 -2.7077
 5821SOL     OW29098   1.159   4.054   9.029 -0.0645 -0.0326 -0.0834
 5821SOL    HW129099   1.163   3.959   9.017  2.8938  0.0922 -0.0497
 5821SOL    HW229100   1.190   4.068   9.119  0.2183  1.6691 -0.4628
 5822SOL     OW29101   3.504   2.090  15.799  0.3963 -0.1155  0.0954
 5822SOL    HW129102   3.423   2.105  15.749 -1.2493 -1.1205  2.4384
 5822SOL    HW229103   3.483   2.013  15.852  0.1445 -0.3333 -0.3147
 5823SOL     OW29104   1.945   2.339   3.158 -0.1509 -0.6345 -0.3807
 5823SOL    HW129105   1.877   2.322   3.093  0.4210  0.5897 -1.3038
 5823SOL    HW229106   1.942   2.434   3.145 -0.6446 -0.2666  2.4822
 5824SOL     OW29107   3.500   4.323   0.274  0.0550 -0.3108  0.6683
 5824SOL    HW129108   3.478   4.400   0.326 -0.4426 -0.0611  0.0946
 5824SOL    HW229109   3.550   4.270   0.336 -0.5988  0.5742  1.9536
 5825SOL     OW29110   2.718   1.267   9.319 -0.0366 -0.6565  0.5440
 5825SOL    HW129111   2.640   1.213   9.307 -0.2868 -0.5384  1.7427
 5825SOL    HW229112   2.699   1.316   9.239 -0.2311  0.1124  1.0639
 5826SOL     OW29113   0.890   1.929   5.419 -0.4791  0.0179 -0.0246
 5826SOL    HW129114   0.960   1.970   5.370 -0.4222 -0.9634 -0.7457
 5826SOL    HW229115   0.941   1.878   5.482  2.1468 -0.7587 -2.8127
 5827SOL     OW29116   2.955   3.752   2.364  0.6410  0.2413  0.1059
 5827SOL    HW129117   2.905   3.671   2.353  0.5397  0.4388 -0.8667
 5827SOL    HW229118   2.882   3.813   2.353  0.0983 -0.0842  1.7910
 5828SOL     OW29119   1.824   1.394   5.037  0.2726 -0.2499  0.1364
 5828SOL    HW129120   1.761   1.326   5.060 -0.1953 -1.0124 -3.3575
 5828SOL    HW229121   1.863   1.410   5.123  0.9427  1.8569 -0.5711
 5829SOL     OW29122   0.651   1.354   1.550  0.0858  0.2676  0.0981
 5829SOL    HW129123   0.693   1.325   1.631  0.4188  1.0926  0.2194
 5829SOL    HW229124   0.561   1.322   1.559 -0.5326  2.8555  2.7866
 5830SOL     OW29125   4.156   2.335   4.534  0.0191  0.3482  0.0447
 5830SOL    HW129126   4.154   2.242   4.556  0.0628  0.3683  0.1310
 5830SOL    HW229127   4.164   2.337   4.438  1.8358 -1.4613  0.1542
 5831SOL     OW29128   0.714   0.396   5.664 -0.0174  0.2399 -0.3496
 5831SOL    HW129129   0.634   0.435   5.699 -0.5165 -0.0878 -1.1255
 5831SOL    HW229130   0.698   0.403   5.570  0.7192 -0.4280 -0.5260
 5832SOL     OW29131   2.851   0.371  15.466 -0.0941 -0.0998 -0.3036
 5832SOL    HW129132   2.787   0.441  15.479 -3.0105 -2.8465  0.1926
 5832SOL    HW229133   2.907   0.381  15.544 -1.4752 -1.7699  0.9031
 5833SOL     OW29134   1.449   0.302  13.036 -0.0200  0.2909 -0.5128
 5833SOL    HW129135   1.543   0.307  13.055  0.3755 -1.0613 -2.1096
 5833SOL    HW229136   1.409   0.365  13.096 -0.2171  1.9421 -2.3571
 5834SOL     OW29137   0.176   2.849   2.716  0.3310  0.1421 -0.1292
 5834SOL    HW129138   0.235   2.775   2.733 -0.9850 -0.7462  0.6313
 5834SOL    HW229139   0.090   2.806   2.720  0.8719 -0.9094  0.2329
 5835SOL     OW29140   0.770   0.193   7.828  0.2597 -0.0113  0.0319
 5835SOL    HW129141   0.821   0.137   7.769 -0.4188 -2.3802  1.7096
 5835SOL    HW229142   0.678   0.165   7.827  0.6793 -1.4223 -0.1197
 5836SOL     OW29143   0.210   3.199   6.248 -0.3502  0.2884 -0.5611
 5836SOL    HW129144   0.129   3.215   6.200 -0.9094 -0.4435  0.1371
 5836SOL    HW229145   0.223   3.106   6.231  1.9463  0.7419 -1.3317
 5837SOL     OW29146   2.924   0.894   3.842  0.3003  0.4439  0.2359
 5837SOL    HW129147   2.923   0.988   3.857 -2.3264  0.0752  2.3869
 5837SOL    HW229148   3.002   0.879   3.788 -1.4614 -1.6524 -1.7358
 5838SOL     OW29149   1.567   3.530   7.758 -0.0942 -0.6823 -0.5174
 5838SOL    HW129150   1.567   3.444   7.800 -1.4346  0.9535  2.8484
 5838SOL    HW229151   1.582   3.513   7.665 -0.3568  0.1074 -0.7071
 5839SOL     OW29152   4.522   0.085   6.237 -0.1646  0.5397  0.6675
 5839SOL    HW129153   4.532   0.172   6.197  3.2787 -1.0304 -1.9293
 5839SOL    HW229154   4.573   0.098   6.317  0.5624  0.9880  0.1392
 5840SOL     OW29155   4.678   2.895  16.163 -0.1615  0.0528 -0.4053
 5840SOL    HW129156   4.615   2.963  16.140 -1.7533 -1.8120 -1.4713
 5840SOL    HW229157   0.015   2.925  16.111  0.3544  0.0070  0.3152
 5841SOL     OW29158   3.587   3.563   9.445  0.2610 -0.0205 -0.0998
 5841SOL    HW129159   3.565   3.517   9.526  1.1445 -2.1354 -1.0533
 5841SOL    HW229160   3.508   3.539   9.397  0.7683 -1.6124 -0.1563
 5842SOL     OW29161   2.810   1.318   3.788  0.7139  0.1676 -0.5448
 5842SOL    HW129162   2.749   1.256   3.828  0.2546  0.3530 -0.9534
 5842SOL    HW229163   2.895   1.276   3.799 -0.0406 -1.2123 -0.0439
 5843SOL     OW29164   3.980   3.294   1.802 -0.1097  0.0025 -0.2452
 5843SOL    HW129165   3.891   3.277   1.834  0.5401 -0.4885  1.3268
 5843SOL    HW229166   3.967   3.372   1.749  1.9677  1.3645  1.2542
 5844SOL     OW29167   3.069   4.476   8.523 -0.0235  0.2090 -0.0778
 5844SOL    HW129168   3.019   4.394   8.529  1.3214 -0.5094  1.3320
 5844SOL    HW229169   3.079   4.509   8.612  1.2826 -0.4034 -0.0109
 5845SOL     OW29170   2.455   3.779   4.856 -0.7590  0.4973  0.6198
 5845SOL    HW129171   2.467   3.781   4.951 -1.0713  1.9047  0.6241
 5845SOL    HW229172   2.375   3.727   4.854  0.3575 -1.1580 -0.8675
 5846SOL     OW29173   1.227   2.625   2.632  0.6618  0.2250 -0.0212
 5846SOL    HW129174   1.207   2.681   2.557  1.7609 -0.0529 -0.5270
 5846SOL    HW229175   1.152   2.565   2.629 -0.4633  1.5741  1.3851
 5847SOL     OW29176   1.883   2.846   7.484 -0.2089 -0.2867 -0.1424
 5847SOL    HW129177   1.961   2.834   7.429 -0.6051  1.8818 -1.1987
 5847SOL    HW229178   1.815   2.827   7.419 -0.3131 -1.1248  0.2257
 5848SOL     OW29179   1.179   1.612   3.638  0.0560 -0.0931 -0.0405
 5848SOL    HW129180   1.099   1.659   3.615  0.1661  0.4528  0.6848
 5848SOL    HW229181   1.225   1.610   3.553  0.5857  2.4884  0.1659
 5849SOL     OW29182   3.486   3.487   5.839 -0.2042  0.0017  0.1518
 5849SOL    HW129183   3.546   3.413   5.830 -2.1833 -1.8311  1.8597
 5849SOL    HW229184   3.498   3.519   5.750  2.3444  2.3218  1.3072
 5850SOL     OW29185   0.225   3.495   1.351  0.3963  0.3550 -0.2765
 5850SOL    HW129186   0.227   3.492   1.256  2.1531  0.7935 -0.2382
 5850SOL    HW229187   0.139   3.455   1.368  0.1779  0.9323 -0.0289
 5851SOL     OW29188   0.662   0.872   3.631  0.4597 -0.2099 -0.4183
 5851SOL    HW129189   0.585   0.835   3.589 -0.3319  1.4351 -0.4086
 5851SOL    HW229190   0.712   0.893   3.553  1.9809 -0.4673  0.4830
 5852SOL     OW29191   2.504   2.116   2.421 -0.8169 -0.2225 -0.4728
 5852SOL    HW129192   2.448   2.164   2.482 -0.5797  1.1219 -1.3222
 5852SOL    HW229193   2.450   2.056   2.370  1.4553 -3.2329  0.6854
 5853SOL     OW29194   4.331   2.820  16.074  0.0282 -0.1544 -0.1962
 5853SOL    HW129195   4.384   2.852  16.001 -0.3633 -0.3988 -0.5890
 5853SOL    HW229196   4.240   2.838  16.050  0.2795  2.4621  0.8321
 5854SOL     OW29197   3.620   3.878   6.011  0.4041 -0.2648  0.1278
 5854SOL    HW129198   3.527   3.901   6.003  0.6772  0.4766 -0.9153
 5854SOL    HW229199   3.652   3.968   6.006 -3.4702  1.3290  4.0837
 5855SOL     OW29200   4.517   2.601   2.167 -0.1420 -0.1444 -0.0413
 5855SOL    HW129201   4.509   2.526   2.109 -1.3679 -0.4810  0.5582
 5855SOL    HW229202   4.454   2.576   2.235 -1.2643  2.5837 -0.0897
 5856SOL     OW29203   0.941   2.458   2.493  0.6764 -0.3654  0.1806
 5856SOL    HW129204   0.946   2.459   2.397 -1.5150  2.2805  0.0894
 5856SOL    HW229205   1.005   2.390   2.515  2.8689  0.8477 -2.4420
 5857SOL     OW29206   0.132   4.635   8.560  0.0578  0.1607  0.0474
 5857SOL    HW129207   0.064   4.571   8.580  0.8407 -0.5968  0.3265
 5857SOL    HW229208   0.085   4.718   8.561  0.7215  0.5431 -0.0578
 5858SOL     OW29209   0.061   2.212   9.374 -0.2095  0.1095  0.6130
 5858SOL    HW129210   0.055   2.189   9.467  1.6333 -3.7935 -0.2224
 5858SOL    HW229211   0.149   2.249   9.377  0.5575 -1.8472  2.3628
 5859SOL     OW29212   0.243   1.543   9.664  0.2325 -0.5997 -0.2328
 5859SOL    HW129213   0.329   1.564   9.701  0.2465 -1.6766  0.3693
 5859SOL    HW229214   0.201   1.507   9.742 -1.8301 -1.6137 -1.8152
 5860SOL     OW29215   1.707   2.406   4.196 -0.4421  0.0275 -0.5139
 5860SOL    HW129216   1.687   2.459   4.273  3.4951 -0.8752  1.1472
 5860SOL    HW229217   1.625   2.419   4.147 -0.4955 -1.2228 -0.7686
 5861SOL     OW29218   3.843   3.150   4.345  0.3722  0.5917 -0.3583
 5861SOL    HW129219   3.860   3.150   4.251  0.4590  0.6862 -0.3430
 5861SOL    HW229220   3.807   3.063   4.361  1.8875 -0.2950 -1.8218
 5862SOL     OW29221   0.644   4.462   7.400  0.5408 -0.0274 -0.2656
 5862SOL    HW129222   0.643   4.419   7.486 -0.1591 -0.6310 -0.5811
 5862SOL    HW229223   0.591   4.411   7.340 -4.2449  1.2234  2.8807
 5863SOL     OW29224   3.860   0.040   9.574 -0.3591 -0.5325  0.0324
 5863SOL    HW129225   3.815   0.025   9.491  0.1176 -0.7925 -0.1756
 5863SOL    HW229226   3.880   0.132   9.558 -3.1931  0.0697 -0.1165
 5864SOL     OW29227   2.888   3.054  13.657  0.0159  0.7503  0.3618
 5864SOL    HW129228   2.807   3.017  13.693  0.5679 -0.9844 -0.1741
 5864SOL    HW229229   2.948   2.980  13.647 -2.0189 -1.0466  1.1529
 5865SOL     OW29230   0.308   3.641  16.674 -0.2030 -0.2586  0.4845
 5865SOL    HW129231   0.341   3.723  16.711 -0.6641  0.0343  0.2565
 5865SOL    HW229232   0.226   3.623  16.721  0.0187  1.6555  1.5992
 5866SOL     OW29233   0.895   0.523   4.460 -0.2867  0.0664 -0.0756
 5866SOL    HW129234   0.921   0.431   4.454  0.9674  0.4839 -1.2168
 5866SOL    HW229235   0.800   0.527   4.467 -0.2049 -1.1916  1.6922
 5867SOL     OW29236   1.093   2.569   5.195 -0.5380 -0.4392 -0.5617
 5867SOL    HW129237   1.170   2.537   5.244 -0.9757 -1.4526 -0.5400
 5867SOL    HW229238   1.046   2.486   5.189  0.9836 -1.4224  0.8540
 5868SOL     OW29239   2.461   4.085  12.739  0.5644  0.1925 -0.0205
 5868SOL    HW129240   2.389   4.035  12.776  0.4077 -0.1627 -0.8278
 5868SOL    HW229241   2.542   4.055  12.780  0.2653 -1.0951 -0.3926
 5869SOL     OW29242   2.049   3.793   4.982 -0.0038 -0.3364  0.0450
 5869SOL    HW129243   1.985   3.725   4.960 -3.2248  2.4061  0.9107
 5869SOL    HW229244   2.117   3.735   5.016 -2.0206 -2.2581  0.7820
 5870SOL     OW29245   2.543   4.407  16.440 -0.3413  0.1938  0.1141
 5870SOL    HW129246   2.448   4.417  16.432 -0.5409 -1.3906  0.4990
 5870SOL    HW229247   2.579   4.482  16.487 -0.3621  0.3964 -0.1874
 5871SOL     OW29248   0.813   1.260  17.008  0.4111 -0.3431 -0.5070
 5871SOL    HW129249   0.907   1.251  16.991  0.6603  0.1193  0.6131
 5871SOL    HW229250   0.784   1.176  16.972 -0.0042 -1.1857  1.7995
 5872SOL     OW29251   2.532   3.002   6.002  0.1496  0.0461  0.1623
 5872SOL    HW129252   2.557   3.033   5.915 -1.5098 -0.9499 -0.6884
 5872SOL    HW229253   2.439   2.985   5.983  0.6222 -0.9900 -1.2901
 5873SOL     OW29254   3.060   2.362   2.660 -0.2024  0.4556 -0.2144
 5873SOL    HW129255   3.076   2.271   2.685  2.0183  1.4483  1.8953
 5873SOL    HW229256   3.097   2.401   2.739 -2.0765  0.2784  0.7439
 5874SOL     OW29257   3.678   2.408  10.816  0.4735  0.1028  0.2404
 5874SOL    HW129258   3.694   2.490  10.769  0.6694  0.1964  0.4678
 5874SOL    HW229259   3.743   2.348  10.779  0.5319 -0.7134  1.6804
 5875SOL     OW29260   2.723   4.154  12.199 -0.4041 -0.6775  0.1851
 5875SOL    HW129261   2.681   4.185  12.119 -0.2172  2.9708  1.4977
 5875SOL    HW229262   2.771   4.231  12.232 -0.6624 -0.8542  0.9731
 5876SOL     OW29263   2.885   0.907   8.182  0.1693  0.0120 -0.1691
 5876SOL    HW129264   2.959   0.962   8.207  0.0618  0.1935 -0.2438
 5876SOL    HW229265   2.934   0.827   8.166 -0.9132 -0.5757 -0.5566
 5877SOL     OW29266   2.368   0.214  12.792 -0.2883 -0.5793 -0.8120
 5877SOL    HW129267   2.380   0.144  12.856  0.5634 -0.0995 -0.4607
 5877SOL    HW229268   2.447   0.214  12.738  1.4178 -0.0589  1.7093
 5878SOL     OW29269   3.139   0.029   6.279 -0.5816  0.1202 -0.0965
 5878SOL    HW129270   3.131   0.125   6.277 -0.3441  0.1379 -0.2707
 5878SOL    HW229271   3.052   0.002   6.250 -0.8586  1.3163 -0.3807
 5879SOL     OW29272   2.695   2.321   4.202  0.5144  0.6433 -0.2869
 5879SOL    HW129273   2.614   2.359   4.237  0.8877 -0.3682  1.6732
 5879SOL    HW229274   2.704   2.240   4.253  0.1205  2.1442  2.2089
 5880SOL     OW29275   2.173   4.529  10.914 -0.4618 -0.4375  0.5985
 5880SOL    HW129276   2.252   4.510  10.965 -0.8047  0.5105  1.4741
 5880SOL    HW229277   2.108   4.551  10.981  1.2119  0.4055  1.9328
 5881SOL     OW29278   2.739   0.060   2.998 -0.3132 -0.0812  0.2563
 5881SOL    HW129279   2.662   0.083   2.946  2.7161  1.8264 -3.3805
 5881SOL    HW229280   2.694   0.043   3.081 -1.3037 -1.0529 -0.4689
 5882SOL     OW29281   3.171   3.906   8.133 -0.0207  0.4787 -0.3705
 5882SOL    HW129282   3.209   3.930   8.049 -1.9370  0.6906 -1.1685
 5882SOL    HW229283   3.245   3.915   8.193 -1.0435 -0.6748  1.0541
 5883SOL     OW29284   1.298   3.196   0.076 -0.5242 -0.4244  0.3982
 5883SOL    HW129285   1.361   3.256   0.035 -0.4662  1.0440  2.6596
 5883SOL    HW229286   1.288   3.132   0.005  2.0162  0.1337 -0.4426
 5884SOL     OW29287   2.292   3.786   5.288  0.5280 -0.5168  0.9150
 5884SOL    HW129288   2.290   3.706   5.340 -0.5131 -1.3908 -0.4626
 5884SOL    HW229289   2.220   3.845   5.310 -1.7451 -3.4587  1.2880
 5885SOL     OW29290   3.973   4.333   5.340  0.1303  0.1491 -0.2448
 5885SOL    HW129291   3.951   4.263   5.402  2.1426 -0.4689 -0.2508
 5885SOL    HW229292   3.988   4.407   5.399  1.2722 -1.4145  1.4254
 5886SOL     OW29293   3.796   3.170  11.010 -0.0039 -0.4129 -0.1120
 5886SOL    HW129294   3.882   3.196  11.043  0.3132 -1.3192 -0.2138
 5886SOL    HW229295   3.756   3.257  11.008  1.9938  0.4945 -0.3386
 5887SOL     OW29296   1.799   4.062   3.172 -0.4092 -0.3298 -0.2479
 5887SOL    HW129297   1.727   4.072   3.234 -0.0120 -0.7607  0.2815
 5887SOL    HW229298   1.750   4.028   3.097  0.2948 -1.0451 -0.3842
 5888SOL     OW29299   2.950   3.679   6.055  0.1362  0.5049 -0.0657
 5888SOL    HW129300   2.908   3.636   5.982  2.8978  1.1412 -2.0385
 5888SOL    HW229301   2.901   3.630   6.121 -0.4156 -1.7574 -2.1492
 5889SOL     OW29302   2.530   2.457  17.334  0.0448  0.5940 -0.4507
 5889SOL    HW129303   2.619   2.424  17.337  0.1022  0.8055  0.1150
 5889SOL    HW229304   2.480   2.387  17.291  1.8564 -0.4408 -0.8756
 5890SOL     OW29305   0.261   1.385   4.642  0.1560 -0.3976 -0.4220
 5890SOL    HW129306   0.352   1.393   4.613  0.3087 -0.3279  0.0763
 5890SOL    HW229307   0.267   1.338   4.725 -2.1757  0.6094  0.3054
 5891SOL     OW29308   3.018   4.229   2.659 -0.1932  0.0886 -0.3320
 5891SOL    HW129309   3.014   4.322   2.638  0.6988  0.1612 -0.2124
 5891SOL    HW229310   2.925   4.210   2.648  0.1638 -1.0534 -1.4230
 5892SOL     OW29311   3.615   0.881   6.198 -0.6180  0.3045 -0.0390
 5892SOL    HW129312   3.705   0.853   6.178 -0.5138  0.6049  0.0170
 5892SOL    HW229313   3.594   0.815   6.264  0.9215 -1.4030 -1.2356
 5893SOL     OW29314   4.350   1.934   9.062 -0.3104 -0.1134 -0.5588
 5893SOL    HW129315   4.350   2.023   9.097 -2.4676 -0.0496 -0.7316
 5893SOL    HW229316   4.303   1.885   9.129  3.3987  1.1040  2.9041
 5894SOL     OW29317   3.772   3.490   7.706  0.2866 -0.5975  0.1407
 5894SOL    HW129318   3.790   3.559   7.770  0.5273  0.3289 -0.9296
 5894SOL    HW229319   3.855   3.443   7.716  0.7756  0.1037 -0.6578
 5895SOL     OW29320   3.633   0.446  17.253  0.3771 -0.3678 -0.3767
 5895SOL    HW129321   3.694   0.518  17.266  0.0307  0.1520 -1.6515
 5895SOL    HW229322   3.682   0.383  17.200  0.6512  0.6953 -1.3895
 5896SOL     OW29323   4.332   1.031  17.620 -0.4506  0.4919 -0.4555
 5896SOL    HW129324   4.379   1.035  17.538  1.6529  2.7985  0.8754
 5896SOL    HW229325   4.240   1.023  17.595 -0.9283  2.2837  0.7250
 5897SOL     OW29326   3.217   3.321   5.346 -0.3346  0.0240  0.2163
 5897SOL    HW129327   3.186   3.341   5.258 -0.2078 -1.3082 -0.1300
 5897SOL    HW229328   3.152   3.257   5.376  0.5053 -2.0366 -2.3720
 5898SOL     OW29329   1.608   0.786   7.277  0.1060  0.0210 -0.2766
 5898SOL    HW129330   1.661   0.775   7.198 -1.0384 -1.0037 -0.8922
 5898SOL    HW229331   1.528   0.735   7.269  1.1359 -1.1835 -2.7088
 5899SOL     OW29332   0.114   2.828   4.545 -0.0560  0.0793  0.1346
 5899SOL    HW129333   0.039   2.824   4.485 -1.0012 -0.3492  1.3227
 5899SOL    HW229334   0.108   2.923   4.555 -3.0919  0.1300 -2.0930
 5900SOL     OW29335   1.730   3.342  17.360 -0.0613 -0.0791  0.3643
 5900SOL    HW129336   1.731   3.437  17.364  0.4898 -0.0982  0.6162
 5900SOL    HW229337   1.636   3.323  17.372 -0.2605 -0.5879 -2.0139
 5901SOL     OW29338   3.100   0.925   4.531 -0.5976 -0.0898  0.6176
 5901SOL    HW129339   3.102   0.992   4.600  1.1910 -1.0194  1.4511
 5901SOL    HW229340   3.072   0.854   4.588  0.1073  0.8894  2.1686
 5902SOL     OW29341   2.252   3.411   4.689  0.1164  0.1385  0.1444
 5902SOL    HW129342   2.257   3.423   4.595 -0.4101 -1.5374 -0.1037
 5902SOL    HW229343   2.330   3.357   4.706 -0.9201 -1.1573  0.8323
 5903SOL     OW29344   0.631   1.000   2.986 -0.1216 -0.0014 -0.2194
 5903SOL    HW129345   0.671   0.941   3.050  1.2668 -0.1666 -1.2432
 5903SOL    HW229346   0.576   0.935   2.944  2.1564 -0.8485 -1.9136
 5904SOL     OW29347   2.772   4.403   5.919 -0.1935  0.3060 -0.1404
 5904SOL    HW129348   2.760   4.339   5.850  1.9075  1.2115 -1.3703
 5904SOL    HW229349   2.864   4.423   5.902 -0.3221 -1.8069 -3.2962
 5905SOL     OW29350   1.515   4.665   4.472  0.4975  0.0667  0.3448
 5905SOL    HW129351   1.592   4.623   4.434 -0.0299 -1.0924  0.5621
 5905SOL    HW229352   1.486   4.586   4.517  0.4093  1.6559  3.0691
 5906SOL     OW29353   1.562   0.411   8.643  0.6547 -0.0256  0.3245
 5906SOL    HW129354   1.495   0.356   8.602 -0.2501  0.7244  0.7718
 5906SOL    HW229355   1.610   0.447   8.569  0.7746  1.7634  1.2612
 5907SOL     OW29356   0.274   1.052   1.649 -0.1323 -0.1864  0.4925
 5907SOL    HW129357   0.237   0.999   1.720  2.9185 -0.9521  1.5398
 5907SOL    HW229358   0.266   0.994   1.573  1.6713 -1.0582  0.9413
 5908SOL     OW29359   3.719   1.338   1.491 -0.4780 -0.1000 -0.3009
 5908SOL    HW129360   3.796   1.393   1.477 -0.6485  0.2203  0.0128
 5908SOL    HW229361   3.743   1.247   1.472  3.8176  1.0530 -0.4843
 5909SOL     OW29362   3.479   0.703   7.590 -0.0392 -0.1499  0.3471
 5909SOL    HW129363   3.572   0.693   7.569  0.2157  1.7168  0.6067
 5909SOL    HW229364   3.484   0.747   7.675 -0.9341 -1.1641  0.9311
 5910SOL     OW29365   4.582   1.890   4.608 -0.3566 -0.1346 -0.8996
 5910SOL    HW129366   4.545   1.807   4.638 -1.4757  0.0921 -1.6621
 5910SOL    HW229367   4.636   1.919   4.682 -1.6647  0.3976 -0.1421
 5911SOL     OW29368   0.013   2.076  14.062  1.1471  0.0881 -0.2137
 5911SOL    HW129369   4.677   2.061  14.122 -0.8970 -0.8340 -2.9735
 5911SOL    HW229370   0.027   2.171  14.065 -0.3308  0.2211  2.5179
 5912SOL     OW29371   4.607   1.843   3.409 -0.1866  0.3289  0.2714
 5912SOL    HW129372   4.525   1.819   3.366  0.1924  1.7093 -1.2380
 5912SOL    HW229373   4.646   1.759   3.431 -0.8646 -0.2191 -0.6029
 5913SOL     OW29374   4.513   4.622   7.726 -0.2867 -0.3858 -0.1988
 5913SOL    HW129375   4.445   4.617   7.792 -0.3931  0.9877 -0.2115
 5913SOL    HW229376   4.594   4.607   7.775  0.1449  1.3286 -0.3820
 5914SOL     OW29377   0.051   3.048   6.452 -0.4771  0.0568 -0.4104
 5914SOL    HW129378   0.021   3.128   6.407  0.2062 -0.8003 -2.4172
 5914SOL    HW229379   4.733   3.047   6.529 -1.3315 -2.1677 -1.0365
 5915SOL     OW29380   2.124   2.432   6.722 -0.6906  0.1862  0.3910
 5915SOL    HW129381   2.195   2.492   6.743  1.4245 -1.5334 -1.7633
 5915SOL    HW229382   2.064   2.441   6.796 -0.2410  2.7503  0.4264
 5916SOL     OW29383   0.625   1.227  16.228 -0.4908  0.1543  0.1444
 5916SOL    HW129384   0.719   1.236  16.244 -0.0471 -0.3033 -2.2630
 5916SOL    HW229385   0.602   1.279  16.305  2.7227  0.4091  0.9606
 5917SOL     OW29386   0.253   2.930  15.174  0.6515  0.2983  0.2245
 5917SOL    HW129387   0.166   2.906  15.141  0.4799  0.6120  0.4464
 5917SOL    HW229388   0.302   2.851  15.153 -0.7077 -1.0143  2.0263
 5918SOL     OW29389   4.349   1.270   6.624 -0.5471 -0.0392  0.5038
 5918SOL    HW129390   4.426   1.320   6.598  0.5649  0.3625  4.4557
 5918SOL    HW229391   4.297   1.256   6.545 -1.3320  0.8061  0.8629
 5919SOL     OW29392   3.020   4.493   7.410  0.3496  0.0861 -0.1682
 5919SOL    HW129393   2.997   4.551   7.483  2.1033  0.4461  0.1000
 5919SOL    HW229394   3.054   4.551   7.343 -2.7952  0.2385 -1.6484
 5920SOL     OW29395   0.294   3.724   4.371 -0.2633  0.4359 -0.8441
 5920SOL    HW129396   0.302   3.639   4.328 -0.3051  0.2257 -0.4365
 5920SOL    HW229397   0.227   3.705   4.437 -1.3081  0.3131 -1.9475
 5921SOL     OW29398   2.610   1.539   6.989  0.4358 -0.3708 -0.1104
 5921SOL    HW129399   2.562   1.562   7.069  1.1462 -0.1302  0.2467
 5921SOL    HW229400   2.611   1.444   7.001  1.4266 -0.2485  0.8310
 5922SOL     OW29401   0.239   3.884   3.765 -0.4343 -0.2673  0.2942
 5922SOL    HW129402   0.258   3.965   3.812  0.0824 -0.2596  0.0707
 5922SOL    HW229403   0.240   3.819   3.835 -2.2617 -0.2048  0.3720
 5923SOL     OW29404   3.102   0.002   0.073  0.4458 -0.3384  0.0976
 5923SOL    HW129405   3.043   0.076   0.087 -1.5803 -1.9966  0.3428
 5923SOL    HW229406   3.150   0.037  17.747  0.4365 -0.5096  0.0122
 5924SOL     OW29407   4.363   0.567   6.443 -0.3074  0.0540  0.2356
 5924SOL    HW129408   4.355   0.596   6.534 -1.1449  3.3177 -0.8963
 5924SOL    HW229409   4.299   0.496   6.433 -0.5199  0.1620  0.8192
 5925SOL     OW29410   3.012   4.087   1.646 -0.7479 -0.2299 -0.0960
 5925SOL    HW129411   3.012   4.019   1.714 -1.4192  0.2278  0.3597
 5925SOL    HW229412   3.106   4.083   1.628 -0.8429 -1.4874 -0.3411
 5926SOL     OW29413   4.426   1.572   9.757  0.0133  0.4924  0.5345
 5926SOL    HW129414   4.420   1.602   9.847 -0.9301 -1.5936  1.1745
 5926SOL    HW229415   4.466   1.486   9.772  0.0051  0.6946  1.6655
 5927SOL     OW29416   1.935   2.611   3.095  0.1627  0.2964 -0.5431
 5927SOL    HW129417   2.012   2.665   3.077  0.7191 -0.6657 -1.0421
 5927SOL    HW229418   1.868   2.674   3.121  0.7313  0.1485  1.3009
 5928SOL     OW29419   1.445   4.078   5.608  0.2232 -0.3493 -0.6730
 5928SOL    HW129420   1.380   4.066   5.676  3.0108 -0.8289  1.9262
 5928SOL    HW229421   1.479   3.989   5.617  1.2764  0.1834  0.7166
 5929SOL     OW29422   2.068   3.014   4.893  0.0422 -0.0562 -0.0573
 5929SOL    HW129423   1.989   2.970   4.923  1.4806 -2.1231  0.6465
 5929SOL    HW229424   2.032   3.086   4.841 -2.4827 -1.1538  0.1763
 5930SOL     OW29425   2.228   4.509  14.592  0.3285 -0.2797 -0.0156
 5930SOL    HW129426   2.198   4.570  14.659 -0.6962  1.7185 -2.3224
 5930SOL    HW229427   2.170   4.528  14.518  0.1178 -0.4519  0.1069
 5931SOL     OW29428   1.021   2.019   9.834 -0.4888  0.1246  0.1229
 5931SOL    HW129429   1.025   2.061   9.748 -1.1169 -2.0063 -0.9635
 5931SOL    HW229430   1.080   1.944   9.819 -0.4768  0.0285  0.6374
 5932SOL     OW29431   2.331   0.434   4.692 -0.3999  0.6027 -0.6303
 5932SOL    HW129432   2.293   0.406   4.609 -1.6875 -1.9248  0.8057
 5932SOL    HW229433   2.423   0.417   4.671 -0.4151  0.3012 -0.4581
 5933SOL     OW29434   2.420   2.042   9.428 -0.1099 -0.2373 -0.4259
 5933SOL    HW129435   2.375   1.984   9.366  0.1731 -1.6287  0.6629
 5933SOL    HW229436   2.383   2.011   9.510 -0.6081 -0.4773 -0.7353
 5934SOL     OW29437   2.623   0.477   9.637 -0.4031 -0.1892 -0.4769
 5934SOL    HW129438   2.569   0.555   9.654  0.8859  0.6895 -0.4153
 5934SOL    HW229439   2.706   0.517   9.664 -1.3880  0.0830  2.1674
 5935SOL     OW29440   2.697   1.776   6.214  0.3241 -0.4301  0.1143
 5935SOL    HW129441   2.622   1.790   6.272  1.7129 -0.7387  2.0132
 5935SOL    HW229442   2.724   1.868   6.222  1.3786 -0.6229 -1.2358
 5936SOL     OW29443   1.295   2.456   1.565 -0.6369  0.2475  0.3040
 5936SOL    HW129444   1.216   2.508   1.556 -2.0782 -2.3089 -1.8001
 5936SOL    HW229445   1.319   2.449   1.473  1.6029 -0.2230  0.9214
 5937SOL     OW29446   0.520   3.895   6.439  0.0044 -0.4789 -0.1189
 5937SOL    HW129447   0.528   3.821   6.500 -0.3369 -0.0402  0.4666
 5937SOL    HW229448   0.532   3.973   6.495  1.5909 -0.2487 -0.7819
 5938SOL     OW29449   4.174   4.621  14.467 -0.3861 -0.2814  0.2544
 5938SOL    HW129450   4.094   4.673  14.473 -0.4287 -0.5281  1.6733
 5938SOL    HW229451   4.174   4.628  14.371  2.6944  1.3792  0.3845
 5939SOL     OW29452   1.652   0.003  12.650  0.4489  0.4828 -0.4179
 5939SOL    HW129453   1.614   4.723  12.565  1.7667  2.4257 -1.4139
 5939SOL    HW229454   1.582   4.731  12.714  0.1273 -0.6619 -0.9488
 5940SOL     OW29455   3.846   4.411   7.800  0.1580 -0.2293  0.1837
 5940SOL    HW129456   3.885   4.481   7.852 -0.7476 -0.0920  0.6648
 5940SOL    HW229457   3.850   4.430   7.706  2.2477  1.2060  0.5428
 5941SOL     OW29458   0.001   0.265   2.183 -0.6057 -0.5640 -0.1540
 5941SOL    HW129459   0.067   0.262   2.113 -0.0007  0.4903  0.3693
 5941SOL    HW229460   4.728   0.171   2.196  2.1071 -0.8134  0.2602
 5942SOL     OW29461   0.401   1.938   2.510  0.3024 -0.1089 -0.4018
 5942SOL    HW129462   0.400   2.031   2.532  0.7332 -0.5783  1.6411
 5942SOL    HW229463   0.313   1.917   2.542  0.2721 -0.1937 -0.5418
 5943SOL     OW29464   1.115   4.542  17.138 -0.3344  0.1675  0.1515
 5943SOL    HW129465   1.125   4.448  17.127  0.5523 -0.0375  2.7455
 5943SOL    HW229466   1.084   4.546  17.228 -0.0138  0.9861  0.2297
 5944SOL     OW29467   4.034   3.647   8.023 -0.0074 -0.4575 -0.1623
 5944SOL    HW129468   4.015   3.554   8.009 -1.4816  0.0177 -1.3034
 5944SOL    HW229469   4.127   3.634   8.005  0.6935  0.6034  2.7510
 5945SOL     OW29470   2.324   2.475   9.587 -1.0915 -0.2621 -0.6853
 5945SOL    HW129471   2.314   2.552   9.643  0.9875 -1.0074  0.7480
 5945SOL    HW229472   2.417   2.456   9.574 -1.3125 -0.8705 -1.3924
 5946SOL     OW29473   2.905   0.593   5.702  0.3279 -0.2066 -0.0449
 5946SOL    HW129474   2.852   0.514   5.705 -2.2472  1.5793  1.7070
 5946SOL    HW229475   2.972   0.575   5.636 -0.5241  0.3431 -1.0757
 5947SOL     OW29476   1.712   1.735   3.606  0.9942  0.6356 -0.1103
 5947SOL    HW129477   1.723   1.709   3.514 -1.3937 -0.9661  0.0458
 5947SOL    HW229478   1.787   1.690   3.643  1.3340  0.4653 -1.0010
 5948SOL     OW29479   0.663   4.597   4.239  0.4620 -0.0023 -0.3514
 5948SOL    HW129480   0.749   4.561   4.219  0.2506 -0.3645 -0.5939
 5948SOL    HW229481   0.655   4.654   4.163  0.2835 -1.6001 -1.5228
 5949SOL     OW29482   1.247   4.106   8.019  0.5145 -0.1313  0.0642
 5949SOL    HW129483   1.194   4.152   8.085 -2.2708 -4.5855  0.9389
 5949SOL    HW229484   1.275   4.027   8.065  0.0024  0.4699  1.4395
 5950SOL     OW29485   0.590   0.452   2.016 -0.0151 -0.6168 -0.2053
 5950SOL    HW129486   0.589   0.388   1.945 -0.6270  2.8832 -3.2829
 5950SOL    HW229487   0.500   0.485   2.016  0.7648  1.5166  1.9090
 5951SOL     OW29488   2.657   3.973   8.202 -0.1248  0.0518  0.0972
 5951SOL    HW129489   2.642   3.993   8.294 -2.5685  1.3279 -0.5735
 5951SOL    HW229490   2.743   3.933   8.214  0.6598  1.6986 -0.0130
 5952SOL     OW29491   2.755   0.834  15.980  0.0283  0.2547  0.2041
 5952SOL    HW129492   2.724   0.923  15.964 -0.0068  0.2417  0.2011
 5952SOL    HW229493   2.815   0.854  16.051 -0.5670  1.5245  0.3397
 5953SOL     OW29494   3.402   3.655  10.180 -0.1653 -0.2286  0.2667
 5953SOL    HW129495   3.397   3.730  10.240  0.3632 -0.0303  0.0596
 5953SOL    HW229496   3.317   3.611  10.189 -0.2661 -0.1295 -0.1972
 5954SOL     OW29497   1.929   4.160   8.534 -0.2522  0.4165 -0.3024
 5954SOL    HW129498   2.023   4.167   8.514  0.5119 -1.0675  2.6804
 5954SOL    HW229499   1.927   4.070   8.566 -0.5203  1.4313  2.5359
 5955SOL     OW29500   4.373   0.020  11.644 -0.1007  0.1414  0.0493
 5955SOL    HW129501   4.405   4.728  11.729  1.0594 -1.5418 -0.9813
 5955SOL    HW229502   4.442   0.085  11.642 -0.6921  0.7802  0.5155
 5956SOL     OW29503   3.470   3.065   6.060 -0.1988 -0.6850 -0.0926
 5956SOL    HW129504   3.415   3.054   5.982  0.5027  2.3782 -1.0380
 5956SOL    HW229505   3.553   3.058   6.013 -0.4522 -0.0599 -0.6393
 5957SOL     OW29506   3.063   4.154  11.741 -0.2719  0.1891 -0.3957
 5957SOL    HW129507   2.988   4.187  11.790 -1.0344 -1.3224 -0.5322
 5957SOL    HW229508   3.083   4.233  11.692 -1.2845  0.2270 -0.7337
 5958SOL     OW29509   2.929   2.472   2.119  0.0474  0.2707 -0.1618
 5958SOL    HW129510   2.880   2.444   2.042 -0.8095 -2.2290  1.3052
 5958SOL    HW229511   2.872   2.438   2.188 -1.7259  1.4741 -1.0573
 5959SOL     OW29512   0.414   4.726   8.176  0.1065 -0.1855 -0.0018
 5959SOL    HW129513   0.445   4.662   8.113  0.6566  0.4900 -0.4158
 5959SOL    HW229514   0.323   4.702   8.194 -0.4485 -1.2705 -4.2853
 5960SOL     OW29515   2.283   4.614  16.623 -0.1893  0.4547 -0.8021
 5960SOL    HW129516   2.215   4.586  16.685  0.3912  0.7455 -0.0421
 5960SOL    HW229517   2.249   4.697  16.588  1.7072  1.6325  0.1444
 5961SOL     OW29518   3.844   2.884  17.460 -0.0614  0.1431  0.0113
 5961SOL    HW129519   3.905   2.860  17.530  0.5680  0.4471 -0.4266
 5961SOL    HW229520   3.759   2.874  17.501 -0.5603 -1.6516 -1.4291
 5962SOL     OW29521   4.439   4.311   1.103  0.0271  0.4849 -0.3016
 5962SOL    HW129522   4.527   4.281   1.081  0.2084  0.6734  0.1686
 5962SOL    HW229523   4.453   4.312   1.197 -1.2272 -0.0207 -0.1109
 5963SOL     OW29524   2.528   3.578   8.814 -0.3104 -0.3272  0.2165
 5963SOL    HW129525   2.577   3.659   8.831  1.1254 -1.4715  1.5998
 5963SOL    HW229526   2.458   3.619   8.764 -0.3909  0.7208  1.1918
 5964SOL     OW29527   0.731   0.590   4.740  0.5999 -0.2495 -0.3899
 5964SOL    HW129528   0.816   0.587   4.784  0.0169 -1.9174  0.6391
 5964SOL    HW229529   0.694   0.659   4.795 -1.0456 -1.1285 -0.3982
 5965SOL     OW29530   3.814   4.427   3.317  0.2119  0.3573  0.1070
 5965SOL    HW129531   3.813   4.453   3.225  0.6433  2.8868  0.7986
 5965SOL    HW229532   3.765   4.345   3.313 -1.8305  1.6481 -1.2527
 5966SOL     OW29533   1.835   0.516   3.122 -0.1534 -0.3317  0.9375
 5966SOL    HW129534   1.793   0.430   3.124 -1.0900  0.0618 -1.9019
 5966SOL    HW229535   1.790   0.556   3.197 -2.3372 -1.8475  0.4444
 5967SOL     OW29536   2.843   3.322   8.982  0.7749 -0.3622 -0.4045
 5967SOL    HW129537   2.798   3.275   8.912 -0.5532 -0.2062  0.3483
 5967SOL    HW229538   2.798   3.407   8.981 -0.4249 -1.0114 -0.8448
 5968SOL     OW29539   1.840   3.575   8.129 -0.3785  0.5644  0.1251
 5968SOL    HW129540   1.924   3.577   8.085  0.2528  4.6743  1.5208
 5968SOL    HW229541   1.859   3.503   8.189  0.7739 -1.5788 -2.8416
 5969SOL     OW29542   3.607   0.455   2.142  0.1174  0.2333  0.4335
 5969SOL    HW129543   3.622   0.480   2.233  0.8770  2.8550 -0.4011
 5969SOL    HW229544   3.658   0.376   2.126  0.1099  0.0158  1.4504
 5970SOL     OW29545   0.554   1.344   2.793  0.3652 -0.2546 -0.2201
 5970SOL    HW129546   0.502   1.264   2.796  0.5922 -0.4057 -0.2468
 5970SOL    HW229547   0.630   1.324   2.848 -0.6176  1.2368  1.6663
 5971SOL     OW29548   2.145   2.445   6.455  0.1752  0.6345 -0.4605
 5971SOL    HW129549   2.125   2.438   6.548 -0.3515 -1.8049 -0.7386
 5971SOL    HW229550   2.237   2.470   6.464 -0.0398  1.1989  0.1236
 5972SOL     OW29551   3.988   0.010   4.663  0.3800  0.0419  0.5625
 5972SOL    HW129552   3.979   4.722   4.571  1.1794 -0.2055  0.5513
 5972SOL    HW229553   3.987   4.664   4.709  1.9426 -0.0819  0.3941
 5973SOL     OW29554   2.231   2.242   0.778 -0.2732 -0.3274 -0.2674
 5973SOL    HW129555   2.194   2.292   0.850  0.2250  2.5628 -2.0167
 5973SOL    HW229556   2.199   2.292   0.703  1.0601  1.1344  0.1398
 5974SOL     OW29557   4.139   3.952  10.251 -0.2367  0.2243  0.1949
 5974SOL    HW129558   4.073   3.913  10.194  2.6967 -0.5586 -2.6489
 5974SOL    HW229559   4.107   4.035  10.285 -0.3674  0.4400 -0.4621
 5975SOL     OW29560   4.600   2.575   3.348 -0.0299  0.2231  0.3368
 5975SOL    HW129561   4.686   2.566   3.306 -0.1424  0.1003  0.1322
 5975SOL    HW229562   4.625   2.577   3.441  0.3411  0.8860  0.2256
 5976SOL     OW29563   4.008   1.669   3.525  0.2774 -0.5071 -0.0873
 5976SOL    HW129564   3.969   1.637   3.606  1.1466  1.5479  1.1572
 5976SOL    HW229565   4.034   1.595   3.470  2.5312  0.0670  0.1893
 5977SOL     OW29566   2.938   3.638   3.689  0.0256  0.7977 -0.3007
 5977SOL    HW129567   2.897   3.675   3.611  0.2869  0.1242 -0.7670
 5977SOL    HW229568   2.864   3.598   3.735  2.1547 -3.5749 -0.6121
 5978SOL     OW29569   0.922   2.891   1.611 -0.1399 -0.5134 -0.3127
 5978SOL    HW129570   0.874   2.817   1.648  0.1999 -1.1304 -1.0770
 5978SOL    HW229571   1.000   2.855   1.569 -0.0439 -0.7850  0.1071
 5979SOL     OW29572   4.193   0.386   1.970  0.2859 -0.0158 -0.3194
 5979SOL    HW129573   4.239   0.331   1.907  2.0228 -0.0174  0.9773
 5979SOL    HW229574   4.241   0.371   2.052 -2.6451 -3.4995  0.7656
 5980SOL     OW29575   0.721   1.241   5.138  0.2992 -0.0538 -0.2884
 5980SOL    HW129576   0.803   1.208   5.176  1.0182  2.5138  0.3604
 5980SOL    HW229577   0.737   1.333   5.157 -0.6518 -0.0826  0.6089
 5981SOL     OW29578   3.151   4.632   7.222 -0.0411 -1.1375  0.0822
 5981SOL    HW129579   3.101   4.665   7.147 -0.0621 -0.0365  0.5705
 5981SOL    HW229580   3.222   4.697   7.226  0.9999 -2.2159 -1.0525
 5982SOL     OW29581   1.117   0.595   6.928 -0.9003  0.1159 -0.2670
 5982SOL    HW129582   1.075   0.542   6.861 -2.7485 -0.6545  1.4731
 5982SOL    HW229583   1.206   0.569   6.904  0.3117  1.8429  2.3391
 5983SOL     OW29584   2.568   2.184   1.757 -0.7891 -0.1208  0.2381
 5983SOL    HW129585   2.508   2.121   1.795 -0.6332  0.1083  0.8569
 5983SOL    HW229586   2.506   2.249   1.725 -0.1637 -0.7796 -2.3358
 5984SOL     OW29587   3.766   1.082   8.622  0.0175  0.5147 -0.2257
 5984SOL    HW129588   3.747   0.994   8.655 -0.7390  0.1827 -1.5180
 5984SOL    HW229589   3.850   1.068   8.578 -0.1014  0.9646 -0.5883
 5985SOL     OW29590   3.749   3.566  17.591 -0.5841  0.3684 -0.0854
 5985SOL    HW129591   3.806   3.640  17.570 -1.4349  0.7813 -0.9113
 5985SOL    HW229592   3.819   3.505  17.615 -2.8773 -2.7569 -1.4564
 5986SOL     OW29593   2.910   1.126   1.050 -0.1266 -0.0965 -0.1034
 5986SOL    HW129594   2.828   1.157   1.014 -0.2633 -1.5984 -1.0920
 5986SOL    HW229595   2.879   1.059   1.111 -0.4597 -0.7507 -0.9903
 5987SOL     OW29596   3.091   2.573  12.411 -0.3088 -0.1736 -0.1366
 5987SOL    HW129597   3.019   2.610  12.462 -0.8262  0.3025 -1.2051
 5987SOL    HW229598   3.117   2.646  12.355 -2.7506 -0.2054 -1.3366
 5988SOL     OW29599   0.119   2.317   3.328 -0.2890 -0.5314  0.3633
 5988SOL    HW129600   0.053   2.268   3.278 -0.5251  0.1642 -0.0027
 5988SOL    HW229601   0.113   2.404   3.288  2.8041 -0.8574 -0.7497
 5989SOL     OW29602   0.834   3.616   5.066 -0.9366 -0.0537 -0.2458
 5989SOL    HW129603   0.906   3.590   5.008  0.4047  0.9927  0.9521
 5989SOL    HW229604   0.800   3.686   5.011 -0.7796  0.0835 -0.1681
 5990SOL     OW29605   2.801   2.991   0.227 -0.5097 -0.5142  0.2887
 5990SOL    HW129606   2.710   2.981   0.253 -0.2512  1.2918  1.8592
 5990SOL    HW229607   2.796   2.926   0.156  1.3744 -0.8909  0.4940
 5991SOL     OW29608   1.258   4.214   4.985 -0.0943  0.0828 -0.0938
 5991SOL    HW129609   1.162   4.213   4.982  0.0180 -2.0701 -2.5110
 5991SOL    HW229610   1.276   4.188   4.895  0.0854  0.0721 -0.0549
 5992SOL     OW29611   1.297   0.424   0.600 -0.0448 -0.0623  0.1460
 5992SOL    HW129612   1.289   0.495   0.663  3.4209  0.0798  0.4250
 5992SOL    HW229613   1.391   0.408   0.590 -0.5871 -0.7721 -4.1479
 5993SOL     OW29614   0.892   1.241   7.354  0.3894 -0.4912  0.4541
 5993SOL    HW129615   0.853   1.273   7.435 -1.0058 -0.9315 -0.0362
 5993SOL    HW229616   0.976   1.215   7.390  0.2344  0.7133  1.6731
 5994SOL     OW29617   0.845   3.955   8.867 -0.0061 -0.0258  0.4094
 5994SOL    HW129618   0.789   3.897   8.815 -0.2439  2.0659 -1.6877
 5994SOL    HW229619   0.837   3.927   8.958 -0.4703 -0.6613  0.1724
 5995SOL     OW29620   2.829   4.545   7.081 -0.8587  0.2912 -0.2422
 5995SOL    HW129621   2.736   4.565   7.077 -1.3995 -2.6366 -1.8428
 5995SOL    HW229622   2.866   4.632   7.065 -2.3658  0.8306 -0.8122
 5996SOL     OW29623   1.862   3.459   5.826  0.0258  0.9498  0.6298
 5996SOL    HW129624   1.767   3.471   5.825  0.0499  0.7554 -2.7749
 5996SOL    HW229625   1.866   3.400   5.902 -0.6495  1.2064  0.8658
 5997SOL     OW29626   4.333   0.248   5.332 -0.4623  0.4213  0.1863
 5997SOL    HW129627   4.420   0.249   5.372  0.3381 -1.7292 -1.4757
 5997SOL    HW229628   4.292   0.184   5.389 -0.6260 -0.2158 -0.6385
 5998SOL     OW29629   4.691   1.108  10.387  0.6118 -0.4411  0.2329
 5998SOL    HW129630   0.027   1.048  10.396  0.4896 -0.3454  1.8268
 5998SOL    HW229631   4.695   1.177  10.453  0.7527 -2.0388  1.8837
 5999SOL     OW29632   3.388   1.902   7.363  0.5809  0.0078 -0.3769
 5999SOL    HW129633   3.293   1.900   7.351  0.3820  2.3231  0.8487
 5999SOL    HW229634   3.402   1.917   7.456  3.3217  1.6397 -1.0370
 6000SOL     OW29635   3.439   1.624   6.272  0.3344 -0.1439 -0.4025
 6000SOL    HW129636   3.474   1.559   6.333 -2.1767 -0.4883  0.6555
 6000SOL    HW229637   3.439   1.701   6.329 -1.4826 -2.2009  2.3625
 6001SOL     OW29638   2.687   0.955  13.692  0.7664 -0.1611 -0.0511
 6001SOL    HW129639   2.603   0.993  13.663  0.3898  1.3242  3.0092
 6001SOL    HW229640   2.748   0.991  13.627  0.1330  1.1718  0.0837
 6002SOL     OW29641   1.005   2.225   5.590 -0.4117 -0.5860  0.1931
 6002SOL    HW129642   1.035   2.313   5.611 -0.7248 -0.1419 -1.1691
 6002SOL    HW229643   1.083   2.177   5.561 -0.2220  0.3820 -0.9100
 6003SOL     OW29644   4.110   1.849   4.562 -0.2503  0.2550  0.0323
 6003SOL    HW129645   4.135   1.941   4.548 -2.2725  0.4169 -2.5907
 6003SOL    HW229646   4.017   1.857   4.582 -0.1377 -1.2575  1.1402
 6004SOL     OW29647   2.779   2.884  10.285 -0.1740 -0.5834 -0.1719
 6004SOL    HW129648   2.783   2.867  10.379  1.1686  1.0004  0.0614
 6004SOL    HW229649   2.845   2.953  10.270  0.0198 -0.4932  1.1198
 6005SOL     OW29650   0.682   3.728   5.878  0.0055  0.3873  0.7640
 6005SOL    HW129651   0.658   3.741   5.970  0.8546 -1.2392  1.2094
 6005SOL    HW229652   0.599   3.729   5.831 -0.3887 -1.6672  1.4133
 6006SOL     OW29653   0.773   2.105   6.189  0.1645 -0.2540 -0.4691
 6006SOL    HW129654   0.820   2.186   6.171  1.0390 -1.3750 -3.1838
 6006SOL    HW229655   0.687   2.140   6.211  1.0917  2.0330 -0.4474
 6007SOL     OW29656   3.622   3.752   0.775 -0.1064  0.0385 -0.3768
 6007SOL    HW129657   3.606   3.846   0.774 -2.4331 -0.3739 -1.7500
 6007SOL    HW229658   3.533   3.721   0.791  0.5803 -1.2970  0.8820
 6008SOL     OW29659   2.377   0.632   1.158  0.1141  0.1758  0.2173
 6008SOL    HW129660   2.378   0.692   1.083 -2.5489  1.4984  1.2197
 6008SOL    HW229661   2.454   0.662   1.206 -0.4958  0.2679  1.1458
 6009SOL     OW29662   4.491   0.657   9.628 -0.2265  0.3500 -0.0398
 6009SOL    HW129663   4.474   0.711   9.551  4.1896 -1.6934 -2.4612
 6009SOL    HW229664   4.506   0.569   9.592 -1.7727 -0.7330  1.9527
 6010SOL     OW29665   0.747   2.877   2.216 -0.3285  0.0879  0.7955
 6010SOL    HW129666   0.742   2.781   2.224 -0.0892  0.1646  1.8934
 6010SOL    HW229667   0.691   2.904   2.289  0.7393  1.0782  1.2565
 6011SOL     OW29668   1.891   2.913  16.850 -0.0643 -0.5522 -0.3845
 6011SOL    HW129669   1.919   2.840  16.794  1.1484 -2.2293  2.3865
 6011SOL    HW229670   1.798   2.918  16.829 -0.5984 -0.6277  1.9620
 6012SOL     OW29671   2.727   4.147  15.856 -0.7142  0.0778  0.3188
 6012SOL    HW129672   2.700   4.150  15.764  0.0907  0.9296  0.1092
 6012SOL    HW229673   2.654   4.099  15.895  0.8654 -0.7941  2.1912
 6013SOL     OW29674   4.200   4.361  17.002  0.2451 -0.0201 -0.2043
 6013SOL    HW129675   4.213   4.307  16.924  0.6815 -1.0761  0.5936
 6013SOL    HW229676   4.249   4.305  17.063 -0.1641 -0.6356 -0.4414
 6014SOL     OW29677   3.277   4.646   3.915 -0.2154 -0.0871  0.3048
 6014SOL    HW129678   3.298   0.001   3.927 -0.7928  0.5316 -3.6064
 6014SOL    HW229679   3.182   4.644   3.930 -0.1630 -0.6196  0.5799
 6015SOL     OW29680   2.553   3.359   8.363  0.1138 -0.1450 -0.3725
 6015SOL    HW129681   2.543   3.396   8.275  0.2731  0.4813 -0.1322
 6015SOL    HW229682   2.487   3.410   8.410 -0.1655 -1.3456  0.5282
 6016SOL     OW29683   3.379   2.422   6.285 -0.6391  0.6579  0.0932
 6016SOL    HW129684   3.471   2.437   6.265 -0.6086 -1.1436 -1.1654
 6016SOL    HW229685   3.384   2.386   6.373 -0.1708  1.6978  0.4877
 6017SOL     OW29686   1.346   4.075   4.775  0.6266  0.5625 -0.1037
 6017SOL    HW129687   1.434   4.036   4.772  0.0797 -0.5455 -1.1998
 6017SOL    HW229688   1.349   4.158   4.727 -2.3437  1.7557  1.8114
 6018SOL     OW29689   2.768   0.944   3.295  0.8640 -0.0989  0.5726
 6018SOL    HW129690   2.836   0.898   3.343  1.3390  0.1396  0.1259
 6018SOL    HW229691   2.705   0.872   3.307  0.9591 -0.6466 -2.1943
 6019SOL     OW29692   3.327   4.067   2.124 -0.0579 -0.8156  0.3511
 6019SOL    HW129693   3.309   4.081   2.031 -0.1783  1.1217  0.6553
 6019SOL    HW229694   3.237   4.069   2.157 -0.7500 -1.0421 -1.5316
 6020SOL     OW29695   4.324   4.321   1.609  0.7275  0.5784 -0.2127
 6020SOL    HW129696   4.381   4.300   1.683 -3.0656 -0.3976  2.4209
 6020SOL    HW229697   4.316   4.236   1.565 -0.9566  0.5076  0.2391
 6021SOL     OW29698   4.256   4.129   5.906  0.1861 -0.2313 -0.7199
 6021SOL    HW129699   4.282   4.114   5.997 -1.6753 -1.4595 -0.4107
 6021SOL    HW229700   4.333   4.082   5.873 -0.6378 -3.1793  1.5704
 6022SOL     OW29701   2.806   4.471   3.712 -0.2232 -0.3974  0.1495
 6022SOL    HW129702   2.834   4.431   3.794 -2.6372  1.5812  1.9739
 6022SOL    HW229703   2.800   4.385   3.671  1.4611 -0.9283  1.0239
 6023SOL     OW29704   0.537   0.679   8.356  0.0832  0.6144  0.1842
 6023SOL    HW129705   0.590   0.600   8.350 -0.6485 -0.0003  1.8748
 6023SOL    HW229706   0.504   0.678   8.266  0.3437 -2.8351  0.1118
 6024SOL     OW29707   0.556   1.780  16.725  0.0320  0.2492  0.8480
 6024SOL    HW129708   0.599   1.855  16.767  0.7774 -0.7935  1.9412
 6024SOL    HW229709   0.477   1.776  16.780 -0.1926 -1.2942  0.4081
 6025SOL     OW29710   0.578   0.227   1.846  0.0004 -0.2813 -0.3433
 6025SOL    HW129711   0.531   0.152   1.884  0.6944 -0.5817 -0.0846
 6025SOL    HW229712   0.628   0.189   1.774 -0.3434  0.8360 -1.1815
 6026SOL     OW29713   2.578   2.094   7.811 -0.4018  0.1267  0.6558
 6026SOL    HW129714   2.587   2.178   7.766  0.1401  0.2836  1.0639
 6026SOL    HW229715   2.592   2.029   7.742 -2.1237 -0.6560  1.0491
 6027SOL     OW29716   2.287   2.796   7.590  0.3377 -0.0448  0.1568
 6027SOL    HW129717   2.352   2.766   7.653  0.1357  1.9737  1.2931
 6027SOL    HW229718   2.323   2.755   7.511  1.2379  1.0635 -0.0084
 6028SOL     OW29719   2.917   0.888   6.140  0.3233  0.2916 -0.2494
 6028SOL    HW129720   3.010   0.909   6.131  0.8515 -2.0767 -0.2484
 6028SOL    HW229721   2.902   0.857   6.050  0.4784  0.0859 -0.2029
 6029SOL     OW29722   3.788   4.022   0.879 -0.2560 -0.0249 -0.4069
 6029SOL    HW129723   3.760   4.013   0.788  1.3130  1.1298 -1.0140
 6029SOL    HW229724   3.785   4.118   0.884  2.4892 -0.0073  0.6835
 6030SOL     OW29725   3.938   1.767   9.896 -0.2163 -0.0269  0.5282
 6030SOL    HW129726   3.974   1.682   9.920 -1.4774 -1.4713 -2.6374
 6030SOL    HW229727   3.950   1.822   9.973 -0.4314  2.8585 -1.5227
 6031SOL     OW29728   2.917   1.726   4.621 -0.6373 -0.1547 -0.4169
 6031SOL    HW129729   2.992   1.760   4.670 -0.1241 -2.2306  0.2199
 6031SOL    HW229730   2.863   1.806   4.622  0.5642  0.6484  0.4052
 6032SOL     OW29731   1.949   1.854   8.827 -0.5872 -0.2942 -0.0110
 6032SOL    HW129732   2.006   1.928   8.851  0.0424 -0.9759  0.5966
 6032SOL    HW229733   1.956   1.806   8.910 -2.2799 -1.9810 -0.8830
 6033SOL     OW29734   0.519   1.416  10.216  0.2683 -0.7895 -0.4682
 6033SOL    HW129735   0.494   1.385  10.304  1.6991  2.4064  1.0519
 6033SOL    HW229736   0.610   1.386  10.220  1.3134  1.9510 -4.5039
 6034SOL     OW29737   1.757   1.828   1.570 -0.4473  0.4428 -0.3595
 6034SOL    HW129738   1.685   1.850   1.511 -0.5251 -1.2926 -0.9264
 6034SOL    HW229739   1.782   1.751   1.519 -2.9637 -1.6788  1.6116
 6035SOL     OW29740   3.819   0.318   6.843 -0.6059  0.0831 -0.6452
 6035SOL    HW129741   3.855   0.248   6.789 -0.6099 -0.1791 -0.3096
 6035SOL    HW229742   3.799   0.273   6.925 -1.1502  2.2916  0.4609
 6036SOL     OW29743   1.726   0.030   5.997  0.8094  0.9891  0.4508
 6036SOL    HW129744   1.679   0.064   6.073 -0.2922 -1.7776  1.0211
 6036SOL    HW229745   1.799   0.091   6.006  0.2742  1.6292  0.4525
 6037SOL     OW29746   1.553   4.033   0.447  0.7581 -0.0490  0.7196
 6037SOL    HW129747   1.607   4.022   0.369 -0.2269 -2.7728  0.4015
 6037SOL    HW229748   1.601   4.080   0.514  0.9317  1.0972 -0.1990
 6038SOL     OW29749   0.516   2.495  11.326  0.5150  0.4262  0.0582
 6038SOL    HW129750   0.583   2.461  11.385  1.4170  1.2906 -0.4691
 6038SOL    HW229751   0.489   2.567  11.383  0.3305 -0.2434  0.8217
 6039SOL     OW29752   1.936   3.922  12.070 -0.1343  0.0469  0.4234
 6039SOL    HW129753   1.917   3.843  12.019 -0.1189  1.9588 -2.5274
 6039SOL    HW229754   2.014   3.943  12.019 -1.4418 -0.7566 -1.8815
 6040SOL     OW29755   3.561   3.367   3.505  0.2950 -0.6299 -0.1505
 6040SOL    HW129756   3.560   3.449   3.456  1.3446  0.1553  1.1338
 6040SOL    HW229757   3.623   3.309   3.460 -0.5668 -0.8617 -1.0307
 6041SOL     OW29758   0.004   4.148   3.940  0.0503  0.5467 -0.4687
 6041SOL    HW129759   0.025   4.087   3.870 -2.7966 -1.3821  0.3394
 6041SOL    HW229760   0.067   4.219   3.927  0.2664  0.3295 -0.6173
 6042SOL     OW29761   2.846   3.028   3.035 -0.2179 -0.0205 -0.2246
 6042SOL    HW129762   2.789   3.105   3.039  1.5188  1.1896  2.1193
 6042SOL    HW229763   2.868   3.027   2.942  2.0574  1.7171  0.2584
 6043SOL     OW29764   0.622   4.154   3.449  0.3433 -0.4568  0.1956
 6043SOL    HW129765   0.681   4.132   3.378  0.9423 -1.9147  1.1555
 6043SOL    HW229766   0.652   4.098   3.521  0.8042 -1.7552 -1.0221
 6044SOL     OW29767   2.077   3.663   3.876 -0.0918 -0.3584  0.5179
 6044SOL    HW129768   2.016   3.632   3.809  3.1207 -1.6884 -1.7617
 6044SOL    HW229769   2.150   3.602   3.864  0.4664  0.0713  1.6681
 6045SOL     OW29770   1.124   3.756   3.446 -0.2538  0.3263 -0.0327
 6045SOL    HW129771   1.081   3.733   3.528  1.0653  0.4376  0.7034
 6045SOL    HW229772   1.048   3.787   3.398  1.6868  1.1918 -2.5535
 6046SOL     OW29773   0.097   1.740   0.604  0.2204  0.5888 -0.4598
 6046SOL    HW129774   0.027   1.699   0.554  0.5891  0.5015 -0.9038
 6046SOL    HW229775   0.096   1.680   0.679  0.3752  1.9371  0.6189
 6047SOL     OW29776   0.264   4.608  11.586 -0.4627 -0.5705  0.3205
 6047SOL    HW129777   0.193   4.651  11.633 -0.4126  0.0618 -0.1867
 6047SOL    HW229778   0.213   4.567  11.516 -0.9059  1.1281 -0.3476
 6048SOL     OW29779   2.370   3.805   6.959 -0.3168 -0.2138 -0.5934
 6048SOL    HW129780   2.437   3.757   7.007 -1.0760 -0.7487 -0.0648
 6048SOL    HW229781   2.414   3.885   6.929 -0.9517  0.4211  0.1598
 6049SOL     OW29782   3.081   3.551   9.488 -0.4148  0.7505 -0.5194
 6049SOL    HW129783   3.056   3.636   9.453 -2.5593  0.3015 -0.0937
 6049SOL    HW229784   2.995   3.510   9.478 -0.9024  1.1805  1.8932
 6050SOL     OW29785   1.283   0.885   8.981 -0.5780 -0.3454  0.3647
 6050SOL    HW129786   1.277   0.843   8.895  0.8461 -0.7739  0.4753
 6050SOL    HW229787   1.192   0.871   9.007 -0.2933 -1.3438  0.8022
 6051SOL     OW29788   3.644   3.491   2.664 -0.3166 -0.5731  0.2071
 6051SOL    HW129789   3.713   3.426   2.652 -1.6432 -1.7928 -0.7783
 6051SOL    HW229790   3.579   3.441   2.714 -1.9034  0.3279 -0.9565
 6052SOL     OW29791   0.110   4.093   1.349 -0.1038 -0.0525  0.0264
 6052SOL    HW129792   0.155   4.008   1.353 -1.0296 -0.4770  1.3311
 6052SOL    HW229793   0.155   4.126   1.272 -0.0464 -1.2685 -0.4720
 6053SOL     OW29794   4.471   0.704  13.306  0.1424 -0.0946  0.3397
 6053SOL    HW129795   4.491   0.724  13.214 -2.1261  0.0316 -0.1437
 6053SOL    HW229796   4.409   0.773  13.329 -0.8818 -1.2261  0.9877
 6054SOL     OW29797   1.879   2.728   5.741  0.0326 -0.2455  0.2548
 6054SOL    HW129798   1.867   2.657   5.679  0.9278 -0.9543  0.9008
 6054SOL    HW229799   1.917   2.795   5.684 -1.0022  0.0215 -0.1268
 6055SOL     OW29800   2.219   0.694   0.320 -0.2781 -0.4934 -0.1780
 6055SOL    HW129801   2.246   0.625   0.259 -0.3016 -0.3227 -0.3850
 6055SOL    HW229802   2.191   0.760   0.256 -0.7555 -0.1611  0.3712
 6056SOL     OW29803   0.059   0.964   2.352  0.0299 -0.1938 -0.0573
 6056SOL    HW129804   4.710   0.983   2.316 -0.0456  0.1509  0.2985
 6056SOL    HW229805   0.060   1.035   2.417 -0.9700 -0.4141  0.2082
 6057SOL     OW29806   1.301   0.211  16.371  0.3544  0.5580 -0.0708
 6057SOL    HW129807   1.217   0.166  16.380  0.1362  0.6847 -1.4931
 6057SOL    HW229808   1.352   0.185  16.448 -1.9955 -0.6427  1.0426
 6058SOL     OW29809   4.460   2.765   9.519 -0.3600 -0.1682 -0.0268
 6058SOL    HW129810   4.482   2.699   9.453  2.7209 -1.5226  2.3707
 6058SOL    HW229811   4.535   2.824   9.527 -1.7617  1.5956 -0.0206
 6059SOL     OW29812   2.195   2.240   9.606 -0.0225  0.1753  0.3256
 6059SOL    HW129813   2.247   2.320   9.599  0.6535 -0.2905  0.0954
 6059SOL    HW229814   2.124   2.271   9.549  0.6395  1.4337  0.1857
 6060SOL     OW29815   3.325   0.833   1.965 -0.3656 -0.1722 -0.1457
 6060SOL    HW129816   3.347   0.740   1.977 -0.1503  0.2270  2.6972
 6060SOL    HW229817   3.414   0.867   1.958 -0.6554  0.6116 -0.0082
 6061SOL     OW29818   3.870   1.844   3.770  0.4526 -0.6221  0.3623
 6061SOL    HW129819   3.794   1.865   3.825 -0.0205 -0.4845 -0.3354
 6061SOL    HW229820   3.936   1.896   3.816 -0.3956  0.4350  0.3930
 6062SOL     OW29821   3.899   2.325   3.441  0.2115  0.5954  0.2052
 6062SOL    HW129822   3.896   2.239   3.484 -1.4841  1.0888  1.0759
 6062SOL    HW229823   3.841   2.317   3.365  0.3571 -1.7497  0.3247
 6063SOL     OW29824   3.599   0.182   4.936 -0.5665 -0.2796 -0.1123
 6063SOL    HW129825   3.604   0.246   5.007  2.9506 -0.5920 -0.0815
 6063SOL    HW229826   3.604   0.239   4.859  1.5898  0.8279  0.8290
 6064SOL     OW29827   1.116   4.219   3.436  0.4900 -0.2502  0.3776
 6064SOL    HW129828   1.087   4.310   3.429  1.2626  0.1883  2.6803
 6064SOL    HW229829   1.200   4.210   3.391  1.1359  1.5516  1.2107
 6065SOL     OW29830   1.833   3.136   5.492 -0.4230  0.3256  0.0865
 6065SOL    HW129831   1.824   3.178   5.578  0.1468  0.8081 -0.0915
 6065SOL    HW229832   1.893   3.071   5.528  0.9122 -0.0681 -2.8886
 6066SOL     OW29833   2.169   0.347   2.472  0.0407  0.3183 -0.0289
 6066SOL    HW129834   2.242   0.406   2.491  0.8688 -0.4626 -0.7811
 6066SOL    HW229835   2.100   0.411   2.457 -0.1222 -0.0588 -0.8550
 6067SOL     OW29836   1.985   4.300   6.424 -0.0062  0.4060 -0.2564
 6067SOL    HW129837   2.021   4.241   6.490  1.8810 -0.1164 -1.7464
 6067SOL    HW229838   1.894   4.269   6.424  0.1575 -0.0810 -0.4856
 6068SOL     OW29839   2.424   0.698   3.956 -0.2644 -0.2993 -0.5112
 6068SOL    HW129840   2.404   0.618   3.909 -0.8476 -0.1351 -0.5439
 6068SOL    HW229841   2.339   0.720   3.995 -0.0779 -0.0913 -0.2174
 6069SOL     OW29842   0.466   0.658   6.522 -0.0640  0.1993  0.0202
 6069SOL    HW129843   0.455   0.563   6.513 -2.6677  0.4579  0.2524
 6069SOL    HW229844   0.533   0.675   6.457 -0.6346  0.4332 -0.5097
 6070SOL     OW29845   3.290   1.088  15.255 -0.0254 -0.9159  0.3303
 6070SOL    HW129846   3.207   1.046  15.281  1.3573 -3.6852  0.2890
 6070SOL    HW229847   3.295   1.065  15.162 -1.6015 -0.6260  0.1717
 6071SOL     OW29848   3.642   0.621   0.467 -0.0803  0.2429  0.7796
 6071SOL    HW129849   3.724   0.577   0.447  0.0703  1.1409 -0.5198
 6071SOL    HW229850   3.578   0.556   0.437  1.3315 -1.8463  2.2346
 6072SOL     OW29851   3.533   0.153  16.386 -0.3772 -0.0553  0.1645
 6072SOL    HW129852   3.464   0.088  16.393  0.4689 -1.0127 -0.4308
 6072SOL    HW229853   3.480   0.231  16.402 -1.3550 -0.5662 -0.6685
 6073SOL     OW29854   2.202   1.001  12.611 -0.0920 -0.4130 -0.5298
 6073SOL    HW129855   2.220   0.928  12.670  0.5663  1.9571  2.2249
 6073SOL    HW229856   2.216   1.079  12.665 -3.1199  0.4492 -0.9857
 6074SOL     OW29857   1.172   4.403   7.473 -0.5646 -0.1036 -0.6037
 6074SOL    HW129858   1.122   4.377   7.550 -0.8899 -1.0145 -1.1189
 6074SOL    HW229859   1.242   4.455   7.512 -2.4290  1.1058  1.1142
 6075SOL     OW29860   0.889   2.603   7.180  0.1043  0.0709 -0.1691
 6075SOL    HW129861   0.808   2.629   7.135 -0.6143 -0.5368  0.7706
 6075SOL    HW229862   0.959   2.635   7.123  0.2166 -0.0961 -0.1239
 6076SOL     OW29863   2.516   4.212   6.000 -0.5063  0.4256  0.6275
 6076SOL    HW129864   2.599   4.260   5.994 -0.7465  1.0549  2.5498
 6076SOL    HW229865   2.539   4.121   5.981 -1.3452  0.4803 -0.6759
 6077SOL     OW29866   0.959   0.350  14.597  0.1130 -0.6164  0.3531
 6077SOL    HW129867   1.044   0.365  14.638  2.5261 -1.3938 -4.3577
 6077SOL    HW229868   0.977   0.376  14.506  2.2884 -0.4740  0.8152
 6078SOL     OW29869   0.234   1.844   8.857  0.9267  0.2782  0.4590
 6078SOL    HW129870   0.319   1.837   8.815  0.7327 -2.4051  0.4591
 6078SOL    HW229871   0.214   1.935   8.838  0.1836 -0.0586 -0.4116
 6079SOL     OW29872   1.116   2.662   3.739 -0.0633  0.0787  0.0936
 6079SOL    HW129873   1.168   2.693   3.813  1.4772  2.7324 -2.1072
 6079SOL    HW229874   1.177   2.651   3.666 -0.2229  0.8692 -0.1578
 6080SOL     OW29875   0.783   3.684   7.862  0.2849 -0.5737 -0.0869
 6080SOL    HW129876   0.811   3.606   7.910 -0.9706 -0.6163  0.5909
 6080SOL    HW229877   0.762   3.645   7.777  0.3261  0.4278 -0.5668
 6081SOL     OW29878   0.262   3.104  17.306 -0.6590  0.8103  0.1486
 6081SOL    HW129879   0.226   3.157  17.377  0.4716  2.2750 -0.3533
 6081SOL    HW229880   0.287   3.171  17.242 -0.7590  1.0518  0.3655
 6082SOL     OW29881   1.903   0.465   1.750  0.2892  0.8442  1.0029
 6082SOL    HW129882   1.863   0.502   1.829  0.0712 -0.5506  1.5398
 6082SOL    HW229883   1.929   0.551   1.717 -1.7191  0.7002 -0.9795
 6083SOL     OW29884   0.776   0.134   8.176  0.2114 -0.2420 -0.0726
 6083SOL    HW129885   0.777   0.065   8.109  0.1706  2.6381 -3.0523
 6083SOL    HW229886   0.836   0.190   8.126  1.9646  0.0836  2.3985
 6084SOL     OW29887   4.020   0.872   5.479 -0.4140  0.9599 -0.1986
 6084SOL    HW129888   4.078   0.944   5.454 -1.8298  1.7440 -1.2208
 6084SOL    HW229889   3.938   0.920   5.485 -1.3450 -0.7919  0.9422
 6085SOL     OW29890   4.395   2.296   0.890 -0.7726  0.1453  0.0149
 6085SOL    HW129891   4.428   2.358   0.825  0.9921 -1.5857 -0.7507
 6085SOL    HW229892   4.458   2.309   0.961 -0.2855 -0.7168 -0.2579
 6086SOL     OW29893   3.842   0.832   9.821 -1.0056  0.0819 -0.0813
 6086SOL    HW129894   3.919   0.777   9.836 -1.1457 -0.2723 -0.6684
 6086SOL    HW229895   3.864   0.909   9.874  0.7840  0.7315 -1.7677
 6087SOL     OW29896   2.195   4.351  15.686  0.2737  0.2734 -0.5759
 6087SOL    HW129897   2.264   4.366  15.751  1.3312  1.3840 -1.9442
 6087SOL    HW229898   2.209   4.433  15.638  0.6674  0.7082  0.2704
 6088SOL     OW29899   1.185   4.607   0.632 -0.1232 -0.2137 -0.6568
 6088SOL    HW129900   1.237   4.687   0.621  0.0586 -0.4970 -1.8697
 6088SOL    HW229901   1.229   4.564   0.705 -0.4715 -0.4679 -0.6014
 6089SOL     OW29902   2.911   3.140   8.387 -0.3762 -0.0978 -0.2199
 6089SOL    HW129903   2.935   3.076   8.454 -1.2052  0.5022  0.6451
 6089SOL    HW229904   2.872   3.213   8.433  2.5546  1.7810 -0.7242
 6090SOL     OW29905   0.282   3.522   6.845 -0.0524 -0.1769 -0.3787
 6090SOL    HW129906   0.201   3.555   6.806 -0.2644 -2.0709 -1.5350
 6090SOL    HW229907   0.321   3.481   6.768 -1.2508  0.7290 -1.4755
 6091SOL     OW29908   0.158   4.092   8.066 -0.2376 -0.1359 -0.0712
 6091SOL    HW129909   0.196   4.008   8.093  0.8458 -0.1671 -1.6835
 6091SOL    HW229910   0.066   4.070   8.055  0.0264 -0.1676 -2.3090
 6092SOL     OW29911   3.421   1.868   4.060  0.6962 -0.2394  0.0771
 6092SOL    HW129912   3.351   1.803   4.067  1.3828 -0.9925 -0.2014
 6092SOL    HW229913   3.368   1.944   4.035  1.3258 -0.5015 -2.0224
 6093SOL     OW29914   2.795   2.054   9.976 -0.2321  0.1124 -0.3885
 6093SOL    HW129915   2.870   2.074   9.919 -1.1928  0.3494 -1.5816
 6093SOL    HW229916   2.802   2.123  10.042  3.8037 -0.7024  0.0023
 6094SOL     OW29917   1.642   0.598   2.373 -0.2292 -0.6499  0.4623
 6094SOL    HW129918   1.718   0.655   2.373 -1.5707  1.1447 -0.7750
 6094SOL    HW229919   1.593   0.624   2.451  0.5544  1.7845  0.1166
 6095SOL     OW29920   3.710   3.221   9.180  1.0555  0.0122  0.6651
 6095SOL    HW129921   3.674   3.302   9.144  2.7304  0.0340 -0.9253
 6095SOL    HW229922   3.627   3.190   9.216 -0.1108  1.9263 -0.3867
 6096SOL     OW29923   0.329   1.891   9.962  0.2277 -0.1341  0.3753
 6096SOL    HW129924   0.346   1.968  10.017  1.2792 -0.3643  0.3856
 6096SOL    HW229925   0.245   1.856   9.991  0.1096  1.2366  1.7186
 6097SOL     OW29926   3.720   0.646  16.632  0.3572  0.7854 -0.4173
 6097SOL    HW129927   3.812   0.645  16.607  1.0268  2.4208  1.8883
 6097SOL    HW229928   3.710   0.561  16.676 -0.3784  0.5114 -1.1211
 6098SOL     OW29929   2.483   3.285  13.163 -0.1352 -0.3969  0.0614
 6098SOL    HW129930   2.414   3.350  13.151 -0.7597 -1.1619 -0.4392
 6098SOL    HW229931   2.492   3.308  13.256 -1.9630 -1.2954  0.4670
 6099SOL     OW29932   1.824   3.237   0.435 -0.4340 -0.0012 -0.6231
 6099SOL    HW129933   1.812   3.142   0.432  0.7811 -0.1970  1.0166
 6099SOL    HW229934   1.842   3.241   0.529  1.7391 -1.0077 -1.0103
 6100SOL     OW29935   2.992   3.022   7.733 -0.6584  0.1863 -0.5152
 6100SOL    HW129936   2.906   3.020   7.776 -1.0462  1.7995 -1.2314
 6100SOL    HW229937   3.048   2.981   7.799 -0.9723 -0.0335 -0.3842
 6101SOL     OW29938   3.797   3.297   0.046 -0.2605 -0.0722 -0.0789
 6101SOL    HW129939   3.793   3.205   0.073 -0.7436  0.6374  2.2608
 6101SOL    HW229940   3.708   3.319   0.071  0.1240  0.5099  0.7635
 6102SOL     OW29941   4.340   2.172   7.847  0.4475 -0.0923  0.2334
 6102SOL    HW129942   4.381   2.100   7.895 -2.5739 -1.0561  1.3256
 6102SOL    HW229943   4.416   2.209   7.801  0.2791  0.6393  0.5318
 6103SOL     OW29944   0.037   2.241  10.566 -0.3500  0.2409 -0.2704
 6103SOL    HW129945   4.694   2.263  10.520  0.6191  2.2618 -1.0523
 6103SOL    HW229946   0.056   2.322  10.614  0.1498 -0.8662  1.3889
 6104SOL     OW29947   2.776   4.655   8.581  0.5039 -0.1613  0.4008
 6104SOL    HW129948   2.799   4.579   8.635 -1.5514 -1.8221 -1.0520
 6104SOL    HW229949   2.734   4.607   8.510  1.5646 -1.1773  0.4597
 6105SOL     OW29950   1.741   2.782   3.174 -0.2680  0.1333 -0.3078
 6105SOL    HW129951   1.773   2.807   3.261 -2.0137 -1.1172  0.6956
 6105SOL    HW229952   1.651   2.753   3.193  0.0432 -0.2800  0.5630
 6106SOL     OW29953   0.555   0.947   6.615  0.0707 -0.1280 -0.4188
 6106SOL    HW129954   0.515   1.019   6.663  1.4482  0.1077  0.3916
 6106SOL    HW229955   0.610   0.910   6.684 -1.1544  0.0957  0.6812
 6107SOL     OW29956   1.017   1.945   8.939  0.2324 -0.2523  0.2941
 6107SOL    HW129957   0.957   1.899   8.998 -1.9586  1.2521 -0.7292
 6107SOL    HW229958   0.962   2.023   8.926  0.3469 -0.4585 -1.3963
 6108SOL     OW29959   3.039   4.391   1.069  0.7020  0.5314 -0.1395
 6108SOL    HW129960   2.989   4.320   1.110 -0.0772  1.5469  0.6542
 6108SOL    HW229961   2.964   4.436   1.031  1.5973  1.8245 -0.3812
 6109SOL     OW29962   2.969   1.841  10.268  0.4336 -0.7805  0.5106
 6109SOL    HW129963   2.936   1.808  10.185  0.9010 -1.0867  0.4437
 6109SOL    HW229964   2.934   1.772  10.324 -1.9006  0.4477  0.5527
 6110SOL     OW29965   0.509   0.688   1.600 -0.1973  0.0507  0.7617
 6110SOL    HW129966   0.555   0.770   1.618  1.0552 -0.2576 -1.0008
 6110SOL    HW229967   0.475   0.668   1.688 -1.5674 -0.4199  0.1134
 6111SOL     OW29968   2.570   1.342   5.986 -0.1955 -0.2928  0.7831
 6111SOL    HW129969   2.596   1.250   5.983  1.1267  0.0857  0.9446
 6111SOL    HW229970   2.657   1.377   6.004  0.1351  0.4555 -2.2411
 6112SOL     OW29971   3.835   0.397  10.030 -0.0473 -0.1940 -0.1208
 6112SOL    HW129972   3.858   0.361   9.944 -0.4804  1.6164 -0.9969
 6112SOL    HW229973   3.923   0.374  10.061  0.5380 -1.2728 -2.5618
 6113SOL     OW29974   2.368   4.098   0.442  0.5581  0.3849  0.3305
 6113SOL    HW129975   2.289   4.114   0.389 -0.0443  2.4922  1.8364
 6113SOL    HW229976   2.388   4.010   0.412  0.0716  0.5430 -0.4576
 6114SOL     OW29977   1.331   1.329   7.282 -0.2033 -0.1351 -0.4969
 6114SOL    HW129978   1.422   1.311   7.305  0.0758 -3.1785 -4.1245
 6114SOL    HW229979   1.338   1.371   7.197 -1.6022 -0.8329 -0.9580
 6115SOL     OW29980   3.660   2.034   4.691  0.1161 -0.2325  0.5635
 6115SOL    HW129981   3.571   2.037   4.657 -0.4189 -0.2186  1.9687
 6115SOL    HW229982   3.679   2.124   4.718  0.1687  0.3859 -1.4828
 6116SOL     OW29983   1.956   3.730   1.432  0.0688 -0.6423  0.1556
 6116SOL    HW129984   1.927   3.640   1.445  0.6469 -0.9412 -0.5866
 6116SOL    HW229985   1.884   3.756   1.375  0.6548  0.8582  0.1035
 6117SOL     OW29986   3.108   0.995  13.438 -0.4302  0.2504 -0.4072
 6117SOL    HW129987   3.092   1.077  13.393 -1.9065 -0.7962 -1.7639
 6117SOL    HW229988   3.087   1.014  13.529  1.1371  1.5002 -0.2968
 6118SOL     OW29989   0.976   4.134   1.049 -0.0490 -0.3297  0.3737
 6118SOL    HW129990   0.891   4.155   1.089  0.3779  0.3974  0.9102
 6118SOL    HW229991   1.012   4.222   1.043  0.2726 -0.5771 -1.3216
 6119SOL     OW29992   3.875   4.419   6.684 -0.8999  0.0621 -1.2179
 6119SOL    HW129993   3.818   4.483   6.642 -0.4929 -1.6335 -4.3657
 6119SOL    HW229994   3.934   4.394   6.614  0.2017  0.2095 -0.3481
 6120SOL     OW29995   2.505   1.956   8.027 -0.1458 -0.5703 -0.4835
 6120SOL    HW129996   2.519   2.017   7.954  0.8993  1.9761  1.8411
 6120SOL    HW229997   2.576   1.898   8.000  0.3488 -0.1304 -0.1240
 6121SOL     OW29998   1.352   0.607   1.598 -0.1306 -0.4002 -0.3361
 6121SOL    HW129999   1.371   0.549   1.671  0.2439 -2.1320 -1.8200
 6121SOL    HW230000   1.337   0.691   1.642 -1.7227 -0.8260 -0.0858
 6122SOL     OW30001   0.937   2.602  17.245  0.1768 -0.0388 -0.0897
 6122SOL    HW130002   0.868   2.665  17.223 -1.1124 -0.8957  1.5536
 6122SOL    HW230003   0.886   2.527  17.213  3.2731 -1.8314 -0.8049
 6123SOL     OW30004   0.752   4.005   7.741  0.0518 -0.1789 -0.1350
 6123SOL    HW130005   0.684   4.069   7.765  1.6628  0.1761  3.5662
 6123SOL    HW230006   0.822   4.029   7.801 -0.2237 -2.0148  0.9109
 6124SOL     OW30007   4.515   2.493   5.554  0.0116 -0.7340 -0.2669
 6124SOL    HW130008   4.481   2.456   5.472  1.7384  0.0370 -1.3340
 6124SOL    HW230009   4.552   2.418   5.600  1.5508 -0.0192 -0.3427
 6125SOL     OW30010   3.979   0.283   9.042  0.1499  0.3140 -0.3709
 6125SOL    HW130011   3.885   0.274   9.027  0.7526 -1.2308 -3.2063
 6125SOL    HW230012   3.998   0.376   9.052 -3.1071  0.8849  0.3612
 6126SOL     OW30013   3.411   2.667   3.222 -0.0914  0.2386 -0.1687
 6126SOL    HW130014   3.348   2.696   3.156 -0.7524  1.8632  1.1808
 6126SOL    HW230015   3.361   2.688   3.301 -0.4189 -1.4985  0.0939
 6127SOL     OW30016   1.848   1.041   8.628 -0.1553  0.0448 -0.0171
 6127SOL    HW130017   1.759   1.012   8.648 -0.4594  0.5492 -0.6804
 6127SOL    HW230018   1.840   1.064   8.536 -1.5117  1.4976  0.4761
 6128SOL     OW30019   4.173   3.049   2.018  0.4086 -0.8710  0.5054
 6128SOL    HW130020   4.082   3.025   2.038 -0.7382  0.0397 -3.5686
 6128SOL    HW230021   4.180   3.031   1.924  0.6355  2.8839 -0.1913
 6129SOL     OW30022   1.434   4.067   8.327 -0.0211  0.4082  0.1818
 6129SOL    HW130023   1.487   4.059   8.248 -1.4023 -1.5690 -0.5342
 6129SOL    HW230024   1.365   4.003   8.312  0.8059  0.0693 -2.2045
 6130SOL     OW30025   2.434   1.114   4.309 -0.1231 -0.5059 -0.1644
 6130SOL    HW130026   2.493   1.188   4.296 -1.9220  0.8473 -0.7424
 6130SOL    HW230027   2.368   1.134   4.242 -1.1067  1.1366  1.3207
 6131SOL     OW30028   0.358   1.455   6.353  0.5139 -1.0959 -0.0717
 6131SOL    HW130029   0.429   1.442   6.290  2.4259 -1.4051  2.1127
 6131SOL    HW230030   0.379   1.530   6.409  1.5634 -2.5934  1.5495
 6132SOL     OW30031   1.363   4.256   0.563 -0.2361  0.0416 -0.1322
 6132SOL    HW130032   1.365   4.325   0.630  0.3839 -0.4288  0.3391
 6132SOL    HW230033   1.431   4.197   0.596 -0.1805  0.7524  1.0199
 6133SOL     OW30034   4.094   2.074   3.438 -0.2802 -0.1659 -0.1020
 6133SOL    HW130035   4.038   1.999   3.456 -0.1431 -0.1039  0.5809
 6133SOL    HW230036   4.052   2.110   3.359 -0.5607 -0.3287 -0.0290
 6134SOL     OW30037   2.782   4.070   2.567 -0.1751  0.1917  0.1256
 6134SOL    HW130038   2.738   4.145   2.529 -2.4908 -0.6603  1.1652
 6134SOL    HW230039   2.763   4.005   2.499  1.4754 -0.0243 -0.1359
 6135SOL     OW30040   4.295   2.353   9.588 -0.3501  0.4881 -0.2799
 6135SOL    HW130041   4.373   2.408   9.597  1.1768 -1.5813 -0.9733
 6135SOL    HW230042   4.323   2.264   9.607 -0.1811  0.6422  0.1870
 6136SOL     OW30043   4.390   3.216   0.827 -0.3569  0.2583 -0.1217
 6136SOL    HW130044   4.339   3.222   0.746 -2.7911 -0.5759  1.3516
 6136SOL    HW230045   4.362   3.300   0.863 -1.2489  0.6479 -1.7090
 6137SOL     OW30046   0.523   4.488   3.898 -0.5967 -0.2662 -0.2240
 6137SOL    HW130047   0.547   4.409   3.848  2.1886  2.0693 -2.5244
 6137SOL    HW230048   0.475   4.539   3.833  1.8295 -0.1863 -1.9384
 6138SOL     OW30049   0.489   2.356   4.685 -0.6372  0.2658  0.1460
 6138SOL    HW130050   0.499   2.287   4.750 -0.2702  1.9547  1.8880
 6138SOL    HW230051   0.417   2.320   4.633 -0.7158  0.9808 -0.2355
 6139SOL     OW30052   3.685   1.153  16.470 -0.3007  0.2483  0.7212
 6139SOL    HW130053   3.692   1.113  16.556 -1.3292 -2.5767 -0.5203
 6139SOL    HW230054   3.766   1.133  16.421  1.5469  0.2902  3.7790
 6140SOL     OW30055   2.666   3.569  16.135  0.2192 -0.3085  1.1768
 6140SOL    HW130056   2.665   3.627  16.211 -0.4648  0.5305  0.5262
 6140SOL    HW230057   2.579   3.531  16.128  0.5106 -0.3906 -2.4723
 6141SOL     OW30058   0.630   1.417   5.879  0.1447  0.7586  0.4442
 6141SOL    HW130059   0.576   1.494   5.898 -0.5013  0.2150  0.7974
 6141SOL    HW230060   0.587   1.398   5.796  0.2498  0.9014  0.3566
 6142SOL     OW30061   0.713   2.602   2.201 -0.4391 -0.1209 -0.6696
 6142SOL    HW130062   0.665   2.538   2.148 -0.3084  0.1630 -1.1409
 6142SOL    HW230063   0.804   2.573   2.189 -0.6150 -1.0789  0.4194
 6143SOL     OW30064   1.794   3.625   4.579 -0.4738  0.3458 -0.0278
 6143SOL    HW130065   1.805   3.687   4.506  0.1671  2.3453  1.7582
 6143SOL    HW230066   1.868   3.655   4.631 -0.3501 -0.6576  0.3676
 6144SOL     OW30067   1.968   0.787   0.908  0.5072  0.0889  0.6863
 6144SOL    HW130068   1.881   0.794   0.947  0.8019  2.9239  0.8881
 6144SOL    HW230069   2.021   0.856   0.949 -1.1175  0.4418  2.1652
 6145SOL     OW30070   1.067   3.595   4.895 -0.7503  0.0441  0.2016
 6145SOL    HW130071   1.103   3.528   4.836  4.6340  2.5611  0.6741
 6145SOL    HW230072   1.120   3.666   4.859  1.4119 -1.6031  0.0797
 6146SOL     OW30073   1.117   1.123   8.218  0.0692  0.0966  0.0865
 6146SOL    HW130074   1.162   1.146   8.137 -0.5028 -0.4679 -0.4002
 6146SOL    HW230075   1.057   1.197   8.221  1.1443  1.0623 -2.3338
 6147SOL     OW30076   0.700   3.609   7.593  0.3797  0.2511  0.2156
 6147SOL    HW130077   0.741   3.573   7.515  0.8144  1.7271 -0.2223
 6147SOL    HW230078   0.607   3.593   7.576  0.9860 -2.0173 -0.9106
 6148SOL     OW30079   3.207   3.110  12.084 -0.2545 -0.2584 -0.1275
 6148SOL    HW130080   3.246   3.064  12.010 -1.6447 -0.0393 -1.0008
 6148SOL    HW230081   3.202   3.039  12.148 -1.9428 -1.5435 -1.6500
 6149SOL     OW30082   0.286   0.841   3.121 -0.5829  0.9939  0.0104
 6149SOL    HW130083   0.269   0.750   3.097  0.8661  0.9461 -0.8147
 6149SOL    HW230084   0.381   0.844   3.126 -0.4480 -1.0534 -1.0900
 6150SOL     OW30085   2.090   0.497   5.747 -0.0123 -0.7003 -0.3564
 6150SOL    HW130086   2.032   0.434   5.705 -0.7132 -0.8320  0.8114
 6150SOL    HW230087   2.055   0.581   5.716 -2.0920 -1.5416 -0.2268
 6151SOL     OW30088   1.000   0.662   2.772  0.0429 -0.6273  0.3401
 6151SOL    HW130089   1.034   0.601   2.837  1.9222 -0.2394 -0.2952
 6151SOL    HW230090   0.991   0.741   2.826  1.0677 -1.0443  1.1117
 6152SOL     OW30091   3.004   2.083   9.533 -0.2234 -0.8519  0.2432
 6152SOL    HW130092   2.958   2.085   9.617 -2.1573  1.1485 -0.8678
 6152SOL    HW230093   3.082   2.126   9.567 -1.4354  1.0032  0.6276
 6153SOL     OW30094   0.864   4.393   4.415  0.1266  0.1529 -0.2755
 6153SOL    HW130095   0.895   4.399   4.324 -1.0730 -2.5845 -0.8605
 6153SOL    HW230096   0.779   4.350   4.418  0.3156 -0.1046  1.0683
 6154SOL     OW30097   0.755   3.165   5.624 -0.2579 -0.1008  0.0727
 6154SOL    HW130098   0.787   3.188   5.537  2.0420 -0.8560  0.7134
 6154SOL    HW230099   0.709   3.246   5.647 -2.5911 -1.6403  0.9029
 6155SOL     OW30100   3.815   2.855   7.529 -0.0957 -0.2430  0.8097
 6155SOL    HW130101   3.863   2.774   7.549  0.5223 -0.1875 -0.4625
 6155SOL    HW230102   3.789   2.886   7.616 -1.1987  0.9206  0.0645
 6156SOL     OW30103   3.418   3.574   1.313  0.4958 -0.0350  0.9052
 6156SOL    HW130104   3.326   3.566   1.339 -0.0103  1.2742 -0.4959
 6156SOL    HW230105   3.408   3.667   1.293 -0.1548 -0.4227 -0.5823
 6157SOL     OW30106   1.174   4.383   2.758  0.2452  0.2784 -0.3869
 6157SOL    HW130107   1.164   4.346   2.670 -1.2878 -0.4338  0.0832
 6157SOL    HW230108   1.231   4.455   2.731 -3.4366  2.6179 -1.9394
 6158SOL     OW30109   0.343   4.448   2.495  0.3109 -0.0681  0.4316
 6158SOL    HW130110   0.326   4.449   2.400  1.8108  1.2245  0.1728
 6158SOL    HW230111   0.257   4.478   2.523  0.1573  0.9896 -1.1816
 6159SOL     OW30112   1.461   4.437   6.285  0.0339 -0.3828  0.5583
 6159SOL    HW130113   1.419   4.518   6.256 -2.2238 -1.4793  0.8014
 6159SOL    HW230114   1.424   4.370   6.228 -0.4081 -1.7853  2.4926
 6160SOL     OW30115   0.315   3.763   6.992 -0.2685 -0.0287  0.0677
 6160SOL    HW130116   0.296   3.682   6.946 -2.0967  0.3131  0.2056
 6160SOL    HW230117   0.407   3.776   6.969 -0.6962 -1.7909 -2.5451
 6161SOL     OW30118   1.462   0.247   5.159  0.1218  0.4456  0.3127
 6161SOL    HW130119   1.517   0.293   5.222 -0.9634  1.6377  0.4092
 6161SOL    HW230120   1.516   0.170   5.146  0.4921  0.7455  0.0576
 6162SOL     OW30121   1.975   3.784   3.162 -0.4034  0.4640  0.1058
 6162SOL    HW130122   1.889   3.790   3.203  0.4856  1.6006  1.7638
 6162SOL    HW230123   2.037   3.753   3.228 -1.1286  0.5813  0.8396
 6163SOL     OW30124   1.498   2.465  15.385  0.4943  0.4652 -0.2092
 6163SOL    HW130125   1.470   2.402  15.451 -1.9043  0.0778 -1.5864
 6163SOL    HW230126   1.475   2.547  15.427  1.3961  1.1285 -1.0099
 6164SOL     OW30127   3.473   2.375   7.978 -0.2766 -0.0218 -0.4633
 6164SOL    HW130128   3.473   2.297   8.034  1.3445 -0.8477 -1.6250
 6164SOL    HW230129   3.514   2.440   8.036  0.7094 -2.0471  1.0994
 6165SOL     OW30130   1.536   2.466   7.787  0.1452  0.5464  0.3923
 6165SOL    HW130131   1.510   2.493   7.875  0.3571  2.6032 -0.1834
 6165SOL    HW230132   1.622   2.431   7.812 -0.4822 -1.1473  0.2430
 6166SOL     OW30133   4.060   3.798  17.030 -0.2218  0.1554  0.2082
 6166SOL    HW130134   4.067   3.893  17.040  1.3071  0.0985 -0.3991
 6166SOL    HW230135   3.968   3.777  17.048  0.6588 -1.9489  2.1391
 6167SOL     OW30136   3.458   1.684  13.263  0.2734 -0.2593  0.5410
 6167SOL    HW130137   3.482   1.680  13.171 -0.5397 -0.1949  0.3247
 6167SOL    HW230138   3.487   1.599  13.297  1.1061 -0.2041 -0.0419
 6168SOL     OW30139   3.726   1.741  15.752  0.1375 -0.5895 -0.1560
 6168SOL    HW130140   3.767   1.817  15.794 -0.5263 -1.1290  1.4687
 6168SOL    HW230141   3.799   1.702  15.705  0.4837  0.4687 -0.4939
 6169SOL     OW30142   3.142   0.644  13.233  0.0113  0.2637 -0.0719
 6169SOL    HW130143   3.222   0.629  13.283 -0.5529 -1.1527  0.3727
 6169SOL    HW230144   3.101   0.560  13.213 -0.1185  0.7311 -1.7761
 6170SOL     OW30145   3.051   3.781   8.606  0.0753  0.2400  0.1398
 6170SOL    HW130146   3.070   3.775   8.513 -0.4243 -2.1050  0.1839
 6170SOL    HW230147   3.044   3.687   8.626  0.3952 -0.4309 -2.9910
 6171SOL     OW30148   2.579   2.339   8.599  0.7226  0.2861  0.9248
 6171SOL    HW130149   2.492   2.354   8.636 -0.4079 -1.0152 -1.1677
 6171SOL    HW230150   2.636   2.318   8.672  0.1829 -0.0182  1.2574
 6172SOL     OW30151   3.814   0.266  17.079  0.0059  0.3580 -0.2507
 6172SOL    HW130152   3.849   0.342  17.033 -2.0299  2.0786  1.0635
 6172SOL    HW230153   3.774   0.219  17.006 -1.3276  0.3019  0.5231
 6173SOL     OW30154   2.106   1.688   7.397 -0.1698  0.3444  0.2412
 6173SOL    HW130155   2.141   1.673   7.485 -1.2500 -1.3412  0.3666
 6173SOL    HW230156   2.188   1.661   7.357  0.5284  0.5550  1.5221
 6174SOL     OW30157   2.497   3.685   9.409  0.6965 -0.2847  0.0192
 6174SOL    HW130158   2.561   3.642   9.466  0.5002  0.5285  0.8471
 6174SOL    HW230159   2.490   3.768   9.457  1.9311 -2.2443  3.5947
 6175SOL     OW30160   2.439   4.614  17.019  0.0357 -0.2089 -0.5032
 6175SOL    HW130161   2.366   4.611  17.081 -0.1035 -0.8486 -0.6991
 6175SOL    HW230162   2.448   4.709  17.015 -0.3432 -0.1055  1.0484
 6176SOL     OW30163   3.073   0.680  17.243 -0.4079  0.1148  0.6231
 6176SOL    HW130164   3.038   0.647  17.326 -0.7925 -2.6495 -0.6217
 6176SOL    HW230165   3.108   0.600  17.203  0.2692  0.2884  0.8865
 6177SOL     OW30166   2.836   1.428  13.075 -0.9855  0.2235  0.4900
 6177SOL    HW130167   2.825   1.387  12.989  0.8159  1.1330 -0.1774
 6177SOL    HW230168   2.813   1.515  13.041 -0.2674 -0.3244 -1.4222
 6178SOL     OW30169   3.763   4.013   2.822  0.0108 -0.2016  0.1076
 6178SOL    HW130170   3.723   4.002   2.908 -0.4531 -2.0298 -0.3481
 6178SOL    HW230171   3.794   4.104   2.820 -0.2220 -0.0992  1.0105
 6179SOL     OW30172   0.184   3.543  16.058  0.2021 -0.0052 -0.1088
 6179SOL    HW130173   0.243   3.597  16.006 -1.4125  2.6903  0.8934
 6179SOL    HW230174   0.152   3.481  15.992 -1.0621  1.3419 -0.7596
 6180SOL     OW30175   0.991   0.893  11.469  0.3286 -0.7335 -0.6283
 6180SOL    HW130176   1.082   0.917  11.455  0.8485 -0.8793  2.5753
 6180SOL    HW230177   0.999   0.842  11.550 -1.5887 -1.2823 -0.7690
 6181SOL     OW30178   2.672   2.015   9.532  0.0379 -0.1995  0.2068
 6181SOL    HW130179   2.592   2.043   9.486 -0.0904 -1.1949 -0.1727
 6181SOL    HW230180   2.657   1.925   9.559  1.0125 -0.4558 -0.1262
 6182SOL     OW30181   1.188   4.140   4.099  0.0347 -0.1782  0.3697
 6182SOL    HW130182   1.206   4.206   4.032 -1.4893 -1.2647 -1.0971
 6182SOL    HW230183   1.141   4.071   4.054 -0.4457 -0.6803  1.6277
 6183SOL     OW30184   4.714   2.502  11.346  0.5035  0.0022 -0.0289
 6183SOL    HW130185   4.630   2.505  11.393 -0.1111 -1.0000 -1.0581
 6183SOL    HW230186   4.712   2.412  11.313  0.8006  1.0707 -2.9625
 6184SOL     OW30187   1.190   0.260  13.961  0.3283  0.0380 -0.7186
 6184SOL    HW130188   1.212   0.167  13.956  0.1563 -0.0492  0.2026
 6184SOL    HW230189   1.235   0.280  14.043  4.7444 -1.9179 -2.6644
 6185SOL     OW30190   3.798   4.509   7.515 -0.3777  0.1203  0.2793
 6185SOL    HW130191   3.788   4.481   7.424 -1.9130 -1.8368  1.0477
 6185SOL    HW230192   3.706   4.505   7.541 -0.6435  0.7060 -0.5733
 6186SOL     OW30193   3.156   0.203  15.809  0.6173 -0.4438  0.4688
 6186SOL    HW130194   3.235   0.190  15.861  1.0420  1.1711  0.2348
 6186SOL    HW230195   3.126   0.113  15.802 -0.5499 -0.1981  2.4898
 6187SOL     OW30196   1.653   3.284  10.911 -0.0037  0.1621  0.1064
 6187SOL    HW130197   1.735   3.270  10.863  0.8576 -0.0387  1.6380
 6187SOL    HW230198   1.633   3.368  10.870 -1.9187 -0.5271 -0.3706
 6188SOL     OW30199   1.360   4.487   8.250 -0.3140  0.4769  0.5852
 6188SOL    HW130200   1.431   4.424   8.259 -1.3014 -0.5629  1.1567
 6188SOL    HW230201   1.296   4.460   8.316 -0.3348  0.5989  0.6147
 6189SOL     OW30202   3.913   3.699  14.258 -0.7568 -0.0492 -0.6733
 6189SOL    HW130203   3.912   3.776  14.201  2.6880  1.5251  1.3761
 6189SOL    HW230204   3.977   3.726  14.324 -1.2994  0.7879 -0.4900
 6190SOL     OW30205   3.957   2.912   6.664  0.1926 -0.1391 -0.0442
 6190SOL    HW130206   3.975   3.006   6.667  2.2168 -0.5134 -0.9231
 6190SOL    HW230207   3.865   2.893   6.646 -0.5700 -0.0297  3.8074
 6191SOL     OW30208   1.726   0.154   8.412  0.5426 -0.2656  0.1220
 6191SOL    HW130209   1.657   0.191   8.357  0.1056 -0.7503  0.3444
 6191SOL    HW230210   1.697   0.130   8.500 -1.0323  1.0612 -0.0264
 6192SOL     OW30211   4.154   0.489   3.432 -0.4263  0.2227  0.3130
 6192SOL    HW130212   4.179   0.412   3.483  0.8774  1.3521  1.3795
 6192SOL    HW230213   4.118   0.550   3.496  0.9490  1.1176  0.2454
 6193SOL     OW30214   2.849   1.086  13.468  0.4807  0.1170  0.1317
 6193SOL    HW130215   2.824   1.157  13.527 -1.0409 -2.3951  2.4848
 6193SOL    HW230216   2.903   1.141  13.410  1.1458 -2.0594 -1.3043
 6194SOL     OW30217   3.590   4.378   4.091  0.0394 -0.0765 -0.3684
 6194SOL    HW130218   3.525   4.389   4.022 -0.0215 -1.1892 -0.4906
 6194SOL    HW230219   3.624   4.289   4.081 -0.6875 -0.2672 -1.0849
 6195SOL     OW30220   0.995   2.877   2.104  0.4684 -0.4968 -0.2023
 6195SOL    HW130221   0.923   2.899   2.164  1.1385  0.2158  0.3434
 6195SOL    HW230222   0.966   2.925   2.027 -0.9411 -0.5246  0.3014
 6196SOL     OW30223   2.929   4.442   0.807 -0.0575 -0.7422 -0.0958
 6196SOL    HW130224   2.991   4.374   0.779 -1.4019 -2.4222  1.0324
 6196SOL    HW230225   2.841   4.406   0.798 -0.8348  1.2598 -0.4664
 6197SOL     OW30226   4.447   4.099   8.784 -0.4151 -0.8031  0.1530
 6197SOL    HW130227   4.396   4.166   8.738  0.7634 -1.2332 -1.7489
 6197SOL    HW230228   4.449   4.128   8.876 -1.9360 -2.4346  0.6929
 6198SOL     OW30229   4.280   2.119   4.877  0.2853 -0.1407  0.0812
 6198SOL    HW130230   4.325   2.081   4.953  0.2707  0.1911  0.2571
 6198SOL    HW230231   4.254   2.204   4.913  0.2515 -0.8412  1.6953
 6199SOL     OW30232   3.954   0.695   7.331 -1.0377  0.3723  0.3944
 6199SOL    HW130233   4.030   0.647   7.364 -1.8948 -1.9579 -0.9932
 6199SOL    HW230234   3.946   0.642   7.252 -1.5414  2.1447 -0.7406
 6200SOL     OW30235   4.209   2.246  10.186  0.0809 -0.3599 -0.1127
 6200SOL    HW130236   4.160   2.308  10.133 -1.7526 -0.6255  1.3012
 6200SOL    HW230237   4.295   2.249  10.144 -0.0731  0.7762 -0.3402
 6201SOL     OW30238   0.086   3.559  16.854 -0.1636 -0.0488  0.4465
 6201SOL    HW130239   0.006   3.514  16.827 -0.4137 -0.1307  1.3155
 6201SOL    HW230240   0.050   3.645  16.874  1.2320  0.6016  0.1002
 6202SOL     OW30241   0.239   4.194   2.490 -0.2901  0.0251  0.4049
 6202SOL    HW130242   0.281   4.190   2.404  0.7621 -0.2492  0.9326
 6202SOL    HW230243   0.235   4.286   2.514  0.0533  0.4894 -1.3483
 6203SOL     OW30244   0.147   2.650   8.905 -0.0473  0.0488  0.3997
 6203SOL    HW130245   0.197   2.688   8.834  0.8545  1.5690  1.8506
 6203SOL    HW230246   0.062   2.688   8.883  0.5769  2.6231  2.4344
 6204SOL     OW30247   2.850   1.805  14.329 -0.5996  0.0803  0.3661
 6204SOL    HW130248   2.816   1.739  14.268 -1.0157  0.3661  0.2867
 6204SOL    HW230249   2.941   1.813  14.300  0.3455  0.3510  3.5010
 6205SOL     OW30250   2.000   1.124   1.919 -0.2141 -0.0282  0.3479
 6205SOL    HW130251   1.999   1.051   1.982 -0.1370  1.0221  1.5591
 6205SOL    HW230252   1.946   1.083   1.852 -1.9677  1.6050  0.7445
 6206SOL     OW30253   0.020   2.148   9.095  0.8349  0.3845 -0.7388
 6206SOL    HW130254   0.039   2.166   9.187  2.8777  0.5475 -1.1878
 6206SOL    HW230255   0.092   2.198   9.055  1.4988 -1.3279 -1.6601
 6207SOL     OW30256   3.879   0.980   6.888 -0.1958  0.0963 -0.2186
 6207SOL    HW130257   3.968   0.998   6.917 -1.1124  1.2531  1.8858
 6207SOL    HW230258   3.881   0.893   6.850 -0.6733 -0.2494  0.5403
 6208SOL     OW30259   0.453   3.861   3.594  0.0312 -0.5673  0.3053
 6208SOL    HW130260   0.535   3.837   3.637 -0.2466  0.1449  1.2230
 6208SOL    HW230261   0.388   3.851   3.663  1.9198 -0.9610  2.0071
 6209SOL     OW30262   2.291   0.195   6.851 -0.4288 -0.4848  0.4503
 6209SOL    HW130263   2.300   0.272   6.795 -0.4878  1.5394  3.1967
 6209SOL    HW230264   2.368   0.142   6.830  0.0567 -0.6669  2.6080
 6210SOL     OW30265   1.491   0.315   3.502  0.5116  0.0642  0.0142
 6210SOL    HW130266   1.399   0.313   3.528  0.1342 -0.3792 -1.3743
 6210SOL    HW230267   1.516   0.229   3.536  0.0358  0.0449  0.3062
 6211SOL     OW30268   3.426   3.662   8.581  0.2602 -0.0779 -0.0772
 6211SOL    HW130269   3.486   3.601   8.540 -0.1294 -1.3672  1.2880
 6211SOL    HW230270   3.464   3.745   8.549  1.4224 -0.4317  0.3858
 6212SOL     OW30271   1.857   0.908   3.011  0.2234  0.0624 -0.1121
 6212SOL    HW130272   1.762   0.901   3.017  0.1060  0.8134 -1.1636
 6212SOL    HW230273   1.863   0.989   2.962 -2.9206 -0.7365 -1.8338
 6213SOL     OW30274   4.650   4.514   7.405 -0.1629  0.2502 -0.9253
 6213SOL    HW130275   0.006   4.501   7.392  0.2235  2.4925 -0.3706
 6213SOL    HW230276   4.644   4.609   7.411  0.4933  0.2732 -0.6373
 6214SOL     OW30277   3.951   2.514  10.433  0.1108  0.5512  0.1632
 6214SOL    HW130278   3.975   2.424  10.415 -1.4389  0.5803 -1.9833
 6214SOL    HW230279   4.007   2.561  10.372  0.5266  0.4851  0.4946
 6215SOL     OW30280   2.503   1.706   4.310 -0.6004  0.1492 -0.1251
 6215SOL    HW130281   2.597   1.690   4.305 -0.6180  0.4782 -1.4526
 6215SOL    HW230282   2.475   1.684   4.221 -2.0987  1.7315 -0.0492
 6216SOL     OW30283   2.460   0.484   5.922 -0.3811  0.0783 -0.3622
 6216SOL    HW130284   2.466   0.430   5.843  2.2810 -0.5494  0.2798
 6216SOL    HW230285   2.480   0.571   5.889  2.1645 -0.6228 -0.6656
 6217SOL     OW30286   0.860   3.939   5.269 -0.0931  0.2415 -0.3308
 6217SOL    HW130287   0.817   3.934   5.184  0.3730  2.8056 -0.7335
 6217SOL    HW230288   0.936   3.884   5.252 -2.1185 -1.8993 -2.2172
 6218SOL     OW30289   2.376   2.351   4.956  0.9182  0.7404  0.0080
 6218SOL    HW130290   2.401   2.435   4.918  1.5664  0.0232 -1.1729
 6218SOL    HW230291   2.459   2.337   5.001  1.0906  0.7375 -0.3077
 6219SOL     OW30292   1.245   4.554  13.881  0.1034 -0.1488 -0.3744
 6219SOL    HW130293   1.157   4.515  13.877 -0.3272  0.9017 -1.2817
 6219SOL    HW230294   1.254   4.547  13.786  0.4468  0.6610 -0.4028
 6220SOL     OW30295   2.398   0.598   8.508  0.4394 -0.2834 -0.2992
 6220SOL    HW130296   2.370   0.591   8.599 -0.7258  0.1225 -0.6223
 6220SOL    HW230297   2.316   0.624   8.466 -0.5508 -1.8869  0.6336
 6221SOL     OW30298   0.760   3.279   2.692  0.0032  0.2886  0.0193
 6221SOL    HW130299   0.700   3.255   2.621 -0.2656  2.8291 -0.5797
 6221SOL    HW230300   0.712   3.239   2.765  1.4628 -1.4585  0.0347
 6222SOL     OW30301   1.958   4.719   2.472  0.0389  0.2581  0.6544
 6222SOL    HW130302   1.893   0.034   2.519 -2.3057 -2.7417  0.7849
 6222SOL    HW230303   2.033   0.015   2.520  0.7209 -3.0428  1.9298
 6223SOL     OW30304   0.338   2.683  12.222  0.1581  0.2246 -0.2296
 6223SOL    HW130305   0.316   2.745  12.292 -0.3420  0.2075 -0.3743
 6223SOL    HW230306   0.430   2.701  12.204  0.9687 -1.1122  2.5966
 6224SOL     OW30307   0.817   2.434  15.385 -0.2930  0.2738 -0.5342
 6224SOL    HW130308   0.858   2.393  15.462 -2.7993  1.3305  1.3846
 6224SOL    HW230309   0.805   2.351  15.339 -0.4125  0.3229 -0.5894
 6225SOL     OW30310   1.177   0.338  17.205 -0.3834 -0.5196  0.4846
 6225SOL    HW130311   1.172   0.273  17.275  0.7923 -0.5851  0.4969
 6225SOL    HW230312   1.164   0.417  17.257 -0.2108  0.1661 -0.5245
 6226SOL     OW30313   2.473   0.646   6.791  0.0520  0.3551  0.5385
 6226SOL    HW130314   2.549   0.589   6.802 -0.2192 -0.5307 -2.1746
 6226SOL    HW230315   2.513   0.733   6.802  1.1739  0.0089 -0.8880
 6227SOL     OW30316   0.025   1.129   5.316 -0.1747 -0.5967  0.1447
 6227SOL    HW130317   4.730   1.110   5.229 -0.0569  0.5748 -0.1644
 6227SOL    HW230318   0.065   1.215   5.300  0.0601 -0.6475  0.4519
 6228SOL     OW30319   4.097   4.398  14.750  0.9697 -0.3534  0.0573
 6228SOL    HW130320   4.179   4.372  14.709  0.9407  2.8313 -2.0860
 6228SOL    HW230321   4.102   4.494  14.747  2.7720 -0.4291  1.2463
 6229SOL     OW30322   4.126   2.473   3.347 -0.4986  0.2327 -0.2072
 6229SOL    HW130323   4.134   2.437   3.259 -1.3783 -0.2908 -0.0661
 6229SOL    HW230324   4.071   2.407   3.389  2.3676 -1.9290  0.2288
 6230SOL     OW30325   1.994   1.739   2.234  0.3776 -0.1545  0.4146
 6230SOL    HW130326   1.996   1.832   2.256  2.2917 -0.1074  0.0561
 6230SOL    HW230327   1.928   1.733   2.165 -0.3726  1.9051  0.9525
 6231SOL     OW30328   2.704   2.503   1.137 -0.2455 -0.5745  0.0760
 6231SOL    HW130329   2.646   2.455   1.078  2.1122 -4.4544  0.8897
 6231SOL    HW230330   2.786   2.496   1.088  0.1660 -0.7459  0.7895
 6232SOL     OW30331   0.720   3.038   8.886  0.8642 -0.5024 -0.5107
 6232SOL    HW130332   0.664   3.006   8.816 -1.1003  0.6999  0.5161
 6232SOL    HW230333   0.658   3.038   8.959 -0.0688  0.7838 -1.3129
 6233SOL     OW30334   4.350   2.237   8.211  0.4461  0.0581 -0.0770
 6233SOL    HW130335   4.289   2.165   8.195 -0.5128  1.0495 -0.9377
 6233SOL    HW230336   4.407   2.204   8.280  0.5092 -0.4394 -0.3696
 6234SOL     OW30337   1.981   4.612   7.495 -0.4456 -0.4085 -0.4547
 6234SOL    HW130338   1.922   4.573   7.560 -0.7451  0.2304 -0.3477
 6234SOL    HW230339   1.974   4.555   7.418  0.2142 -1.2519  0.1145
 6235SOL     OW30340   1.336   3.873   9.213 -0.2273 -0.5747  0.3335
 6235SOL    HW130341   1.373   3.893   9.127 -1.5795  0.0214 -0.1031
 6235SOL    HW230342   1.283   3.795   9.199 -0.8169  0.1251 -1.3193
 6236SOL     OW30343   2.205   3.001   1.395 -0.2523  0.0196  0.6690
 6236SOL    HW130344   2.270   3.063   1.428  0.1339 -0.3356  0.5723
 6236SOL    HW230345   2.157   2.975   1.474 -1.1782 -1.1473 -0.2806
 6237SOL     OW30346   3.161   4.004  17.142  0.2188  0.3163  0.1653
 6237SOL    HW130347   3.229   4.068  17.160 -1.1686  1.8108  0.1032
 6237SOL    HW230348   3.082   4.033  17.188  0.7248 -0.2714  1.3936
 6238SOL     OW30349   0.085   3.620   4.928  0.0494 -0.2697  0.7602
 6238SOL    HW130350   0.124   3.698   4.888  0.6059 -1.1830 -0.4714
 6238SOL    HW230351   0.132   3.552   4.879 -2.7654  0.1622 -2.4784
 6239SOL     OW30352   4.618   0.235   5.918 -1.0108 -0.1234  0.0692
 6239SOL    HW130353   4.584   0.152   5.883 -1.0182  0.0320 -0.2886
 6239SOL    HW230354   4.600   0.241   6.012  0.3505 -2.1252  0.4632
 6240SOL     OW30355   1.322   0.368  14.215  0.0785  0.2066  0.0421
 6240SOL    HW130356   1.390   0.333  14.273 -0.5692 -1.7250 -0.3573
 6240SOL    HW230357   1.251   0.390  14.275  1.0366  1.7029  0.6260
 6241SOL     OW30358   3.877   2.236  10.774 -0.8656  0.2138  0.3357
 6241SOL    HW130359   3.933   2.197  10.707 -0.9903  0.8101 -0.1181
 6241SOL    HW230360   3.903   2.196  10.857  0.7777  1.1825  0.2808
 6242SOL     OW30361   1.137   4.221   2.546  0.3920  0.6866 -0.1322
 6242SOL    HW130362   1.126   4.127   2.536  0.7102  0.6951 -0.5605
 6242SOL    HW230363   1.062   4.254   2.496 -0.9387  0.7769  1.8801
 6243SOL     OW30364   2.494   1.913  16.928 -0.4103 -0.2694  0.0891
 6243SOL    HW130365   2.511   1.824  16.959 -1.2550 -0.9457 -1.3717
 6243SOL    HW230366   2.576   1.961  16.940 -0.4134 -0.2808  0.1566
 6244SOL     OW30367   4.281   2.549   5.111 -0.4409  0.6834 -0.6898
 6244SOL    HW130368   4.240   2.632   5.137  2.3564  2.0598 -0.6553
 6244SOL    HW230369   4.347   2.578   5.047 -0.5071  0.8383 -0.6882
 6245SOL     OW30370   1.929   3.677   1.071  0.5336  0.5772  0.0098
 6245SOL    HW130371   1.842   3.640   1.055 -0.0902  2.2516 -0.4037
 6245SOL    HW230372   1.964   3.683   0.982  2.7514 -0.8513  0.7792
 6246SOL     OW30373   0.638   3.793   4.600  0.1568  0.4323  0.0454
 6246SOL    HW130374   0.586   3.773   4.678 -1.5077 -0.8593 -1.3885
 6246SOL    HW230375   0.577   3.857   4.563  0.2989  1.1984  1.1150
 6247SOL     OW30376   1.258   0.386   1.315  0.3367 -0.1760 -0.3824
 6247SOL    HW130377   1.193   0.377   1.245  1.2922 -0.2535 -1.2611
 6247SOL    HW230378   1.255   0.480   1.331 -2.5527 -0.3426  0.0700
 6248SOL     OW30379   1.217   1.736   8.294 -0.3440  0.2336 -0.3623
 6248SOL    HW130380   1.190   1.681   8.367  0.7743  0.3786  0.1648
 6248SOL    HW230381   1.313   1.734   8.302 -0.3321  0.3281 -0.4755
 6249SOL     OW30382   0.302   1.175   6.972  0.0141 -0.4466  0.0114
 6249SOL    HW130383   0.361   1.100   6.970 -0.1479 -0.5130 -2.6149
 6249SOL    HW230384   0.224   1.123   6.992 -0.1442  0.4680  1.8094
 6250SOL     OW30385   3.787   1.917   5.179 -0.5754 -0.2175  0.3446
 6250SOL    HW130386   3.835   1.987   5.222 -0.0542  1.7207 -3.3442
 6250SOL    HW230387   3.831   1.910   5.094  1.7064  0.8984  1.4491
 6251SOL     OW30388   0.936   1.892  15.409  0.4954 -0.1972  0.7420
 6251SOL    HW130389   0.989   1.899  15.330 -0.4468  0.6113  0.1886
 6251SOL    HW230390   0.863   1.838  15.381  1.4098 -0.4836 -1.0692
 6252SOL     OW30391   1.940   4.177   1.613  0.1161  0.2226 -0.2214
 6252SOL    HW130392   2.031   4.155   1.631 -0.3792 -1.4054  0.3029
 6252SOL    HW230393   1.950   4.269   1.588  1.4209  0.4513  1.0990
 6253SOL     OW30394   3.676   0.439   3.704 -0.3349 -0.3515 -0.9507
 6253SOL    HW130395   3.737   0.368   3.725  0.2366  0.0285 -1.3216
 6253SOL    HW230396   3.611   0.400   3.645 -3.3403  1.6769  1.0437
 6254SOL     OW30397   2.718   0.175  11.442 -0.4610  0.5099  0.3743
 6254SOL    HW130398   2.809   0.157  11.465 -0.0067  0.6396 -1.3827
 6254SOL    HW230399   2.726   0.185  11.348 -0.5399  0.0058  0.3129
 6255SOL     OW30400   0.305   3.025   8.606 -0.1666  0.0526 -0.6334
 6255SOL    HW130401   0.267   3.055   8.688 -1.7932  2.1626 -2.1693
 6255SOL    HW230402   0.254   2.948   8.580 -0.1226 -0.3132  0.3625
 6256SOL     OW30403   3.529   1.292   9.507  0.3118  0.1606 -0.3363
 6256SOL    HW130404   3.499   1.330   9.424  0.2517  0.0638 -0.3592
 6256SOL    HW230405   3.623   1.309   9.509  0.2608  0.2524  0.8592
 6257SOL     OW30406   3.612   1.319   0.557 -0.7502  0.2030 -0.2150
 6257SOL    HW130407   3.599   1.253   0.489 -0.0244 -0.8932  0.7210
 6257SOL    HW230408   3.550   1.386   0.529 -0.2082  0.3056 -1.1664
 6258SOL     OW30409   2.820   1.839   5.032 -0.7374 -0.0419  0.3225
 6258SOL    HW130410   2.803   1.751   4.998 -0.8109  0.3805 -0.7043
 6258SOL    HW230411   2.915   1.844   5.031 -0.7627  0.4155  0.2258
 6259SOL     OW30412   1.160   1.482   9.807 -0.0951 -0.0474 -0.9056
 6259SOL    HW130413   1.076   1.470   9.762 -1.9636  1.6301  2.1286
 6259SOL    HW230414   1.144   1.446   9.894 -0.0223  0.2974 -0.7502
 6260SOL     OW30415   0.000   3.336   9.206  0.6483 -0.3983 -0.3994
 6260SOL    HW130416   4.694   3.399   9.262  1.0071 -0.5229  0.0255
 6260SOL    HW230417   4.685   3.256   9.214 -0.7536  0.3828 -1.8405
 6261SOL     OW30418   3.226   2.211   0.075  0.8744 -0.1972 -0.4521
 6261SOL    HW130419   3.137   2.226   0.107 -0.3930 -2.1680 -3.0338
 6261SOL    HW230420   3.212   2.130   0.025  0.4936 -0.2231 -0.3052
 6262SOL     OW30421   3.180   4.394   3.275  0.6252  0.5425  0.3296
 6262SOL    HW130422   3.125   4.413   3.199  0.2727 -1.1523  0.1684
 6262SOL    HW230423   3.217   4.481   3.286 -0.0812  0.7827  0.7807
 6263SOL     OW30424   2.149   1.528   0.509 -0.4145  0.1057  0.1519
 6263SOL    HW130425   2.094   1.490   0.578  0.4262  2.0681  1.8990
 6263SOL    HW230426   2.204   1.453   0.487  0.3431  0.4833  0.7389
 6264SOL     OW30427   0.445   0.812   2.089 -0.4237  0.0823  0.1035
 6264SOL    HW130428   0.489   0.820   2.174  3.6011 -1.7918 -1.7721
 6264SOL    HW230429   0.359   0.814   2.130 -1.0298 -0.2544 -1.1268
 6265SOL     OW30430   2.084   0.825  16.465  0.6373 -0.2273  0.1580
 6265SOL    HW130431   2.109   0.806  16.374  1.8008  1.9417  0.0180
 6265SOL    HW230432   2.142   0.894  16.497 -1.9105  1.7555  0.5186
 6266SOL     OW30433   3.389   3.841   1.258 -0.4507  0.3385 -0.2336
 6266SOL    HW130434   3.319   3.881   1.309 -0.3418  1.5834 -1.0659
 6266SOL    HW230435   3.470   3.884   1.287 -0.0273 -1.8762  1.8889
 6267SOL     OW30436   0.279   4.361   3.298  0.3646  0.1348  0.7741
 6267SOL    HW130437   0.349   4.424   3.281  2.2927 -2.0060  0.7583
 6267SOL    HW230438   0.296   4.286   3.241 -1.9520 -0.7542  1.2592
 6268SOL     OW30439   0.760   1.215   4.354 -0.0714  0.0790  0.5883
 6268SOL    HW130440   0.739   1.142   4.296 -1.3066  0.5572  0.4214
 6268SOL    HW230441   0.855   1.217   4.365 -0.0112 -1.7799  0.2881
 6269SOL     OW30442   0.751   0.901   1.850 -0.2241  0.7980 -0.1320
 6269SOL    HW130443   0.738   0.825   1.908  2.4149 -0.4875 -1.2010
 6269SOL    HW230444   0.715   0.964   1.912 -0.9018  0.1126  0.1699
 6270SOL     OW30445   2.370   2.465   8.856  0.0743 -0.3446 -0.6608
 6270SOL    HW130446   2.359   2.458   8.951  1.6861 -3.2467 -0.6990
 6270SOL    HW230447   2.333   2.549   8.828  1.1216 -0.3322 -1.9914
 6271SOL     OW30448   1.320   4.198  13.591 -0.0099 -0.0991 -0.2149
 6271SOL    HW130449   1.366   4.118  13.567 -2.5579 -1.9566  1.0353
 6271SOL    HW230450   1.363   4.271  13.547  3.6613 -1.1115  1.6904
 6272SOL     OW30451   3.181   2.176   3.016  0.2348 -0.0037  0.1270
 6272SOL    HW130452   3.178   2.247   3.080  0.4975 -0.4060  0.5790
 6272SOL    HW230453   3.088   2.169   2.996 -0.2164  0.0290  2.2959
 6273SOL     OW30454   0.069   3.023   1.860  0.4722 -0.2400  0.4636
 6273SOL    HW130455   0.113   2.967   1.924  0.3034 -1.0660 -0.1469
 6273SOL    HW230456   0.132   3.095   1.860  1.0090 -0.7084  1.1411
 6274SOL     OW30457   3.617   0.054   2.354 -0.4182 -0.2129 -0.2854
 6274SOL    HW130458   3.557   0.127   2.339  1.1716  0.7943 -1.7843
 6274SOL    HW230459   3.654   0.065   2.267  0.5546 -1.6359 -0.0546
 6275SOL     OW30460   0.716   4.043   3.705 -0.5231 -0.5981  0.6310
 6275SOL    HW130461   0.812   4.040   3.713 -0.4320  0.6440 -0.0450
 6275SOL    HW230462   0.705   3.948   3.707 -0.1397 -0.6824 -0.9765
 6276SOL     OW30463   4.599   3.312   5.235  0.0826 -0.0320  0.3349
 6276SOL    HW130464   4.504   3.299   5.233  0.4962 -3.1665  1.9833
 6276SOL    HW230465   4.644   3.240   5.192 -1.8801 -0.5337 -0.8898
 6277SOL     OW30466   3.736   3.147   1.840 -0.6761 -0.3573 -0.1375
 6277SOL    HW130467   3.663   3.085   1.840 -2.3177  1.5374 -0.3688
 6277SOL    HW230468   3.711   3.216   1.777 -0.3679 -0.6155 -0.5409
 6278SOL     OW30469   4.264   0.696   4.917 -0.0067  0.4734  0.0903
 6278SOL    HW130470   4.218   0.622   4.956 -1.7873  1.2551 -0.5484
 6278SOL    HW230471   4.195   0.754   4.949  0.5838 -0.1977  2.5902
 6279SOL     OW30472   0.429   1.205   6.664  0.0543  0.7836 -0.1967
 6279SOL    HW130473   0.444   1.217   6.757 -0.3305 -2.7158  0.3050
 6279SOL    HW230474   0.502   1.259   6.633  0.1503  2.1056  2.3385
 6280SOL     OW30475   3.898   2.708   4.378  0.2490  0.0515 -0.0781
 6280SOL    HW130476   3.945   2.704   4.462 -0.5061  0.5333  0.3690
 6280SOL    HW230477   3.945   2.770   4.323 -0.0498  0.4578  0.1163
 6281SOL     OW30478   4.019   2.251   0.758  0.4703  0.2232 -0.2025
 6281SOL    HW130479   4.020   2.179   0.821 -2.3757  1.5490  1.3232
 6281SOL    HW230480   4.037   2.324   0.817 -2.8332  0.0976  0.9724
 6282SOL     OW30481   1.054   0.276  10.868  0.3021  0.7415 -0.3422
 6282SOL    HW130482   0.962   0.297  10.850  1.1908  2.2369 -3.1486
 6282SOL    HW230483   1.048   0.187  10.832  0.9296  1.1947 -1.5590
 6283SOL     OW30484   2.670   1.181   7.950  0.3499  0.3421  0.4503
 6283SOL    HW130485   2.613   1.170   8.026 -0.1024 -1.7565 -0.1802
 6283SOL    HW230486   2.618   1.229   7.885  0.1174 -1.2134 -0.5266
 6284SOL     OW30487   3.114   3.707   8.997  0.5313 -0.1333  0.0874
 6284SOL    HW130488   3.175   3.674   8.930  0.3183  0.9291 -0.6271
 6284SOL    HW230489   3.081   3.627   9.038 -0.5844  0.3644  0.1394
 6285SOL     OW30490   1.186   3.572   4.285 -0.0103 -0.4015  0.5674
 6285SOL    HW130491   1.229   3.540   4.206  1.0159 -0.6814  1.2316
 6285SOL    HW230492   1.135   3.493   4.300 -1.4736  0.5037  0.3811
 6286SOL     OW30493   1.987   0.690  11.133  0.3715  0.5470  0.1746
 6286SOL    HW130494   2.024   0.776  11.114 -0.0434  0.0397 -2.7865
 6286SOL    HW230495   2.066   0.640  11.152  0.4204  0.7587  0.5342
 6287SOL     OW30496   3.265   3.596   9.672 -0.3705 -0.1375  0.5806
 6287SOL    HW130497   3.277   3.686   9.642  0.8058 -0.3269  0.4720
 6287SOL    HW230498   3.201   3.567   9.608 -0.9531  2.6445 -0.1172
 6288SOL     OW30499   0.236   1.687   2.969  0.0438 -0.4406 -0.0487
 6288SOL    HW130500   0.253   1.650   3.056  1.5346  0.4932  0.0766
 6288SOL    HW230501   0.324   1.721   2.948  0.0679 -1.0482 -0.9069
 6289SOL     OW30502   3.212   3.616  14.707 -0.8006  0.4692  0.1428
 6289SOL    HW130503   3.126   3.633  14.669  0.2939  0.6727 -2.2786
 6289SOL    HW230504   3.207   3.521  14.716  0.4301  0.3969  0.0244
 6290SOL     OW30505   2.481   1.865   8.541 -0.1932  0.0845  0.1232
 6290SOL    HW130506   2.442   1.782   8.513 -1.6263  1.2020 -1.1720
 6290SOL    HW230507   2.408   1.926   8.527 -1.3315 -1.3049  0.0473
 6291SOL     OW30508   1.706   4.488   4.349  0.5116  0.4433  0.4316
 6291SOL    HW130509   1.692   4.402   4.387  1.1635  1.8276  3.8009
 6291SOL    HW230510   1.725   4.467   4.257 -1.3528 -1.2200  0.4398
 6292SOL     OW30511   0.277   0.263   7.875  0.7592  0.2016  0.0640
 6292SOL    HW130512   0.213   0.319   7.832  0.4378  0.8056  1.3252
 6292SOL    HW230513   0.224   0.194   7.914 -0.9160  0.7436 -1.2699
 6293SOL     OW30514   2.629   4.105  15.624 -0.1535 -0.2622  0.0724
 6293SOL    HW130515   2.607   4.012  15.634  0.8458 -0.3374  1.6501
 6293SOL    HW230516   2.541   4.141  15.638 -0.3254  0.0566 -1.9612
 6294SOL     OW30517   2.447   2.905   1.775  0.3330 -0.5085  1.2934
 6294SOL    HW130518   2.499   2.974   1.733 -0.4860  0.9429  2.6900
 6294SOL    HW230519   2.517   2.859   1.821  2.0799  1.1103  0.2675
 6295SOL     OW30520   4.326   1.181   4.525 -0.4153  0.2653  0.1639
 6295SOL    HW130521   4.320   1.177   4.429 -0.4762 -2.5876  0.2947
 6295SOL    HW230522   4.362   1.267   4.547  0.0345  0.1722 -0.1914
 6296SOL     OW30523   1.620   0.985   4.376  0.3120 -0.6503  0.4796
 6296SOL    HW130524   1.685   0.916   4.365 -0.7101 -1.3465 -1.2044
 6296SOL    HW230525   1.629   1.032   4.294  0.2843  2.1026  2.0432
 6297SOL     OW30526   1.108   0.093  17.374  0.4119  0.3276 -0.2559
 6297SOL    HW130527   1.071   0.093  17.462 -0.5018 -0.2113 -0.6407
 6297SOL    HW230528   1.033   0.108  17.316 -0.3176 -0.7107  0.4153
 6298SOL     OW30529   0.710   2.057   5.130 -0.3665 -0.1295 -0.0606
 6298SOL    HW130530   0.650   2.130   5.117  0.2986  0.5146  0.4456
 6298SOL    HW230531   0.797   2.091   5.110 -0.6615  0.3184 -0.5750
 6299SOL     OW30532   1.395   0.488   4.693  0.0581  0.4437 -0.8896
 6299SOL    HW130533   1.464   0.473   4.628  2.1555  0.9584  1.1987
 6299SOL    HW230534   1.345   0.407   4.687 -0.3224  0.6023  0.1146
 6300SOL     OW30535   3.581   3.560   4.755 -0.1163 -0.1223  0.1663
 6300SOL    HW130536   3.511   3.499   4.731  0.6830 -1.0911  0.3275
 6300SOL    HW230537   3.589   3.539   4.848 -1.7534  0.1083  0.3659
 6301SOL     OW30538   0.684   2.923   3.088  0.2290 -0.7667 -0.0047
 6301SOL    HW130539   0.590   2.909   3.097  0.4391 -1.7850  0.6857
 6301SOL    HW230540   0.714   2.840   3.051 -1.9987 -1.8423  0.5677
 6302SOL     OW30541   4.229   2.952   7.037 -0.2003 -0.6000  0.0677
 6302SOL    HW130542   4.250   2.992   7.121  0.3119  0.3656 -0.5161
 6302SOL    HW230543   4.279   2.871   7.044 -0.9422 -0.9311  1.4341
 6303SOL     OW30544   0.077   0.539   8.773 -0.5297  0.0014  0.5010
 6303SOL    HW130545   0.036   0.550   8.687 -0.1790  1.2141  0.4943
 6303SOL    HW230546   0.015   0.497   8.833  0.5235 -2.0045  0.1640
 6304SOL     OW30547   1.501   1.401   0.288 -0.7562 -0.1063 -0.0333
 6304SOL    HW130548   1.426   1.361   0.244  1.0889 -1.9383 -1.5537
 6304SOL    HW230549   1.571   1.386   0.224 -0.5208 -2.2569  0.7413
 6305SOL     OW30550   2.877   0.610  17.615  0.2004 -0.5422  1.2451
 6305SOL    HW130551   2.798   0.655  17.587  0.6654 -1.2033 -1.2026
 6305SOL    HW230552   2.889   0.642  17.704 -0.0261  1.9710  0.3527
 6306SOL     OW30553   1.749   3.898   4.782  0.0324 -0.0764 -0.6281
 6306SOL    HW130554   1.679   3.907   4.718 -1.0303  0.5199  0.6188
 6306SOL    HW230555   1.712   3.827   4.835 -0.4761 -0.2939 -1.2790
 6307SOL     OW30556   4.302   4.573  13.132 -0.2650 -0.2631  0.3100
 6307SOL    HW130557   4.282   4.642  13.194 -2.3977 -1.6445  1.1524
 6307SOL    HW230558   4.210   4.551  13.122 -0.9661  2.7719  0.2457
 6308SOL     OW30559   3.880   3.309  13.406  0.0825  0.0720 -0.2275
 6308SOL    HW130560   3.804   3.338  13.355  1.0185 -0.9215 -2.1899
 6308SOL    HW230561   3.893   3.385  13.462 -2.4524  0.1249  0.2616
 6309SOL     OW30562   4.700   0.800  16.529  0.4897  0.3841  0.7393
 6309SOL    HW130563   0.021   0.864  16.489  0.7377  0.6023  1.4430
 6309SOL    HW230564   4.643   0.865  16.572 -1.3121  0.1720 -1.3510
 6310SOL     OW30565   3.738   1.131  13.683 -0.0297  0.4810 -0.4295
 6310SOL    HW130566   3.831   1.119  13.702 -0.1247  0.1175 -0.1795
 6310SOL    HW230567   3.706   1.041  13.673 -0.0562  0.4855 -0.3875
 6311SOL     OW30568   0.599   2.667  12.437 -0.0448  0.6582 -0.3244
 6311SOL    HW130569   0.598   2.693  12.345 -2.7165 -0.1619 -0.5338
 6311SOL    HW230570   0.683   2.621  12.439 -0.8940 -0.8789 -0.1934
 6312SOL     OW30571   3.467   0.481  16.995  0.4056 -0.1722  0.3657
 6312SOL    HW130572   3.461   0.488  17.091  0.0542  0.4040  0.3019
 6312SOL    HW230573   3.378   0.453  16.975  0.3979  0.3752 -0.3485
 6313SOL     OW30574   1.199   2.089   5.392 -0.1053  0.5448 -0.3379
 6313SOL    HW130575   1.252   2.060   5.466 -2.3731 -0.4556  0.8841
 6313SOL    HW230576   1.191   2.011   5.337 -0.9178 -0.6909  1.5410
 6314SOL     OW30577   4.392   3.676   5.178 -0.2137  0.1856  0.4971
 6314SOL    HW130578   4.406   3.766   5.206 -0.2013  0.4054 -0.2035
 6314SOL    HW230579   4.480   3.641   5.168 -0.0931  0.5331  0.3508
 6315SOL     OW30580   0.070   2.922   4.228  0.5412 -0.2223 -0.6630
 6315SOL    HW130581   0.012   2.849   4.247 -0.7145  0.3321 -2.3797
 6315SOL    HW230582   0.012   2.997   4.237 -0.7317 -1.6738  3.1774
 6316SOL     OW30583   1.499   0.091  12.871  0.2738  0.5069 -0.5355
 6316SOL    HW130584   1.477   0.170  12.921 -1.1815  1.1995 -2.2941
 6316SOL    HW230585   1.591   0.075  12.894  0.4209  0.1919 -1.3280
 6317SOL     OW30586   4.492   2.671  13.023  0.5907  0.3678 -0.8415
 6317SOL    HW130587   4.406   2.634  13.043  0.6218  0.1936 -1.0288
 6317SOL    HW230588   4.515   2.695  13.113  0.0792 -2.2535 -0.0303
 6318SOL     OW30589   4.661   1.084   9.691  0.1182 -0.7612 -0.1978
 6318SOL    HW130590   0.000   1.135   9.716  0.5486 -0.1652 -2.6527
 6318SOL    HW230591   4.700   1.000   9.664  0.2086 -0.5097 -0.8516
 6319SOL     OW30592   3.994   1.844   9.522  0.2158 -0.3780 -0.0021
 6319SOL    HW130593   4.001   1.817   9.431 -3.5020  0.7694 -0.6437
 6319SOL    HW230594   4.029   1.763   9.558 -1.3381  0.3665  3.1693
 6320SOL     OW30595   4.680   2.670   2.363  0.3576  0.0850  0.1723
 6320SOL    HW130596   4.648   2.643   2.276 -1.9776  0.4462  0.9058
 6320SOL    HW230597   4.609   2.719   2.404  0.1000  0.6500 -0.9323
 6321SOL     OW30598   0.845   3.764   3.370  0.4895  0.4604 -0.5290
 6321SOL    HW130599   0.859   3.856   3.347  1.6519  0.2530 -0.6866
 6321SOL    HW230600   0.807   3.768   3.457 -1.0710 -0.0144 -1.1878
 6322SOL     OW30601   3.414   4.235  13.010  0.0628 -0.3036 -0.1611
 6322SOL    HW130602   3.338   4.178  12.999 -0.0388  0.0937 -1.5434
 6322SOL    HW230603   3.484   4.175  13.034  1.6331  1.6146  0.0011
 6323SOL     OW30604   3.422   0.272   7.153 -0.4871  0.0753 -0.2942
 6323SOL    HW130605   3.362   0.313   7.216 -2.6771 -1.1987 -1.5421
 6323SOL    HW230606   3.424   0.347   7.093 -0.1838  0.4954  0.2424
 6324SOL     OW30607   2.902   4.584  11.896  0.0001  0.4030 -0.3067
 6324SOL    HW130608   2.821   4.600  11.944 -0.4232  1.2431 -1.2925
 6324SOL    HW230609   2.952   4.581  11.978  3.0273  0.4105 -2.1437
 6325SOL     OW30610   3.484   0.402  15.061  0.0006 -0.0392  0.6206
 6325SOL    HW130611   3.491   0.368  14.972  0.6876  1.0500  0.2522
 6325SOL    HW230612   3.391   0.416  15.076 -0.1790  0.4175 -0.9377
 6326SOL     OW30613   0.753   1.665   4.906  0.0647 -0.0725  0.4335
 6326SOL    HW130614   0.679   1.611   4.881  0.0055  0.0847  0.2671
 6326SOL    HW230615   0.817   1.612   4.953 -0.2488 -0.6833  0.1580
 6327SOL     OW30616   2.601   1.645  17.159 -0.2355 -0.0133  0.1768
 6327SOL    HW130617   2.593   1.550  17.156 -0.2122  0.0272 -1.5636
 6327SOL    HW230618   2.635   1.661  17.071 -1.3534 -0.1846 -0.2781
 6328SOL     OW30619   3.883   4.620  16.235 -0.4324 -0.0018  0.0904
 6328SOL    HW130620   3.973   4.650  16.223 -0.1666  0.1228  2.3620
 6328SOL    HW230621   3.836   4.687  16.186 -0.1952  0.2661  0.2366
 6329SOL     OW30622   1.410   0.135   3.785  0.5394 -0.2686 -0.2099
 6329SOL    HW130623   1.357   0.056   3.799 -1.0877  0.6924 -0.9191
 6329SOL    HW230624   1.358   0.207   3.821 -0.1953 -1.8175  1.8438
 6330SOL     OW30625   1.971   0.575  13.294 -0.0574  0.2337  0.1918
 6330SOL    HW130626   2.004   0.559  13.382  0.7343  2.9977  0.3815
 6330SOL    HW230627   2.043   0.549  13.236 -0.3970  0.2368 -0.2306
 6331SOL     OW30628   0.050   4.030   2.271  0.1707 -0.5363 -0.3333
 6331SOL    HW130629   4.730   4.090   2.318  0.5520  0.8652 -1.6816
 6331SOL    HW230630   0.071   3.970   2.343  0.7981  0.8298  0.6225
 6332SOL     OW30631   3.020   4.025  16.898  0.0045 -0.2518  0.5308
 6332SOL    HW130632   3.072   4.009  16.977 -2.5266 -0.3149  2.1809
 6332SOL    HW230633   3.084   3.994  16.834  0.5983 -0.9395  1.4608
 6333SOL     OW30634   1.643   1.897   3.964 -0.6506  0.2879 -0.1019
 6333SOL    HW130635   1.641   1.984   4.003 -0.5864  0.0503  0.4346
 6333SOL    HW230636   1.737   1.879   3.963 -0.8645 -0.9967  2.2728
 6334SOL     OW30637   4.131   0.673   6.089 -0.7034  0.3390  0.1000
 6334SOL    HW130638   4.044   0.674   6.050 -0.4342  0.1317 -0.5179
 6334SOL    HW230639   4.188   0.705   6.019 -1.6274 -0.9158 -1.2314
 6335SOL     OW30640   4.052   3.582   4.796 -0.2061 -0.0455  0.2781
 6335SOL    HW130641   4.107   3.512   4.760  2.2078  2.5623 -1.1463
 6335SOL    HW230642   3.983   3.535   4.843 -3.2882  3.8680 -0.3127
 6336SOL     OW30643   1.272   2.564   7.552  0.5489  0.5840 -0.3838
 6336SOL    HW130644   1.197   2.590   7.499 -0.5662 -2.0870 -0.1106
 6336SOL    HW230645   1.310   2.504   7.487  0.4156 -1.5324  1.5140
 6337SOL     OW30646   4.373   1.566   5.799 -0.2184 -0.2586 -0.0270
 6337SOL    HW130647   4.374   1.536   5.890 -0.6262  0.7851  0.3185
 6337SOL    HW230648   4.388   1.479   5.761  2.1722  0.2973 -0.3643
 6338SOL     OW30649   2.467   1.625   4.031  0.8891 -0.0932 -0.3625
 6338SOL    HW130650   2.431   1.694   3.975  1.7979  1.1873  0.6458
 6338SOL    HW230651   2.558   1.620   4.005  0.5337 -3.9888 -0.8979
 6339SOL     OW30652   0.287   3.248  13.428  0.2494 -0.6978 -0.7678
 6339SOL    HW130653   0.346   3.175  13.413  0.6162 -0.6125  0.2629
 6339SOL    HW230654   0.320   3.310  13.363  0.4278  2.4955  2.3277
 6340SOL     OW30655   3.329   0.600  13.409  0.8152 -0.1823 -0.6406
 6340SOL    HW130656   3.291   0.630  13.492 -1.5804 -3.2615 -0.6389
 6340SOL    HW230657   3.388   0.530  13.435 -0.1738 -0.5995  0.4885
 6341SOL     OW30658   0.772   2.335   8.818 -0.0177  0.5281 -0.9464
 6341SOL    HW130659   0.692   2.382   8.840 -0.2037 -0.3831  0.3174
 6341SOL    HW230660   0.837   2.388   8.864 -0.2940  1.4985 -1.6830
 6342SOL     OW30661   1.749   2.587   2.218  0.0400  0.1534 -0.2666
 6342SOL    HW130662   1.758   2.639   2.139  0.2353 -1.8299 -1.5521
 6342SOL    HW230663   1.764   2.651   2.287  1.9306 -0.5721 -0.0079
 6343SOL     OW30664   4.218   0.233   6.031 -0.8828  0.8407 -0.1630
 6343SOL    HW130665   4.254   0.301   6.089 -0.2277  1.2294 -1.0319
 6343SOL    HW230666   4.210   0.285   5.951  0.8555 -0.4473 -1.1639
 6344SOL     OW30667   4.321   3.487  17.036 -0.0501  0.0482  0.0915
 6344SOL    HW130668   4.244   3.489  17.094  1.1199  0.6793  1.6207
 6344SOL    HW230669   4.275   3.495  16.952 -0.7270  0.4505  0.4905
 6345SOL     OW30670   3.666   1.487   4.996  0.3526 -0.8186 -0.1798
 6345SOL    HW130671   3.747   1.536   4.983  0.9610 -2.0382 -1.0834
 6345SOL    HW230672   3.640   1.496   5.088 -0.1627  3.2192 -0.7549
 6346SOL     OW30673   3.165   0.634   1.712 -0.6245 -0.1930  0.5155
 6346SOL    HW130674   3.111   0.582   1.653 -0.0817  0.6768 -0.7524
 6346SOL    HW230675   3.250   0.600   1.685  0.6212  1.4629  2.3461
 6347SOL     OW30676   3.898   2.798   5.184 -0.0166 -0.5713  0.5146
 6347SOL    HW130677   3.909   2.885   5.147  1.3445 -1.0720 -0.2488
 6347SOL    HW230678   3.978   2.747   5.177 -1.1963 -1.9681 -2.6217
 6348SOL     OW30679   4.306   3.762   8.988  0.1549 -0.6023 -0.4376
 6348SOL    HW130680   4.314   3.776   9.082 -1.5172 -2.1334 -0.0749
 6348SOL    HW230681   4.360   3.685   8.972  1.3049  0.5459 -1.9997
 6349SOL     OW30682   2.323   2.721   1.252  0.1607  0.3300  0.0337
 6349SOL    HW130683   2.416   2.746   1.253  0.4647 -0.7740 -0.1411
 6349SOL    HW230684   2.289   2.806   1.279 -0.6800 -0.1750  0.5324
 6350SOL     OW30685   1.458   0.547   5.795 -0.4483  0.2897  0.0365
 6350SOL    HW130686   1.411   0.481   5.847 -3.0024  0.3599 -2.1600
 6350SOL    HW230687   1.423   0.632   5.820 -3.9662 -0.1609 -3.4213
 6351SOL     OW30688   3.796   0.199   5.989 -0.4734  0.2895 -0.1956
 6351SOL    HW130689   3.708   0.212   5.955 -0.7085  1.1389  0.7159
 6351SOL    HW230690   3.822   0.115   5.951 -0.8258  0.2936 -0.4427
 6352SOL     OW30691   0.429   0.889   8.860  0.1872 -0.3091 -0.2500
 6352SOL    HW130692   0.356   0.855   8.808  0.9209  0.6654 -1.9213
 6352SOL    HW230693   0.497   0.875   8.794 -1.1186  2.7741 -2.2715
 6353SOL     OW30694   4.201   0.651   2.068  0.3169  0.2245  0.2406
 6353SOL    HW130695   4.140   0.615   2.133 -0.8333  0.3232 -0.8026
 6353SOL    HW230696   4.197   0.583   2.001 -4.2714  0.4767  0.2788
 6354SOL     OW30697   4.072   2.690   3.510 -0.0907 -0.7599 -0.2162
 6354SOL    HW130698   4.097   2.624   3.447 -0.4634  0.5354 -1.7139
 6354SOL    HW230699   3.979   2.699   3.491 -0.0759  1.7392  0.7783
 6355SOL     OW30700   1.709   0.010   3.844 -0.2621 -0.0656  0.6296
 6355SOL    HW130701   1.633   4.690   3.853 -1.0144  1.0366  1.2704
 6355SOL    HW230702   1.699   0.032   3.751 -0.0615 -2.8593 -0.0445
 6356SOL     OW30703   3.886   0.745   6.760  0.2307 -0.0087  0.2200
 6356SOL    HW130704   3.862   0.743   6.667 -1.7275  1.7586  0.6931
 6356SOL    HW230705   3.908   0.654   6.778  1.6211  0.5946  1.6220
 6357SOL     OW30706   4.675   4.211   1.033 -0.4912 -0.0217 -0.2886
 6357SOL    HW130707   4.691   4.229   0.940  2.4595  2.5163  0.7299
 6357SOL    HW230708   0.023   4.184   1.065 -0.6256  0.3478  0.3757
 6358SOL     OW30709   0.625   2.358   1.703  0.7335  0.1303 -0.3368
 6358SOL    HW130710   0.672   2.398   1.776 -2.1756  0.7242  1.2467
 6358SOL    HW230711   0.588   2.436   1.661 -0.3536 -0.9395 -1.3771
 6359SOL     OW30712   3.021   1.403   5.197  0.7611 -0.4443  0.6781
 6359SOL    HW130713   3.073   1.323   5.188  0.3132 -0.8319  1.5223
 6359SOL    HW230714   3.093   1.465   5.192 -0.2293  0.5697 -1.2175
 6360SOL     OW30715   2.016   0.797   8.580 -0.5330  0.2855  0.7359
 6360SOL    HW130716   1.953   0.853   8.624 -2.3603 -0.2649 -1.1869
 6360SOL    HW230717   2.041   0.736   8.649  1.1127 -0.9504 -0.9373
 6361SOL     OW30718   2.656   0.602   9.244  0.1752 -0.2638 -0.1769
 6361SOL    HW130719   2.633   0.520   9.200  0.9584 -1.0223  0.8161
 6361SOL    HW230720   2.664   0.560   9.330  0.1857 -0.0979 -0.0971
 6362SOL     OW30721   1.309   4.156   2.828  0.0812  0.5511 -0.1253
 6362SOL    HW130722   1.335   4.131   2.739 -1.4830  1.0972 -0.7360
 6362SOL    HW230723   1.257   4.236   2.814  1.8843  1.4413 -1.7114
 6363SOL     OW30724   2.814   0.574   2.935  0.6437 -0.7430  0.2818
 6363SOL    HW130725   2.822   0.596   3.028 -1.4808 -0.3917  0.3811
 6363SOL    HW230726   2.815   0.479   2.946  1.3992 -0.8203 -0.4141
 6364SOL     OW30727   1.783   3.196   9.344 -0.1661  0.0404  0.1609
 6364SOL    HW130728   1.700   3.214   9.387 -1.0873 -1.3744 -1.0129
 6364SOL    HW230729   1.814   3.282   9.316 -0.5146  0.9470  2.6233
 6365SOL     OW30730   0.261   4.262  17.452  0.1353  0.1490 -0.1977
 6365SOL    HW130731   0.180   4.292  17.495  0.7448 -1.1799  1.8989
 6365SOL    HW230732   0.269   4.343  17.402 -1.0889 -0.6797 -1.7565
 6366SOL     OW30733   1.738   0.069   3.561  0.1570  0.5336  0.1805
 6366SOL    HW130734   1.655   0.059   3.514 -0.2399 -1.6359  1.3232
 6366SOL    HW230735   1.784   4.725   3.539  1.8563  1.6684 -0.4269
 6367SOL     OW30736   1.982   1.162  10.841 -0.2323  0.1932  0.1421
 6367SOL    HW130737   1.895   1.198  10.821 -1.0296 -2.3081 -0.7857
 6367SOL    HW230738   1.997   1.120  10.757 -0.9562 -0.1766  0.2041
 6368SOL     OW30739   3.890   2.469   8.560  0.1022 -0.1692  0.1469
 6368SOL    HW130740   3.960   2.520   8.601  1.9226 -2.3849 -0.2185
 6368SOL    HW230741   3.807   2.511   8.585  1.1359  0.6137  2.2347
 6369SOL     OW30742   0.040   1.457   7.628 -0.2034 -0.1461  0.0156
 6369SOL    HW130743   0.070   1.548   7.637  1.4404 -0.8565  1.6384
 6369SOL    HW230744   0.074   1.441   7.541 -0.7053 -2.8018  0.3128
 6370SOL     OW30745   1.051   0.690   5.209  0.1300 -0.2638  0.2496
 6370SOL    HW130746   1.138   0.682   5.171  0.5028  0.1021  1.0446
 6370SOL    HW230747   1.014   0.768   5.167 -1.6583 -0.3909  1.6004
 6371SOL     OW30748   3.294   2.111  14.496 -0.3845  0.1739  0.2129
 6371SOL    HW130749   3.205   2.146  14.502 -0.9612 -1.2099 -0.3919
 6371SOL    HW230750   3.348   2.175  14.543 -0.9209 -1.4444  2.9745
 6372SOL     OW30751   0.053   0.811   4.899 -0.2634  0.4259 -0.0938
 6372SOL    HW130752   0.024   0.780   4.813 -1.7244 -0.8278  0.8493
 6372SOL    HW230753   0.083   0.900   4.879 -2.9442  1.2312 -0.6648
 6373SOL     OW30754   3.975   1.264   9.054  0.6042  0.0264  0.6341
 6373SOL    HW130755   3.901   1.296   9.002  1.4854  1.8112  0.4901
 6373SOL    HW230756   4.048   1.301   9.004 -1.5337  1.9677 -1.0741
 6374SOL     OW30757   0.009   1.132   3.587 -0.1196 -0.2968 -0.1058
 6374SOL    HW130758   0.058   1.090   3.516 -0.4225 -0.5248 -0.1786
 6374SOL    HW230759   0.023   1.076   3.664 -1.2680  0.5034  0.6901
 6375SOL     OW30760   0.778   0.668   2.031  0.2687  0.0632  0.0384
 6375SOL    HW130761   0.721   0.591   2.036  1.5398 -0.8375  0.6141
 6375SOL    HW230762   0.791   0.681   2.125 -1.1644  2.3010 -0.0790
 6376SOL     OW30763   4.466   4.527   8.010  0.3785  0.1896 -0.4962
 6376SOL    HW130764   4.506   4.474   8.079  0.7884 -0.3857 -1.1605
 6376SOL    HW230765   4.457   4.612   8.053 -0.8782  0.1301 -0.6532
 6377SOL     OW30766   1.758   4.480   1.382 -0.1181 -0.1080 -0.2687
 6377SOL    HW130767   1.773   4.466   1.288  0.2865  1.3237 -0.4191
 6377SOL    HW230768   1.847   4.511   1.397  1.0640 -3.0085 -1.3567
 6378SOL     OW30769   1.537   2.263   6.563 -0.2071  0.0958 -0.6154
 6378SOL    HW130770   1.581   2.178   6.558  0.2518  0.4131 -1.9913
 6378SOL    HW230771   1.538   2.287   6.655  0.0011 -0.7981 -0.3848
 6379SOL     OW30772   2.097   0.386   3.514 -0.3750  0.2458  0.2317
 6379SOL    HW130773   2.007   0.372   3.544 -0.8192  1.9052 -0.3433
 6379SOL    HW230774   2.111   0.480   3.526 -0.5603  0.5358 -1.9117
 6380SOL     OW30775   0.217   1.269   8.410 -0.3427  0.4448  0.2829
 6380SOL    HW130776   0.191   1.189   8.455 -2.7167  0.3926 -1.2103
 6380SOL    HW230777   0.132   1.311   8.421  0.9528  2.8502  1.0362
 6381SOL     OW30778   2.335   0.377  17.258 -0.5925  0.2406 -0.2896
 6381SOL    HW130779   2.306   0.390  17.168  0.2610  3.0492 -0.1457
 6381SOL    HW230780   2.252   0.383  17.305 -0.4649  0.3248 -0.0740
 6382SOL     OW30781   0.634   3.445   9.458 -0.0397  0.6113 -0.0576
 6382SOL    HW130782   0.561   3.493   9.419 -0.8410 -0.1458  0.5027
 6382SOL    HW230783   0.616   3.368   9.406  0.0317  1.2997 -1.1053
 6383SOL     OW30784   0.731   0.897  11.632  0.7676 -0.4377 -0.0616
 6383SOL    HW130785   0.771   0.817  11.599  1.6410 -0.4795  1.0847
 6383SOL    HW230786   0.665   0.910  11.564  0.8250  1.5994  0.2572
 6384SOL     OW30787   0.213   0.701   8.497  0.1147  0.1598  0.1415
 6384SOL    HW130788   0.293   0.663   8.461 -0.3742 -2.6201  1.9961
 6384SOL    HW230789   0.158   0.718   8.420  0.0082  0.7314  0.3425
 6385SOL     OW30790   0.282   3.186   4.595  0.0972  0.0840  0.0530
 6385SOL    HW130791   0.373   3.201   4.568  0.1470 -0.4568 -0.0891
 6385SOL    HW230792   0.287   3.166   4.688  1.1947  1.3813  0.2755
 6386SOL     OW30793   0.976   2.982   2.770  0.2662 -0.2830 -0.3462
 6386SOL    HW130794   1.038   2.912   2.791 -0.1879 -0.7712 -0.6534
 6386SOL    HW230795   1.035   3.057   2.780  0.2679 -0.3059 -0.1763
 6387SOL     OW30796   3.398   2.794   9.075  0.1007  0.5072 -0.3660
 6387SOL    HW130797   3.342   2.734   9.124  0.5779 -0.3270 -0.8196
 6387SOL    HW230798   3.458   2.824   9.143 -2.3146 -0.0729  2.0155
 6388SOL     OW30799   0.175   1.084   4.797  0.0221 -0.1879  0.3468
 6388SOL    HW130800   0.232   1.141   4.849  0.5607 -1.0073  0.6399
 6388SOL    HW230801   0.243   1.041   4.745 -1.9911 -1.6403 -1.0827
 6389SOL     OW30802   2.375   2.365   3.758  0.3237  0.1837 -0.2895
 6389SOL    HW130803   2.338   2.323   3.680  0.4817 -0.9176  0.2203
 6389SOL    HW230804   2.353   2.300   3.826  1.2541  0.4502  0.2622
 6390SOL     OW30805   0.255   4.381  15.400  0.1072  0.1452 -0.5023
 6390SOL    HW130806   0.327   4.390  15.338  2.2590  0.6854  2.0480
 6390SOL    HW230807   0.174   4.404  15.355  0.9150  0.8993 -1.5593
 6391SOL     OW30808   0.004   2.377   9.860  0.2426 -0.4507  0.1448
 6391SOL    HW130809   0.032   2.467   9.877 -0.5747 -0.0647 -0.5904
 6391SOL    HW230810   4.656   2.383   9.817  0.5816 -1.6937 -0.7004
 6392SOL     OW30811   3.226   2.454   5.703  0.3468 -0.3007 -0.1197
 6392SOL    HW130812   3.202   2.396   5.775  1.7789 -1.4943 -0.6103
 6392SOL    HW230813   3.153   2.515   5.717  1.1168 -0.1388  3.1441
 6393SOL     OW30814   3.810   1.574  17.624 -0.0643  0.0892 -0.7380
 6393SOL    HW130815   3.818   1.612  17.712  1.2673  0.7100 -1.1209
 6393SOL    HW230816   3.903   1.586  17.602  0.4396 -0.9399  0.7894
 6394SOL     OW30817   0.594   0.311   6.983 -0.0758 -0.1109 -0.0539
 6394SOL    HW130818   0.543   0.304   7.064 -1.8608  0.8630 -1.1114
 6394SOL    HW230819   0.592   0.400   6.949 -0.6028 -0.5060 -1.0341
 6395SOL     OW30820   0.882   4.563   2.124 -0.1782  0.1074  0.0433
 6395SOL    HW130821   0.819   4.499   2.092 -1.6058  1.4303  0.1998
 6395SOL    HW230822   0.854   4.588   2.212 -1.8092  1.9124 -0.9824
 6396SOL     OW30823   1.967   0.582   8.819 -0.5451  0.4827 -1.2797
 6396SOL    HW130824   1.872   0.580   8.810 -0.2123 -1.0673 -4.3971
 6396SOL    HW230825   1.981   0.584   8.914  2.0377  0.1758 -1.6360
 6397SOL     OW30826   4.121   0.328   9.318  0.4982 -0.0880 -0.1006
 6397SOL    HW130827   4.209   0.331   9.280  0.1184 -1.8308 -1.1299
 6397SOL    HW230828   4.071   0.388   9.263  2.3829  0.5746 -1.1185
 6398SOL     OW30829   3.862   0.303   3.425 -0.2954  0.3244  0.0355
 6398SOL    HW130830   3.854   0.398   3.427 -0.3532  0.3244 -0.2161
 6398SOL    HW230831   3.775   0.272   3.399 -0.1174  0.3165 -0.5569
 6399SOL     OW30832   2.307   1.030  17.059 -0.2866 -0.1822  0.2898
 6399SOL    HW130833   2.373   0.990  17.116 -0.6292 -0.6638  0.3522
 6399SOL    HW230834   2.296   1.114  17.103  2.2273  0.1411  0.2849
 6400SOL     OW30835   2.276   1.997  17.081  0.0032  0.0264  0.4640
 6400SOL    HW130836   2.348   1.990  17.019 -0.3581 -2.3724  0.3218
 6400SOL    HW230837   2.201   1.969  17.028 -0.2362  1.5058  0.0226
 6401SOL     OW30838   3.379   4.007   5.953  0.4827  0.0116  0.5438
 6401SOL    HW130839   3.329   3.944   6.004  0.6835 -0.8441 -0.3181
 6401SOL    HW230840   3.327   4.002   5.873 -2.9490 -0.2892  2.8164
 6402SOL     OW30841   1.980   3.443   1.752  0.3517  0.2959  0.1579
 6402SOL    HW130842   2.001   3.443   1.659 -1.1814  1.0320 -0.1949
 6402SOL    HW230843   1.967   3.537   1.769  0.2700  0.2588  0.3008
 6403SOL     OW30844   2.825   0.338   5.668  0.2682 -0.7440 -0.1446
 6403SOL    HW130845   2.801   0.300   5.753  0.9588  0.3859  0.5562
 6403SOL    HW230846   2.764   0.282   5.621 -0.2685 -1.0163  0.8696
 6404SOL     OW30847   0.661   2.723   6.522 -0.0633 -0.2777  0.4629
 6404SOL    HW130848   0.669   2.794   6.459 -0.2679  1.0280  1.9009
 6404SOL    HW230849   0.643   2.649   6.465  0.6035  0.4081 -0.6273
 6405SOL     OW30850   4.192   4.227   3.117  0.7345  0.6583 -0.1590
 6405SOL    HW130851   4.283   4.245   3.095  0.4986 -1.0496 -2.5926
 6405SOL    HW230852   4.202   4.132   3.131 -3.3893  0.4876  1.7019
 6406SOL     OW30853   4.445   2.298   4.462 -0.4984  0.0438  0.0293
 6406SOL    HW130854   4.406   2.233   4.520 -3.4311  1.1129 -0.7280
 6406SOL    HW230855   4.366   2.333   4.421 -1.0917 -1.9513 -0.5487
 6407SOL     OW30856   3.519   4.594   2.941 -0.3259 -0.3289  0.3591
 6407SOL    HW130857   3.514   4.499   2.932 -0.8877 -0.1298 -1.3293
 6407SOL    HW230858   3.609   4.606   2.913  0.1281 -0.0717  1.8973
 6408SOL     OW30859   1.789   4.534   2.386 -0.2452 -0.0387  0.0609
 6408SOL    HW130860   1.857   4.587   2.430  0.3470 -3.4190  3.2410
 6408SOL    HW230861   1.843   4.466   2.346  0.3961  0.6952 -0.3096
 6409SOL     OW30862   2.303   4.577   5.553 -0.1154 -0.1465 -0.0949
 6409SOL    HW130863   2.326   4.651   5.497  1.2915 -1.7684 -1.6339
 6409SOL    HW230864   2.264   4.515   5.491  3.4187 -1.5911 -0.8758
 6410SOL     OW30865   3.486   2.522   2.490 -0.1934  0.1571 -0.3607
 6410SOL    HW130866   3.404   2.546   2.448 -0.1738  0.9496  0.0416
 6410SOL    HW230867   3.461   2.439   2.530  2.9631 -1.4294 -1.6538
 6411SOL     OW30868   2.081   2.924  10.645  0.1660 -0.9958 -0.4214
 6411SOL    HW130869   2.138   2.942  10.720  1.2595 -2.9880 -0.7884
 6411SOL    HW230870   2.120   2.837  10.636 -1.3990 -1.6449 -0.8751
 6412SOL     OW30871   0.791   0.139   0.532 -0.0826 -0.4734  0.1739
 6412SOL    HW130872   0.878   0.137   0.492  0.2401 -0.8359  0.8890
 6412SOL    HW230873   0.745   0.093   0.461  1.8064  2.0482 -2.6857
 6413SOL     OW30874   3.213   2.066   9.034 -0.1421 -0.1796 -0.5868
 6413SOL    HW130875   3.127   2.081   8.995  0.8654  1.5626 -2.1327
 6413SOL    HW230876   3.184   2.057   9.125  0.9233  3.3135  0.0881
 6414SOL     OW30877   4.052   1.419   3.388  0.2368  0.2386 -0.3544
 6414SOL    HW130878   3.981   1.355   3.391  0.0002  0.4754 -0.9730
 6414SOL    HW230879   4.114   1.347   3.403 -0.3654 -0.3632 -0.7096
 6415SOL     OW30880   0.527   3.728   1.730 -0.1815 -0.0226  0.2391
 6415SOL    HW130881   0.564   3.640   1.716  2.3482  1.1126 -0.1721
 6415SOL    HW230882   0.441   3.719   1.689  0.1299 -1.4166 -0.1217
 6416SOL     OW30883   3.611   4.029   0.675  0.1605  0.3416  0.0854
 6416SOL    HW130884   3.593   4.022   0.581 -1.3232  1.2288  0.3036
 6416SOL    HW230885   3.529   4.069   0.704  0.2034  0.9610 -0.6533
 6417SOL     OW30886   3.258   1.186   6.967 -0.2260  0.1311  0.0037
 6417SOL    HW130887   3.352   1.201   6.963 -0.3839  1.7899  2.7980
 6417SOL    HW230888   3.252   1.096   6.933 -0.8343  1.0036 -2.1946
 6418SOL     OW30889   2.594   2.996   8.564 -0.0797 -0.0368  0.2393
 6418SOL    HW130890   2.549   3.019   8.645  0.9348 -3.6508  1.8214
 6418SOL    HW230891   2.596   2.900   8.569 -1.7817 -0.2031 -1.9397
 6419SOL     OW30892   3.895   1.443   0.170 -0.4440  0.0496 -0.6907
 6419SOL    HW130893   3.815   1.399   0.141  0.9837 -1.2896 -2.5934
 6419SOL    HW230894   3.880   1.533   0.140  2.6478  0.6605 -0.4466
 6420SOL     OW30895   1.846   2.047   5.553  0.3699 -0.0433 -0.3442
 6420SOL    HW130896   1.899   2.116   5.513  0.7314 -0.0960  0.0424
 6420SOL    HW230897   1.842   1.985   5.480  3.4776 -1.8992  1.0796
 6421SOL     OW30898   4.719   0.293   5.553  0.1253  0.2006 -0.1616
 6421SOL    HW130899   0.038   0.296   5.630  0.3945 -0.0708 -0.3491
 6421SOL    HW230900   0.039   0.279   5.478 -0.3171  1.9564 -0.8271
 6422SOL     OW30901   0.274   0.638   4.383 -0.2780 -0.0555 -0.6133
 6422SOL    HW130902   0.306   0.591   4.460  1.9043 -0.4096 -1.7194
 6422SOL    HW230903   0.185   0.607   4.370 -0.4534  0.0038  0.4155
 6423SOL     OW30904   3.822   2.693   2.142 -0.2792 -0.2253  0.1472
 6423SOL    HW130905   3.909   2.669   2.110 -0.9226 -0.8681 -1.1452
 6423SOL    HW230906   3.784   2.605   2.145  1.8916 -1.1231  0.9549
 6424SOL     OW30907   1.795   4.222   8.089  0.1853  0.0399  0.4569
 6424SOL    HW130908   1.850   4.166   8.145 -0.1490 -0.8332 -0.0816
 6424SOL    HW230909   1.738   4.153   8.056 -2.2926  0.4146  3.9823
 6425SOL     OW30910   1.883   0.337   5.410 -0.4090  0.1378 -0.0280
 6425SOL    HW130911   1.834   0.254   5.404 -0.4654  0.1379  0.4608
 6425SOL    HW230912   1.952   0.323   5.345 -0.3429 -1.0401  0.2908
 6426SOL     OW30913   4.173   2.311   6.164 -0.5570 -0.6652  0.4829
 6426SOL    HW130914   4.231   2.250   6.119  1.1999  0.9704  0.5186
 6426SOL    HW230915   4.132   2.265   6.238 -1.6284 -0.8954 -0.2527
 6427SOL     OW30916   2.308   2.348   9.312  0.2372  0.0521  0.3374
 6427SOL    HW130917   2.293   2.380   9.401  1.4800 -0.9459  0.9108
 6427SOL    HW230918   2.395   2.309   9.321  0.5956  0.5635 -0.8879
 6428SOL     OW30919   0.804   3.600   2.851  0.3151 -0.2441  0.1929
 6428SOL    HW130920   0.820   3.602   2.946  0.0520  1.5085  0.2055
 6428SOL    HW230921   0.841   3.682   2.819 -0.2377 -0.6137 -1.3596
 6429SOL     OW30922   2.216   0.144   8.671 -0.5722  0.1123 -0.4744
 6429SOL    HW130923   2.120   0.136   8.671 -0.5171 -0.5853 -0.4756
 6429SOL    HW230924   2.226   0.236   8.649  4.1945 -0.4418 -0.5381
 6430SOL     OW30925   0.781   0.539   2.392  1.0784  0.0869  0.6489
 6430SOL    HW130926   0.874   0.517   2.386  1.2248  0.5709  1.1615
 6430SOL    HW230927   0.748   0.483   2.321  0.8745  0.5893  0.3443
 6431SOL     OW30928   4.489   3.773   5.488  0.0098  0.3892  0.1652
 6431SOL    HW130929   4.571   3.819   5.503  0.4815 -0.3185 -0.2045
 6431SOL    HW230930   4.418   3.837   5.497 -0.0841  0.2496  0.4300
 6432SOL     OW30931   1.521   0.708  12.291  0.3465 -0.2296 -0.4928
 6432SOL    HW130932   1.428   0.693  12.305  0.7582 -0.9248  1.4908
 6432SOL    HW230933   1.571   0.671  12.364 -0.2156  1.5217  0.7970
 6433SOL     OW30934   4.063   4.405  16.612 -0.3281 -0.6325  0.3833
 6433SOL    HW130935   4.080   4.336  16.676  0.3337  0.6141  1.5493
 6433SOL    HW230936   3.970   4.426  16.611  0.3086  2.1402  0.6353
 6434SOL     OW30937   1.805   3.528  12.378 -0.3682 -0.1250 -0.4275
 6434SOL    HW130938   1.875   3.469  12.350 -0.1746 -0.2999  0.4412
 6434SOL    HW230939   1.854   3.599  12.419 -0.3859 -0.2045 -0.2714
 6435SOL     OW30940   3.144   2.264   2.282  0.1766  0.1530 -0.1127
 6435SOL    HW130941   3.211   2.267   2.214  0.0532  0.1796 -0.2328
 6435SOL    HW230942   3.071   2.226   2.234  1.9224  0.8238 -3.2334
 6436SOL     OW30943   2.163   2.219  14.391 -0.0335  0.0891 -0.0880
 6436SOL    HW130944   2.131   2.235  14.302 -0.2104  0.1050 -0.0205
 6436SOL    HW230945   2.125   2.288  14.446 -1.4312 -1.4138  0.8078
 6437SOL     OW30946   1.721   0.585   1.187  0.1369  0.8072 -0.0444
 6437SOL    HW130947   1.789   0.518   1.199  0.7055  1.4988  0.5864
 6437SOL    HW230948   1.657   0.545   1.246 -0.4325  1.9994  0.1392
 6438SOL     OW30949   2.289   0.679  10.734 -0.4007  0.1743  0.4616
 6438SOL    HW130950   2.293   0.616  10.806 -0.2756 -2.1178 -1.5174
 6438SOL    HW230951   2.350   0.746  10.765 -2.5984  2.4449 -0.1770
 6439SOL     OW30952   2.213   1.983   3.045  0.0441 -0.2756  0.3386
 6439SOL    HW130953   2.275   1.963   3.115 -0.1150 -2.7306 -0.2142
 6439SOL    HW230954   2.203   2.076   3.065  2.3490  0.2804 -1.1166
 6440SOL     OW30955   2.006   0.760   5.752 -0.1586 -0.6478 -0.4596
 6440SOL    HW130956   2.044   0.767   5.840 -0.2514  2.1378 -0.6259
 6440SOL    HW230957   1.916   0.763   5.784 -0.7327  0.4605 -2.2142
 6441SOL     OW30958   0.777   1.877   8.223  0.5581  0.6380 -0.5712
 6441SOL    HW130959   0.849   1.924   8.265  1.2469  0.5301 -1.6394
 6441SOL    HW230960   0.703   1.916   8.271  0.0182 -0.0678 -0.8312
 6442SOL     OW30961   0.996   1.190   3.788 -0.1168 -0.0442  0.3429
 6442SOL    HW130962   0.979   1.096   3.793  1.5895 -0.4057 -0.6469
 6442SOL    HW230963   0.905   1.216   3.800  0.1464  2.2978 -3.0352
 6443SOL     OW30964   3.285   3.378   8.128  0.3163 -0.0971  0.0988
 6443SOL    HW130965   3.288   3.395   8.222 -1.7842 -0.7840  0.2872
 6443SOL    HW230966   3.191   3.393   8.112  0.3316 -0.3118 -0.1936
 6444SOL     OW30967   3.777   0.329   2.778 -0.0687 -0.0869 -0.2938
 6444SOL    HW130968   3.810   0.255   2.727 -0.0918 -0.6517  0.5101
 6444SOL    HW230969   3.836   0.393   2.739 -0.1636 -0.4200 -0.9698
 6445SOL     OW30970   1.780   2.143  16.084 -0.5709 -0.0215 -0.0708
 6445SOL    HW130971   1.790   2.048  16.074  2.1256  0.2035  0.6351
 6445SOL    HW230972   1.766   2.163  15.992  0.0492 -0.9397 -0.3642
 6446SOL     OW30973   4.716   0.126  10.086 -0.3804  0.0350  0.4732
 6446SOL    HW130974   4.705   0.131  10.181 -0.5182  0.9387  0.4089
 6446SOL    HW230975   4.679   0.213  10.075 -1.0519 -0.6587 -2.6092
 6447SOL     OW30976   1.017   2.497  10.753  0.7550 -0.0581  0.2433
 6447SOL    HW130977   0.986   2.588  10.753 -0.8624 -0.6137 -0.8677
 6447SOL    HW230978   1.073   2.490  10.675  0.7004 -0.5716  0.2492
 6448SOL     OW30979   0.208   1.382   5.964  0.1103 -0.2759  0.7674
 6448SOL    HW130980   0.278   1.397   5.901 -1.1501  2.8484  0.1062
 6448SOL    HW230981   0.215   1.286   5.964 -1.6417 -0.4208 -1.0325
 6449SOL     OW30982   0.979   0.433   5.759 -0.0144 -0.4020  0.4136
 6449SOL    HW130983   0.889   0.404   5.741  0.0644  0.2760 -1.0522
 6449SOL    HW230984   0.988   0.427   5.854  0.3376 -0.8903  0.3466
 6450SOL     OW30985   3.079   0.561  12.570  0.2841 -0.3382  0.2045
 6450SOL    HW130986   3.040   0.641  12.535 -0.0303 -0.3944  0.4232
 6450SOL    HW230987   3.170   0.559  12.539  0.5108 -0.0456  0.8464
 6451SOL     OW30988   1.484   4.336   5.955  0.2725  0.3835  0.3872
 6451SOL    HW130989   1.573   4.304   5.973 -0.6446 -2.1345  0.4300
 6451SOL    HW230990   1.500   4.425   5.924 -2.5413  0.0374 -2.0611
 6452SOL     OW30991   1.649   2.028  11.562 -0.3178  0.0178  0.0939
 6452SOL    HW130992   1.705   2.042  11.638 -1.0344  2.9102  0.1069
 6452SOL    HW230993   1.628   2.117  11.533  1.7443  0.3921 -0.2948
 6453SOL     OW30994   2.891   2.817   8.822  0.3144  0.0994 -0.0194
 6453SOL    HW130995   2.814   2.765   8.847  0.1560  0.0152 -0.6879
 6453SOL    HW230996   2.927   2.829   8.910 -1.2487 -1.7787  0.8912
 6454SOL     OW30997   0.837   0.176   6.976  0.0559  0.0868  0.1886
 6454SOL    HW130998   0.752   0.219   6.977 -0.7199 -1.4449 -0.8033
 6454SOL    HW230999   0.836   0.136   6.889  1.1739 -1.6184  0.9701
 6455SOL     OW31000   2.406   4.236   3.621 -0.5922 -0.1830  0.6344
 6455SOL    HW131001   2.431   4.246   3.530  0.5373  0.1924  0.9969
 6455SOL    HW231002   2.376   4.324   3.642 -2.5871 -0.5481 -0.6157
 6456SOL     OW31003   1.894   3.746   4.319 -0.1654 -0.2475 -0.0674
 6456SOL    HW131004   1.903   3.758   4.224 -2.4532  2.7151  0.0850
 6456SOL    HW231005   1.970   3.691   4.333  1.1700  1.3125 -1.1726
 6457SOL     OW31006   0.446   0.493   9.422 -0.2741 -0.1023 -0.5291
 6457SOL    HW131007   0.386   0.422   9.399  0.4779 -0.8423 -0.2031
 6457SOL    HW231008   0.423   0.510   9.513  0.0355 -3.3746  0.1572
 6458SOL     OW31009   0.554   1.868   1.230  0.1638 -0.2899 -0.0661
 6458SOL    HW131010   0.483   1.916   1.272  0.0663 -1.0780  0.6774
 6458SOL    HW231011   0.631   1.921   1.252 -0.3959 -0.1409  1.5645
 6459SOL     OW31012   3.400   0.892   7.401 -0.1069  0.3708 -0.3749
 6459SOL    HW131013   3.421   0.827   7.468  0.7612  0.2529 -0.7668
 6459SOL    HW231014   3.467   0.960   7.402 -0.7286  1.0348 -1.9260
 6460SOL     OW31015   3.556   2.485   7.458 -0.8198 -0.8538  0.0354
 6460SOL    HW131016   3.519   2.572   7.444  0.3993 -0.3506  0.0246
 6460SOL    HW231017   3.475   2.443   7.488 -1.7894 -0.6942 -2.3010
 6461SOL     OW31018   0.893   0.281  12.498 -0.5273 -0.2776 -0.4270
 6461SOL    HW131019   0.873   0.220  12.569 -1.0850 -0.1207 -0.4534
 6461SOL    HW231020   0.977   0.323  12.518 -1.2482  0.2836  1.4007
 6462SOL     OW31021   1.599   0.040   7.517  0.0659  0.0377 -0.4662
 6462SOL    HW131022   1.574   0.088   7.439 -1.1954 -0.0815 -0.1260
 6462SOL    HW231023   1.695   0.046   7.516 -0.0177  1.3312 -1.0388
 6463SOL     OW31024   2.820   3.547   0.200  0.4896  0.4325  0.3904
 6463SOL    HW131025   2.871   3.586   0.130  0.2268 -0.6890 -0.4286
 6463SOL    HW231026   2.877   3.471   0.217 -0.0647  0.3262  1.8164
 6464SOL     OW31027   3.352   1.179   9.286 -0.4788  0.2075  0.9854
 6464SOL    HW131028   3.349   1.270   9.315  1.5951  0.2221  1.2085
 6464SOL    HW231029   3.446   1.176   9.265 -0.7311 -1.3943  0.1248
 6465SOL     OW31030   3.548   2.954   7.043 -0.5919 -0.2998  0.2715
 6465SOL    HW131031   3.508   2.889   6.984 -0.6609 -0.5716  0.6156
 6465SOL    HW231032   3.472   3.009   7.059 -1.0420 -0.7006 -0.4503
 6466SOL     OW31033   3.304   3.430  14.921 -0.4367 -0.6295 -0.2942
 6466SOL    HW131034   3.250   3.423  15.000  0.0895 -2.1833 -0.0798
 6466SOL    HW231035   3.257   3.366  14.868  1.0806 -2.7872  0.9603
 6467SOL     OW31036   2.815   2.928   3.852 -0.0853 -0.0935 -0.0908
 6467SOL    HW131037   2.843   2.924   3.761  0.7077  0.6951  0.1204
 6467SOL    HW231038   2.750   2.997   3.847  1.1588  1.0192 -0.8337
 6468SOL     OW31039   2.358   4.047   5.510 -0.2928  0.1975  0.3957
 6468SOL    HW131040   2.445   4.007   5.515 -0.3857  0.1626  1.6884
 6468SOL    HW231041   2.364   4.093   5.426 -0.4488 -0.7223 -0.1265
 6469SOL     OW31042   1.375   0.715   8.451  0.0034 -0.6309  0.0138
 6469SOL    HW131043   1.349   0.624   8.467  0.7611 -0.9325 -0.4934
 6469SOL    HW231044   1.465   0.708   8.420 -0.5598 -1.9583 -1.2835
 6470SOL     OW31045   1.457   2.794   3.832 -0.1808 -0.1692 -0.1898
 6470SOL    HW131046   1.528   2.814   3.893 -0.8068  1.9396 -0.1246
 6470SOL    HW231047   1.491   2.846   3.759 -0.5543 -1.9186 -1.6118
 6471SOL     OW31048   3.791   1.818  11.747 -0.2241 -0.1724 -0.2758
 6471SOL    HW131049   3.752   1.813  11.660  0.9935 -1.7863 -0.7240
 6471SOL    HW231050   3.798   1.913  11.761 -0.0253 -0.1487 -0.5297
 6472SOL     OW31051   2.481   1.944   6.684  0.2929  0.0998  0.7224
 6472SOL    HW131052   2.512   1.863   6.725  0.8149 -1.0576 -1.9506
 6472SOL    HW231053   2.497   1.935   6.590 -0.3442  0.8223  0.5400
 6473SOL     OW31054   2.872   1.569   2.235 -0.3670 -0.1224 -0.1438
 6473SOL    HW131055   2.794   1.621   2.215 -1.2843 -2.0171 -1.5163
 6473SOL    HW231056   2.927   1.622   2.292  1.0347  0.2353 -1.8221
 6474SOL     OW31057   0.097   0.263  16.547 -0.3363  0.3741 -0.4551
 6474SOL    HW131058   0.056   0.261  16.634  1.4135  2.1874  0.3977
 6474SOL    HW231059   0.092   0.358  16.539 -0.9803  0.3630 -0.2114
 6475SOL     OW31060   3.352   0.688  11.907  0.0446  0.3225  0.0182
 6475SOL    HW131061   3.325   0.736  11.829 -2.0388 -0.2831  0.3563
 6475SOL    HW231062   3.335   0.601  11.871  2.1020  0.3926 -1.0864
 6476SOL     OW31063   4.453   3.248  10.684 -0.3057  0.2715 -0.1301
 6476SOL    HW131064   4.404   3.178  10.726  0.0711 -0.8906 -1.6223
 6476SOL    HW231065   4.493   3.287  10.761  1.2767 -1.8762  0.1113
 6477SOL     OW31066   2.098   3.707  15.753  0.4774 -0.1756  0.1050
 6477SOL    HW131067   2.025   3.670  15.703  0.7639  0.6966 -0.9563
 6477SOL    HW231068   2.057   3.712  15.839 -1.1256  0.7582 -0.7258
 6478SOL     OW31069   1.810   1.037   1.729 -0.6464 -0.1365  0.1540
 6478SOL    HW131070   1.794   1.024   1.636 -1.0225 -3.1437  0.6488
 6478SOL    HW231071   1.731   1.077   1.768  0.9350 -0.1714  3.3876
 6479SOL     OW31072   4.385   2.890   8.929 -1.3098  0.0092  0.2051
 6479SOL    HW131073   4.467   2.842   8.939 -1.8929 -0.3598  3.3195
 6479SOL    HW231074   4.393   2.960   8.995  0.7507  0.5691 -0.6461
 6480SOL     OW31075   2.401   2.581   9.144 -0.5303  0.1366  0.4060
 6480SOL    HW131076   2.456   2.632   9.204  1.2138 -0.5056 -0.6432
 6480SOL    HW231077   2.377   2.507   9.200  0.3855 -1.4329 -1.3013
 6481SOL     OW31078   0.523   0.644   4.266 -0.0305 -0.2101  0.1834
 6481SOL    HW131079   0.569   0.622   4.347  0.4842  0.5523  0.0933
 6481SOL    HW231080   0.431   0.641   4.292  0.4550 -0.6003  1.8192
 6482SOL     OW31081   2.535   1.236  11.243  0.1873  0.1779 -0.1904
 6482SOL    HW131082   2.627   1.263  11.242  0.1907  0.2258  0.7354
 6482SOL    HW231083   2.493   1.290  11.177 -0.7416  1.7258  1.6504
 6483SOL     OW31084   0.225   3.232   5.641  0.3211  0.5127 -0.0457
 6483SOL    HW131085   0.181   3.171   5.581  1.5788 -0.5111  0.0557
 6483SOL    HW231086   0.251   3.174   5.713 -0.3145  0.4056  0.0978
 6484SOL     OW31087   1.687   4.711   2.880 -0.0321 -0.0641  0.2344
 6484SOL    HW131088   1.692   4.647   2.952  1.4599 -2.5588 -2.0858
 6484SOL    HW231089   1.737   4.663   2.814 -1.2074  0.2822 -0.8901
 6485SOL     OW31090   2.000   3.370   6.191 -0.8425 -0.0451 -0.2151
 6485SOL    HW131091   1.922   3.332   6.150 -0.2806  0.8576 -2.1058
 6485SOL    HW231092   2.062   3.313   6.146  1.3204  2.7656 -0.7594
 6486SOL     OW31093   3.112   1.381   4.676  0.1246 -0.5424  0.6264
 6486SOL    HW131094   3.118   1.323   4.599 -0.8673  0.1922 -0.0091
 6486SOL    HW231095   3.027   1.424   4.674 -0.4301 -1.6995 -0.7714
 6487SOL     OW31096   2.582   0.390   4.559  0.5104 -0.0461 -0.0271
 6487SOL    HW131097   2.564   0.432   4.475  0.0753  2.6017  1.3806
 6487SOL    HW231098   2.660   0.339   4.538 -0.6719 -1.4375 -1.0045
 6488SOL     OW31099   0.692   0.419   8.367  0.3564  0.2317  0.1438
 6488SOL    HW131100   0.647   0.345   8.326  1.8271 -0.8698  0.4912
 6488SOL    HW231101   0.736   0.454   8.290  2.1073 -0.2076  0.9527
 6489SOL     OW31102   3.366   4.419  10.109 -0.6194  0.1848  0.3872
 6489SOL    HW131103   3.446   4.471  10.097 -1.5988  1.3637 -0.9099
 6489SOL    HW231104   3.375   4.355  10.039  0.8203  1.5774 -0.7108
 6490SOL     OW31105   2.964   4.661  17.547 -0.0063  0.2696 -0.1182
 6490SOL    HW131106   3.057   4.654  17.524 -0.0069  3.1469 -1.0080
 6490SOL    HW231107   2.945   4.569  17.563 -1.3437  0.2984 -1.5499
 6491SOL     OW31108   3.804   3.650  15.279 -0.5515 -0.4896 -0.5628
 6491SOL    HW131109   3.756   3.582  15.232 -0.2388 -0.4082 -1.0034
 6491SOL    HW231110   3.832   3.697  15.201  1.9096  0.7562  1.0874
 6492SOL     OW31111   3.552   3.070  17.702 -0.2599  0.4898  0.0623
 6492SOL    HW131112   3.494   3.107   0.019 -0.9262  2.7118 -1.7728
 6492SOL    HW231113   3.636   3.091  17.742 -0.1984 -0.0830  0.2297
 6493SOL     OW31114   0.238   1.758   8.308  0.3323  0.2204 -0.4241
 6493SOL    HW131115   0.333   1.752   8.294  0.3147 -0.0652 -0.4253
 6493SOL    HW231116   0.202   1.704   8.238 -0.8163  0.1784  0.1903
 6494SOL     OW31117   0.811   2.010   2.632 -0.7240  0.1273 -0.1087
 6494SOL    HW131118   0.870   1.935   2.626 -0.7502  0.2377 -1.5297
 6494SOL    HW231119   0.747   1.970   2.692  2.3555 -2.5258  1.4583
 6495SOL     OW31120   2.651   4.192   7.434 -0.1888  0.2005  0.0853
 6495SOL    HW131121   2.661   4.169   7.526 -1.4635  0.9221  0.4071
 6495SOL    HW231122   2.743   4.198   7.408  0.2129 -1.8799  1.0250
 6496SOL     OW31123   2.168   2.778   3.071  0.0372  0.1709  0.0179
 6496SOL    HW131124   2.152   2.796   3.164 -0.5899  0.1191 -0.0862
 6496SOL    HW231125   2.258   2.805   3.049 -0.3838  1.7170  0.1731
 6497SOL     OW31126   2.736   1.351   6.393  0.0762  0.2760 -0.1249
 6497SOL    HW131127   2.753   1.267   6.436 -1.9534 -0.5702 -0.9413
 6497SOL    HW231128   2.640   1.344   6.390  0.1312  0.2096 -1.5538
 6498SOL     OW31129   1.114   0.854   4.726 -0.3198  0.3409  0.1730
 6498SOL    HW131130   1.053   0.895   4.787 -1.4521 -1.4049  0.2100
 6498SOL    HW231131   1.189   0.914   4.730 -1.8957  2.4039 -0.8844
 6499SOL     OW31132   3.555   0.409   4.005  0.4917 -0.6178  0.2891
 6499SOL    HW131133   3.478   0.465   4.004  0.2679 -0.9304  0.1972
 6499SOL    HW231134   3.577   0.428   3.913 -0.4076 -2.9021 -0.3919
 6500SOL     OW31135   2.489   0.976   9.893 -0.0154  0.5134  0.2945
 6500SOL    HW131136   2.552   0.929   9.948 -1.8676 -0.6406  1.3936
 6500SOL    HW231137   2.533   1.060   9.879 -1.6900  1.3426  0.0669
 6501SOL     OW31138   4.205   0.787  12.786  0.5395 -0.4852  0.2523
 6501SOL    HW131139   4.252   0.719  12.834  0.1675 -0.9178  0.0030
 6501SOL    HW231140   4.257   0.858  12.823  0.3206 -0.5844  0.7458
 6502SOL     OW31141   3.557   3.398   6.415 -0.3262  0.1112 -0.2555
 6502SOL    HW131142   3.515   3.327   6.367  1.0198 -2.8191  2.9412
 6502SOL    HW231143   3.596   3.443   6.339 -1.8391 -0.1322 -1.1840
 6503SOL     OW31144   2.139   0.628   3.623 -0.0514 -0.1531  0.3705
 6503SOL    HW131145   2.137   0.715   3.583  0.2980  0.0564  0.8117
 6503SOL    HW231146   2.177   0.638   3.710  2.4619 -0.5813 -0.6915
 6504SOL     OW31147   1.282   0.208   2.837 -0.0155  0.4700 -0.2430
 6504SOL    HW131148   1.242   0.272   2.778  0.4018  0.4589 -0.5405
 6504SOL    HW231149   1.314   0.272   2.900 -0.3304 -0.5509  0.9589
 6505SOL     OW31150   1.775   0.545   4.204  0.1365  0.2234 -0.3705
 6505SOL    HW131151   1.692   0.566   4.162 -0.8476  2.0013  2.5007
 6505SOL    HW231152   1.810   0.473   4.152 -0.1052  0.1298 -0.3986
 6506SOL     OW31153   2.132   4.071   1.338 -0.4786 -0.3256 -0.5785
 6506SOL    HW131154   2.069   4.135   1.304  0.9586  1.4949  0.1661
 6506SOL    HW231155   2.093   3.990   1.306 -1.8825  1.5294 -3.5725
 6507SOL     OW31156   3.289   4.156   1.564 -0.0039 -0.0516  0.1303
 6507SOL    HW131157   3.246   4.230   1.606 -0.7541 -0.6144  0.3582
 6507SOL    HW231158   3.364   4.201   1.526  1.2565 -1.9190  0.3721
 6508SOL     OW31159   0.663   2.274   9.807  0.1412 -0.2742  0.5432
 6508SOL    HW131160   0.670   2.319   9.723  0.8556 -0.2801  0.5953
 6508SOL    HW231161   0.694   2.332   9.876  3.1384  2.1802 -2.8767
 6509SOL     OW31162   4.169   4.164   2.745  0.4189  0.1622 -1.0030
 6509SOL    HW131163   4.239   4.111   2.784  1.6767  3.4838  1.3400
 6509SOL    HW231164   4.200   4.164   2.654 -1.7328  1.2507 -1.7333
 6510SOL     OW31165   4.352   1.310  15.420 -0.5492  1.0027  0.2741
 6510SOL    HW131166   4.263   1.276  15.406  0.6379 -2.1511  0.3681
 6510SOL    HW231167   4.371   1.290  15.512 -1.8059 -1.7473 -0.0519
 6511SOL     OW31168   1.274   1.796   0.469 -0.1753  0.3202  0.6181
 6511SOL    HW131169   1.213   1.870   0.472  2.3089  2.4161 -0.0604
 6511SOL    HW231170   1.302   1.805   0.560  0.5235  0.8122  0.3538
 6512SOL     OW31171   1.825   4.579   3.438 -0.2091  0.0993  0.2917
 6512SOL    HW131172   1.794   4.495   3.473 -1.1275  0.2470 -0.1818
 6512SOL    HW231173   1.913   4.571   3.476 -0.2459  3.1575  0.9863
 6513SOL     OW31174   0.842   1.594   2.149 -0.3676 -0.2227 -0.2084
 6513SOL    HW131175   0.791   1.577   2.228  0.7448  1.9837  0.9762
 6513SOL    HW231176   0.774   1.625   2.089  0.6309 -2.2533 -2.3776
 6514SOL     OW31177   3.736   1.261  10.425  0.2346  0.1979 -0.3091
 6514SOL    HW131178   3.825   1.271  10.390  0.9701 -0.4952  1.3721
 6514SOL    HW231179   3.744   1.306  10.509 -1.0845 -0.2966  0.0783
 6515SOL     OW31180   4.535   1.581   2.216  0.8201 -0.4133  0.2945
 6515SOL    HW131181   4.502   1.646   2.279 -0.3983 -1.6042  0.8850
 6515SOL    HW231182   4.621   1.613   2.188  0.1725  0.2130 -0.9618
 6516SOL     OW31183   4.046   3.759   5.514  0.1074  0.0548 -0.4817
 6516SOL    HW131184   3.969   3.813   5.529  0.9182  0.7089  1.3817
 6516SOL    HW231185   4.070   3.744   5.606 -1.9843  1.2872  0.2585
 6517SOL     OW31186   3.396   4.545   2.591  0.1805  0.3851  0.6055
 6517SOL    HW131187   3.390   4.463   2.640  2.0197  0.2293  0.5721
 6517SOL    HW231188   3.490   4.563   2.597  0.3462 -0.2270 -0.1444
 6518SOL     OW31189   2.545   3.073  12.653  0.1322 -0.6272 -0.3051
 6518SOL    HW131190   2.574   3.048  12.741 -0.3330 -0.1949 -0.0288
 6518SOL    HW231191   2.511   3.163  12.660 -0.4830 -0.9366  0.7573
 6519SOL     OW31192   0.622   2.519   3.314  0.0507  0.3728 -0.2222
 6519SOL    HW131193   0.616   2.460   3.239  2.9578 -0.7901  0.4706
 6519SOL    HW231194   0.612   2.452   3.382 -1.1234 -0.5312 -1.3070
 6520SOL     OW31195   4.197   4.460   3.301  0.6430  0.7764  0.0616
 6520SOL    HW131196   4.159   4.413   3.228  0.0910 -0.5647  1.2105
 6520SOL    HW231197   4.248   4.385   3.332 -0.6549 -0.1397 -0.0483
 6521SOL     OW31198   4.086   2.823   9.897 -0.1668  0.0918 -0.0067
 6521SOL    HW131199   4.024   2.761   9.936  0.4902  0.7024  1.9784
 6521SOL    HW231200   4.127   2.769   9.829 -1.8871  1.7158 -2.3517
 6522SOL     OW31201   4.589   0.689   3.233 -0.9225  0.3756 -0.0962
 6522SOL    HW131202   4.611   0.617   3.174  0.6986  0.0020  0.9763
 6522SOL    HW231203   4.513   0.659   3.283  0.1638  0.3179  1.5118
 6523SOL     OW31204   2.889   0.831  12.752 -0.0895  0.9279  0.3136
 6523SOL    HW131205   2.881   0.920  12.717 -0.2110  1.2277  1.1135
 6523SOL    HW231206   2.800   0.814  12.782 -0.5458  1.4162 -0.7287
 6524SOL     OW31207   4.708   3.184   4.212 -0.0217 -0.0108  0.3045
 6524SOL    HW131208   0.012   3.255   4.260 -0.4610  0.4784 -0.0472
 6524SOL    HW231209   4.736   3.208   4.124  3.0233  0.9470  1.5063
 6525SOL     OW31210   2.108   3.636   6.236 -0.3200  0.2748 -0.2914
 6525SOL    HW131211   2.198   3.604   6.241  0.0476  1.3756  0.0512
 6525SOL    HW231212   2.062   3.554   6.255 -1.1494  1.6210  3.3406
 6526SOL     OW31213   4.153   1.577   9.292 -0.0769  0.1409  0.4467
 6526SOL    HW131214   4.244   1.574   9.260  0.2677  1.3225  1.3333
 6526SOL    HW231215   4.167   1.521   9.369  0.2806 -1.9648 -1.1219
 6527SOL     OW31216   2.029   3.560   2.591 -0.2290  0.1039 -0.2397
 6527SOL    HW131217   2.027   3.632   2.529 -1.5525  0.6447  0.4268
 6527SOL    HW231218   2.075   3.495   2.538  2.4217  1.5458  0.2903
 6528SOL     OW31219   0.910   2.292  15.597  0.1169  0.4600 -0.3488
 6528SOL    HW131220   0.833   2.235  15.602  0.6991 -0.3896 -1.0547
 6528SOL    HW231221   0.947   2.279  15.684 -0.0861 -1.1617 -0.4978
 6529SOL     OW31222   2.736   0.692   3.855  0.1105 -0.2715  0.1799
 6529SOL    HW131223   2.805   0.756   3.838 -0.7180  0.1097 -1.7449
 6529SOL    HW231224   2.695   0.671   3.771 -0.4849 -0.5209  0.5285
 6530SOL     OW31225   1.609   0.629   8.356  1.2239  0.1843 -0.1400
 6530SOL    HW131226   1.668   0.568   8.399 -0.8502 -0.9177  1.1770
 6530SOL    HW231227   1.666   0.698   8.321  1.5756 -1.1421 -2.1652
 6531SOL     OW31228   0.119   1.459   9.893 -0.3292  0.3390  0.5681
 6531SOL    HW131229   0.063   1.536   9.895 -0.0011  0.6137 -0.7871
 6531SOL    HW231230   0.177   1.490   9.962 -0.6016 -1.1533  1.4591
 6532SOL     OW31231   1.445   1.057   5.024 -0.8417  0.3650 -0.2743
 6532SOL    HW131232   1.487   1.002   5.091  1.6662  1.2485 -1.1175
 6532SOL    HW231233   1.374   1.082   5.083 -1.0020  0.1875 -0.3913
 6533SOL     OW31234   4.084   0.076   3.704 -0.0079  0.0817 -0.5470
 6533SOL    HW131235   4.040   4.735   3.672  0.0008 -0.3113  0.4104
 6533SOL    HW231236   4.096   0.048   3.795 -0.1912 -2.1041 -1.2012
 6534SOL     OW31237   1.326   3.404   2.489 -0.0456 -0.2917  0.2162
 6534SOL    HW131238   1.252   3.371   2.439 -3.0115  2.8098  2.5817
 6534SOL    HW231239   1.315   3.498   2.474  1.1029 -0.3096 -0.7198
 6535SOL     OW31240   3.828   0.924   3.966 -0.2095 -0.1949 -0.6271
 6535SOL    HW131241   3.850   0.831   3.961 -2.4679 -0.7175 -1.0662
 6535SOL    HW231242   3.753   0.933   4.025 -0.8171 -0.5654 -1.3352
 6536SOL     OW31243   4.342   0.970   5.394  0.3464 -0.3446  0.0477
 6536SOL    HW131244   4.346   0.875   5.383  0.6700 -0.6147  2.5040
 6536SOL    HW231245   4.377   0.984   5.482  2.5185 -0.5672 -0.7869
 6537SOL     OW31246   0.469   1.610   6.908  0.0074  0.2831  0.4825
 6537SOL    HW131247   0.384   1.568   6.891  1.2115 -1.9649  0.0429
 6537SOL    HW231248   0.440   1.652   6.989  0.0837  2.3918 -0.5819
 6538SOL     OW31249   4.258   1.901   6.224  0.3362 -0.5266  0.1667
 6538SOL    HW131250   4.165   1.911   6.205  0.1452 -0.7234  1.0004
 6538SOL    HW231251   4.262   1.903   6.320  1.3848  2.3769  0.0511
 6539SOL     OW31252   3.758   2.317  16.672  0.1216  0.1460 -0.1211
 6539SOL    HW131253   3.750   2.344  16.580 -2.4098  0.8515  0.3009
 6539SOL    HW231254   3.829   2.253  16.677  1.1796  1.3381  0.2199
 6540SOL     OW31255   0.967   2.614  14.464 -0.4303 -0.5581  0.0410
 6540SOL    HW131256   0.978   2.539  14.406 -0.2911 -1.9313  1.8267
 6540SOL    HW231257   1.052   2.654  14.480 -0.5603  0.4747 -1.8581
 6541SOL     OW31258   3.447   1.578   4.843  0.2483 -0.9189 -0.2815
 6541SOL    HW131259   3.430   1.562   4.750 -0.8328  0.3512 -0.2990
 6541SOL    HW231260   3.541   1.566   4.860  0.1382 -1.3591 -0.0152
 6542SOL     OW31261   4.101   3.318   2.111  0.0010 -0.2750 -0.0710
 6542SOL    HW131262   4.087   3.245   2.051 -0.4281 -0.2102 -0.0435
 6542SOL    HW231263   4.012   3.339   2.137  0.3457  1.1619 -0.0665
 6543SOL     OW31264   3.741   3.699   5.363 -0.6178  0.4681 -0.3134
 6543SOL    HW131265   3.755   3.778   5.414 -3.3041  0.6671  0.0679
 6543SOL    HW231266   3.812   3.641   5.393 -1.0355 -1.0631 -2.2675
 6544SOL     OW31267   1.155   0.243   7.813  0.0717 -0.1806  0.2848
 6544SOL    HW131268   1.214   0.221   7.742  3.0741 -0.6523  2.9285
 6544SOL    HW231269   1.104   0.309   7.767  0.9301  0.0818 -0.2879
 6545SOL     OW31270   3.248   1.007   4.076 -0.3331 -0.2466  0.1894
 6545SOL    HW131271   3.296   1.014   4.158  2.2833 -1.5629 -1.2277
 6545SOL    HW231272   3.165   0.969   4.105 -0.2966 -0.4826 -0.0104
 6546SOL     OW31273   1.022   0.720   9.031  0.3881 -0.5116 -0.0789
 6546SOL    HW131274   0.948   0.754   9.081  1.1979  2.0732 -0.6318
 6546SOL    HW231275   0.991   0.742   8.943  0.5977 -3.6035 -0.9032
 6547SOL     OW31276   3.701   2.111   9.790 -0.2952 -0.2389  0.0778
 6547SOL    HW131277   3.793   2.112   9.816 -0.1056 -3.0565 -0.4668
 6547SOL    HW231278   3.710   2.056   9.711 -2.2255  0.8710 -0.9226
 6548SOL     OW31279   4.625   4.124   3.206  0.1985  0.6965 -0.4019
 6548SOL    HW131280   4.648   4.216   3.212 -0.8192  0.9514 -0.3877
 6548SOL    HW231281   4.706   4.083   3.237  0.1613  1.2790  0.4609
 6549SOL     OW31282   0.820   3.525   7.356  0.0354  0.0521  0.3225
 6549SOL    HW131283   0.736   3.490   7.325 -1.0502  2.3934  0.6567
 6549SOL    HW231284   0.830   3.599   7.297  0.2499  0.9254  1.4585
 6550SOL     OW31285   1.356   3.120   8.250 -0.2280  0.1597  0.0216
 6550SOL    HW131286   1.341   3.183   8.179 -0.8175 -0.5721 -0.4998
 6550SOL    HW231287   1.341   3.038   8.202  0.3332  0.2738 -0.3567
 6551SOL     OW31288   0.741   2.555   5.744 -0.1164  0.4285  0.4011
 6551SOL    HW131289   0.808   2.514   5.689 -2.2142 -2.0909 -0.2603
 6551SOL    HW231290   0.701   2.604   5.673 -1.0084 -0.5546  0.2207
 6552SOL     OW31291   2.119   0.051   9.929 -0.5516 -0.2099 -0.3602
 6552SOL    HW131292   2.186   0.042   9.861 -0.6545  0.6444 -0.5806
 6552SOL    HW231293   2.154   4.726   9.992 -2.4740  0.0954  0.9825
 6553SOL     OW31294   4.065   4.078   8.261  0.1388  1.0437 -0.1839
 6553SOL    HW131295   4.012   4.146   8.304  0.2312  1.0239 -0.0362
 6553SOL    HW231296   4.047   4.090   8.168 -2.4154  0.3353  0.2291
 6554SOL     OW31297   0.022   4.154   1.624  0.0723  0.2085  0.4231
 6554SOL    HW131298   0.080   4.131   1.551 -1.8037  1.1434 -1.3704
 6554SOL    HW231299   0.039   4.082   1.684  1.8900  0.2083 -0.0802
 6555SOL     OW31300   1.466   3.462   0.041  0.3892  0.3753 -0.1184
 6555SOL    HW131301   1.510   3.416  17.718  1.2184  1.0693 -0.0545
 6555SOL    HW231302   1.515   3.544   0.045  1.7418 -0.4980  0.9840
 6556SOL     OW31303   1.980   3.763   0.814  0.1161  0.4057 -0.0812
 6556SOL    HW131304   2.063   3.788   0.773  0.1481 -0.8286 -0.7685
 6556SOL    HW231305   1.933   3.747   0.732  0.0737  0.1995 -0.0177
 6557SOL     OW31306   4.432   3.936   5.817 -0.1322 -0.4845 -0.0638
 6557SOL    HW131307   4.463   3.873   5.882  0.0463 -0.7309 -0.3861
 6557SOL    HW231308   4.494   3.938   5.744  2.1827  0.3242  1.9593
 6558SOL     OW31309   1.757   1.335   7.532 -1.2841 -0.2059 -0.5355
 6558SOL    HW131310   1.743   1.292   7.447 -3.4844  0.7050 -0.6407
 6558SOL    HW231311   1.851   1.318   7.537 -1.0895  1.1899  0.4824
 6559SOL     OW31312   1.326   3.409  10.763 -0.5292  0.2089 -0.6878
 6559SOL    HW131313   1.407   3.455  10.786 -0.8221  0.1960  0.3591
 6559SOL    HW231314   1.262   3.470  10.799  0.5802  1.3663 -0.6619
 6560SOL     OW31315   4.160   1.434   3.070 -0.2859  0.0279  0.3536
 6560SOL    HW131316   4.236   1.377   3.059  1.3942  1.9194  2.1112
 6560SOL    HW231317   4.168   1.456   3.163  1.7117  1.8404 -0.2526
 6561SOL     OW31318   1.902   3.058   5.850  0.3595  0.3877  0.1717
 6561SOL    HW131319   1.978   3.098   5.808 -0.9487  0.3265 -2.2900
 6561SOL    HW231320   1.878   2.978   5.804 -0.3778  0.6803  0.0458
 6562SOL     OW31321   0.905   3.100   9.167 -0.0730 -0.2778 -0.3890
 6562SOL    HW131322   0.822   3.053   9.161  0.0681 -0.0999 -3.5682
 6562SOL    HW231323   0.890   3.178   9.113 -1.1323  0.5749  1.1266
 6563SOL     OW31324   2.930   4.566  15.130  0.0905 -0.3205 -0.1223
 6563SOL    HW131325   2.903   4.478  15.157  1.4363 -0.0509  2.1478
 6563SOL    HW231326   2.942   4.542  15.039 -0.3562 -1.1269  0.0305
 6564SOL     OW31327   2.413   3.905   2.358  0.2190  0.0182  0.2679
 6564SOL    HW131328   2.408   3.815   2.390 -0.4234 -0.4056 -1.0274
 6564SOL    HW231329   2.378   3.889   2.271  0.7416  0.0846  0.0433
 6565SOL     OW31330   4.688   0.027   3.004 -0.3633  0.2337  0.0693
 6565SOL    HW131331   4.629   0.053   2.933 -3.1827 -0.5939  2.1218
 6565SOL    HW231332   4.710   0.110   3.046 -2.8182  0.5596  0.6852
 6566SOL     OW31333   3.475   2.619   0.772 -0.3950 -0.1772 -0.1030
 6566SOL    HW131334   3.540   2.570   0.822 -0.6105 -0.5657 -0.1983
 6566SOL    HW231335   3.467   2.697   0.826 -0.5701 -0.1016 -0.2384
 6567SOL     OW31336   3.354   3.521   6.566 -0.1026  0.5441 -0.1205
 6567SOL    HW131337   3.312   3.573   6.498  1.4992  2.2118  0.1431
 6567SOL    HW231338   3.428   3.489   6.514 -2.1020 -2.0683 -1.2965
 6568SOL     OW31339   3.114   2.951   5.565 -0.4564 -0.0061  0.5497
 6568SOL    HW131340   3.140   2.859   5.565  0.3788  0.2353  0.1061
 6568SOL    HW231341   3.101   2.972   5.472 -0.4941 -2.0514  0.0869
 6569SOL     OW31342   4.130   3.376   3.873  0.0097  0.0962 -0.4512
 6569SOL    HW131343   4.109   3.327   3.952  0.4672 -1.5904 -1.3803
 6569SOL    HW231344   4.064   3.333   3.818  0.4685 -1.3238  0.1272
 6570SOL     OW31345   2.049   0.021   5.296 -0.1809 -0.0222  0.1903
 6570SOL    HW131346   1.992   4.737   5.370 -2.6369  0.8680 -1.4319
 6570SOL    HW231347   2.095   4.675   5.283 -2.9202 -2.1566  4.1887
 6571SOL     OW31348   0.300   3.781  14.349 -1.1639 -0.2316  0.3702
 6571SOL    HW131349   0.379   3.727  14.351 -1.6113 -0.8338  1.3927
 6571SOL    HW231350   0.249   3.739  14.279 -1.0311  1.9777 -1.0627
 6572SOL     OW31351   1.037   0.767   2.521 -0.7810 -0.2217  0.2783
 6572SOL    HW131352   1.107   0.827   2.546 -2.5650  1.0005  2.4184
 6572SOL    HW231353   1.013   0.722   2.602  2.0663 -1.7183  0.2731
 6573SOL     OW31354   1.072   0.944   5.980  0.0860  0.2644  0.2966
 6573SOL    HW131355   1.142   0.967   5.918  1.2833  0.1792  1.6313
 6573SOL    HW231356   1.078   1.013   6.046  0.2021 -0.0003  0.5633
 6574SOL     OW31357   0.124   2.036   2.594  0.3997  0.4447  0.2074
 6574SOL    HW131358   0.129   2.001   2.505 -4.1455 -1.3568  0.6424
 6574SOL    HW231359   0.093   1.956   2.637 -4.7427  3.1986  1.6334
 6575SOL     OW31360   1.893   1.809   6.348  0.2039  0.0508  0.0716
 6575SOL    HW131361   1.940   1.814   6.431  0.4336  2.2061 -0.2011
 6575SOL    HW231362   1.952   1.841   6.281  1.1978 -1.0866  0.4126
 6576SOL     OW31363   4.151   2.672   3.770 -0.3051  0.5210 -0.5535
 6576SOL    HW131364   4.112   2.694   3.686  0.2164  1.2449 -0.5982
 6576SOL    HW231365   4.171   2.579   3.755 -2.3770 -0.1067  0.5579
 6577SOL     OW31366   0.124   3.650  11.433  0.4386  0.3426 -0.2044
 6577SOL    HW131367   0.194   3.647  11.367  0.8756  0.8540  0.2323
 6577SOL    HW231368   0.178   3.649  11.512 -0.9332 -0.2159  0.7171
 6578SOL     OW31369   3.058   4.431   3.030  0.0868  0.2296 -0.1082
 6578SOL    HW131370   3.122   4.383   2.978  0.2363  0.7032 -0.3589
 6578SOL    HW231371   2.976   4.384   3.016 -0.4448  1.3269 -0.6481
 6579SOL     OW31372   1.199   4.681   5.750  0.3033  0.1005 -0.1839
 6579SOL    HW131373   1.138   0.009   5.785  0.3830 -0.1125  0.3507
 6579SOL    HW231374   1.196   4.617   5.821 -1.5657  0.1290 -0.2208
 6580SOL     OW31375   1.726   2.791   2.409  0.1571  0.5445 -0.1062
 6580SOL    HW131376   1.770   2.783   2.493 -2.4600  1.2370  1.3373
 6580SOL    HW231377   1.665   2.863   2.423 -0.5334 -0.0917  0.2047
 6581SOL     OW31378   4.208   1.994   6.520 -0.9576 -0.2554  0.8587
 6581SOL    HW131379   4.246   1.909   6.542  1.6282  1.5192  3.2299
 6581SOL    HW231380   4.187   2.022   6.608 -0.3819  2.8150  0.0174
 6582SOL     OW31381   0.128   3.125   3.560  0.4643 -0.1120 -0.1427
 6582SOL    HW131382   0.044   3.150   3.600  1.2226  1.3966  0.5476
 6582SOL    HW231383   0.146   3.189   3.492  2.8958 -0.2097  0.4082
 6583SOL     OW31384   0.918   3.311   4.657  0.3077  0.1495 -0.3583
 6583SOL    HW131385   0.915   3.406   4.665  1.1093  0.1656 -0.2823
 6583SOL    HW231386   0.869   3.302   4.739 -0.9271  2.2005 -0.8887
 6584SOL     OW31387   1.398   3.425   3.449  1.0094  0.3919  0.7000
 6584SOL    HW131388   1.352   3.500   3.487 -1.8707 -0.8743 -0.3315
 6584SOL    HW231389   1.424   3.381   3.530 -0.6052 -1.9717 -0.0815
 6585SOL     OW31390   3.334   1.830  11.537 -0.8759 -0.3793 -0.0214
 6585SOL    HW131391   3.362   1.818  11.627 -0.2685  0.1865 -0.1397
 6585SOL    HW231392   3.327   1.925  11.544  1.4293  0.0397 -3.1017
 6586SOL     OW31393   2.810   1.056  12.615  0.2841  0.1487 -0.1971
 6586SOL    HW131394   2.833   1.143  12.583 -3.0031  1.3968  0.8888
 6586SOL    HW231395   2.723   1.041  12.577  0.4059 -1.5015  0.1668
 6587SOL     OW31396   3.249   0.089  17.614 -0.5419  0.2378  0.2682
 6587SOL    HW131397   3.236   0.155  17.546 -0.9126  0.8620  0.9509
 6587SOL    HW231398   3.295   0.144  17.676 -2.5802  1.5032  0.6626
 6588SOL     OW31399   1.589   0.918   8.619 -0.0931 -0.6018 -0.0206
 6588SOL    HW131400   1.515   0.978   8.621  0.0289 -0.4410 -0.4930
 6588SOL    HW231401   1.589   0.882   8.531  1.8998  0.1627 -0.3349
 6589SOL     OW31402   0.772   3.119   0.478  0.1580  0.4651  0.0103
 6589SOL    HW131403   0.846   3.145   0.424 -0.0471  0.5235 -0.2428
 6589SOL    HW231404   0.716   3.196   0.467 -0.8041  0.2436  3.3737
 6590SOL     OW31405   3.830   3.098   4.043  0.5150 -0.1466 -0.5838
 6590SOL    HW131406   3.805   3.150   3.967  1.0158 -1.2676 -1.5232
 6590SOL    HW231407   3.748   3.054   4.065  0.5250  0.5187  0.7593
 6591SOL     OW31408   3.237   3.705   1.901 -0.0042  0.4320 -0.4226
 6591SOL    HW131409   3.327   3.684   1.926 -1.0515 -1.4976  1.7399
 6591SOL    HW231410   3.246   3.772   1.833 -1.2148 -1.0150 -1.9969
 6592SOL     OW31411   1.356   3.383  15.384  0.7578  0.5607  0.3899
 6592SOL    HW131412   1.422   3.424  15.440  2.6019 -2.0773  0.1208
 6592SOL    HW231413   1.317   3.461  15.344  0.3373  0.3681  0.4300
 6593SOL     OW31414   1.231   3.129   4.274 -0.8376  0.1821 -0.2613
 6593SOL    HW131415   1.156   3.189   4.270  0.1253  1.4514  1.1381
 6593SOL    HW231416   1.232   3.106   4.367  0.8871 -0.8631 -0.5448
 6594SOL     OW31417   4.627   2.443   7.478 -0.5644 -0.4296  0.1763
 6594SOL    HW131418   4.656   2.400   7.397 -2.2271  1.5910 -1.5023
 6594SOL    HW231419   4.607   2.534   7.455  1.5962 -0.3185 -1.2428
 6595SOL     OW31420   1.742   2.749   4.591  0.2686  0.4750  0.6897
 6595SOL    HW131421   1.707   2.837   4.605  1.0863  1.0980 -1.1546
 6595SOL    HW231422   1.826   2.770   4.550  0.1228  1.4900  0.8971
 6596SOL     OW31423   2.093   3.670   8.385  0.3575 -0.4724 -0.1134
 6596SOL    HW131424   2.159   3.664   8.316  0.4090  0.6444 -0.1634
 6596SOL    HW231425   2.106   3.584   8.423 -1.1393 -1.3363 -1.5800
 6597SOL     OW31426   3.357   2.906  12.825  0.3299  0.3904 -0.3954
 6597SOL    HW131427   3.405   2.860  12.894 -0.1931  0.6012  0.1086
 6597SOL    HW231428   3.310   2.834  12.781 -0.0864 -1.1564  2.5324
 6598SOL     OW31429   0.902   1.959  14.152 -0.0243  0.3756  0.2851
 6598SOL    HW131430   0.874   2.010  14.076  1.3834 -0.4810 -0.8297
 6598SOL    HW231431   0.988   1.928  14.123 -0.4156 -0.9582  0.5731
 6599SOL     OW31432   4.132   3.743   6.226 -0.0401 -0.4106 -0.1644
 6599SOL    HW131433   4.066   3.796   6.181 -0.7192 -1.0009  0.1184
 6599SOL    HW231434   4.109   3.756   6.319  1.5272 -1.6754  0.3990
 6600SOL     OW31435   4.546   2.314   2.840 -0.0655  0.2444 -0.1213
 6600SOL    HW131436   4.549   2.397   2.887  2.5564 -0.3616  0.8054
 6600SOL    HW231437   4.639   2.313   2.818 -0.2799  2.6137 -1.1447
 6601SOL     OW31438   1.563   0.798  17.311  0.4857 -0.1908  0.2825
 6601SOL    HW131439   1.607   0.872  17.269  2.0594 -2.4706 -2.0434
 6601SOL    HW231440   1.629   0.740  17.346  0.2169 -0.1570  0.8421
 6602SOL     OW31441   2.052   3.341   8.947 -1.0031  0.0728 -0.1403
 6602SOL    HW131442   2.002   3.273   8.993  0.4942 -1.3361 -0.5769
 6602SOL    HW231443   2.124   3.357   9.009  0.0866  0.6650 -1.5672
 6603SOL     OW31444   0.894   2.843   5.495 -0.0302  0.0764  0.1184
 6603SOL    HW131445   0.810   2.825   5.454 -0.3702 -0.0115  0.8649
 6603SOL    HW231446   0.885   2.889   5.579 -2.4559 -1.1201  0.4906
 6604SOL     OW31447   1.675   0.850   5.594  0.4712 -0.3130  0.1245
 6604SOL    HW131448   1.721   0.880   5.672  0.9191  0.7414 -0.5405
 6604SOL    HW231449   1.679   0.755   5.596 -0.5722 -0.2901  2.5957
 6605SOL     OW31450   3.794   1.249   6.865 -0.0779 -0.3180  0.1617
 6605SOL    HW131451   3.831   1.161   6.870 -1.0153 -0.7310 -0.2039
 6605SOL    HW231452   3.705   1.232   6.895 -0.0727 -0.8652 -0.1397
 6606SOL     OW31453   1.626   3.571   0.472 -0.0459  0.4302 -0.2292
 6606SOL    HW131454   1.544   3.549   0.516 -0.6630  0.8421 -1.1651
 6606SOL    HW231455   1.612   3.656   0.430  0.1470  0.6403  0.1340
 6607SOL     OW31456   4.055   1.330   2.470  0.1077  0.8768 -0.1967
 6607SOL    HW131457   4.100   1.373   2.398 -0.9146  0.7947 -0.8939
 6607SOL    HW231458   3.973   1.298   2.432 -0.6541  3.6069 -0.8241
 6608SOL     OW31459   1.127   1.647  10.780  0.2534  0.8078  0.4399
 6608SOL    HW131460   1.094   1.652  10.690 -0.5437 -1.7520  0.5597
 6608SOL    HW231461   1.152   1.739  10.783 -0.3480  0.9553  1.0862
 6609SOL     OW31462   4.390   0.336   4.585  0.5628 -0.1191  0.4863
 6609SOL    HW131463   4.418   0.356   4.675 -0.0968  0.5978  0.5366
 6609SOL    HW231464   4.318   0.398   4.570  1.2310  0.0936 -1.8363
 6610SOL     OW31465   4.357   3.728  12.957 -0.6971  0.3997  0.4689
 6610SOL    HW131466   4.279   3.776  12.929 -0.6664 -0.9724 -2.0009
 6610SOL    HW231467   4.341   3.636  12.934  0.0824  0.3358  0.2049
 6611SOL     OW31468   2.938   1.702   7.199  0.1956  0.0908 -0.2378
 6611SOL    HW131469   2.972   1.615   7.175 -1.9162 -0.9444  0.5260
 6611SOL    HW231470   2.947   1.740   7.112 -2.2826 -1.0522 -0.9808
 6612SOL     OW31471   0.483   4.289   7.850  0.1062 -0.0183  0.4457
 6612SOL    HW131472   0.508   4.225   7.916  0.3534  2.0398  2.3566
 6612SOL    HW231473   0.392   4.264   7.834  0.1353 -0.2655  0.6792
 6613SOL     OW31474   1.822   0.076   3.257 -1.1910  0.5848  0.1812
 6613SOL    HW131475   1.885   0.033   3.200 -1.0590 -1.3432  1.7866
 6613SOL    HW231476   1.789   0.002   3.308  1.1077  0.1980  1.1216
 6614SOL     OW31477   3.230   3.240   0.597  0.0096 -0.1251  0.1703
 6614SOL    HW131478   3.292   3.297   0.552  0.6711 -0.0559  1.1798
 6614SOL    HW231479   3.273   3.239   0.683 -0.4701 -0.6521  0.4048
 6615SOL     OW31480   4.693   3.645  16.179  0.5409  0.5124  0.3678
 6615SOL    HW131481   0.040   3.603  16.161 -0.2785 -1.8176  2.0207
 6615SOL    HW231482   4.679   3.685  16.093 -0.0167  0.0211  0.2315
 6616SOL     OW31483   3.048   2.922   7.032  0.1839  0.2094 -0.1394
 6616SOL    HW131484   3.066   3.016   7.028 -1.5035  0.4450 -2.3258
 6616SOL    HW231485   3.072   2.902   7.122 -1.0118 -1.8311 -0.2712
 6617SOL     OW31486   1.328   3.629  17.211 -0.4974 -0.0432 -0.2695
 6617SOL    HW131487   1.379   3.692  17.261  1.1120 -1.4707 -0.1405
 6617SOL    HW231488   1.255   3.687  17.186  0.5889  2.1526  1.6583
 6618SOL     OW31489   1.607   2.318   6.294 -0.7879  1.1516  0.5092
 6618SOL    HW131490   1.684   2.262   6.298 -0.5390  1.5083  0.7383
 6618SOL    HW231491   1.554   2.309   6.373 -1.5423  0.6559 -0.0565
 6619SOL     OW31492   3.810   2.535   3.568 -1.0337 -0.2746 -0.4583
 6619SOL    HW131493   3.724   2.528   3.527 -0.4093 -0.4268 -1.7201
 6619SOL    HW231494   3.860   2.482   3.506  1.9349  0.9551  0.9001
 6620SOL     OW31495   1.230   4.250  10.271 -0.1091 -0.1291 -0.3741
 6620SOL    HW131496   1.303   4.208  10.316  0.7591  2.0907  0.3124
 6620SOL    HW231497   1.195   4.303  10.344  2.0552  1.4047 -0.4312
 6621SOL     OW31498   2.532   1.107   4.746  0.3305  0.0775  0.2999
 6621SOL    HW131499   2.622   1.084   4.723 -0.1956  0.6091 -2.2962
 6621SOL    HW231500   2.515   1.178   4.684  0.2461  0.5679  0.8820
 6622SOL     OW31501   0.296   2.002   3.663  0.6644 -0.1284 -0.3336
 6622SOL    HW131502   0.227   2.052   3.617 -0.2743 -0.4153  0.7779
 6622SOL    HW231503   0.369   2.050   3.624  0.4370 -2.1251 -3.2902
 6623SOL     OW31504   0.007   0.914   3.141 -0.6438  0.2991 -0.1490
 6623SOL    HW131505   4.685   0.842   3.159 -0.0209 -0.3818 -0.7948
 6623SOL    HW231506   0.090   0.867   3.131 -0.7409  0.2099 -0.5203
 6624SOL     OW31507   0.806   0.713   9.294 -0.3554 -0.1253  0.1884
 6624SOL    HW131508   0.821   0.787   9.235  2.0165 -0.4168  0.4354
 6624SOL    HW231509   0.807   0.762   9.376 -1.9674  0.6376 -0.2347
 6625SOL     OW31510   2.852   0.115  15.176 -0.0910 -0.1930  0.2797
 6625SOL    HW131511   2.897   0.146  15.097 -0.3992 -1.3757 -0.3539
 6625SOL    HW231512   2.865   0.020  15.174  0.2148 -0.1467 -0.0304
 6626SOL     OW31513   0.307   4.270   2.891 -0.7613 -0.2696  0.0705
 6626SOL    HW131514   0.278   4.294   2.979 -1.5713 -3.4994  0.6974
 6626SOL    HW231515   0.368   4.340   2.869  0.6816 -1.0904  1.4575
 6627SOL     OW31516   0.010   2.443   9.560 -0.8099  0.3023 -0.1373
 6627SOL    HW131517   0.040   2.533   9.547 -0.9888  0.2926 -0.6141
 6627SOL    HW231518   0.091   2.403   9.591 -1.4171 -0.5411  0.3555
 6628SOL     OW31519   4.628   0.891   8.095 -0.1076 -0.4534 -0.5014
 6628SOL    HW131520   4.682   0.936   8.030  0.4809 -0.8045 -0.2480
 6628SOL    HW231521   4.614   0.962   8.158  3.7981  0.7599 -1.0276
 6629SOL     OW31522   1.690   3.156   5.179 -0.3441  0.1892 -0.3867
 6629SOL    HW131523   1.655   3.153   5.090  3.1815  0.0255 -1.7471
 6629SOL    HW231524   1.659   3.077   5.222 -0.2663  0.0183 -0.6484
 6630SOL     OW31525   1.268   2.881   0.788  0.3880 -0.6689  0.0575
 6630SOL    HW131526   1.254   2.959   0.843  1.4996 -0.8957  0.6646
 6630SOL    HW231527   1.266   2.902   0.695 -0.1592  2.0108  0.6866
 6631SOL     OW31528   1.322   4.587   2.675 -0.1013  0.8746 -0.0454
 6631SOL    HW131529   1.403   4.536   2.669  0.0800  1.2234 -0.5372
 6631SOL    HW231530   1.346   4.659   2.617  1.5109  0.7754  0.4980
 6632SOL     OW31531   1.624   2.561   9.400  0.5913  0.0903 -0.0241
 6632SOL    HW131532   1.570   2.625   9.352 -2.9981 -2.2476  0.8762
 6632SOL    HW231533   1.588   2.563   9.488  0.4374  0.6921 -0.0975
 6633SOL     OW31534   2.800   3.404   9.413 -0.8094  0.7381  0.3283
 6633SOL    HW131535   2.826   3.322   9.454  1.0561  1.3245  0.3243
 6633SOL    HW231536   2.708   3.398   9.390 -0.4432 -1.2456 -0.5978
 6634SOL     OW31537   2.591   2.815   1.241 -0.4142  0.0783  0.4106
 6634SOL    HW131538   2.638   2.732   1.235  0.8641  0.8079  0.4843
 6634SOL    HW231539   2.641   2.844   1.317  1.2621 -0.8719 -0.3245
 6635SOL     OW31540   4.407   0.399  14.123  0.4202 -0.5294 -0.5763
 6635SOL    HW131541   4.502   0.399  14.120  0.4025 -1.2787 -1.0353
 6635SOL    HW231542   4.387   0.308  14.103 -2.1303 -0.3260  1.0761
 6636SOL     OW31543   4.576   0.718   6.064 -0.1556 -0.2606  0.0098
 6636SOL    HW131544   4.561   0.780   5.994  1.1134  1.0596  0.9039
 6636SOL    HW231545   4.550   0.639   6.018  1.5675 -0.1263 -1.2103
 6637SOL     OW31546   0.128   1.798   9.559  0.1554 -0.1273 -0.4047
 6637SOL    HW131547   0.115   1.715   9.604 -0.5187  0.2866  0.1685
 6637SOL    HW231548   0.174   1.848   9.627 -0.9642  0.4658 -0.0876
 6638SOL     OW31549   2.395   2.491   2.157  0.8586 -0.3134 -0.4094
 6638SOL    HW131550   2.428   2.401   2.158 -2.7367 -1.6422 -1.7294
 6638SOL    HW231551   2.301   2.481   2.165  0.3872  1.8645 -2.9843
 6639SOL     OW31552   3.143   2.779  14.859  0.2186 -0.0650 -0.1314
 6639SOL    HW131553   3.158   2.689  14.890  1.5552  0.2242  0.0786
 6639SOL    HW231554   3.047   2.780  14.862  0.2708 -1.1304  1.9309
 6640SOL     OW31555   3.889   3.707   0.807 -0.4670 -0.0531 -0.2646
 6640SOL    HW131556   3.811   3.761   0.792 -0.4765 -0.3692 -1.3457
 6640SOL    HW231557   3.853   3.678   0.891 -0.3314 -0.7005 -0.4359
 6641SOL     OW31558   3.014   2.535   3.489  0.4302  0.0948 -0.0020
 6641SOL    HW131559   2.969   2.482   3.554 -0.0834  0.5630  0.0247
 6641SOL    HW231560   2.967   2.503   3.412  3.5444  1.1078 -2.3268
 6642SOL     OW31561   4.043   0.534   9.078 -0.5352  0.3414  0.4715
 6642SOL    HW131562   4.047   0.562   8.987 -0.3636  1.2804  0.7656
 6642SOL    HW231563   3.967   0.585   9.105  0.0665  1.3613  0.2294
 6643SOL     OW31564   4.170   1.248   3.834  0.6972 -0.5105  0.0278
 6643SOL    HW131565   4.088   1.239   3.882  0.8078 -4.3276 -0.5239
 6643SOL    HW231566   4.219   1.174   3.868 -0.9905 -1.8075 -0.3251
 6644SOL     OW31567   4.590   4.452   8.715 -0.0510 -0.3685 -0.3658
 6644SOL    HW131568   4.643   4.373   8.704 -1.9665 -1.6483 -0.2470
 6644SOL    HW231569   4.634   4.499   8.787 -1.4575  1.6228 -0.8213
 6645SOL     OW31570   1.956   1.549  14.807 -0.4265  0.0991 -0.6976
 6645SOL    HW131571   1.990   1.558  14.896  0.4950 -0.1358 -1.0289
 6645SOL    HW231572   2.011   1.615  14.765 -0.5571  0.1404 -0.8042
 6646SOL     OW31573   1.992   1.825   6.597  0.1949  0.5060  0.2835
 6646SOL    HW131574   2.066   1.823   6.657 -0.5444 -1.4234  1.0910
 6646SOL    HW231575   1.926   1.809   6.665  0.4098  0.7228  0.5423
 6647SOL     OW31576   0.534   3.942   0.494 -0.7480 -0.8275  0.0932
 6647SOL    HW131577   0.582   3.910   0.417  1.9373 -0.4140  1.6002
 6647SOL    HW231578   0.480   4.007   0.449  1.5870  0.6410 -0.5838
 6648SOL     OW31579   1.516   3.465  11.485  0.1286  0.3999 -0.2610
 6648SOL    HW131580   1.558   3.409  11.420  0.4427 -2.0310  2.0632
 6648SOL    HW231581   1.454   3.404  11.526  1.9215 -0.3206  1.3824
 6649SOL     OW31582   1.945   0.718   1.645 -0.0974  0.5250  0.7944
 6649SOL    HW131583   1.882   0.728   1.574 -0.3796 -2.0511  0.6767
 6649SOL    HW231584   2.010   0.784   1.623 -0.0224 -0.0318 -0.6315
 6650SOL     OW31585   2.897   2.263  10.735 -0.2407  0.0595 -0.1716
 6650SOL    HW131586   2.875   2.182  10.689  1.6729 -1.8141  2.1938
 6650SOL    HW231587   2.941   2.225  10.811  0.7104 -0.8769 -1.1803
 6651SOL     OW31588   1.162   4.057   7.752  0.5033 -0.4313  0.0561
 6651SOL    HW131589   1.112   3.979   7.777  3.2065 -1.7727  1.2259
 6651SOL    HW231590   1.211   4.071   7.832  0.5799  1.2054 -0.2798
 6652SOL     OW31591   0.569   1.102   6.247  0.2423 -0.7272  0.0636
 6652SOL    HW131592   0.524   1.050   6.313 -1.1013  2.0872  1.3629
 6652SOL    HW231593   0.562   1.037   6.178 -1.7206 -1.2216  0.7298
 6653SOL     OW31594   4.590   2.828   8.651 -0.0782 -0.7178 -0.2901
 6653SOL    HW131595   4.578   2.739   8.685 -2.2012 -0.5170 -0.4969
 6653SOL    HW231596   4.503   2.847   8.614 -0.8891  0.3743  2.1752
 6654SOL     OW31597   3.674   2.226   7.399 -0.1220  0.2988 -0.0357
 6654SOL    HW131598   3.607   2.180   7.450 -0.4374  1.1003  0.2870
 6654SOL    HW231599   3.640   2.314   7.418 -1.4548 -0.2709  0.2221
 6655SOL     OW31600   3.302   2.973   9.789  0.0398 -0.1171  0.1455
 6655SOL    HW131601   3.244   3.040   9.753 -0.7540  0.0368  1.7118
 6655SOL    HW231602   3.350   2.930   9.719 -0.4248 -0.4024 -0.0015
 6656SOL     OW31603   0.421   4.401   8.470 -0.3001 -0.2161 -1.0463
 6656SOL    HW131604   0.372   4.482   8.483 -0.2342 -0.4025  0.4191
 6656SOL    HW231605   0.501   4.407   8.522  0.6212  2.3699 -2.7531
 6657SOL     OW31606   4.190   1.370   0.571 -0.2010 -0.4971 -0.1642
 6657SOL    HW131607   4.125   1.328   0.626  1.2887 -1.3676  0.9399
 6657SOL    HW231608   4.189   1.295   0.511  2.4979 -0.4768 -0.2540
 6658SOL     OW31609   0.181   2.747  16.776 -0.2950 -0.3211 -0.2079
 6658SOL    HW131610   0.137   2.671  16.738 -0.4271 -0.7700  0.8179
 6658SOL    HW231611   0.229   2.778  16.700  0.3676  0.7497  0.6423
 6659SOL     OW31612   1.757   2.738   2.687 -0.3603 -0.2695 -0.2477
 6659SOL    HW131613   1.772   2.656   2.734 -1.2314 -2.8420 -4.4481
 6659SOL    HW231614   1.718   2.799   2.749 -0.6769 -0.2762 -0.4371
 6660SOL     OW31615   4.534   3.921   3.381  0.3593  0.1682 -0.3151
 6660SOL    HW131616   4.582   3.841   3.359  0.9321  0.4381 -0.0573
 6660SOL    HW231617   4.568   3.992   3.327  0.5867  0.6143  0.4113
 6661SOL     OW31618   4.559   1.843   1.624 -0.3796  0.1046 -0.4100
 6661SOL    HW131619   4.609   1.813   1.548  0.5090 -1.0086  0.6147
 6661SOL    HW231620   4.575   1.936   1.638 -0.0154 -0.5322  3.4914
 6662SOL     OW31621   0.083   2.946   0.610 -0.7383 -0.3779  0.8379
 6662SOL    HW131622   0.048   2.947   0.699 -1.3296  0.0280  0.5928
 6662SOL    HW231623   0.013   2.992   0.564 -0.7080  1.7670  2.9166
 6663SOL     OW31624   2.887   3.238   5.401 -0.2184  0.1516 -0.1413
 6663SOL    HW131625   2.881   3.199   5.314  0.0498  0.5012 -0.3163
 6663SOL    HW231626   2.819   3.303   5.386  0.6645  0.5808 -2.1550
 6664SOL     OW31627   4.124   2.979   4.513 -0.0126 -0.1787  0.4973
 6664SOL    HW131628   4.130   3.054   4.454 -0.4062 -0.3026  0.2977
 6664SOL    HW231629   4.088   3.026   4.589 -1.8602  0.8204 -0.9948
 6665SOL     OW31630   3.596   3.755   3.154  0.3981  0.5543 -0.2939
 6665SOL    HW131631   3.677   3.804   3.165  0.9877 -0.9243  2.0548
 6665SOL    HW231632   3.587   3.756   3.059 -3.0930  0.2393  0.0337
 6666SOL     OW31633   0.070   0.797  10.162 -0.2425 -0.0433 -0.1520
 6666SOL    HW131634   0.109   0.715  10.191  0.9290  1.2321  1.8350
 6666SOL    HW231635   0.135   0.855  10.200  0.9217 -0.5579 -1.3877
 6667SOL     OW31636   3.945   1.087  16.402  0.0080  0.0812  0.9678
 6667SOL    HW131637   4.012   1.144  16.365 -0.1381  0.2059  0.8969
 6667SOL    HW231638   3.990   1.008  16.434  2.9738  1.2624 -0.3390
 6668SOL     OW31639   2.495   1.992   4.788 -0.0905 -0.0881  0.1308
 6668SOL    HW131640   2.438   2.022   4.858 -1.2155 -1.1871 -0.3023
 6668SOL    HW231641   2.445   1.919   4.751  0.7222 -1.4268  1.7093
 6669SOL     OW31642   3.932   3.190   5.806  0.6437 -0.2817 -0.2559
 6669SOL    HW131643   4.001   3.157   5.864 -1.5380 -1.0867  1.8317
 6669SOL    HW231644   3.918   3.278   5.840  1.8755 -0.1982  0.0548
 6670SOL     OW31645   1.050   2.891   8.742 -0.2423  0.1414 -0.1260
 6670SOL    HW131646   1.098   2.830   8.687 -0.1158 -0.4542  0.6333
 6670SOL    HW231647   1.028   2.844   8.823 -3.3110  0.5015 -0.7401
 6671SOL     OW31648   0.004   3.820   7.484  0.1978  0.2828  0.2205
 6671SOL    HW131649   4.667   3.783   7.437 -0.7260  0.6872  1.3557
 6671SOL    HW231650   0.011   3.762   7.560 -0.7510  0.1606  0.2163
 6672SOL     OW31651   3.402   4.541   8.513  0.0870  0.0809  0.2511
 6672SOL    HW131652   3.329   4.495   8.471 -1.3529  1.2829  1.4491
 6672SOL    HW231653   3.457   4.471   8.548  0.4453  0.2403  0.0035
 6673SOL     OW31654   4.432   0.906  10.550  0.6077  0.0520  0.1777
 6673SOL    HW131655   4.527   0.895  10.555  0.5268 -0.8110 -0.3435
 6673SOL    HW231656   4.411   0.935  10.462  0.6622 -0.6299 -0.0593
 6674SOL     OW31657   0.488   3.367   7.020 -0.6359  0.2116 -0.0691
 6674SOL    HW131658   0.402   3.355   6.979 -1.6904 -0.7867  2.4736
 6674SOL    HW231659   0.523   3.430   6.957 -0.3586  1.5155  1.4017
 6675SOL     OW31660   1.895   2.250   5.373 -0.8806 -0.3320 -0.3197
 6675SOL    HW131661   1.948   2.329   5.377  0.7192 -1.5702  3.0335
 6675SOL    HW231662   1.885   2.236   5.279  0.4737  1.2999 -0.7055
 6676SOL     OW31663   1.407   3.021   4.047 -0.5387 -0.3360 -0.1238
 6676SOL    HW131664   1.344   2.979   3.988 -0.3058 -2.7864  1.3921
 6676SOL    HW231665   1.347   3.060   4.110 -0.2288  0.3926 -0.2778
 6677SOL     OW31666   4.096   1.867   6.979  0.1529 -0.2127 -0.4374
 6677SOL    HW131667   4.005   1.847   7.005  0.9347 -3.1172  0.0569
 6677SOL    HW231668   4.121   1.938   7.039 -2.2738  0.2700  0.0149
 6678SOL     OW31669   2.263   3.528   9.393 -0.0141  0.0415 -0.0206
 6678SOL    HW131670   2.350   3.567   9.384  0.6236 -1.2419  0.5841
 6678SOL    HW231671   2.204   3.602   9.377  2.0239  1.7911  0.6150
 6679SOL     OW31672   0.597   3.176   8.536  0.0694  0.2646 -0.6922
 6679SOL    HW131673   0.660   3.121   8.583  0.6166  0.3052 -1.3667
 6679SOL    HW231674   0.616   3.252   8.590  1.6696 -0.4128 -0.3012
 6680SOL     OW31675   3.785   2.471   6.843 -0.0145 -0.3484 -0.0867
 6680SOL    HW131676   3.865   2.509   6.806 -0.9738 -0.3500 -2.1500
 6680SOL    HW231677   3.775   2.538   6.911 -0.9098 -1.6192  1.0324
 6681SOL     OW31678   2.327   4.657   2.896  0.1707  0.1371  0.2421
 6681SOL    HW131679   2.420   4.675   2.888  0.0740  0.9378  0.9089
 6681SOL    HW231680   2.296   4.726   2.955 -0.0355  1.0091 -0.8754
 6682SOL     OW31681   3.800   1.861   7.007  0.0778 -0.4977  0.2419
 6682SOL    HW131682   3.755   1.905   7.080  1.3569 -0.2315  0.8769
 6682SOL    HW231683   3.734   1.803   6.969  0.3820  0.3840 -1.5874
 6683SOL     OW31684   3.669   4.252   9.903  0.5307 -0.1741  0.4160
 6683SOL    HW131685   3.689   4.185   9.969 -0.6627  0.9254  1.8703
 6683SOL    HW231686   3.699   4.204   9.825  0.8481 -0.7336  0.8792
 6684SOL     OW31687   2.993   3.890   6.617 -0.2148  0.2592 -0.1079
 6684SOL    HW131688   2.956   3.973   6.589 -0.8551  0.2612  0.7240
 6684SOL    HW231689   3.072   3.919   6.663 -0.0906 -0.3217  0.0577
 6685SOL     OW31690   1.113   1.675  11.304 -0.1027  1.1049 -0.4794
 6685SOL    HW131691   1.117   1.673  11.208 -1.1684 -1.0960 -0.4572
 6685SOL    HW231692   1.081   1.586  11.318  0.7781  0.4734 -2.4213
 6686SOL     OW31693   2.950   2.277   7.616  0.4930 -0.3278 -0.2666
 6686SOL    HW131694   2.993   2.239   7.692 -2.5139 -2.7465  0.2196
 6686SOL    HW231695   2.863   2.290   7.654 -1.2692 -0.5067 -4.2039
 6687SOL     OW31696   4.080   3.556  11.105 -0.4003  0.4423 -0.2531
 6687SOL    HW131697   4.042   3.470  11.125  1.5560 -0.2485  0.6117
 6687SOL    HW231698   4.142   3.540  11.033  0.7012  0.5821  0.6616
 6688SOL     OW31699   0.296   2.051   3.111 -0.1132  0.4796 -0.1370
 6688SOL    HW131700   0.256   1.988   3.170 -0.1112 -0.3672 -1.0472
 6688SOL    HW231701   0.222   2.105   3.085  1.1047  2.5803  0.7314
 6689SOL     OW31702   2.000   3.901   8.508 -0.3310  0.3076 -0.0950
 6689SOL    HW131703   2.024   3.809   8.496 -0.5620  0.2357  0.0024
 6689SOL    HW231704   2.069   3.943   8.458  1.5894  1.2285  3.3374
 6690SOL     OW31705   4.303   1.586  11.190 -0.9011 -0.0251 -0.3366
 6690SOL    HW131706   4.378   1.626  11.146  0.9311 -1.0149  1.8234
 6690SOL    HW231707   4.312   1.628  11.276 -2.8887 -1.0266  0.3620
 6691SOL     OW31708   0.436   1.049   7.169  0.1786 -0.3215  0.1142
 6691SOL    HW131709   0.426   1.006   7.084  1.9680  0.2016 -0.3696
 6691SOL    HW231710   0.360   1.107   7.163  0.0616 -0.5284 -0.4477
 6692SOL     OW31711   3.225   1.228  14.155 -0.0603 -0.0752  0.5631
 6692SOL    HW131712   3.131   1.239  14.142 -0.4202 -3.7478  0.1666
 6692SOL    HW231713   3.231   1.215  14.249 -2.3305  0.2285  0.7469
 6693SOL     OW31714   4.281   1.813   9.700 -0.4202  0.3619  0.1577
 6693SOL    HW131715   4.198   1.776   9.671  0.1406  0.3777 -1.4779
 6693SOL    HW231716   4.324   1.734   9.733 -2.0650 -0.9619 -0.8969
 6694SOL     OW31717   1.946   3.849   4.076  0.6791 -0.4485 -0.1746
 6694SOL    HW131718   1.972   3.776   4.020  3.0194 -0.4806  0.9555
 6694SOL    HW231719   2.016   3.913   4.064 -0.1589  0.2722 -1.2782
 6695SOL     OW31720   0.026   2.334   6.416  0.5006  0.2339 -0.1317
 6695SOL    HW131721   0.005   2.292   6.500 -0.9633 -1.5617 -1.4053
 6695SOL    HW231722   4.685   2.306   6.369  0.8962 -0.6874 -0.2436
 6696SOL     OW31723   0.568   1.178  16.687 -0.1706 -0.5719 -0.0759
 6696SOL    HW131724   0.506   1.114  16.652 -2.4091  1.2635  0.5493
 6696SOL    HW231725   0.586   1.137  16.772 -1.1703 -1.0593 -0.1001
 6697SOL     OW31726   2.588   3.226   1.287  0.2894 -0.2329 -0.3280
 6697SOL    HW131727   2.622   3.264   1.206  0.2670 -2.2987 -1.2919
 6697SOL    HW231728   2.504   3.272   1.291  0.5583  0.1631  0.6641
 6698SOL     OW31729   3.339   3.432   3.243 -0.8231 -0.2333  0.2766
 6698SOL    HW131730   3.413   3.373   3.232  0.2536  1.3708 -1.0029
 6698SOL    HW231731   3.276   3.392   3.183  1.5836 -0.7850 -1.8604
 6699SOL     OW31732   4.061   0.185   6.808  0.2911 -0.0309 -0.4147
 6699SOL    HW131733   4.144   0.138   6.808  0.0446 -0.4612 -0.0925
 6699SOL    HW231734   4.010   0.138   6.742 -0.1461  1.1338 -0.9185
 6700SOL     OW31735   1.133   0.004   8.402  0.1509 -0.2099  0.3320
 6700SOL    HW131736   1.117   4.737   8.308 -1.2340  1.6712  0.4646
 6700SOL    HW231737   1.225   0.032   8.398 -0.2467  1.4204  2.8525
 6701SOL     OW31738   0.404   2.763  13.802  0.1365 -0.6721 -0.2561
 6701SOL    HW131739   0.467   2.724  13.863  2.0265  0.5775 -1.3968
 6701SOL    HW231740   0.360   2.818  13.867  0.0870 -1.7575  0.6184
 6702SOL     OW31741   3.231   0.805  13.651 -0.9507 -0.5281  0.0291
 6702SOL    HW131742   3.144   0.791  13.690 -0.7599  0.8302  0.9494
 6702SOL    HW231743   3.198   0.844  13.570  0.0197  1.8917  0.7968
 6703SOL     OW31744   1.356   0.987   7.103  0.4730 -0.4834  0.2806
 6703SOL    HW131745   1.276   1.031   7.134 -0.2837 -2.2936  0.8854
 6703SOL    HW231746   1.326   0.898   7.122 -1.1433 -0.2669 -1.3017
 6704SOL     OW31747   3.459   1.114   5.190 -0.1621  0.2855 -0.2535
 6704SOL    HW131748   3.521   1.182   5.217  0.5767 -0.3004 -0.4699
 6704SOL    HW231749   3.518   1.063   5.134  1.0775  0.9964  0.4100
 6705SOL     OW31750   3.940   1.549  14.944 -0.2742  0.1990 -0.0637
 6705SOL    HW131751   3.898   1.633  14.966  1.3360  1.3027 -1.2064
 6705SOL    HW231752   3.983   1.525  15.026  0.1743 -0.4630 -0.5033
 6706SOL     OW31753   3.798   3.645  14.990 -1.0390 -0.0670  0.6770
 6706SOL    HW131754   3.846   3.630  14.908 -1.1137 -0.3959  0.6941
 6706SOL    HW231755   3.753   3.724  14.960 -0.0072 -0.2729 -1.4668
 6707SOL     OW31756   2.473   0.919   5.937 -0.2033  0.0843  0.1052
 6707SOL    HW131757   2.549   0.974   5.919  0.3218 -0.7296 -0.2004
 6707SOL    HW231758   2.490   0.845   5.878  1.4311 -0.6328  1.4656
 6708SOL     OW31759   4.735   0.591   4.393 -0.6087  0.3126  0.0078
 6708SOL    HW131760   4.662   0.530   4.400 -2.4360  2.6520  1.1855
 6708SOL    HW231761   4.691   0.656   4.340 -1.0432  0.1864  0.2156
 6709SOL     OW31762   2.343   0.377   5.684  0.0246  0.0492 -0.3355
 6709SOL    HW131763   2.279   0.309   5.662  0.7691 -0.2478 -1.5886
 6709SOL    HW231764   2.281   0.441   5.719  0.1976  1.5897 -2.9033
 6710SOL     OW31765   3.921   3.527   5.108 -0.0530 -0.1814 -0.1012
 6710SOL    HW131766   3.880   3.612   5.090 -0.1579 -0.3932 -0.8514
 6710SOL    HW231767   3.979   3.553   5.180 -2.2297  2.3323  0.7519
 6711SOL     OW31768   3.671   0.954   7.462  0.1414  0.0194  0.8338
 6711SOL    HW131769   3.669   1.019   7.532 -0.0305  2.5071 -1.5041
 6711SOL    HW231770   3.762   0.923   7.466 -0.0881 -0.8810 -1.0050
 6712SOL     OW31771   3.254   3.777   4.362  0.8595  0.2753 -0.0116
 6712SOL    HW131772   3.237   3.752   4.271  0.7528  2.5569 -0.6236
 6712SOL    HW231773   3.236   3.691   4.399 -0.2251 -0.2126 -1.6385
 6713SOL     OW31774   2.475   3.627   4.448 -0.1133  0.3838  0.7756
 6713SOL    HW131775   2.512   3.714   4.429  0.3848  0.5137  2.3728
 6713SOL    HW231776   2.552   3.579   4.480 -0.8143 -0.6807  0.8538
 6714SOL     OW31777   4.526   3.838  13.127  0.2330  0.3482  0.3556
 6714SOL    HW131778   4.474   3.778  13.075 -2.0472  2.6846 -0.0382
 6714SOL    HW231779   4.497   3.920  13.086 -1.1936  0.4571  1.5795
 6715SOL     OW31780   1.328   2.018   7.571  0.1886 -0.1803 -0.1402
 6715SOL    HW131781   1.276   2.092   7.604 -2.7235 -1.9962 -0.6463
 6715SOL    HW231782   1.417   2.053   7.571 -0.6700  2.0404  1.3657
 6716SOL     OW31783   3.684   1.286  14.368  0.1724 -0.3168 -0.5195
 6716SOL    HW131784   3.622   1.342  14.416  0.7912  0.8669 -1.0941
 6716SOL    HW231785   3.673   1.299  14.274  1.1580 -0.9510 -0.7157
 6717SOL     OW31786   3.863   1.378  16.568 -0.1446 -0.1759  0.4187
 6717SOL    HW131787   3.826   1.365  16.481  2.4322 -1.0950 -0.5118
 6717SOL    HW231788   3.822   1.305  16.615  1.4637 -1.1156  0.3524
 6718SOL     OW31789   4.472   4.368   8.238  0.4182 -0.4045  0.2619
 6718SOL    HW131790   4.424   4.291   8.206 -2.0207  0.4126  1.9779
 6718SOL    HW231791   4.397   4.408   8.281  0.1800 -2.3446  1.6747
 6719SOL     OW31792   3.829   0.408   9.253  0.1924  0.4404  0.3110
 6719SOL    HW131793   3.782   0.366   9.181 -0.5437  0.4347  0.7839
 6719SOL    HW231794   3.781   0.489   9.270  0.3556  0.3176  1.3733
 6720SOL     OW31795   4.346   1.709  17.041  0.3057 -0.4427 -0.2814
 6720SOL    HW131796   4.261   1.749  17.024  1.0963  0.5999 -1.6570
 6720SOL    HW231797   4.397   1.788  17.029 -0.6646  0.3129  0.5076
 6721SOL     OW31798   0.715   3.306  10.399 -0.0900  0.0237  0.1337
 6721SOL    HW131799   0.806   3.294  10.372 -1.1193 -2.5960 -2.2346
 6721SOL    HW231800   0.676   3.339  10.318 -1.5400  0.1267  0.8772
 6722SOL     OW31801   4.731   4.484   1.547 -0.0114 -0.4066  0.0592
 6722SOL    HW131802   0.063   4.452   1.604 -2.0311 -0.6462  2.3648
 6722SOL    HW231803   4.689   4.534   1.617 -1.6170 -0.7682 -0.6453
 6723SOL     OW31804   2.546   4.603  11.269  0.3168 -0.3864 -0.3556
 6723SOL    HW131805   2.547   4.591  11.364 -2.1253 -0.7611 -0.3723
 6723SOL    HW231806   2.618   4.548  11.238 -0.8125 -2.7515  1.1844
 6724SOL     OW31807   3.231   1.665  16.007 -0.6350  0.2106  0.4073
 6724SOL    HW131808   3.199   1.754  15.992  2.2616  0.6300 -3.3299
 6724SOL    HW231809   3.287   1.658  15.929 -0.2976 -1.3960  0.7965
 6725SOL     OW31810   2.293   0.402   5.125  0.1775 -0.3504 -0.0937
 6725SOL    HW131811   2.253   0.350   5.056 -0.8067  0.4592 -0.1381
 6725SOL    HW231812   2.386   0.403   5.104 -0.1779  1.3963 -1.5674
 6726SOL     OW31813   4.377   2.834   4.182 -0.6266 -0.4985  0.6174
 6726SOL    HW131814   4.401   2.907   4.240  0.3468  0.5502 -1.1168
 6726SOL    HW231815   4.395   2.873   4.097  0.1548 -0.0305  0.9986
 6727SOL     OW31816   0.004   3.753  15.712 -0.1928  0.0655 -0.3014
 6727SOL    HW131817   4.675   3.772  15.646 -1.0553 -2.6362 -0.2007
 6727SOL    HW231818   0.083   3.807  15.707  0.0902 -0.3288 -0.0746
 6728SOL     OW31819   3.594   4.030  13.122 -0.0580  0.1981 -0.5704
 6728SOL    HW131820   3.580   3.947  13.078  0.5611  0.0937 -0.5772
 6728SOL    HW231821   3.526   4.041  13.188  0.3574  3.0296 -0.5884
 6729SOL     OW31822   0.614   4.137   5.117 -0.3317 -0.2134 -0.1527
 6729SOL    HW131823   0.578   4.082   5.186  1.0330 -2.4690 -1.2265
 6729SOL    HW231824   0.603   4.227   5.149 -1.7495 -0.8293  1.0886
 6730SOL     OW31825   4.692   1.880   9.132 -0.1025  0.1287  0.5532
 6730SOL    HW131826   0.033   1.830   9.156  0.4692  0.8199  0.1132
 6730SOL    HW231827   4.735   1.963   9.111 -0.0866  0.0359  0.2160
 6731SOL     OW31828   0.539   4.555   9.564 -0.1254  0.4221  0.0715
 6731SOL    HW131829   0.460   4.543   9.615  0.0154  0.5220  0.3143
 6731SOL    HW231830   0.534   4.479   9.506  2.4096 -0.2094  0.6629
 6732SOL     OW31831   2.612   3.912   5.626 -0.2009 -0.4099  0.7323
 6732SOL    HW131832   2.627   3.852   5.553 -1.0362  1.8054 -1.2589
 6732SOL    HW231833   2.664   3.988   5.599 -0.1705 -0.6841  0.0459
 6733SOL     OW31834   2.806   3.548   2.308 -0.3648  0.7014 -0.3130
 6733SOL    HW131835   2.867   3.476   2.290 -1.3255  0.4220 -2.5056
 6733SOL    HW231836   2.743   3.527   2.239  1.2128  2.8723 -2.4096
 6734SOL     OW31837   0.426   2.940   8.367  0.2583 -0.2253 -0.2797
 6734SOL    HW131838   0.503   2.896   8.401 -0.2433 -0.5291  0.4649
 6734SOL    HW231839   0.395   2.992   8.442  3.7375 -1.1518  1.7869
 6735SOL     OW31840   2.136   4.611   3.857 -0.0828  0.3488 -0.4434
 6735SOL    HW131841   2.086   4.686   3.889 -1.5840 -0.4074 -0.9943
 6735SOL    HW231842   2.175   4.590   3.942 -1.2868  0.5833  0.1738
 6736SOL     OW31843   0.419   3.687   2.467 -0.2532  0.1956 -0.2510
 6736SOL    HW131844   0.457   3.675   2.554 -0.8158  2.4685  0.3131
 6736SOL    HW231845   0.332   3.726   2.479 -2.0039 -3.1808 -2.2646
 6737SOL     OW31846   3.189   1.036  10.050 -0.1547  0.4135  0.4737
 6737SOL    HW131847   3.203   1.125  10.017  1.0445 -0.3139 -1.0286
 6737SOL    HW231848   3.258   0.992  10.000 -1.6126 -0.9232 -0.3434
 6738SOL     OW31849   1.619   0.665   6.372 -0.1010 -0.0238 -0.0895
 6738SOL    HW131850   1.603   0.757   6.348 -0.2465  0.2799  1.1351
 6738SOL    HW231851   1.703   0.681   6.415 -0.7932  1.4032  0.7755
 6739SOL     OW31852   4.219   1.678   2.745 -0.2667  0.3976 -0.3102
 6739SOL    HW131853   4.161   1.733   2.693 -0.1327 -0.1187 -1.0107
 6739SOL    HW231854   4.156   1.622   2.791 -3.6697  0.0625 -5.2553
 6740SOL     OW31855   0.454   2.344  13.850  0.0508  0.3495  0.7813
 6740SOL    HW131856   0.368   2.385  13.849 -0.1123 -0.0156  0.3421
 6740SOL    HW231857   0.475   2.345  13.757  1.2594 -1.6704  1.0309
 6741SOL     OW31858   2.543   3.010   5.417  0.1893  0.0591  0.4964
 6741SOL    HW131859   2.586   3.077   5.365  1.5268 -0.5825  0.7670
 6741SOL    HW231860   2.622   2.961   5.440  0.3430 -0.4517 -1.1040
 6742SOL     OW31861   4.098   1.534   4.179 -0.1768 -0.1008  0.4405
 6742SOL    HW131862   4.157   1.540   4.105  0.8441  0.8911  1.3449
 6742SOL    HW231863   4.057   1.449   4.160 -0.1545 -0.0710  0.2616
 6743SOL     OW31864   1.208   0.141   4.348 -0.0638  0.0644  0.1672
 6743SOL    HW131865   1.258   0.069   4.308  0.0191 -0.3842  1.0887
 6743SOL    HW231866   1.205   0.107   4.437 -0.7503  0.6967  0.3824
 6744SOL     OW31867   3.483   3.357   9.951 -0.7039  0.5354  0.1501
 6744SOL    HW131868   3.480   3.391  10.041  1.4931 -0.5588  0.6490
 6744SOL    HW231869   3.563   3.304   9.948 -0.1817  1.3348  0.1785
 6745SOL     OW31870   2.471   3.107   2.947 -0.5481  0.1237  0.3961
 6745SOL    HW131871   2.528   3.135   2.875 -1.2587  1.9001  0.5249
 6745SOL    HW231872   2.385   3.145   2.931 -0.0355  1.8215  1.6526
 6746SOL     OW31873   1.045   3.754  11.158  0.0376  0.0907  0.0173
 6746SOL    HW131874   0.987   3.701  11.104  2.5331 -3.8014  1.0872
 6746SOL    HW231875   1.081   3.689  11.219 -0.6101 -0.1932  0.0996
 6747SOL     OW31876   1.671   1.563   6.834 -0.1519  0.3892  0.0154
 6747SOL    HW131877   1.709   1.477   6.849 -1.0023 -0.1182 -0.7043
 6747SOL    HW231878   1.641   1.592   6.920  0.6408  2.7594 -0.5110
 6748SOL     OW31879   2.207   2.780   4.848  0.3473 -0.3665  0.5703
 6748SOL    HW131880   2.168   2.850   4.901  1.3272  0.9236 -0.4315
 6748SOL    HW231881   2.189   2.817   4.762 -2.4735  0.3297  1.4333
 6749SOL     OW31882   2.481   1.049   6.306 -0.2122  0.5265 -0.0121
 6749SOL    HW131883   2.524   1.000   6.236 -1.8630 -0.1289 -0.5527
 6749SOL    HW231884   2.536   1.035   6.384  2.1065 -0.8227 -1.8971
 6750SOL     OW31885   1.670   2.344  16.257 -0.0261  0.0961  0.0278
 6750SOL    HW131886   1.760   2.372  16.243 -0.7721  1.7489 -1.4426
 6750SOL    HW231887   1.674   2.275  16.191 -1.5848  2.1340 -2.2040
 6751SOL     OW31888   1.729   3.000   0.104  0.2254  0.0078 -0.3048
 6751SOL    HW131889   1.655   3.018   0.163  1.7735 -2.2001  2.2705
 6751SOL    HW231890   1.686   2.989   0.020  0.5658 -0.4326 -0.4180
 6752SOL     OW31891   3.651   0.035  15.686 -0.1074 -0.0627  0.0928
 6752SOL    HW131892   3.666   0.085  15.766 -0.2385  0.4208 -0.1895
 6752SOL    HW231893   3.617   0.102  15.627 -0.0744  0.9535  1.2388
 6753SOL     OW31894   0.746   0.617  11.618 -0.4850 -0.1484  0.2435
 6753SOL    HW131895   0.691   0.564  11.676  0.7840 -0.7568  0.8833
 6753SOL    HW231896   0.833   0.620  11.657  0.5959 -1.4156 -2.0603
 6754SOL     OW31897   3.721   2.301   6.648  0.1249  0.2726 -0.3422
 6754SOL    HW131898   3.775   2.232   6.688  1.2917  1.5618  0.2919
 6754SOL    HW231899   3.710   2.361   6.721  1.0021 -1.1834  0.9950
 6755SOL     OW31900   2.547   2.207   6.752  0.6707  0.0500 -0.1627
 6755SOL    HW131901   2.526   2.113   6.745 -0.5104  0.4198 -1.5599
 6755SOL    HW231902   2.533   2.241   6.664  2.4601  0.7466 -0.1789
 6756SOL     OW31903   4.052   2.362   2.362 -0.1992 -0.2504  0.0109
 6756SOL    HW131904   3.964   2.376   2.328 -0.8834  1.2267  2.4022
 6756SOL    HW231905   4.029   2.296   2.428 -0.1957  0.5166  0.7712
 6757SOL     OW31906   2.346   0.955  16.324  0.0095 -0.5773 -0.0338
 6757SOL    HW131907   2.277   0.956  16.258  0.1555  0.1928 -0.1736
 6757SOL    HW231908   2.420   0.996  16.279 -2.0709  1.5951 -1.4592
 6758SOL     OW31909   3.990   1.246   4.196 -0.1044  0.0064  0.6557
 6758SOL    HW131910   3.905   1.289   4.208 -1.4728 -1.9921 -1.8304
 6758SOL    HW231911   3.985   1.175   4.260 -0.4292 -1.9904 -1.5643
 6759SOL     OW31912   0.916   2.558   3.901 -0.6462 -0.0396  0.0060
 6759SOL    HW131913   1.001   2.563   3.858 -1.8012  0.2187 -2.2654
 6759SOL    HW231914   0.929   2.618   3.974 -0.2846 -0.2111  0.0819
 6760SOL     OW31915   1.236   3.485   1.970 -0.0256  0.1432  0.3763
 6760SOL    HW131916   1.321   3.529   1.980 -0.0509  0.7537 -2.2241
 6760SOL    HW231917   1.180   3.560   1.951  1.8679  1.7347  1.0696
 6761SOL     OW31918   3.964   2.318   8.348 -0.1065  0.4319 -0.3624
 6761SOL    HW131919   3.921   2.247   8.395 -0.6123  2.4424  2.1882
 6761SOL    HW231920   3.945   2.391   8.408  0.0458 -2.0701  2.7056
 6762SOL     OW31921   0.956   3.349   6.104 -0.4484  0.0494  0.2106
 6762SOL    HW131922   0.869   3.341   6.144 -0.5129  0.2016  0.0977
 6762SOL    HW231923   0.934   3.389   6.020 -1.3075  0.1159  0.4696
 6763SOL     OW31924   0.406   2.781   2.302 -0.1951 -0.0154 -0.0917
 6763SOL    HW131925   0.324   2.784   2.352 -0.6406  0.3697 -0.8430
 6763SOL    HW231926   0.466   2.829   2.359 -1.6526 -0.8139  2.1340
 6764SOL     OW31927   0.322   0.906   6.118  0.3957  0.2615 -0.3636
 6764SOL    HW131928   0.367   0.921   6.201 -2.4707  1.3041  1.0237
 6764SOL    HW231929   0.400   0.884   6.066  1.3969  0.1667  1.1866
 6765SOL     OW31930   0.033   2.072  10.260  0.6611  0.1658 -0.5830
 6765SOL    HW131931   0.067   2.123  10.187 -0.2876  0.6395 -0.6915
 6765SOL    HW231932   4.678   2.056  10.239  0.1996  0.4119  1.2583
 6766SOL     OW31933   2.211   0.416  16.739 -0.2556 -0.1384  0.2718
 6766SOL    HW131934   2.136   0.438  16.685  0.4496 -1.0386 -1.0869
 6766SOL    HW231935   2.249   0.503  16.750  4.0217 -1.9319  0.0197
 6767SOL     OW31936   1.268   1.969   8.427 -0.4918 -0.2682  0.2796
 6767SOL    HW131937   1.246   1.905   8.359  1.1402  1.7949 -2.1389
 6767SOL    HW231938   1.359   1.950   8.448 -0.9550 -2.9406 -0.0061
 6768SOL     OW31939   0.719   2.217  17.598 -0.2183  0.2720 -0.4434
 6768SOL    HW131940   0.634   2.260  17.593 -0.9044 -0.8615  1.2969
 6768SOL    HW231941   0.782   2.289  17.607  1.0405 -0.9984  0.9703
 6769SOL     OW31942   0.547   2.093   5.998 -0.0059  0.4907 -0.7570
 6769SOL    HW131943   0.621   2.040   6.028 -0.7373  0.5542  1.1663
 6769SOL    HW231944   0.559   2.086   5.903 -0.3685 -1.8996 -0.6432
 6770SOL     OW31945   3.945   3.429  15.395 -0.0331 -0.3126 -0.2771
 6770SOL    HW131946   3.935   3.356  15.335 -1.1148  0.9908 -1.6661
 6770SOL    HW231947   3.884   3.496  15.363 -0.9732 -0.9988  0.1129
 6771SOL     OW31948   3.846   4.088   7.990  0.7502 -0.2315  0.3549
 6771SOL    HW131949   3.757   4.096   7.956  0.7728  2.5611  0.9287
 6771SOL    HW231950   3.852   4.163   8.049  0.1689  0.1444 -0.0603
 6772SOL     OW31951   4.172   4.494   4.028  0.4344  0.0016  0.1743
 6772SOL    HW131952   4.260   4.532   4.023 -0.2928  1.6039 -0.3814
 6772SOL    HW231953   4.182   4.411   3.981 -2.4741 -0.7564  0.9111
 6773SOL     OW31954   2.265   0.668  16.684 -0.5394 -0.1437 -0.3561
 6773SOL    HW131955   2.260   0.763  16.700 -2.2818 -0.0859 -1.2523
 6773SOL    HW231956   2.302   0.663  16.596 -0.5676  0.9550 -0.4295
 6774SOL     OW31957   4.608   3.185   3.714 -0.4227 -0.2783 -0.3396
 6774SOL    HW131958   4.540   3.118   3.706 -1.0441  0.4323 -1.0162
 6774SOL    HW231959   4.563   3.270   3.709 -0.0796 -0.1457 -1.2267
 6775SOL     OW31960   2.067   0.473   7.040  0.3224 -0.3545  0.0646
 6775SOL    HW131961   2.149   0.510   7.074  0.4016  0.2379 -0.7870
 6775SOL    HW231962   2.049   0.529   6.965 -1.5880 -0.5999  0.3380
 6776SOL     OW31963   0.996   3.095   9.847  0.3776  0.4415  0.1143
 6776SOL    HW131964   1.091   3.105   9.855  0.4063  0.7280 -0.6108
 6776SOL    HW231965   0.979   3.018   9.902  1.8650  2.0588  2.8373
 6777SOL     OW31966   2.622   4.096   5.101 -0.9846  0.6521 -0.1835
 6777SOL    HW131967   2.665   4.053   5.027  0.9743  0.1535  1.2453
 6777SOL    HW231968   2.693   4.158   5.121 -0.5762  0.1808 -0.1689
 6778SOL     OW31969   2.408   1.762   3.087  0.7415 -0.2452  0.0250
 6778SOL    HW131970   2.341   1.759   3.019  1.9560 -1.4966 -1.1399
 6778SOL    HW231971   2.484   1.726   3.040 -0.2795 -1.2753 -0.8249
 6779SOL     OW31972   1.924   1.714   4.983  0.2248 -0.3842  0.3919
 6779SOL    HW131973   1.945   1.625   5.012 -1.1432 -0.7093  0.4170
 6779SOL    HW231974   1.981   1.763   5.041 -0.0716  1.1569 -0.6281
 6780SOL     OW31975   1.805   2.637  15.555  0.0969 -0.1047  0.3678
 6780SOL    HW131976   1.801   2.686  15.473 -1.8788 -3.2569 -1.4285
 6780SOL    HW231977   1.802   2.705  15.622 -0.3458 -1.1165  1.3719
 6781SOL     OW31978   2.875   3.608   1.718  0.0903 -0.0543 -0.3494
 6781SOL    HW131979   2.853   3.516   1.709  0.6438 -0.1733 -0.4828
 6781SOL    HW231980   2.788   3.646   1.704 -0.5329 -0.7552  1.6772
 6782SOL     OW31981   3.204   0.576   7.032  0.1322 -0.3924 -0.7747
 6782SOL    HW131982   3.262   0.638   7.075  1.1193 -0.9436 -1.3104
 6782SOL    HW231983   3.268   0.552   6.965  1.9089  3.0719 -0.3341
 6783SOL     OW31984   4.297   2.147   2.921  0.2778  0.3681  0.1738
 6783SOL    HW131985   4.318   2.200   2.845 -1.8397 -0.4834 -0.9984
 6783SOL    HW231986   4.385   2.117   2.942  0.5820  0.4364 -1.0330
 6784SOL     OW31987   2.506   2.895   4.436 -0.2012  0.0590  0.0886
 6784SOL    HW131988   2.592   2.890   4.394 -0.6189 -2.0258 -0.5115
 6784SOL    HW231989   2.445   2.873   4.365 -1.0569  0.7503  0.6165
 6785SOL     OW31990   4.324   4.146   8.198 -0.6444  0.9083  0.4577
 6785SOL    HW131991   4.305   4.136   8.104  0.6696  2.9105 -0.0277
 6785SOL    HW231992   4.243   4.138   8.248 -0.1748 -1.0622  0.8944
 6786SOL     OW31993   4.549   4.138   3.545  0.0137  0.2893 -0.0577
 6786SOL    HW131994   4.644   4.142   3.558 -0.2583  0.4121  1.7954
 6786SOL    HW231995   4.538   4.056   3.497  1.4937  0.4898 -0.7747
 6787SOL     OW31996   0.554   2.587   6.300  0.0416  0.0167 -0.2837
 6787SOL    HW131997   0.605   2.517   6.260  2.3573  1.3157  0.4112
 6787SOL    HW231998   0.524   2.622   6.217  0.1952  1.2237  0.1737
 6788SOL     OW31999   2.761   3.291  13.614  0.0110 -0.2707 -0.3906
 6788SOL    HW132000   2.766   3.310  13.708 -0.6861  0.3779 -0.4908
 6788SOL    HW232001   2.802   3.205  13.606 -0.0499 -0.2690 -0.6986
 6789SOL     OW32002   4.087   2.314   7.078 -0.2746  0.0003  0.0205
 6789SOL    HW132003   4.119   2.391   7.032 -0.1711  1.0178  1.7750
 6789SOL    HW232004   4.053   2.341   7.164 -0.6019  1.8691 -0.6921
 6790SOL     OW32005   4.318   3.999  12.793 -0.3641  0.1576 -0.3212
 6790SOL    HW132006   4.383   4.040  12.849 -0.5335 -1.8929  1.4003
 6790SOL    HW232007   4.369   3.923  12.764  0.0208  0.5628 -0.6902
 6791SOL     OW32008   0.602   1.266   1.881 -0.4960 -0.2359 -0.4023
 6791SOL    HW132009   0.617   1.185   1.930 -0.6138 -0.6493 -1.0547
 6791SOL    HW232010   0.584   1.321   1.957 -0.5625  0.0520 -0.6269
 6792SOL     OW32011   2.605   4.001   1.094 -0.1283 -0.1242 -0.3783
 6792SOL    HW132012   2.573   4.091   1.105  1.4202  0.4014 -0.1578
 6792SOL    HW232013   2.548   3.957   1.031 -1.0429  1.6440 -0.7983
 6793SOL     OW32014   1.237   3.293   6.056  0.0270 -0.1241  0.3123
 6793SOL    HW132015   1.267   3.225   6.116 -0.4846  0.1695  0.8991
 6793SOL    HW232016   1.149   3.301   6.092  0.7552  2.6332  1.4305
 6794SOL     OW32017   1.577   2.941  17.343  0.0788  0.1698  0.2772
 6794SOL    HW132018   1.601   2.861  17.296 -2.1701 -0.0488 -0.5286
 6794SOL    HW232019   1.499   2.957  17.290  0.3177 -0.1046 -0.1574
 6795SOL     OW32020   0.521   2.922   8.714 -0.4602  0.6889  0.1100
 6795SOL    HW132021   0.436   2.950   8.682 -0.1691 -0.1259 -1.3229
 6795SOL    HW232022   0.534   2.830   8.691  2.4587  1.3769 -0.9419
 6796SOL     OW32023   0.321   3.876   0.674  0.5641 -0.9219  0.1514
 6796SOL    HW132024   0.267   3.952   0.650  1.6674 -0.3447 -0.4823
 6796SOL    HW232025   0.396   3.896   0.618  0.1296 -2.0800 -0.8608
 6797SOL     OW32026   2.586   4.730   8.958 -0.5854  0.1058 -0.0651
 6797SOL    HW132027   2.574   4.728   8.863 -0.4416 -0.8316 -0.0700
 6797SOL    HW232028   2.678   0.014   8.964 -0.0018 -2.4207  0.0929
 6798SOL     OW32029   2.672   1.956   4.097  0.1220  0.0517 -0.1394
 6798SOL    HW132030   2.620   1.897   4.152  0.0143 -0.0327 -0.3322
 6798SOL    HW232031   2.701   2.019   4.163  0.0783 -1.0776  0.9486
 6799SOL     OW32032   0.155   0.728   0.741  0.5753 -0.1802 -0.9987
 6799SOL    HW132033   0.086   0.788   0.769  2.0609  1.7765 -1.5180
 6799SOL    HW232034   0.114   0.643   0.754  1.4712 -0.6261 -1.0696
 6800SOL     OW32035   0.605   2.776  16.333  0.5756 -0.0690 -0.3033
 6800SOL    HW132036   0.566   2.861  16.355  4.0142  1.7849 -1.4420
 6800SOL    HW232037   0.525   2.727  16.355  0.1017  0.5492 -0.6687
 6801SOL     OW32038   3.095   3.289   8.773 -0.3145 -0.0641 -0.0767
 6801SOL    HW132039   3.098   3.362   8.711  0.1134  0.2833  0.3505
 6801SOL    HW232040   3.097   3.351   8.846  0.9925  0.0255 -0.1937
 6802SOL     OW32041   4.451   1.729   8.393  0.0726  0.1907  0.0500
 6802SOL    HW132042   4.506   1.732   8.315  0.6705 -1.4202  0.4052
 6802SOL    HW232043   4.492   1.664   8.450  1.2213  1.9818  1.2463
 6803SOL     OW32044   0.538   2.022  13.265 -0.0293  0.1672 -1.2340
 6803SOL    HW132045   0.495   2.104  13.290 -2.0406 -1.8395  1.9660
 6803SOL    HW232046   0.464   1.961  13.267  1.0011 -0.9799  2.7886
 6804SOL     OW32047   2.012   0.166   4.682 -0.6998 -0.1550 -0.3479
 6804SOL    HW132048   2.032   0.129   4.596 -1.2290 -2.1280  0.3740
 6804SOL    HW232049   1.958   0.241   4.659  1.2714  0.9199 -1.4876
 6805SOL     OW32050   3.572   0.026   7.527  1.0095  0.2250 -0.3522
 6805SOL    HW132051   3.639   0.063   7.584  1.2768  0.1761 -0.6342
 6805SOL    HW232052   3.522   4.703   7.582 -1.0691  0.3858 -2.0621
 6806SOL     OW32053   0.124   4.732   2.257  0.4432 -0.0593  0.5351
 6806SOL    HW132054   0.111   0.033   2.344  2.0287  1.1622  0.2069
 6806SOL    HW232055   0.140   4.642   2.285 -1.4904 -0.7423 -0.5368
 6807SOL     OW32056   1.473   2.381  10.155  0.5095 -0.9439 -0.0432
 6807SOL    HW132057   1.528   2.329  10.214  0.6827  0.7273  1.2752
 6807SOL    HW232058   1.475   2.462  10.206 -1.2431 -1.5825  1.0190
 6808SOL     OW32059   4.638   0.378  10.086  0.1803 -0.0023 -0.7937
 6808SOL    HW132060   4.724   0.418  10.090 -1.0395  2.4846  0.9297
 6808SOL    HW232061   4.581   0.433  10.032 -2.6643 -1.8121  0.3406
 6809SOL     OW32062   4.093   0.855   6.607 -0.7251  0.5324  0.1216
 6809SOL    HW132063   4.109   0.792   6.677 -0.6105 -0.0902 -0.4703
 6809SOL    HW232064   4.083   0.789   6.538 -0.3946  0.9137 -0.2905
 6810SOL     OW32065   4.283   4.714   0.832  0.5491 -0.1708 -0.1355
 6810SOL    HW132066   4.312   0.039   0.766  0.2067 -1.7342 -1.7508
 6810SOL    HW232067   4.190   0.001   0.829  0.0761 -2.0333 -0.7099
 6811SOL     OW32068   4.644   3.026   7.080 -0.3574 -0.5988 -0.5193
 6811SOL    HW132069   4.686   3.064   7.002 -3.6557  1.8254 -1.0817
 6811SOL    HW232070   4.682   3.085   7.145 -1.4493  1.5636 -1.8383
 6812SOL     OW32071   1.186   0.194  15.088 -0.2232  0.1329 -0.3242
 6812SOL    HW132072   1.152   0.107  15.109 -3.5895  1.9148  1.6199
 6812SOL    HW232073   1.272   0.200  15.130 -0.2215  0.4337 -0.3712
 6813SOL     OW32074   0.867   1.238   9.110  0.6285 -0.5407  0.1623
 6813SOL    HW132075   0.840   1.330   9.116 -1.6347 -1.2460  0.5359
 6813SOL    HW232076   0.781   1.197   9.102  1.4464 -2.2687  0.1315
 6814SOL     OW32077   1.818   2.268   3.454  0.0478  0.0464  0.8662
 6814SOL    HW132078   1.796   2.261   3.361 -0.4686 -1.7209  1.1189
 6814SOL    HW232079   1.854   2.357   3.447  0.0345  0.1135  1.6173
 6815SOL     OW32080   2.553   0.367   5.055 -0.7726  0.4991 -0.0180
 6815SOL    HW132081   2.565   0.291   5.112  0.9989 -0.1598 -1.2504
 6815SOL    HW232082   2.575   0.324   4.972 -0.9621 -0.5388  0.4623
 6816SOL     OW32083   4.300   0.474   6.143  0.0095 -0.0759  0.3147
 6816SOL    HW132084   4.242   0.550   6.133 -1.0322 -0.9790 -0.6150
 6816SOL    HW232085   4.384   0.512   6.167  1.8496 -2.2109 -2.8227
 6817SOL     OW32086   2.911   4.164   2.989 -0.5967  0.1049 -0.0621
 6817SOL    HW132087   3.001   4.132   2.991 -0.7859 -0.2819  2.9731
 6817SOL    HW232088   2.890   4.111   2.912  0.8675  1.8402 -1.6157
 6818SOL     OW32089   2.599   4.591  11.563  0.6944 -0.3821  0.2483
 6818SOL    HW132090   2.685   4.619  11.596 -0.2595  3.6045 -0.5545
 6818SOL    HW232091   2.542   4.646  11.617 -2.4784 -1.8996 -1.5869
 6819SOL     OW32092   1.068   4.540   4.912 -0.1192  0.5853  0.1625
 6819SOL    HW132093   1.111   4.459   4.940 -0.4470  0.1347 -0.6272
 6819SOL    HW232094   1.127   4.613   4.931  1.0475 -0.1800 -0.5398
 6820SOL     OW32095   4.198   4.439   8.261  0.4064  0.2138 -0.1904
 6820SOL    HW132096   4.217   4.417   8.169  1.9507  0.0184  0.1794
 6820SOL    HW232097   4.179   4.533   8.266  0.5341  0.1511  1.3793
 6821SOL     OW32098   1.548   3.181   8.430 -0.0407  0.2645 -0.2693
 6821SOL    HW132099   1.555   3.109   8.494  0.4665  0.2323 -0.3559
 6821SOL    HW232100   1.497   3.132   8.366 -0.1241  0.7209 -0.5432
 6822SOL     OW32101   3.418   3.260   5.557  0.5890 -0.2757 -0.0755
 6822SOL    HW132102   3.353   3.196   5.586 -0.5839  0.3718 -1.2714
 6822SOL    HW232103   3.416   3.236   5.464  0.1159 -0.4326 -0.0236
 6823SOL     OW32104   3.235   2.861  11.456 -0.2859  0.2501  0.0507
 6823SOL    HW132105   3.305   2.926  11.451 -0.8073  0.9395  1.5069
 6823SOL    HW232106   3.279   2.777  11.468 -0.8144 -0.0429 -0.0783
 6824SOL     OW32107   1.147   3.223   3.596  0.3444 -0.7250  0.0974
 6824SOL    HW132108   1.200   3.179   3.529 -0.2445  0.2751 -1.0127
 6824SOL    HW232109   1.211   3.278   3.641 -1.2939  0.9773  0.3412
 6825SOL     OW32110   1.757   1.527   8.785 -0.4306  0.0999  0.0137
 6825SOL    HW132111   1.849   1.535   8.809 -0.1363 -0.3307 -0.9695
 6825SOL    HW232112   1.725   1.483   8.863  0.7666  0.6447  0.8141
 6826SOL     OW32113   4.725   0.879   7.009  0.2043 -0.0738 -0.4212
 6826SOL    HW132114   4.677   0.814   6.957 -0.7567 -0.5421  1.0510
 6826SOL    HW232115   0.015   0.951   6.953  1.4246 -0.6135 -0.5093
 6827SOL     OW32116   3.147   2.016  14.761  0.3951  0.3084 -0.3347
 6827SOL    HW132117   3.168   1.986  14.673 -0.3810 -1.6814  0.1627
 6827SOL    HW232118   3.126   2.104  14.730 -0.4968 -0.4608 -1.8772
 6828SOL     OW32119   1.986   4.498  10.431  0.1476 -0.7019  0.3855
 6828SOL    HW132120   2.031   4.548  10.363  2.5289 -1.9149  1.0912
 6828SOL    HW232121   2.047   4.523  10.501 -0.9354  0.3018  0.9720
 6829SOL     OW32122   0.234   3.848  13.314 -0.2131  0.3891 -0.3618
 6829SOL    HW132123   0.165   3.912  13.293  0.3925  1.1154 -0.1425
 6829SOL    HW232124   0.215   3.781  13.249 -1.2080  0.6834 -0.3769
 6830SOL     OW32125   4.469   3.709   6.419  0.3593 -0.4231  0.3339
 6830SOL    HW132126   4.470   3.785   6.477 -1.5945 -0.7545  0.7872
 6830SOL    HW232127   4.543   3.733   6.362 -0.6574  0.0136 -0.8092
 6831SOL     OW32128   0.136   4.551  13.271 -0.2514  0.7017  0.3272
 6831SOL    HW132129   0.224   4.548  13.233 -1.3329  1.7325 -2.2812
 6831SOL    HW232130   0.092   4.467  13.254  2.6713  0.0789 -4.2428
 6832SOL     OW32131   2.733   3.324   4.802 -0.6394 -0.3856  0.3901
 6832SOL    HW132132   2.768   3.249   4.753  0.7898  0.6011 -0.0909
 6832SOL    HW232133   2.805   3.340   4.863  0.7180 -3.3477 -0.4210
 6833SOL     OW32134   1.471   1.791  10.542 -0.6656  0.5979  0.2329
 6833SOL    HW132135   1.376   1.795  10.547 -0.7036  1.0092 -0.7224
 6833SOL    HW232136   1.493   1.743  10.622 -0.5791 -2.1409 -1.4316
 6834SOL     OW32137   3.155   2.902   7.283 -0.4465 -0.6217 -0.8338
 6834SOL    HW132138   3.242   2.931   7.310 -0.2304 -0.2614 -1.9529
 6834SOL    HW232139   3.126   2.859   7.364  0.0758  2.2235  0.8845
 6835SOL     OW32140   0.375   2.612  14.305  0.1467 -0.3371 -0.0829
 6835SOL    HW132141   0.292   2.596  14.261 -0.7707 -1.7913  2.1308
 6835SOL    HW232142   0.438   2.555  14.260 -1.6086 -1.8621 -0.6151
 6836SOL     OW32143   3.303   3.984  15.460 -0.2801 -0.0741  0.2841
 6836SOL    HW132144   3.363   4.039  15.509 -0.3015  0.6765 -0.5379
 6836SOL    HW232145   3.257   4.057  15.418 -0.5996  1.4678  3.3207
 6837SOL     OW32146   0.687   1.974   4.220  0.2308 -0.4772  0.1153
 6837SOL    HW132147   0.773   2.015   4.216  0.3868 -0.8681 -0.5107
 6837SOL    HW232148   0.624   2.040   4.190  0.2386 -1.4156 -1.9832
 6838SOL     OW32149   3.017   0.632   9.302 -0.0109  0.0292 -0.4575
 6838SOL    HW132150   3.024   0.727   9.302 -1.7339  0.1546 -1.4258
 6838SOL    HW232151   2.936   0.620   9.352  0.6119  1.7174  0.9275
 6839SOL     OW32152   4.386   1.121   1.792 -0.2884 -0.2186  0.0557
 6839SOL    HW132153   4.426   1.085   1.713 -0.2006 -1.8909  0.8567
 6839SOL    HW232154   4.348   1.047   1.838  3.5957 -1.9358  0.4522
 6840SOL     OW32155   1.837   2.681   4.083 -0.0646  0.2009 -0.7849
 6840SOL    HW132156   1.880   2.748   4.136 -0.3307 -0.1199 -0.1622
 6840SOL    HW232157   1.751   2.722   4.078 -0.8010 -1.2092  0.3418
 6841SOL     OW32158   0.431   4.466  10.512  0.2278 -0.0839  0.1630
 6841SOL    HW132159   0.445   4.557  10.537  1.3603  0.0868 -1.0377
 6841SOL    HW232160   0.338   4.457  10.494  0.1567  0.8015  0.1080
 6842SOL     OW32161   0.942   1.110   8.845 -0.2172  0.0242 -0.2202
 6842SOL    HW132162   0.850   1.121   8.820  0.0468  2.3757 -0.1075
 6842SOL    HW232163   0.938   1.170   8.920 -1.5680 -1.3089  0.7928
 6843SOL     OW32164   2.726   0.255   7.418 -0.3223  0.3894 -0.2882
 6843SOL    HW132165   2.651   0.282   7.470 -1.0442  0.8011 -1.5536
 6843SOL    HW232166   2.714   0.162   7.402  2.5949 -0.0283 -0.1494
 6844SOL     OW32167   2.416   2.345   7.539 -0.1984 -0.2851 -0.4987
 6844SOL    HW132168   2.484   2.278   7.530  0.6967  0.4348  1.0046
 6844SOL    HW232169   2.464   2.426   7.523  1.0529 -0.8872  0.1925
 6845SOL     OW32170   1.818   0.827   4.301  0.0138  0.4019  0.0299
 6845SOL    HW132171   1.912   0.835   4.311  0.1901 -1.0398 -0.5438
 6845SOL    HW232172   1.802   0.736   4.279  2.3541  0.3507 -1.4168
 6846SOL     OW32173   1.219   0.573   4.908  0.4679 -0.8584  0.2929
 6846SOL    HW132174   1.270   0.654   4.897  1.4260 -1.5051 -0.0910
 6846SOL    HW232175   1.278   0.526   4.849  1.7327 -0.0626  0.9201
 6847SOL     OW32176   3.677   1.279  17.639  0.4224  0.0805  0.1957
 6847SOL    HW132177   3.664   1.188  17.666 -0.5882  0.0112 -0.5373
 6847SOL    HW232178   3.629   1.328  17.705  0.3262  2.7819 -1.8835
 6848SOL     OW32179   0.806   3.733   1.927 -0.0980 -0.2196  0.0580
 6848SOL    HW132180   0.739   3.697   1.985  0.1888 -0.0619  0.4859
 6848SOL    HW232181   0.763   3.817   1.917  2.0189  0.9445  0.8124
 6849SOL     OW32182   0.575   4.128   4.674 -0.2044 -0.1318  0.0752
 6849SOL    HW132183   0.522   4.155   4.749 -2.5235 -0.8846 -1.2769
 6849SOL    HW232184   0.658   4.104   4.716 -0.4550  0.6314  0.9801
 6850SOL     OW32185   2.690   3.702   5.821 -0.7487  0.4638  0.1967
 6850SOL    HW132186   2.706   3.746   5.738  1.0353  2.7194  1.7340
 6850SOL    HW232187   2.759   3.636   5.819 -1.1270  0.1050 -1.0272
 6851SOL     OW32188   0.730   2.274   2.646 -0.0679  0.2180 -0.2686
 6851SOL    HW132189   0.758   2.183   2.636 -0.9935  0.1841 -2.5542
 6851SOL    HW232190   0.787   2.313   2.581 -2.2906  2.0206 -1.1366
 6852SOL     OW32191   2.589   3.647  15.284 -0.8743  0.4634  0.1116
 6852SOL    HW132192   2.498   3.620  15.295  0.1890 -3.1125  0.3335
 6852SOL    HW232193   2.633   3.572  15.324  1.6670  1.3665 -0.9780
 6853SOL     OW32194   3.109   1.835  11.385  0.1588  0.5334  0.2269
 6853SOL    HW132195   3.196   1.848  11.423  0.3244  0.4018 -0.1106
 6853SOL    HW232196   3.112   1.739  11.385 -0.5007  0.5089 -0.0346
 6854SOL     OW32197   3.368   2.447   6.728  0.2183  0.8042 -0.1041
 6854SOL    HW132198   3.435   2.497   6.775 -1.0200  1.2629  1.1476
 6854SOL    HW232199   3.408   2.360   6.715 -3.4245 -0.9414  0.3145
 6855SOL     OW32200   1.610   0.578   3.752 -0.1850 -0.2456  0.1265
 6855SOL    HW132201   1.604   0.605   3.661 -1.5446  0.7609  0.5206
 6855SOL    HW232202   1.695   0.614   3.779  0.9168 -1.3301 -1.9080
 6856SOL     OW32203   4.223   0.132   7.245  0.3313 -0.0784  0.3636
 6856SOL    HW132204   4.127   0.123   7.243  0.3938 -0.7104  0.2375
 6856SOL    HW232205   4.242   0.039   7.231 -1.7770 -0.5081  0.3216
 6857SOL     OW32206   1.461   3.677   6.209  0.1866  0.7137  0.0618
 6857SOL    HW132207   1.464   3.633   6.124 -2.3865 -0.8160  0.7637
 6857SOL    HW232208   1.511   3.621   6.268 -2.3847  0.5054  2.0352
 6858SOL     OW32209   4.226   3.936   7.788 -0.1238  0.0631  0.0931
 6858SOL    HW132210   4.166   3.928   7.714  0.2879  0.2468 -0.2598
 6858SOL    HW232211   4.283   3.862   7.769 -1.4307 -1.2082  1.1490
 6859SOL     OW32212   1.082   3.451   2.309  0.1677 -0.4733 -0.3538
 6859SOL    HW132213   1.085   3.368   2.262  0.6077 -0.2778 -0.6729
 6859SOL    HW232214   1.149   3.492   2.254 -1.2952  0.2987 -1.5779
 6860SOL     OW32215   2.901   2.414   2.998 -0.0219  0.0213  0.6801
 6860SOL    HW132216   2.915   2.407   3.092 -0.3368 -0.9724  0.6634
 6860SOL    HW232217   2.904   2.319   2.983 -0.8997 -0.0398  0.8816
 6861SOL     OW32218   3.214   4.224   6.594  0.3692 -0.3489 -0.5940
 6861SOL    HW132219   3.225   4.136   6.631 -0.2662 -0.3845 -0.4980
 6861SOL    HW232220   3.182   4.204   6.506  0.1407 -1.8358 -0.1788
 6862SOL     OW32221   3.843   3.178  10.089 -0.6934  0.0914 -0.0443
 6862SOL    HW132222   3.932   3.160  10.061 -1.1600 -1.1647 -0.7170
 6862SOL    HW232223   3.844   3.268  10.121 -0.4677  0.1206 -0.1366
 6863SOL     OW32224   3.873   3.612   3.279  0.5100 -0.7410 -0.2720
 6863SOL    HW132225   3.933   3.669   3.231  1.0205  0.6077  1.9792
 6863SOL    HW232226   3.802   3.616   3.215 -0.0101  1.1590  0.4382
 6864SOL     OW32227   2.783   2.913   1.423 -0.2683  0.2070  0.5259
 6864SOL    HW132228   2.861   2.908   1.477  1.0328  0.6256 -1.3044
 6864SOL    HW232229   2.771   3.007   1.414 -1.1686 -0.0089 -0.4998
 6865SOL     OW32230   3.981   1.628   8.597  0.5660 -0.2022 -0.4213
 6865SOL    HW132231   3.943   1.710   8.563  0.6204  0.1083  0.2719
 6865SOL    HW232232   3.936   1.561   8.545  1.1148 -0.0821 -1.0543
 6866SOL     OW32233   2.184   1.960   4.735  0.1259  0.5124 -0.5613
 6866SOL    HW132234   2.175   1.917   4.650 -0.2092  0.1590 -0.3475
 6866SOL    HW232235   2.230   1.887   4.777  0.4027 -0.2591 -2.1755
 6867SOL     OW32236   3.081   0.562   9.043  0.1961 -0.8772 -0.2431
 6867SOL    HW132237   3.037   0.487   9.083  1.7876 -1.0109  1.2500
 6867SOL    HW232238   3.072   0.631   9.108 -2.3756 -0.7003 -0.7863
 6868SOL     OW32239   2.188   2.875   1.684 -0.5566  0.1169  0.1238
 6868SOL    HW132240   2.281   2.886   1.703 -0.3578 -0.0888 -0.7108
 6868SOL    HW232241   2.161   2.965   1.699  0.9852  0.5812  0.1248
 6869SOL     OW32242   4.208   0.027   4.865  0.2246  0.1939 -0.3225
 6869SOL    HW132243   4.158   0.072   4.796  0.5357 -0.7540 -1.1781
 6869SOL    HW232244   4.178   4.674   4.854 -0.5751  0.2671  1.2166
 6870SOL     OW32245   2.735   2.620  11.646  0.2908  0.0927  0.1947
 6870SOL    HW132246   2.658   2.623  11.590  0.5349 -1.1411 -0.2161
 6870SOL    HW232247   2.793   2.559  11.600 -0.9631 -1.1856  0.3154
 6871SOL     OW32248   3.274   0.955   9.482  0.2800 -0.0775  0.3546
 6871SOL    HW132249   3.276   0.969   9.577 -0.0094 -1.0960  0.5171
 6871SOL    HW232250   3.302   1.036   9.440  1.3888 -0.3081  0.6478
 6872SOL     OW32251   4.188   0.040   5.466 -0.0509  0.0893  0.4575
 6872SOL    HW132252   4.137   0.038   5.547  0.6546 -2.7797  0.8479
 6872SOL    HW232253   4.241   4.698   5.476 -1.7715 -1.1365 -0.2598
 6873SOL     OW32254   1.638   0.224   5.692 -0.1405 -0.4443  0.1915
 6873SOL    HW132255   1.568   0.245   5.631 -1.7847 -1.1836  1.8066
 6873SOL    HW232256   1.579   0.196   5.762 -0.2076 -3.1797 -0.9698
 6874SOL     OW32257   0.656   0.864   4.588  0.4648  0.4565  0.4581
 6874SOL    HW132258   0.672   0.775   4.555  0.5634  0.6152  0.0750
 6874SOL    HW232259   0.696   0.922   4.524  1.5395 -0.4318  0.3302
 6875SOL     OW32260   2.079   0.154  17.574  0.5915 -0.5230 -0.2936
 6875SOL    HW132261   2.157   0.166  17.628  0.3955  1.7421 -0.5070
 6875SOL    HW232262   2.096   0.078  17.518 -1.6271 -1.9603  0.9509
 6876SOL     OW32263   0.700   2.864   2.783  0.2861  0.1328  0.0088
 6876SOL    HW132264   0.719   2.795   2.847 -0.2235 -1.8575 -1.9946
 6876SOL    HW232265   0.789   2.898   2.771  0.7648 -0.6001  1.3518
 6877SOL     OW32266   3.656   0.199   3.295 -0.4678 -0.6920  0.5085
 6877SOL    HW132267   3.605   0.132   3.341  0.3359 -1.8564 -0.3061
 6877SOL    HW232268   3.584   0.256   3.266 -0.1648 -0.3868  0.3634
 6878SOL     OW32269   3.914   1.907   3.523  0.0613  0.0308  0.2348
 6878SOL    HW132270   3.877   1.882   3.608 -0.9225 -0.1176 -0.2365
 6878SOL    HW232271   3.968   1.830   3.501 -0.3092 -0.0694 -0.3284
 6879SOL     OW32272   2.441   1.460   8.980  0.9320 -0.0343 -0.7060
 6879SOL    HW132273   2.376   1.394   9.003  0.4755  0.4703 -0.5454
 6879SOL    HW232274   2.415   1.482   8.891  2.4030  1.1855 -0.8384
 6880SOL     OW32275   0.015   1.851   3.736 -0.1832  0.4260 -0.7688
 6880SOL    HW132276   4.727   1.912   3.805  1.2820 -0.5639  0.6551
 6880SOL    HW232277   4.688   1.782   3.750 -0.3716  0.4914 -1.3206
 6881SOL     OW32278   4.101   4.149  14.162 -0.0280  0.7390  0.0730
 6881SOL    HW132279   4.098   4.200  14.243  0.4240 -0.9500  1.1361
 6881SOL    HW232280   4.123   4.061  14.192  0.1509  1.0435  0.8319
 6882SOL     OW32281   3.203   0.947   6.635 -0.4433 -0.0113 -0.2580
 6882SOL    HW132282   3.183   0.874   6.577  1.5624  0.3378 -1.3995
 6882SOL    HW232283   3.233   0.901   6.713 -1.6738 -1.1294 -0.4382
 6883SOL     OW32284   2.083   0.685  14.158  0.7741  0.0279 -0.3420
 6883SOL    HW132285   2.003   0.632  14.157  0.0782  1.0782 -0.2621
 6883SOL    HW232286   2.051   0.773  14.138  1.0990  0.4339  0.9330
 6884SOL     OW32287   4.123   3.295   2.784  0.2108 -0.7863  0.6311
 6884SOL    HW132288   4.211   3.305   2.822 -0.4684  1.0976  1.7060
 6884SOL    HW232289   4.068   3.299   2.863  0.0662 -0.2065  0.5033
 6885SOL     OW32290   3.474   1.387   8.960  1.0807  0.0130 -0.2110
 6885SOL    HW132291   3.465   1.336   9.040 -0.0761  0.3194 -0.1504
 6885SOL    HW232292   3.525   1.463   8.990  2.1282  0.1337 -2.2956
 6886SOL     OW32293   2.742   0.573  10.126  0.5383  0.1411  0.1994
 6886SOL    HW132294   2.672   0.615  10.177 -0.0861 -0.4764 -0.1634
 6886SOL    HW232295   2.808   0.567  10.196  2.3668 -1.6414 -1.6881
 6887SOL     OW32296   2.609   3.756   2.703  0.3466 -0.1350 -0.1373
 6887SOL    HW132297   2.645   3.696   2.769  1.2163 -0.0535 -0.5324
 6887SOL    HW232298   2.619   3.704   2.623  1.5062 -3.1903  1.9926
 6888SOL     OW32299   0.814   2.993   8.584 -1.0577  0.1089 -0.4551
 6888SOL    HW132300   0.904   2.992   8.618 -0.7589  0.6433 -1.2155
 6888SOL    HW232301   0.772   2.923   8.634  0.2121 -0.1632  0.2375
 6889SOL     OW32302   2.391   0.317   1.841 -0.3785  0.7182  0.4012
 6889SOL    HW132303   2.417   0.406   1.864 -0.5786  0.3801  1.9574
 6889SOL    HW232304   2.312   0.344   1.796 -0.7559  0.4318  0.8953
 6890SOL     OW32305   3.181   1.995  12.303  0.4877  0.4862  0.2219
 6890SOL    HW132306   3.277   1.997  12.308  0.6271 -2.6624 -0.9296
 6890SOL    HW232307   3.160   2.088  12.312  2.3548  1.1748 -2.5280
 6891SOL     OW32308   3.087   1.366   8.708 -0.3795  0.1717  0.4384
 6891SOL    HW132309   3.180   1.346   8.696  0.6465  4.1766  1.5776
 6891SOL    HW232310   3.049   1.327   8.629  1.4589 -0.3952 -0.1691
 6892SOL     OW32311   3.032   1.016   8.972  0.3683  0.0484 -0.2930
 6892SOL    HW132312   3.118   0.990   9.007 -0.1018  2.2982  2.5851
 6892SOL    HW232313   3.034   1.108   9.000 -1.1924  0.9225 -3.1507
 6893SOL     OW32314   0.006   1.839   4.144 -0.2940  0.1709 -0.3855
 6893SOL    HW132315   4.724   1.751   4.115  1.9440 -0.4249 -0.1154
 6893SOL    HW232316   4.664   1.872   4.186 -1.3322 -2.0480 -0.6319
 6894SOL     OW32317   2.148   1.944  17.310  0.5300 -0.7486 -0.4078
 6894SOL    HW132318   2.211   1.937  17.382  0.4517 -0.7608 -0.3409
 6894SOL    HW232319   2.201   1.976  17.237  2.2326 -1.4625  0.5180
 6895SOL     OW32320   2.716   2.772  10.051  0.5606  0.0077  0.5718
 6895SOL    HW132321   2.720   2.828  10.129 -1.7720  0.3197  0.4696
 6895SOL    HW232322   2.765   2.831   9.994 -0.8482  1.4642  0.8495
 6896SOL     OW32323   0.810   0.527  15.765 -0.0998  0.0147 -0.2328
 6896SOL    HW132324   0.880   0.572  15.813  2.5646 -3.0930 -1.1837
 6896SOL    HW232325   0.801   0.585  15.690 -0.3945  1.7257  1.1219
 6897SOL     OW32326   3.522   3.889   1.933 -0.2815  0.1142 -0.6519
 6897SOL    HW132327   3.576   3.947   1.986 -1.7342  0.8369  0.0367
 6897SOL    HW232328   3.577   3.811   1.933 -0.6524 -0.1503 -1.6589
 6898SOL     OW32329   4.558   2.787   5.726  0.0407  0.1135  0.0893
 6898SOL    HW132330   4.562   2.863   5.668  0.0889  0.0705  0.0360
 6898SOL    HW232331   4.649   2.758   5.714 -0.2034 -0.6341  0.0681
 6899SOL     OW32332   4.301   4.297  10.318  0.5078  0.8707  0.4055
 6899SOL    HW132333   4.268   4.383  10.344  1.0589  1.3811 -0.5986
 6899SOL    HW232334   4.282   4.295  10.224  2.9699 -0.1997 -0.0601
 6900SOL     OW32335   2.051   1.569   9.352 -0.0708 -0.3014  0.3837
 6900SOL    HW132336   2.104   1.545   9.427  2.5742  0.2305 -1.3014
 6900SOL    HW232337   2.031   1.659   9.377 -1.7484 -0.9941  1.5527
 6901SOL     OW32338   0.280   0.569   3.457 -0.0668 -0.4245 -0.1125
 6901SOL    HW132339   0.187   0.586   3.443  0.2743  0.0965 -1.8462
 6901SOL    HW232340   0.304   0.555   3.365 -0.8735  0.9227 -0.5208
 6902SOL     OW32341   2.124   1.825   5.136  0.5292  0.7129  0.3667
 6902SOL    HW132342   2.138   1.859   5.224 -0.6414  0.5401  0.6180
 6902SOL    HW232343   2.210   1.794   5.110  0.0111 -0.5425  0.1589
 6903SOL     OW32344   3.261   0.135   3.075 -0.3922 -0.0915 -0.8275
 6903SOL    HW132345   3.215   0.196   3.017  0.0712 -0.3565 -1.4720
 6903SOL    HW232346   3.184   0.078   3.077 -2.6724  2.9689 -1.3056
 6904SOL     OW32347   2.215   4.561  17.162  0.1948  0.7960 -0.4463
 6904SOL    HW132348   2.200   4.483  17.217 -1.6507  1.8028  0.4565
 6904SOL    HW232349   2.168   4.535  17.084 -0.3905  1.2008 -0.2246
 6905SOL     OW32350   0.327   2.020   1.292  0.4228  0.0554 -0.1158
 6905SOL    HW132351   0.257   2.031   1.228 -0.8104 -0.2744  1.1718
 6905SOL    HW232352   0.279   1.980   1.365 -0.4225 -1.7878 -1.6904
 6906SOL     OW32353   4.025   4.429   7.129 -0.1668 -0.6168 -0.4640
 6906SOL    HW132354   3.979   4.472   7.058  1.8376  1.1635 -0.6566
 6906SOL    HW232355   3.952   4.393   7.181 -0.5313 -0.4834 -0.8872
 6907SOL     OW32356   1.548   1.786   1.383 -0.1649 -0.4336 -0.3525
 6907SOL    HW132357   1.496   1.838   1.322 -0.0929  0.5032  0.3804
 6907SOL    HW232358   1.606   1.731   1.331  0.0269 -1.4647  0.9489
 6908SOL     OW32359   1.324   2.746   7.738  0.4143  0.0416 -0.6767
 6908SOL    HW132360   1.304   2.669   7.684 -0.1164  1.6819 -2.8025
 6908SOL    HW232361   1.394   2.787   7.687  0.3732  2.0081  0.8664
 6909SOL     OW32362   1.145   4.574   8.748  0.0194 -0.0528  0.3799
 6909SOL    HW132363   1.065   4.555   8.700 -1.5098  3.2492  1.5953
 6909SOL    HW232364   1.172   4.491   8.787  2.1270  0.2431 -0.4082
 6910SOL     OW32365   3.409   3.261  10.899  0.1369 -0.5295  0.1458
 6910SOL    HW132366   3.391   3.327  10.833 -0.4586 -0.6600  0.1774
 6910SOL    HW232367   3.440   3.184  10.852  0.0793  0.9825 -2.3438
 6911SOL     OW32368   2.507   3.169   0.504  0.0251 -0.1808  0.1366
 6911SOL    HW132369   2.412   3.160   0.512  0.1857 -0.3884  1.7399
 6911SOL    HW232370   2.533   3.112   0.431 -0.3150  0.1239 -0.2244
 6912SOL     OW32371   2.637   3.184  16.007  0.4194  0.5883  0.2823
 6912SOL    HW132372   2.700   3.255  16.017  1.5874 -0.2204 -1.4716
 6912SOL    HW232373   2.696   3.109  16.010 -0.6026 -0.2504 -0.2652
 6913SOL     OW32374   0.065   4.459  11.413 -0.6127  0.0255  0.2723
 6913SOL    HW132375   4.723   4.512  11.410  0.2001  1.2337 -0.0114
 6913SOL    HW232376   0.031   4.371  11.432  2.2144 -0.8975  1.1188
 6914SOL     OW32377   3.317   2.100   3.970 -0.5037 -0.2375 -0.1911
 6914SOL    HW132378   3.379   2.153   3.920 -0.3144 -1.8382 -1.6466
 6914SOL    HW232379   3.247   2.080   3.907 -1.6830  0.1102  1.0020
 6915SOL     OW32380   1.986   1.135   9.469  0.0422 -0.0872  0.6615
 6915SOL    HW132381   2.062   1.138   9.527 -0.1562  0.6515  0.8793
 6915SOL    HW232382   1.941   1.212   9.503  0.0492  0.5691 -0.8360
 6916SOL     OW32383   4.632   3.069   2.248  0.2484 -0.2339 -0.2722
 6916SOL    HW132384   4.632   3.030   2.160  1.8889  0.4689 -0.5996
 6916SOL    HW232385   4.590   3.153   2.232  1.0902  0.3156  0.3798
 6917SOL     OW32386   0.021   4.393   3.740  0.1372 -0.3693  0.5543
 6917SOL    HW132387   0.048   4.460   3.803 -0.2297 -0.9379  1.3304
 6917SOL    HW232388   4.663   4.394   3.735  0.0901 -1.3566  1.1557
 6918SOL     OW32389   2.565   3.955   3.326  0.3181  0.2475  0.2635
 6918SOL    HW132390   2.635   4.017   3.308 -0.6674  1.9602  2.2652
 6918SOL    HW232391   2.601   3.882   3.276 -0.6105  1.6151 -2.3816
 6919SOL     OW32392   3.162   0.659  10.753 -0.0551  0.3413  0.4039
 6919SOL    HW132393   3.248   0.696  10.771 -0.4696  2.3249 -1.6374
 6919SOL    HW232394   3.125   0.712  10.682  1.5562  0.3428 -0.4176
 6920SOL     OW32395   1.918   1.415   6.114 -0.1817 -0.3557 -0.2533
 6920SOL    HW132396   1.995   1.431   6.059 -0.1029 -1.5054 -0.4705
 6920SOL    HW232397   1.949   1.419   6.204  0.8260 -0.7487 -0.5856
 6921SOL     OW32398   1.202   3.251   5.784  0.2133  0.0940 -0.0585
 6921SOL    HW132399   1.236   3.266   5.872 -0.0851 -1.2591  0.2895
 6921SOL    HW232400   1.181   3.159   5.796 -0.1181  0.1203 -0.4277
 6922SOL     OW32401   2.482   2.671   3.193  0.2598 -0.1076 -0.2036
 6922SOL    HW132402   2.572   2.703   3.204  0.5105 -1.7278  2.3443
 6922SOL    HW232403   2.465   2.732   3.121  2.8907  1.8679  0.8530
 6923SOL     OW32404   3.575   2.341  10.000 -0.2068  0.2187 -0.0382
 6923SOL    HW132405   3.553   2.434  10.005 -0.7582  0.0936 -0.2408
 6923SOL    HW232406   3.579   2.322  10.094  0.4157  0.4359 -0.0158
 6924SOL     OW32407   3.362   1.763  15.121  0.1448 -0.1691  0.6577
 6924SOL    HW132408   3.278   1.730  15.089  0.6332 -0.9466  0.1916
 6924SOL    HW232409   3.398   1.802  15.042 -1.4382 -0.8645 -0.4105
 6925SOL     OW32410   0.607   1.089  10.539  0.5528  0.3302 -0.2787
 6925SOL    HW132411   0.552   1.030  10.590  1.6012  0.6096  1.1776
 6925SOL    HW232412   0.688   1.040  10.549  0.8277  1.0944  1.1867
 6926SOL     OW32413   0.596   3.424   3.335  0.5441  0.4322 -0.0972
 6926SOL    HW132414   0.667   3.401   3.274  0.9078 -0.2250  0.5752
 6926SOL    HW232415   0.612   3.368   3.411  1.6425 -1.0919 -1.4129
 6927SOL     OW32416   1.776   0.824   5.877  0.1538  0.2099  0.0935
 6927SOL    HW132417   1.741   0.907   5.908  0.5842 -0.4312  2.2467
 6927SOL    HW232418   1.731   0.759   5.931 -2.0625  0.3985 -1.4892
 6928SOL     OW32419   4.708   2.937   8.871 -0.8608  0.0131  0.6537
 6928SOL    HW132420   4.654   3.016   8.864 -1.2300 -0.2497  0.5578
 6928SOL    HW232421   4.667   2.882   8.804 -0.0582 -0.5546  0.6313
 6929SOL     OW32422   4.407   1.218   2.571  0.3591  0.6040  1.2122
 6929SOL    HW132423   4.495   1.216   2.533 -0.2107 -2.9335  0.0616
 6929SOL    HW232424   4.396   1.297   2.624 -1.8398  0.2033  1.3595
 6930SOL     OW32425   1.148   2.778   8.397 -0.9813 -0.0639 -0.0192
 6930SOL    HW132426   1.102   2.695   8.411  0.8888 -1.4965 -2.4142
 6930SOL    HW232427   1.231   2.774   8.444 -0.3474  0.8133 -1.0688
 6931SOL     OW32428   0.047   4.710   7.090 -0.3438  0.1440 -0.1166
 6931SOL    HW132429   0.133   4.686   7.123  0.4110  2.2480 -0.5512
 6931SOL    HW232430   0.017   0.039   7.152  0.8961 -0.0346  0.6652
 6932SOL     OW32431   0.322   2.815   1.884 -0.2847 -0.1385 -0.2001
 6932SOL    HW132432   0.338   2.842   1.794 -0.6399 -1.0948 -0.5549
 6932SOL    HW232433   0.412   2.800   1.915  0.2100  1.3911 -0.8960
 6933SOL     OW32434   3.608   3.599   0.096 -0.1575 -0.1745 -0.1868
 6933SOL    HW132435   3.640   3.571   0.011  1.5985 -0.0367  0.4300
 6933SOL    HW232436   3.696   3.607   0.133 -0.1013  0.0192 -0.3648
 6934SOL     OW32437   4.174   0.373   9.906  0.3272 -0.0989  0.1976
 6934SOL    HW132438   4.176   0.282   9.876  0.6503 -0.3676  1.0227
 6934SOL    HW232439   4.116   0.410   9.839 -0.2509  0.0778  0.8034
 6935SOL     OW32440   0.112   4.247   6.089 -0.7752 -0.0721  0.0549
 6935SOL    HW132441   0.207   4.250   6.084 -0.8316 -0.2171 -1.3017
 6935SOL    HW232442   0.095   4.153   6.093  0.5967 -0.3629 -0.9065
 6936SOL     OW32443   2.477   2.790  14.900 -0.2657 -0.1393 -0.0404
 6936SOL    HW132444   2.495   2.717  14.839  1.7362  1.4490 -1.3433
 6936SOL    HW232445   2.400   2.752  14.942 -0.1645  0.7529  0.9230
 6937SOL     OW32446   4.088   3.585   4.190 -0.0147 -0.0183 -0.7258
 6937SOL    HW132447   4.018   3.615   4.131  0.2880 -0.4382 -1.2985
 6937SOL    HW232448   4.034   3.569   4.267 -1.6964 -0.0866 -1.9188
 6938SOL     OW32449   4.620   1.772   4.993 -0.1130 -1.0962  0.3551
 6938SOL    HW132450   4.716   1.773   4.994 -0.1236 -1.5787  2.5482
 6938SOL    HW232451   4.607   1.867   4.994  1.8551 -0.8172  0.6029
 6939SOL     OW32452   3.416   3.192   6.322  0.5371 -0.1455  0.2927
 6939SOL    HW132453   3.418   3.153   6.235  3.4560 -0.4131  0.4720
 6939SOL    HW232454   3.365   3.130   6.374  0.8239  0.5157  1.3679
 6940SOL     OW32455   0.178   3.849   4.815 -0.0300 -0.6138 -0.1755
 6940SOL    HW132456   0.087   3.878   4.827  0.2617  0.0326  0.5326
 6940SOL    HW232457   0.198   3.917   4.751 -1.4744  0.6921  0.7583
 6941SOL     OW32458   0.142   1.420  14.824  0.0897  0.2540  0.0737
 6941SOL    HW132459   0.157   1.424  14.730  1.6715  2.1598  0.3878
 6941SOL    HW232460   0.229   1.408  14.862  0.5449 -1.2754 -1.4441
 6942SOL     OW32461   3.329   1.977   8.647  0.4569  0.6362  0.3254
 6942SOL    HW132462   3.303   1.886   8.633  1.3644  0.3646  0.4189
 6942SOL    HW232463   3.247   2.024   8.663 -1.5198 -1.9578 -2.1949
 6943SOL     OW32464   0.068   3.732   5.732  0.0205  0.6059  0.6964
 6943SOL    HW132465   0.013   3.697   5.802  0.2995  0.6181  0.9261
 6943SOL    HW232466   0.118   3.653   5.710 -0.0177  0.8957 -0.3940
 6944SOL     OW32467   3.583   1.246   3.970  0.0045  0.5314 -0.3090
 6944SOL    HW132468   3.669   1.243   3.928 -0.0126 -1.1184 -0.2125
 6944SOL    HW232469   3.605   1.194   4.047 -0.6576  1.0667  0.2442
 6945SOL     OW32470   4.654   3.562   3.803 -0.2131 -0.0304 -0.4041
 6945SOL    HW132471   4.608   3.544   3.885  2.8917  1.0026  1.5725
 6945SOL    HW232472   0.007   3.540   3.826 -0.3304 -0.6541 -0.5395
 6946SOL     OW32473   2.048   2.628   9.541 -1.0458 -0.4578 -0.3821
 6946SOL    HW132474   2.070   2.675   9.460 -1.4245  1.6690  0.7548
 6946SOL    HW232475   2.041   2.702   9.601  0.3136 -0.9292  0.3575
 6947SOL     OW32476   0.421   1.638   6.522 -0.5566 -0.2730  0.1626
 6947SOL    HW132477   0.420   1.698   6.448 -1.5915 -0.9811 -0.3900
 6947SOL    HW232478   0.490   1.681   6.573  1.2191 -1.3034 -1.3442
 6948SOL     OW32479   2.192   4.518   8.045  0.4639 -0.5086 -0.3284
 6948SOL    HW132480   2.193   4.539   8.139  0.9163  1.9859 -0.8953
 6948SOL    HW232481   2.225   4.599   8.005  1.1023 -0.7849 -0.3548
 6949SOL     OW32482   2.427   0.474   2.454  0.1508 -0.4616  0.0056
 6949SOL    HW132483   2.375   0.532   2.509  0.5819 -0.2776  0.2161
 6949SOL    HW232484   2.439   0.537   2.383  2.3522 -0.3488  0.4798
 6950SOL     OW32485   0.430   1.158   9.132  0.1272  0.1197  0.2628
 6950SOL    HW132486   0.433   1.161   9.227  2.2043 -0.0879  0.1933
 6950SOL    HW232487   0.390   1.243   9.111  1.3928  0.5466 -0.4361
 6951SOL     OW32488   1.719   3.345   1.770  0.1144 -0.1290  0.5315
 6951SOL    HW132489   1.769   3.376   1.845  0.1410  1.9960 -0.3565
 6951SOL    HW232490   1.781   3.283   1.732  0.6340  0.9535 -0.4133
 6952SOL     OW32491   2.510   0.087  15.586 -0.5542  0.0300  0.5822
 6952SOL    HW132492   2.418   0.070  15.606 -0.1823 -0.9918  1.4138
 6952SOL    HW232493   2.557   0.026  15.644  1.4398 -0.4045 -1.5133
 6953SOL     OW32494   4.174   2.888   8.777 -0.3785  0.2750  0.1675
 6953SOL    HW132495   4.149   2.979   8.793  0.4171  0.8082 -1.5555
 6953SOL    HW232496   4.252   2.888   8.832 -0.7519  1.6702  0.6755
 6954SOL     OW32497   2.164   2.682   5.494 -0.1166  0.1283 -0.9971
 6954SOL    HW132498   2.209   2.655   5.574 -0.5362 -0.4608 -0.9615
 6954SOL    HW232499   2.219   2.755   5.466 -3.7399  2.7450 -1.2843
 6955SOL     OW32500   2.628   3.182   3.370 -0.1385 -0.2960 -0.1555
 6955SOL    HW132501   2.617   3.248   3.439 -0.3950 -1.3616  0.8131
 6955SOL    HW232502   2.713   3.206   3.333 -1.0876  1.4791 -1.2184
 6956SOL     OW32503   2.217   0.317  16.171  0.1314 -0.5366 -0.3398
 6956SOL    HW132504   2.203   0.411  16.161  1.1034 -0.2067  1.2885
 6956SOL    HW232505   2.266   0.317  16.253  0.0748  3.4452 -0.3243
 6957SOL     OW32506   4.694   2.387   2.480 -0.1587  0.2064 -0.0293
 6957SOL    HW132507   4.730   2.475   2.495 -1.7561  0.7226  0.7603
 6957SOL    HW232508   4.718   2.377   2.387 -0.0416  1.4337 -0.1326
 6958SOL     OW32509   2.036   4.305   5.761 -0.1939  0.1852 -0.7559
 6958SOL    HW132510   1.958   4.250   5.765 -0.3781  0.6411  1.5695
 6958SOL    HW232511   2.063   4.303   5.669  0.2901 -0.5277 -0.5972
 6959SOL     OW32512   1.740   3.922   1.649  0.1724 -0.1504  0.6216
 6959SOL    HW132513   1.645   3.911   1.645  0.2056  0.6225 -1.8146
 6959SOL    HW232514   1.758   3.990   1.585 -1.2597 -1.0145 -0.7096
 6960SOL     OW32515   3.443   4.418   7.255  0.2366 -0.0241 -0.7734
 6960SOL    HW132516   3.432   4.479   7.328  1.5842 -0.9173  0.1742
 6960SOL    HW232517   3.349   4.403   7.241 -0.1934  2.3452 -0.4306
 6961SOL     OW32518   4.275   3.162   9.773  0.5973  0.1557  0.6438
 6961SOL    HW132519   4.209   3.163   9.842  0.8642  0.2267  0.8994
 6961SOL    HW232520   4.295   3.068   9.774  2.6412  0.5876  0.0756
 6962SOL     OW32521   3.139   2.993   3.660 -0.0693  0.4810  0.0127
 6962SOL    HW132522   3.197   3.054   3.706 -0.6813  2.1936 -1.5320
 6962SOL    HW232523   3.144   2.926   3.728  0.3242 -0.2556 -0.7421
 6963SOL     OW32524   1.893   3.232  10.789  0.1275 -0.0358 -0.6401
 6963SOL    HW132525   1.858   3.261  10.705 -0.2239 -2.2691 -1.2599
 6963SOL    HW232526   1.966   3.294  10.796 -1.1953  1.6293 -1.7270
 6964SOL     OW32527   0.812   0.134   7.263 -0.3107  0.4367 -0.0131
 6964SOL    HW132528   0.814   0.206   7.200 -0.1361 -0.5467 -1.1406
 6964SOL    HW232529   0.898   0.099   7.238  0.1196  1.2092  0.3808
 6965SOL     OW32530   3.843   1.459   9.942  0.5969 -0.4242 -0.0288
 6965SOL    HW132531   3.858   1.450  10.036  1.8677  0.5128 -0.1522
 6965SOL    HW232532   3.773   1.524   9.944  1.9560  0.9824  2.0081
 6966SOL     OW32533   0.941   0.919   7.460  0.3698  0.0379  0.5457
 6966SOL    HW132534   0.871   0.937   7.397  0.4439  1.2705  0.8215
 6966SOL    HW232535   0.977   1.002   7.491  2.8884 -0.7259 -0.3097
 6967SOL     OW32536   1.340   0.670   7.849 -0.1471 -0.2078 -0.2019
 6967SOL    HW132537   1.343   0.577   7.823  0.4163 -0.9976  2.7709
 6967SOL    HW232538   1.431   0.699   7.843 -0.3105  0.5908  1.3131
 6968SOL     OW32539   4.083   1.491   9.843  0.7424 -0.0078 -0.4940
 6968SOL    HW132540   3.998   1.474   9.884  0.6046 -0.4532 -0.9771
 6968SOL    HW232541   4.123   1.404   9.844 -1.3166 -0.9589 -1.2791
 6969SOL     OW32542   3.794   1.491   8.214  0.4642 -0.2361 -0.6253
 6969SOL    HW132543   3.852   1.567   8.214 -1.5268  1.2893  1.1596
 6969SOL    HW232544   3.823   1.445   8.293 -0.3976 -0.0956 -0.2304
 6970SOL     OW32545   2.327   0.734   7.827  0.1898 -0.2842  0.2538
 6970SOL    HW132546   2.340   0.828   7.815 -2.1830  0.2533  2.0019
 6970SOL    HW232547   2.310   0.728   7.921 -1.1624 -0.3223  0.0008
 6971SOL     OW32548   3.880   0.264   3.757  0.6186  0.1115 -0.1482
 6971SOL    HW132549   3.803   0.211   3.781 -0.6708  1.9847 -0.1179
 6971SOL    HW232550   3.920   0.205   3.694 -0.6693 -2.1004  1.0923
 6972SOL     OW32551   1.472   1.998   2.028  0.2140  0.1541 -0.0821
 6972SOL    HW132552   1.564   2.000   2.003 -0.2960 -2.0372 -2.1754
 6972SOL    HW232553   1.474   1.938   2.102 -0.1909 -0.6086 -0.6885
 6973SOL     OW32554   1.186   0.031  17.019 -0.6228 -0.2768 -0.0844
 6973SOL    HW132555   1.148   4.706  17.081  1.0233  0.4578  1.6825
 6973SOL    HW232556   1.190   4.702  16.950  0.9046 -0.5413  0.2405
 6974SOL     OW32557   2.760   2.527   9.037  0.3601 -0.2732  0.0892
 6974SOL    HW132558   2.758   2.455   8.974 -0.4419 -1.7618  1.8199
 6974SOL    HW232559   2.701   2.583   8.987  0.5454  1.0724  1.3518
 6975SOL     OW32560   0.960   4.249   0.304 -0.0085  0.3350  0.2380
 6975SOL    HW132561   1.027   4.187   0.333  0.5155 -0.5759 -2.9108
 6975SOL    HW232562   0.999   4.332   0.331  2.3797 -0.5000 -0.6876
 6976SOL     OW32563   3.866   1.137   5.639  0.1313 -0.2447  0.3099
 6976SOL    HW132564   3.792   1.175   5.687 -0.6685 -2.3327  0.7260
 6976SOL    HW232565   3.822   1.074   5.583  1.2254  1.3144 -2.3181
 6977SOL     OW32566   2.578   4.268  15.152 -0.1266 -0.2527  0.4332
 6977SOL    HW132567   2.636   4.204  15.194  0.6848  0.4164  0.3316
 6977SOL    HW232568   2.504   4.266  15.212 -2.0456  1.4221 -1.8943
 6978SOL     OW32569   2.172   0.284  10.818  0.3515 -0.4897  0.1522
 6978SOL    HW132570   2.224   0.353  10.859 -0.1509 -1.2904  2.1732
 6978SOL    HW232571   2.092   0.273  10.869  1.1346 -1.4631  1.1825
 6979SOL     OW32572   4.523   3.915   8.400 -0.2594 -0.2248  0.2004
 6979SOL    HW132573   4.494   3.999   8.364 -3.8165 -0.4886  2.4407
 6979SOL    HW232574   4.616   3.928   8.384 -0.3852 -1.2575 -1.4067
 6980SOL     OW32575   3.655   3.135   9.899 -0.0709  0.5840 -0.4493
 6980SOL    HW132576   3.713   3.149   9.974  0.6760 -3.9034 -0.1968
 6980SOL    HW232577   3.695   3.062   9.852 -0.9633 -0.5192  0.5095
 6981SOL     OW32578   3.114   1.897   7.339 -0.1264 -0.4219  0.5147
 6981SOL    HW132579   3.064   1.978   7.339  0.8728  0.1910  2.0895
 6981SOL    HW232580   3.047   1.833   7.314 -0.9368  0.7781 -0.4185
 6982SOL     OW32581   0.759   4.073   5.484 -0.1564  0.3130  0.3074
 6982SOL    HW132582   0.800   4.018   5.417  2.1049  0.1231  1.8581
 6982SOL    HW232583   0.827   4.073   5.551 -0.1339  0.6630  0.2821
 6983SOL     OW32584   0.757   1.507   9.142  0.1481 -0.1086  0.3919
 6983SOL    HW132585   0.787   1.591   9.108 -1.5361  0.8521  1.3001
 6983SOL    HW232586   0.770   1.516   9.236 -0.4346 -2.1978  0.6806
 6984SOL     OW32587   4.386   1.735   3.307  0.1351  0.0122  0.4294
 6984SOL    HW132588   4.295   1.744   3.276  0.9685  1.8067 -1.5348
 6984SOL    HW232589   4.412   1.660   3.254  1.3923  0.6277  0.1694
 6985SOL     OW32590   4.024   1.047   6.425  0.1582 -0.2093 -0.6922
 6985SOL    HW132591   3.929   1.059   6.430  0.2927  0.5901 -0.0091
 6985SOL    HW232592   4.039   1.005   6.509 -0.0911  0.3262 -0.3760
 6986SOL     OW32593   0.421   2.952   2.852 -0.3073 -0.8447 -0.0163
 6986SOL    HW132594   0.482   2.894   2.807 -0.4630  0.9662 -2.5446
 6986SOL    HW232595   0.336   2.925   2.817 -1.7810  1.1667  1.9970
 6987SOL     OW32596   0.528   2.160  14.021 -0.4615 -0.2939  0.0469
 6987SOL    HW132597   0.623   2.155  14.014 -0.6488 -0.5712 -2.2595
 6987SOL    HW232598   0.500   2.238  13.973 -0.4061  0.0060  0.5058
 6988SOL     OW32599   2.037   4.617   4.744  0.2412  0.1618 -0.0494
 6988SOL    HW132600   1.950   4.579   4.756  0.9039 -1.1277  0.5529
 6988SOL    HW232601   2.014   4.703   4.709 -2.0985  0.1827  1.4930
 6989SOL     OW32602   1.426   1.512   9.228  0.0443  0.0421 -0.2182
 6989SOL    HW132603   1.435   1.471   9.142  0.5681  0.3757 -0.3240
 6989SOL    HW232604   1.483   1.450   9.273  1.3294  0.6545 -1.0035
 6990SOL     OW32605   0.780   3.655   3.135 -0.5458 -0.2022 -0.0986
 6990SOL    HW132606   0.794   3.697   3.220 -0.8902 -1.1950  0.4436
 6990SOL    HW232607   0.831   3.576   3.146 -1.2937 -0.3232  2.6539
 6991SOL     OW32608   3.495   0.133   6.101  0.4286  0.5107 -0.2901
 6991SOL    HW132609   3.473   0.101   6.013 -0.4776  0.4233 -0.0278
 6991SOL    HW232610   3.547   0.061   6.138 -0.3278 -1.7736 -3.6116
 6992SOL     OW32611   4.497   2.343   4.875 -0.0232  0.1492  0.0015
 6992SOL    HW132612   4.575   2.394   4.894  0.1698 -1.3015  3.1245
 6992SOL    HW232613   4.500   2.271   4.938 -0.0301 -0.6777 -0.9391
 6993SOL     OW32614   2.477   1.232  16.966 -0.0207 -0.0795  0.2099
 6993SOL    HW132615   2.448   1.142  16.953 -0.3351  0.0687 -0.1178
 6993SOL    HW232616   2.502   1.257  16.877  0.0844  0.1532  0.3024
 6994SOL     OW32617   3.254   2.713   5.531 -0.2029  0.6053 -0.2439
 6994SOL    HW132618   3.227   2.658   5.604 -0.7872 -1.0708 -1.7425
 6994SOL    HW232619   3.348   2.699   5.529 -0.4330 -0.7888 -0.8681
 6995SOL     OW32620   4.058   2.469  16.665 -0.6924 -0.2197  0.3592
 6995SOL    HW132621   4.111   2.428  16.597 -0.8733  0.2679 -0.0726
 6995SOL    HW232622   4.073   2.559  16.638  0.8618 -0.3034  0.9875
 6996SOL     OW32623   0.528   3.108   6.006 -0.0957  0.3699 -0.3877
 6996SOL    HW132624   0.620   3.122   5.984  0.6459  1.6766  3.5524
 6996SOL    HW232625   0.507   3.192   6.046 -1.2085 -0.3907  0.6428
 6997SOL     OW32626   1.871   4.483   8.036 -0.4338 -0.1761 -0.1112
 6997SOL    HW132627   1.838   4.395   8.055  3.1581 -1.0720  2.1684
 6997SOL    HW232628   1.964   4.458   8.037 -0.0032  1.3944 -0.7104
 6998SOL     OW32629   4.434   1.488   2.792  0.2275 -0.8617 -0.3501
 6998SOL    HW132630   4.519   1.529   2.781  0.3668 -0.5161  2.0205
 6998SOL    HW232631   4.368   1.552   2.767 -0.4705 -0.3814  2.7491
 6999SOL     OW32632   4.715   1.073   8.341  0.3560 -0.4941  0.3069
 6999SOL    HW132633   4.706   1.152   8.289  0.9722  0.2801  1.3812
 6999SOL    HW232634   4.639   1.067   8.399 -0.4000  2.7778 -0.3713
 7000SOL     OW32635   3.501   1.456   5.533  0.1226 -0.4258 -0.2302
 7000SOL    HW132636   3.513   1.535   5.585 -0.8558  1.0483 -2.2332
 7000SOL    HW232637   3.429   1.482   5.476  1.1083  3.7644  0.4190
 7001SOL     OW32638   1.094   4.104  11.525 -0.4384  0.3478  0.5321
 7001SOL    HW132639   1.163   4.066  11.471 -0.4458 -0.6115  1.1768
 7001SOL    HW232640   1.017   4.051  11.504  1.7866 -1.9851 -1.6705
 7002SOL     OW32641   0.800   2.175  15.329 -0.6194 -0.0533 -0.2849
 7002SOL    HW132642   0.726   2.125  15.365  0.9095 -0.4906  2.3036
 7002SOL    HW232643   0.859   2.101  15.315  0.9252  0.5565  2.9479
 7003SOL     OW32644   1.414   3.873   8.882  0.7717 -0.2463 -0.1111
 7003SOL    HW132645   1.334   3.864   8.830 -0.2426 -2.1430  1.7805
 7003SOL    HW232646   1.429   3.786   8.919 -0.4237 -1.0453 -1.5227
 7004SOL     OW32647   2.156   3.104   8.762  0.3937  0.0194 -0.6304
 7004SOL    HW132648   2.108   3.136   8.686 -0.0560  0.7764 -0.0347
 7004SOL    HW232649   2.089   3.066   8.819 -0.3729  3.5557  0.8345
 7005SOL     OW32650   1.470   2.335   9.898 -0.1536 -0.0381 -0.0775
 7005SOL    HW132651   1.493   2.242   9.899  0.6125  0.1604  0.4166
 7005SOL    HW232652   1.466   2.359   9.991 -0.6320 -0.2787 -0.0337
 7006SOL     OW32653   2.240   3.195   0.476 -0.2682 -0.1713  1.4252
 7006SOL    HW132654   2.192   3.211   0.394 -1.0939 -0.6878  1.8119
 7006SOL    HW232655   2.174   3.218   0.542 -0.4813  0.0995  1.1207
 7007SOL     OW32656   1.094   0.266   4.115  0.1578 -0.1308  0.0477
 7007SOL    HW132657   1.136   0.219   4.187  0.2770  0.4392  0.3545
 7007SOL    HW232658   1.098   0.198   4.048 -3.3332 -0.1830 -0.0962
 7008SOL     OW32659   4.658   2.013   6.129 -0.3976 -0.4118  0.2736
 7008SOL    HW132660   4.628   1.983   6.214 -0.6634  0.0948  0.3590
 7008SOL    HW232661   0.001   1.963   6.114  0.5129  1.1295 -0.0664
 7009SOL     OW32662   1.504   1.589   1.600 -0.3309 -0.0495 -0.0009
 7009SOL    HW132663   1.567   1.657   1.623  1.4702 -1.7687  0.2690
 7009SOL    HW232664   1.459   1.641   1.534 -0.3318  0.9581  0.7971
 7010SOL     OW32665   2.602   3.899   6.013 -0.2153 -0.1671  0.3916
 7010SOL    HW132666   2.614   3.829   5.948 -0.1053  0.2181 -0.0016
 7010SOL    HW232667   2.521   3.876   6.058  1.0375 -1.1294  2.1423
 7011SOL     OW32668   4.013   3.169   6.679  0.6089  0.1690  0.5369
 7011SOL    HW132669   4.082   3.210   6.627 -0.2438 -0.8973 -1.4339
 7011SOL    HW232670   4.037   3.191   6.769 -2.3007  2.2657  0.7992
 7012SOL     OW32671   0.949   1.712   5.890  0.2192  0.4599  0.2869
 7012SOL    HW132672   0.941   1.807   5.879 -0.8649  0.3711  0.3481
 7012SOL    HW232673   1.010   1.696   5.962  1.3485 -0.3293 -0.8563
 7013SOL     OW32674   3.742   2.438   4.991 -0.2716 -0.0524  0.0204
 7013SOL    HW132675   3.766   2.346   4.984 -0.5386 -0.0139 -1.4801
 7013SOL    HW232676   3.820   2.483   4.956 -0.7929  1.3746  0.6903
 7014SOL     OW32677   2.973   4.055  11.109 -0.0080 -0.4009 -0.7251
 7014SOL    HW132678   2.887   4.026  11.139 -0.4860  1.6711 -0.0981
 7014SOL    HW232679   3.022   3.975  11.129  1.3089  0.5010 -0.2985
 7015SOL     OW32680   1.433   1.119   7.477 -0.4273 -0.3045  0.1247
 7015SOL    HW132681   1.430   1.027   7.502 -2.7967 -0.2105  0.2013
 7015SOL    HW232682   1.473   1.107   7.391 -1.0781 -1.4066 -0.0207
 7016SOL     OW32683   1.603   4.199   4.709 -0.1219  0.7503  0.1400
 7016SOL    HW132684   1.695   4.214   4.688  0.2297 -1.6546  0.0669
 7016SOL    HW232685   1.596   4.254   4.788  0.5606  0.7495  0.2053
 7017SOL     OW32686   2.213   0.660   3.113 -0.2331  0.4394 -0.1617
 7017SOL    HW132687   2.173   0.742   3.141  3.3407  2.2779 -0.4832
 7017SOL    HW232688   2.164   0.648   3.031  0.7778 -1.5716 -0.4777
 7018SOL     OW32689   3.002   2.614  10.212  0.2286 -0.7970  0.4557
 7018SOL    HW132690   2.918   2.569  10.205 -0.9868  1.5453 -0.1170
 7018SOL    HW232691   3.059   2.561  10.157 -0.6292 -0.9586 -0.2935
 7019SOL     OW32692   3.911   1.882  15.559  0.4154 -0.8116 -0.2769
 7019SOL    HW132693   4.005   1.876  15.577  0.4920  1.8138  0.1227
 7019SOL    HW232694   3.889   1.966  15.599 -0.9631 -1.0517 -0.5277
 7020SOL     OW32695   4.515   1.708   3.720 -0.3436  0.9674  0.1696
 7020SOL    HW132696   4.424   1.721   3.696 -0.0901  0.4864 -1.0468
 7020SOL    HW232697   4.512   1.612   3.724 -0.4011  1.0055  1.0437
 7021SOL     OW32698   2.704   2.468   0.457 -0.4694  0.1508  0.6157
 7021SOL    HW132699   2.759   2.534   0.500  2.2405 -0.8609 -1.2537
 7021SOL    HW232700   2.735   2.387   0.498  1.6956 -0.2835 -1.9155
 7022SOL     OW32701   0.039   4.681   5.128 -0.5837  0.3818  0.0777
 7022SOL    HW132702   4.693   4.644   5.158 -1.2273  1.1246 -0.7829
 7022SOL    HW232703   0.018   4.705   5.037  0.2200 -2.5729 -0.8807
 7023SOL     OW32704   0.498   4.427   5.331  0.1875 -0.3941 -0.3574
 7023SOL    HW132705   0.424   4.367   5.342 -0.4080 -0.1881 -3.3363
 7023SOL    HW232706   0.495   4.465   5.244  0.1073 -1.3734 -0.7786
 7024SOL     OW32707   0.684   4.221   1.061 -0.0876  0.1155 -0.0273
 7024SOL    HW132708   0.720   4.297   1.108 -2.2081  0.1530  1.5301
 7024SOL    HW232709   0.627   4.194   1.133  0.3444 -0.8218 -0.0421
 7025SOL     OW32710   0.675   2.168   9.355 -0.1074  0.5083  0.4638
 7025SOL    HW132711   0.750   2.163   9.414  0.6429 -1.3326 -0.6436
 7025SOL    HW232712   0.607   2.121   9.403 -0.0784 -0.9959 -0.9939
 7026SOL     OW32713   1.029   2.416   8.927 -0.3411 -0.2578 -0.2952
 7026SOL    HW132714   1.048   2.367   8.847 -4.0403 -0.1458 -1.2502
 7026SOL    HW232715   1.043   2.344   8.988  0.8048  0.1449 -0.0907
 7027SOL     OW32716   1.237   3.129   1.678  0.5530 -0.4212 -0.0283
 7027SOL    HW132717   1.314   3.158   1.728  0.0948 -0.6394  0.8088
 7027SOL    HW232718   1.259   3.139   1.586  0.6899  0.0912  0.0558
 7028SOL     OW32719   0.069   1.631  13.462  0.4045  0.0634 -0.0385
 7028SOL    HW132720   0.061   1.632  13.367  3.1883 -1.4852 -0.2833
 7028SOL    HW232721   0.140   1.695  13.472  0.4629  0.1655 -1.1001
 7029SOL     OW32722   4.466   2.502  15.797 -0.4255  0.1538 -0.5726
 7029SOL    HW132723   4.519   2.545  15.730  0.4835  1.3539  0.9081
 7029SOL    HW232724   4.502   2.414  15.805  1.6683  1.1801  1.2780
 7030SOL     OW32725   1.654   3.873   4.127  0.2286 -0.1097 -0.0580
 7030SOL    HW132726   1.621   3.852   4.040 -1.3053 -1.4658  0.8417
 7030SOL    HW232727   1.746   3.861   4.104 -0.3137 -3.2910 -0.5767
 7031SOL     OW32728   1.264   3.670   7.570 -1.1112  0.6616 -0.2522
 7031SOL    HW132729   1.215   3.609   7.516 -0.9376 -0.0075  0.3501
 7031SOL    HW232730   1.306   3.699   7.488  1.5878 -0.8750  0.5765
 7032SOL     OW32731   2.906   1.800   8.483 -0.0718  0.8825  0.2597
 7032SOL    HW132732   2.859   1.866   8.432  0.7114 -0.1946 -1.8265
 7032SOL    HW232733   2.983   1.785   8.429  0.9481 -0.0096  1.9339
 7033SOL     OW32734   1.346   3.501   4.063  0.6192  0.4538  0.1004
 7033SOL    HW132735   1.397   3.530   3.987  0.3985  0.2590 -0.1224
 7033SOL    HW232736   1.412   3.488   4.131  0.8600 -1.5463 -0.5160
 7034SOL     OW32737   1.817   4.138   7.769 -0.2022  0.5884  0.0501
 7034SOL    HW132738   1.757   4.066   7.783  1.4278 -0.5916  1.0049
 7034SOL    HW232739   1.864   4.096   7.697 -0.2558  1.9235 -0.7579
 7035SOL     OW32740   3.675   1.279  12.683  0.5069 -0.4022 -0.3477
 7035SOL    HW132741   3.614   1.219  12.727  1.8132 -0.9041  0.7563
 7035SOL    HW232742   3.751   1.225  12.664 -1.7349 -2.7041 -2.7567
 7036SOL     OW32743   2.921   4.265   0.507 -0.4744 -0.1076  0.0775
 7036SOL    HW132744   2.999   4.219   0.540 -0.4733 -1.1614 -1.4039
 7036SOL    HW232745   2.854   4.197   0.501  0.0236 -0.5399 -0.5535
 7037SOL     OW32746   4.535   1.512   5.084  0.4926  0.3339 -0.6252
 7037SOL    HW132747   4.493   1.491   5.000  0.6574 -0.0323 -0.6174
 7037SOL    HW232748   4.564   1.598   5.054 -0.4459  0.6577 -0.6083
 7038SOL     OW32749   1.540   1.020   3.322  0.3049 -0.2210  0.6316
 7038SOL    HW132750   1.508   1.065   3.400  1.2560  0.9008  0.3664
 7038SOL    HW232751   1.603   1.084   3.290 -1.8165  2.7044  2.2805
 7039SOL     OW32752   3.046   2.587   8.298  0.6552  0.1000  0.4316
 7039SOL    HW132753   3.060   2.633   8.380 -0.7191  0.4647  0.4583
 7039SOL    HW232754   2.988   2.641   8.244 -0.0023 -0.6918  0.3495
 7040SOL     OW32755   0.318   3.772  15.931  0.0001 -0.3262  0.0006
 7040SOL    HW132756   0.312   3.834  16.004 -0.3649  0.8465 -1.0247
 7040SOL    HW232757   0.233   3.785  15.888 -0.8914 -1.5695  1.3778
 7041SOL     OW32758   3.472   2.247   9.131  0.0708  0.2193  0.6577
 7041SOL    HW132759   3.410   2.215   9.067  0.8617  0.1374 -0.0649
 7041SOL    HW232760   3.548   2.206   9.091 -0.7929  1.1088 -1.8512
 7042SOL     OW32761   0.897   2.581   6.187  0.7774 -0.4376 -0.0069
 7042SOL    HW132762   0.836   2.508   6.196 -1.0849  1.7704  5.3649
 7042SOL    HW232763   0.891   2.601   6.094  0.2831 -2.3836 -0.3972
 7043SOL     OW32764   3.227   0.289  17.419  0.4969  1.0798 -0.0713
 7043SOL    HW132765   3.298   0.332  17.467 -0.5808  0.8729  1.6858
 7043SOL    HW232766   3.160   0.357  17.424 -1.1902 -0.7793  2.4997
 7044SOL     OW32767   0.617   4.412   5.029 -0.0363  0.1277 -0.2424
 7044SOL    HW132768   0.626   4.490   4.973  3.2969  1.3173  1.9717
 7044SOL    HW232769   0.708   4.406   5.056 -0.5221 -2.1953  0.9017
 7045SOL     OW32770   4.482   1.374   2.066  0.4658  0.4666  0.2381
 7045SOL    HW132771   4.492   1.456   2.115 -0.0394  1.7984 -1.8895
 7045SOL    HW232772   4.412   1.329   2.113 -0.7519  1.9071 -0.2117
 7046SOL     OW32773   1.567   3.158   5.447 -0.3409  0.0114  0.4777
 7046SOL    HW132774   1.654   3.184   5.416  0.5354 -1.5378  1.6056
 7046SOL    HW232775   1.589   3.070   5.477  0.9060  0.2530  0.2569
 7047SOL     OW32776   1.163   3.151   7.359  0.2129 -0.1169  0.5960
 7047SOL    HW132777   1.138   3.080   7.417  1.0872 -1.3562 -0.5404
 7047SOL    HW232778   1.074   3.170   7.329  0.8337  3.0489  0.7062
 7048SOL     OW32779   2.414   3.067  11.098  0.3061  0.7783 -0.4660
 7048SOL    HW132780   2.412   3.025  11.184 -0.3153  0.5763 -0.5792
 7048SOL    HW232781   2.494   3.024  11.068 -1.7650 -4.6409  1.8446
 7049SOL     OW32782   0.642   1.115   3.379  0.1705  0.5271  0.7134
 7049SOL    HW132783   0.701   1.039   3.381  0.8067  0.9244 -3.3071
 7049SOL    HW232784   0.683   1.177   3.318  0.2439  0.4931  0.7278
 7050SOL     OW32785   1.883   4.411   8.836 -0.0049 -0.1873 -0.1834
 7050SOL    HW132786   1.946   4.455   8.780  1.5480  0.6031  2.1615
 7050SOL    HW232787   1.846   4.492   8.870 -1.0154 -0.1682 -1.3283
 7051SOL     OW32788   3.106   3.571   0.712  0.0618 -0.4881 -0.1253
 7051SOL    HW132789   3.054   3.612   0.782  0.9940 -0.1632  0.3818
 7051SOL    HW232790   3.186   3.538   0.754  0.6868 -1.9613 -2.4736
 7052SOL     OW32791   0.163   2.024  10.656  0.2721 -0.0639 -0.2645
 7052SOL    HW132792   0.110   2.101  10.635 -0.1929 -0.4649 -0.5524
 7052SOL    HW232793   0.162   1.978  10.572  0.6208 -2.1989  0.8883
 7053SOL     OW32794   3.788   1.066   4.735 -0.2175  0.4297 -0.6027
 7053SOL    HW132795   3.866   1.012   4.722 -0.9489 -0.7475 -0.0709
 7053SOL    HW232796   3.812   1.146   4.781 -3.8889  0.7170  0.7654
 7054SOL     OW32797   1.487   1.775   5.908  0.3252 -0.4111  0.1101
 7054SOL    HW132798   1.566   1.723   5.915  1.2834  0.7444 -1.9427
 7054SOL    HW232799   1.526   1.862   5.917  1.3075 -0.5716 -2.5881
 7055SOL     OW32800   4.015   4.481  17.714  0.1143  0.6385 -0.0793
 7055SOL    HW132801   4.028   4.387  17.705  1.1687  0.6853  0.8629
 7055SOL    HW232802   4.061   4.494   0.048 -0.2499  2.6134 -0.1739
 7056SOL     OW32803   4.242   0.936   1.932 -0.3353 -0.6817 -0.0569
 7056SOL    HW132804   4.313   0.878   1.957 -1.5131 -1.8889  0.4431
 7056SOL    HW232805   4.170   0.918   1.993  1.7104 -2.9926  1.6762
 7057SOL     OW32806   4.683   1.014   5.087 -0.1561 -0.1751 -0.0282
 7057SOL    HW132807   4.719   0.933   5.052  0.2004 -0.7250  1.6289
 7057SOL    HW232808   4.592   0.996   5.062 -0.0603  1.0975 -1.3101
 7058SOL     OW32809   3.915   1.449   2.961  0.0471  0.0887 -0.6093
 7058SOL    HW132810   4.006   1.433   2.987 -0.2306 -0.3136  0.1302
 7058SOL    HW232811   3.937   1.462   2.869 -1.5884 -1.5454 -1.2392
 7059SOL     OW32812   3.751   0.695  11.953 -0.2819 -0.3565 -0.2693
 7059SOL    HW132813   3.824   0.639  11.927 -0.4849 -0.0037 -1.5976
 7059SOL    HW232814   3.685   0.639  11.992 -1.3185  1.1807  0.1857
 7060SOL     OW32815   3.761   1.401   4.210  0.6653 -0.0886 -0.1897
 7060SOL    HW132816   3.678   1.392   4.257  1.0102 -1.0736  0.2185
 7060SOL    HW232817   3.764   1.495   4.196 -2.4724  0.1672  0.7800
 7061SOL     OW32818   0.483   2.147   4.117 -0.4041 -0.0690 -0.4053
 7061SOL    HW132819   0.408   2.088   4.113  1.1852 -1.9466 -2.3281
 7061SOL    HW232820   0.485   2.199   4.037  0.7139 -0.6562 -0.7664
 7062SOL     OW32821   3.242   2.336   8.496 -0.4488 -0.5510 -0.1631
 7062SOL    HW132822   3.212   2.310   8.409 -2.4787  0.0427  0.3659
 7062SOL    HW232823   3.240   2.431   8.490  0.6107 -0.6326 -2.0487
 7063SOL     OW32824   1.519   3.711   8.318  0.0509  0.0479 -0.2649
 7063SOL    HW132825   1.478   3.732   8.401 -0.8644 -0.4937 -0.5772
 7063SOL    HW232826   1.577   3.639   8.340  0.9405  0.6446 -0.6477
 7064SOL     OW32827   2.759   1.498   4.586 -0.3214  0.2851 -0.2528
 7064SOL    HW132828   2.798   1.460   4.665 -1.2380  0.3112  0.2136
 7064SOL    HW232829   2.814   1.576   4.578  2.8836 -1.9772 -0.1817
 7065SOL     OW32830   2.059   4.377  12.537  0.2534  0.0291 -0.2236
 7065SOL    HW132831   2.001   4.346  12.468  1.4398 -3.5372  0.3741
 7065SOL    HW232832   2.075   4.295  12.584 -1.1663 -1.4446 -2.2989
 7066SOL     OW32833   1.856   1.579  12.893  0.4593  0.4572 -0.4153
 7066SOL    HW132834   1.770   1.566  12.855 -0.3005 -0.9229  1.7937
 7066SOL    HW232835   1.887   1.489  12.879 -3.5682 -1.0111  0.1912
 7067SOL     OW32836   3.817   3.943   9.205 -0.1601 -0.1733 -0.5907
 7067SOL    HW132837   3.734   3.911   9.240 -0.7044  1.5078 -0.3545
 7067SOL    HW232838   3.881   3.877   9.231 -0.7356 -0.0045  1.2756
 7068SOL     OW32839   2.461   1.363   2.950  0.5054  0.3662 -0.2183
 7068SOL    HW132840   2.377   1.380   2.907  0.9174  1.6588 -0.5298
 7068SOL    HW232841   2.453   1.273   2.979 -1.3506 -0.1499 -2.3051
 7069SOL     OW32842   0.194   2.130   5.120  1.3567 -0.2032 -0.3743
 7069SOL    HW132843   0.162   2.151   5.208  1.4160 -1.0160 -0.1622
 7069SOL    HW232844   0.207   2.036   5.134 -0.5132 -0.5858 -1.2063
 7070SOL     OW32845   4.164   1.655  14.707  0.1625 -0.0531  0.2443
 7070SOL    HW132846   4.243   1.602  14.705 -0.9992 -1.7714 -0.4590
 7070SOL    HW232847   4.086   1.610  14.740  2.4835 -2.5399  2.3825
 7071SOL     OW32848   2.056   2.479   5.374 -0.7672 -0.2726  0.4456
 7071SOL    HW132849   2.015   2.520   5.298  1.2457  2.8369  1.0607
 7071SOL    HW232850   2.070   2.564   5.415  0.9595 -0.0270 -0.6441
 7072SOL     OW32851   2.804   4.087  17.519  0.1018 -0.5585  0.3358
 7072SOL    HW132852   2.751   4.141  17.578  1.4284  1.3274 -0.1995
 7072SOL    HW232853   2.754   4.005  17.515 -1.3204  0.2161  2.0132
 7073SOL     OW32854   2.365   2.545   8.389  0.6057 -0.1897 -0.2267
 7073SOL    HW132855   2.392   2.454   8.375 -0.2598 -0.1668 -2.0540
 7073SOL    HW232856   2.288   2.559   8.333  1.5205  0.8570 -1.2400
 7074SOL     OW32857   4.003   2.554   5.347 -0.0338  0.7058 -0.1456
 7074SOL    HW132858   3.921   2.593   5.376  1.4598  2.4652  1.7215
 7074SOL    HW232859   4.068   2.573   5.415 -2.1680  0.6734  1.9132
 7075SOL     OW32860   0.014   0.249   3.565  0.5305 -0.1685 -0.1054
 7075SOL    HW132861   0.067   0.327   3.546 -1.1823  1.2725  0.9610
 7075SOL    HW232862   0.081   0.188   3.534 -1.8806 -2.8771  0.0894
 7076SOL     OW32863   3.217   0.780   8.076  0.2164  0.4643  0.1126
 7076SOL    HW132864   3.142   0.777   8.017 -0.5198 -0.7630  1.1263
 7076SOL    HW232865   3.270   0.821   8.007 -0.7204 -1.0707 -1.5258
 7077SOL     OW32866   4.419   2.389   2.013 -0.7431  0.5789  0.1025
 7077SOL    HW132867   4.343   2.347   2.053 -0.1056  0.1705  0.8808
 7077SOL    HW232868   4.380   2.435   1.939 -1.9376 -1.4586 -0.5535
 7078SOL     OW32869   1.445   1.773   6.714 -0.4627 -0.0764  0.1769
 7078SOL    HW132870   1.489   1.742   6.793 -0.0026 -1.0996 -0.4741
 7078SOL    HW232871   1.517   1.746   6.655 -0.1272  1.4467 -0.0968
 7079SOL     OW32872   4.619   1.390  12.572  0.4299 -1.0753  0.3310
 7079SOL    HW132873   4.662   1.363  12.653 -2.5098 -2.5558  1.3996
 7079SOL    HW232874   4.525   1.379  12.585  0.0405 -0.9359 -2.2706
 7080SOL     OW32875   1.331   3.872   8.150 -0.8628  0.0112 -0.2677
 7080SOL    HW132876   1.375   3.836   8.074 -1.6694 -0.3271 -0.5723
 7080SOL    HW232877   1.321   3.791   8.200 -1.2856  0.2422  0.0236
 7081SOL     OW32878   0.835   0.315   4.890  0.2086  0.6400 -0.1321
 7081SOL    HW132879   0.849   0.410   4.892  1.6274  0.4483 -1.3586
 7081SOL    HW232880   0.779   0.305   4.967  2.1563 -1.0299  1.0712
 7082SOL     OW32881   1.489   1.784   6.192 -0.8062 -0.0534 -0.3817
 7082SOL    HW132882   1.455   1.842   6.260  2.0218  0.0005  0.9831
 7082SOL    HW232883   1.563   1.834   6.159 -0.1692 -1.0441 -0.4614
 7083SOL     OW32884   1.134   3.607   0.542  0.3109  0.4967 -0.1854
 7083SOL    HW132885   1.044   3.612   0.512  0.1811  1.0323  0.2997
 7083SOL    HW232886   1.132   3.658   0.623  0.3713 -1.2545  0.9292
 7084SOL     OW32887   0.445   4.489   8.764  0.3375  0.7159  0.0603
 7084SOL    HW132888   0.472   4.556   8.827 -0.2415 -0.9358  2.0739
 7084SOL    HW232889   0.434   4.541   8.685  0.9591 -0.2583 -0.6556
 7085SOL     OW32890   1.843   0.257   7.679  0.2767  0.0464 -0.3677
 7085SOL    HW132891   1.905   0.198   7.722  0.5641  0.6277  0.0049
 7085SOL    HW232892   1.844   0.232   7.587 -1.5013  0.6613 -0.5588
 7086SOL     OW32893   4.173   3.380   7.777  0.4859  0.1454 -0.2455
 7086SOL    HW132894   4.097   3.330   7.748  0.6313 -0.7244  0.8749
 7086SOL    HW232895   4.175   3.438   7.701  2.6373 -1.9084 -1.7658
 7087SOL     OW32896   2.328   0.214   2.104  0.2386  0.1305  0.1883
 7087SOL    HW132897   2.351   0.237   2.014 -1.3598 -0.0262 -0.2673
 7087SOL    HW232898   2.232   0.210   2.099  0.2524 -0.0692  0.0736
 7088SOL     OW32899   1.845   3.728  14.565  0.2852 -0.2963 -0.1852
 7088SOL    HW132900   1.768   3.782  14.582  0.0934 -0.9870  1.1141
 7088SOL    HW232901   1.913   3.794  14.579  1.9211 -1.7689 -1.1494
 7089SOL     OW32902   1.037   2.833   8.152 -0.1025  0.0357 -0.5853
 7089SOL    HW132903   1.106   2.784   8.107 -0.1934  0.1626 -0.8655
 7089SOL    HW232904   1.071   2.848   8.240 -0.7184  0.3613 -0.3992
 7090SOL     OW32905   0.705   1.980   3.478 -0.1715 -0.2632  0.3396
 7090SOL    HW132906   0.650   2.009   3.551  0.3333  3.4663 -0.7339
 7090SOL    HW232907   0.792   2.003   3.512  0.4831 -0.7168 -1.0174
 7091SOL     OW32908   2.458   3.831   0.958  0.2523 -0.3784  0.0179
 7091SOL    HW132909   2.433   3.821   0.866  0.3074 -1.9545  0.1589
 7091SOL    HW232910   2.380   3.805   1.007 -0.0316 -1.3982 -0.9595
 7092SOL     OW32911   0.018   0.586   3.526 -0.1145 -0.0133  0.3926
 7092SOL    HW132912   0.036   0.562   3.617 -1.7565  0.6482  0.8830
 7092SOL    HW232913   4.676   0.639   3.535 -0.6641 -0.6580 -0.6472
 7093SOL     OW32914   4.313   4.063   6.169 -0.3199  0.3709  0.0626
 7093SOL    HW132915   4.381   4.090   6.230 -0.5942 -0.9123  0.9426
 7093SOL    HW232916   4.235   4.067   6.225  0.2885 -2.4854  1.1151
 7094SOL     OW32917   1.129   1.384   2.631  0.5762 -0.6320  0.0788
 7094SOL    HW132918   1.186   1.353   2.701  1.5102 -2.1304 -1.3513
 7094SOL    HW232919   1.057   1.415   2.686 -0.4170  0.4593 -1.8251
 7095SOL     OW32920   1.710   4.474  16.326 -0.0462  0.1812 -0.2366
 7095SOL    HW132921   1.664   4.557  16.329 -1.2270 -0.4394 -1.3536
 7095SOL    HW232922   1.768   4.478  16.249 -0.3729  1.5462 -0.4053
 7096SOL     OW32923   0.179   1.890   4.473 -0.0416 -0.2475 -0.0003
 7096SOL    HW132924   0.193   1.844   4.390  2.9113 -0.4444  0.6074
 7096SOL    HW232925   0.178   1.817   4.535  0.2671 -0.6155 -0.4296
 7097SOL     OW32926   2.105   3.198  11.642  0.4929  0.0456  0.2895
 7097SOL    HW132927   2.148   3.180  11.725  0.7255  0.5958  0.2864
 7097SOL    HW232928   2.067   3.284  11.659 -0.6424 -0.6248  1.1270
 7098SOL     OW32929   0.110   2.382  10.319 -0.2768  0.2302  0.3825
 7098SOL    HW132930   0.195   2.413  10.351  0.3078 -0.1664 -0.7881
 7098SOL    HW232931   0.138   2.296  10.289 -2.6853  0.2780 -1.9640
 7099SOL     OW32932   1.176   3.970   1.153 -0.2695  0.0509  0.0966
 7099SOL    HW132933   1.123   4.045   1.127  0.1225  0.0571 -0.6629
 7099SOL    HW232934   1.134   3.948   1.236  2.4333  2.8677  2.2611
 7100SOL     OW32935   0.114   0.996  16.387 -0.2518  0.5688  0.8649
 7100SOL    HW132936   0.121   0.984  16.292 -2.1411  2.2266  0.5449
 7100SOL    HW232937   0.189   1.054  16.400 -0.1196 -0.2230  3.7676
 7101SOL     OW32938   1.689   4.286   8.519  0.0489  0.4683  0.2589
 7101SOL    HW132939   1.627   4.219   8.548 -0.3051  0.6272 -0.1345
 7101SOL    HW232940   1.775   4.245   8.533  0.1517  0.7818  0.5641
 7102SOL     OW32941   0.856   3.658   8.459 -0.2680  0.2543  0.1177
 7102SOL    HW132942   0.852   3.570   8.495 -0.7414 -0.1674 -0.9640
 7102SOL    HW232943   0.765   3.691   8.461 -0.3433  0.0929 -0.7198
 7103SOL     OW32944   1.111   3.362  16.561  0.8885  0.2505 -0.0599
 7103SOL    HW132945   1.201   3.337  16.536  0.6527 -0.3208 -0.3472
 7103SOL    HW232946   1.094   3.445  16.516 -0.2410  0.5589  0.9470
 7104SOL     OW32947   0.038   4.575   3.946 -0.2779  0.3498  0.7449
 7104SOL    HW132948   0.022   4.646   3.883  3.5549 -0.4312 -1.0840
 7104SOL    HW232949   0.042   4.627   4.026 -2.3204  1.9825 -0.2021
 7105SOL     OW32950   4.603   0.257   9.323  0.4601  0.3831  0.7271
 7105SOL    HW132951   4.673   0.320   9.307 -1.7856  2.5707 -0.3262
 7105SOL    HW232952   4.645   0.175   9.295 -0.0473  0.8463 -1.3763
 7106SOL     OW32953   2.963   1.843   8.183  0.2551  0.2222  0.4644
 7106SOL    HW132954   3.037   1.895   8.150 -0.4194 -0.1327 -1.5934
 7106SOL    HW232955   2.904   1.912   8.212  0.1450  0.9175 -1.4362
 7107SOL     OW32956   2.313   2.926  14.614 -0.0323 -0.2569 -0.0387
 7107SOL    HW132957   2.406   2.944  14.598 -0.8403  1.5867 -2.6290
 7107SOL    HW232958   2.286   2.905  14.525 -0.2804 -0.5789  0.1129
 7108SOL     OW32959   4.088   2.069   8.731 -0.4792 -0.1139 -0.1628
 7108SOL    HW132960   4.144   2.120   8.790  0.9708  0.7962 -2.3288
 7108SOL    HW232961   4.012   2.126   8.727 -0.2806  0.2704  1.7924
 7109SOL     OW32962   3.280   3.701   4.665 -0.0515  0.3224  0.0176
 7109SOL    HW132963   3.324   3.635   4.612 -0.0500  1.3206 -1.2258
 7109SOL    HW232964   3.186   3.685   4.661  0.0298  0.1110 -1.1322
 7110SOL     OW32965   1.222   3.447   4.743 -0.2765 -0.3977 -0.2653
 7110SOL    HW132966   1.219   3.394   4.663  0.5730 -2.1336  0.8319
 7110SOL    HW232967   1.309   3.486   4.738  0.6913 -2.3705  1.2363
 7111SOL     OW32968   0.493   3.051   5.537 -0.3358 -0.1408  0.5708
 7111SOL    HW132969   0.442   3.122   5.496 -0.8025 -1.8436 -1.8021
 7111SOL    HW232970   0.583   3.065   5.507 -0.6420  3.8546  1.4734
 7112SOL     OW32971   3.479   3.995  15.143 -0.2503  0.1753  0.3453
 7112SOL    HW132972   3.393   3.993  15.101  0.7902 -1.1326 -1.6681
 7112SOL    HW232973   3.472   4.089  15.164 -1.9146  0.0518  0.3439
 7113SOL     OW32974   2.148   4.273   5.511  0.3546  0.4680  0.5830
 7113SOL    HW132975   2.101   4.232   5.438  0.3676 -0.6236  1.1864
 7113SOL    HW232976   2.218   4.311   5.459  0.7653 -0.1738  0.6667
 7114SOL     OW32977   3.562   2.303  14.386  0.7434  0.3212  0.4674
 7114SOL    HW132978   3.656   2.320  14.393  0.6424  1.5747 -1.1872
 7114SOL    HW232979   3.533   2.394  14.397 -2.4908 -0.8488  1.5067
 7115SOL     OW32980   0.543   3.299   0.645 -0.2815  0.2420 -0.4558
 7115SOL    HW132981   0.553   3.378   0.697 -1.0536 -1.9598  3.0087
 7115SOL    HW232982   0.568   3.335   0.560 -0.7140 -2.2004 -1.6313
 7116SOL     OW32983   3.242   1.275   4.104  0.2249  0.5665 -0.0365
 7116SOL    HW132984   3.255   1.185   4.072 -1.4235 -0.1003  1.1857
 7116SOL    HW232985   3.177   1.310   4.044 -0.6555  0.5472  0.9243
 7117SOL     OW32986   2.443   1.760   6.389  0.7843  0.2932  0.1240
 7117SOL    HW132987   2.390   1.708   6.330  0.9532  2.4086 -1.9172
 7117SOL    HW232988   2.487   1.697   6.446  4.1105  0.6999 -1.9643
 7118SOL     OW32989   1.603   2.725   8.964 -0.7471  0.0071 -0.3471
 7118SOL    HW132990   1.629   2.633   8.955 -0.3901 -0.0192  1.0009
 7118SOL    HW232991   1.519   2.716   9.010 -0.6240 -1.4017 -0.3738
 7119SOL     OW32992   3.481   3.853   4.753 -0.3612  0.5199 -0.3670
 7119SOL    HW132993   3.411   3.796   4.724 -0.4208 -0.7003  2.1532
 7119SOL    HW232994   3.540   3.849   4.678 -0.7564  1.0017 -0.7005
 7120SOL     OW32995   3.050   1.665   4.969  0.2304 -0.4013 -0.4380
 7120SOL    HW132996   3.119   1.650   5.033  1.3440 -0.3523 -1.6158
 7120SOL    HW232997   3.013   1.576   4.965  0.8122 -0.6813  0.5527
 7121SOL     OW32998   3.510   0.686   9.120 -0.1877 -0.6059 -0.1089
 7121SOL    HW132999   3.450   0.717   9.188 -0.7274  2.1113 -1.8520
 7121SOL    HW233000   3.581   0.663   9.181  1.0511  2.2558 -0.4510
 7122SOL     OW33001   2.140   1.202   5.811  0.6777 -0.1192  0.1615
 7122SOL    HW133002   2.145   1.297   5.817  0.4722 -0.0890 -0.1100
 7122SOL    HW233003   2.061   1.185   5.759  0.4086  1.4013  0.0855
 7123SOL     OW33004   0.533   4.485  13.667  0.4918 -0.1045  0.0472
 7123SOL    HW133005   0.523   4.580  13.659  1.1898 -0.0367 -0.0939
 7123SOL    HW233006   0.574   4.454  13.586 -0.5491  0.4185 -0.6800
 7124SOL     OW33007   1.038   3.874   0.115 -0.2799  0.2938  0.2436
 7124SOL    HW133008   1.056   3.829   0.198  1.8811  1.3141  0.3324
 7124SOL    HW233009   0.968   3.936   0.137  0.6759  2.0532 -1.6271
 7125SOL     OW33010   0.552   1.504   4.810 -0.3936 -0.2850 -0.2875
 7125SOL    HW133011   0.510   1.565   4.749 -1.9305 -0.4985  0.5603
 7125SOL    HW233012   0.486   1.499   4.879 -1.0680 -0.7099 -0.9637
 7126SOL     OW33013   3.604   2.483  17.097  0.9024 -0.0281 -0.1705
 7126SOL    HW133014   3.568   2.551  17.040  0.9970 -1.6619 -2.1897
 7126SOL    HW233015   3.547   2.412  17.068 -0.8921  0.4908  2.0559
 7127SOL     OW33016   3.879   4.005  13.209 -0.0435  0.5336 -0.0384
 7127SOL    HW133017   3.801   3.982  13.158  0.0089  1.4616 -0.5317
 7127SOL    HW233018   3.924   3.921  13.218  1.9613  1.7896  1.5807
 7128SOL     OW33019   2.424   0.962   8.550  0.6332  0.4664  0.0375
 7128SOL    HW133020   2.398   0.919   8.468  1.0283 -0.2151  0.2657
 7128SOL    HW233021   2.424   0.886   8.608 -0.7631 -2.6181 -3.9439
 7129SOL     OW33022   0.869   3.443  17.677 -0.3819  0.1578 -0.2329
 7129SOL    HW133023   0.859   3.534  17.649  0.8161  0.2602 -0.3299
 7129SOL    HW233024   0.964   3.440  17.693 -0.4480  0.1145  0.1678
 7130SOL     OW33025   0.992   0.175   2.447  0.6619 -0.0575  0.4519
 7130SOL    HW133026   0.991   0.089   2.491  0.4497 -0.5289 -0.4722
 7130SOL    HW233027   1.009   0.144   2.358  2.0413 -0.6142  0.9066
 7131SOL     OW33028   0.326   0.505   1.522  0.0567  0.5197 -0.5031
 7131SOL    HW133029   0.397   0.566   1.544 -0.1769  1.7135 -3.0934
 7131SOL    HW233030   0.334   0.505   1.427  0.6750  0.1651 -0.4517
 7132SOL     OW33031   1.661   1.640  14.243 -0.2867 -0.0521  0.0730
 7132SOL    HW133032   1.616   1.578  14.300 -0.9087  0.9597  0.6940
 7132SOL    HW233033   1.658   1.589  14.162 -2.2973 -0.0633  0.1547
 7133SOL     OW33034   3.764   2.091   4.149  0.1434 -0.1179  0.5977
 7133SOL    HW133035   3.811   2.036   4.211  0.9208 -0.1600 -0.0322
 7133SOL    HW233036   3.821   2.166   4.133 -0.6019  0.6148  1.3871
 7134SOL     OW33037   2.693   4.715   3.498 -0.3383  0.4887 -0.4711
 7134SOL    HW133038   2.777   4.669   3.505  0.4779  1.4945 -3.6752
 7134SOL    HW233039   2.681   4.716   3.403 -0.1973 -1.5425 -0.5223
 7135SOL     OW33040   3.620   1.262   2.733  0.2317  0.4049  0.9607
 7135SOL    HW133041   3.572   1.298   2.807  0.0014 -0.9320  1.4595
 7135SOL    HW233042   3.557   1.199   2.698  3.3870 -2.5746  0.7064
 7136SOL     OW33043   0.675   0.751   4.945 -0.0333  0.0856  0.2055
 7136SOL    HW133044   0.738   0.820   4.925 -1.8185  1.4839 -0.6326
 7136SOL    HW233045   0.666   0.756   5.040 -2.2664 -3.4213  0.1901
 7137SOL     OW33046   1.241   3.885  10.192 -0.1831  0.0801  0.1004
 7137SOL    HW133047   1.170   3.948  10.204  0.3067  0.1947  2.4532
 7137SOL    HW233048   1.309   3.933  10.242 -0.9718 -0.5168  1.7582
 7138SOL     OW33049   0.154   2.795   8.621 -0.5683 -0.3212  0.4063
 7138SOL    HW133050   0.062   2.781   8.597  0.1851 -0.3847 -2.3872
 7138SOL    HW233051   0.201   2.725   8.577  1.0951  0.4064  1.0446
 7139SOL     OW33052   0.723   4.055   7.454 -0.8102 -0.0143 -0.2155
 7139SOL    HW133053   0.801   4.002   7.440  0.1899  1.1981  0.7217
 7139SOL    HW233054   0.712   4.059   7.549  0.5878  1.9615 -0.1409
 7140SOL     OW33055   2.698   2.343   5.549 -0.4908  0.1404 -0.1874
 7140SOL    HW133056   2.723   2.253   5.569 -2.8635 -1.0145 -2.3953
 7140SOL    HW233057   2.698   2.336   5.453  1.4299 -1.8340 -0.0393
 7141SOL     OW33058   1.959   1.579   1.705  0.3253  0.1246 -0.2368
 7141SOL    HW133059   1.901   1.529   1.646  0.7892 -0.0144 -0.5704
 7141SOL    HW233060   2.012   1.512   1.747  0.0270  0.9555  1.4421
 7142SOL     OW33061   2.446   3.955   2.016  1.0022 -0.2062  0.5061
 7142SOL    HW133062   2.497   3.999   1.948 -1.9288 -1.1028 -2.2548
 7142SOL    HW233063   2.456   3.867   1.980  0.2382 -1.3841  3.1354
 7143SOL     OW33064   2.168   1.497   9.965  0.0715 -0.1118 -0.5316
 7143SOL    HW133065   2.183   1.477  10.058 -0.2541 -0.2062 -0.4968
 7143SOL    HW233066   2.087   1.448   9.951  0.2372  0.1577 -2.4088
 7144SOL     OW33067   0.732   1.752  14.063 -0.0102 -0.5767  0.0262
 7144SOL    HW133068   0.650   1.801  14.069  1.0583  1.2652 -0.1928
 7144SOL    HW233069   0.792   1.812  14.107  0.4973 -0.3081 -1.0486
 7145SOL     OW33070   1.462   3.643   1.974  0.2745  0.0202 -0.1192
 7145SOL    HW133071   1.513   3.719   2.002  0.8350 -0.5416  0.3700
 7145SOL    HW233072   1.465   3.652   1.879  2.3513  1.8999  0.1141
 7146SOL     OW33073   2.395   1.506   9.371 -0.6439  0.1236 -0.9800
 7146SOL    HW133074   2.406   1.411   9.375 -1.3383  0.0107 -1.8907
 7146SOL    HW233075   2.310   1.505   9.414 -0.1105  0.0405  0.0623
 7147SOL     OW33076   4.332   1.206   7.613  0.1988  0.0254 -0.6856
 7147SOL    HW133077   4.278   1.177   7.687  1.8333 -1.7563 -0.2060
 7147SOL    HW233078   4.413   1.238   7.651 -1.4855  2.8912  0.5255
 7148SOL     OW33079   2.954   1.225   9.457 -0.4164  0.1216 -0.0526
 7148SOL    HW133080   2.876   1.217   9.402 -0.5809 -1.4799  0.4313
 7148SOL    HW233081   2.958   1.320   9.446 -0.2956  0.1192 -0.0242
 7149SOL     OW33082   1.135   3.949   2.653  0.1792  0.6795  0.6126
 7149SOL    HW133083   1.117   3.858   2.629 -1.3691  1.0729  0.2574
 7149SOL    HW233084   1.072   3.959   2.725  0.1096  2.8480  0.2598
 7150SOL     OW33085   2.737   3.623   7.975  0.2984 -0.4390  0.0527
 7150SOL    HW133086   2.674   3.612   8.047 -3.8064  0.0726 -3.4733
 7150SOL    HW233087   2.732   3.534   7.938  1.7954 -0.3717 -0.2933
 7151SOL     OW33088   3.412   1.239   8.726  0.4257 -0.1196  0.4729
 7151SOL    HW133089   3.487   1.263   8.671  0.2093 -2.2044 -0.7197
 7151SOL    HW233090   3.430   1.273   8.814 -0.4514 -0.9561  0.9834
 7152SOL     OW33091   3.955   3.105   9.254  0.1238 -0.2192  0.1577
 7152SOL    HW133092   3.882   3.157   9.223 -0.2797 -0.4612  0.7067
 7152SOL    HW233093   3.950   3.124   9.347 -1.8856  1.2301 -0.2552
 7153SOL     OW33094   2.306   4.581   4.743  0.8551 -0.1457  0.1877
 7153SOL    HW133095   2.304   4.553   4.652  1.3751 -0.6734  0.3326
 7153SOL    HW233096   2.212   4.597   4.750  0.6640 -1.6180  1.1245
 7154SOL     OW33097   4.035   1.122   8.377 -0.2624 -0.0248  0.0211
 7154SOL    HW133098   4.096   1.159   8.314 -3.1851  1.1318 -2.1182
 7154SOL    HW233099   3.970   1.069   8.330  0.2297 -0.4183 -0.2164
 7155SOL     OW33100   2.890   2.702   2.271  0.5347 -0.4086 -0.4214
 7155SOL    HW133101   2.935   2.634   2.221 -0.9827 -0.5881 -1.5608
 7155SOL    HW233102   2.875   2.668   2.360 -2.4245 -0.9705 -1.1360
 7156SOL     OW33103   3.975   3.865   3.584  0.2173 -0.0215 -0.8490
 7156SOL    HW133104   3.976   3.958   3.560  0.3262  0.1764 -0.0972
 7156SOL    HW233105   4.068   3.863   3.609  0.3039  1.2447 -1.0466
 7157SOL     OW33106   3.311   1.481   5.322 -0.4632  0.6799  0.0236
 7157SOL    HW133107   3.306   1.571   5.290 -1.2069  1.1414  1.4137
 7157SOL    HW233108   3.294   1.431   5.243 -0.7041  0.9756 -0.1089
 7158SOL     OW33109   2.881   1.551  11.454 -0.0546 -0.4153 -0.1492
 7158SOL    HW133110   2.842   1.520  11.536 -2.9972 -0.6916 -1.6425
 7158SOL    HW233111   2.860   1.644  11.458 -0.7346 -0.5366 -0.8321
 7159SOL     OW33112   3.939   2.306   4.137  0.2181 -0.1659 -0.3343
 7159SOL    HW133113   4.026   2.312   4.177 -0.0372  2.6341 -0.1915
 7159SOL    HW233114   3.894   2.381   4.176  0.4394  0.7729 -1.8455
 7160SOL     OW33115   1.113   4.716   4.558  0.3216  0.7693 -0.0634
 7160SOL    HW133116   1.079   0.013   4.640 -0.6410  0.5588 -0.3781
 7160SOL    HW233117   1.102   4.621   4.568  0.8319  0.5900 -1.1741
 7161SOL     OW33118   1.712   0.990   6.811  0.4624  0.0635 -0.2265
 7161SOL    HW133119   1.698   0.922   6.877 -1.6157 -0.7488 -1.4943
 7161SOL    HW233120   1.635   0.968   6.758  0.7572 -2.0093  0.2189
 7162SOL     OW33121   0.751   4.295   2.038 -0.6120  0.1858  0.0135
 7162SOL    HW133122   0.841   4.269   2.060 -0.4072  1.0179  0.1558
 7162SOL    HW233123   0.693   4.220   2.047 -1.7856  1.0265 -0.5442
 7163SOL     OW33124   3.247   3.958   6.693  0.7272  0.2771  0.3405
 7163SOL    HW133125   3.324   3.943   6.640 -0.1560 -0.8037 -0.6376
 7163SOL    HW233126   3.292   3.981   6.774  2.7743 -0.8563 -0.4939
 7164SOL     OW33127   1.733   3.831   8.179 -0.2731  0.2253 -0.1596
 7164SOL    HW133128   1.646   3.799   8.204  1.2255 -2.4719  1.6237
 7164SOL    HW233129   1.763   3.741   8.168 -0.5549  0.3578 -2.0459
 7165SOL     OW33130   3.609   3.414   8.215  0.1821  0.3047 -0.2132
 7165SOL    HW133131   3.646   3.344   8.160  0.3668 -1.4515  2.1554
 7165SOL    HW233132   3.587   3.475   8.145 -1.1724 -1.3971 -1.2634
 7166SOL     OW33133   2.887   3.104   5.632  0.1647 -0.0028 -0.3862
 7166SOL    HW133134   2.882   3.154   5.551  1.4596  0.8789  0.0669
 7166SOL    HW233135   2.976   3.070   5.643  0.2191  0.3967  0.5126
 7167SOL     OW33136   0.692   1.768  15.306 -0.3013  0.1548  0.2949
 7167SOL    HW133137   0.651   1.772  15.220 -1.0406  1.2821  0.7015
 7167SOL    HW233138   0.649   1.690  15.342 -1.4663  0.6657 -0.0134
 7168SOL     OW33139   1.898   3.357  11.833  0.0407  0.2025  0.2424
 7168SOL    HW133140   1.869   3.426  11.894 -2.5536 -0.3432 -0.3453
 7168SOL    HW233141   1.889   3.288  11.900 -1.7495  1.9498  1.8004
 7169SOL     OW33142   3.249   1.812   0.066  0.5787 -0.1028  0.0277
 7169SOL    HW133143   3.178   1.750   0.049  0.7292  0.2703 -1.9004
 7169SOL    HW233144   3.209   1.894   0.037  1.1433 -0.5329 -1.9256
 7170SOL     OW33145   1.776   0.819   3.390 -0.8371  0.0443  0.1618
 7170SOL    HW133146   1.707   0.863   3.340 -0.1950  1.6475  0.6785
 7170SOL    HW233147   1.750   0.727   3.387  3.6445 -1.2388  0.9128
 7171SOL     OW33148   1.188   1.694   9.174 -0.0670  0.2663  0.4432
 7171SOL    HW133149   1.258   1.742   9.130 -1.3612  0.0694 -1.8253
 7171SOL    HW233150   1.224   1.605   9.171  2.9102  1.4859  0.2133
 7172SOL     OW33151   1.622   1.123   5.774  0.6093  0.6542  0.1197
 7172SOL    HW133152   1.617   1.093   5.864 -2.0350  0.5165 -0.0468
 7172SOL    HW233153   1.556   1.066   5.734 -0.1268  1.5947 -0.0124
 7173SOL     OW33154   2.989   2.579   9.143  0.5318  0.4196  0.0407
 7173SOL    HW133155   3.021   2.564   9.054 -0.7604  0.3240 -0.4092
 7173SOL    HW233156   2.898   2.587   9.115  1.4671  3.5032 -2.1697
 7174SOL     OW33157   2.742   4.120   5.535  0.5723  0.1091  0.4591
 7174SOL    HW133158   2.802   4.174   5.587 -0.4510  1.7886 -0.0997
 7174SOL    HW233159   2.749   4.162   5.449 -2.3505  1.0993  0.6837
 7175SOL     OW33160   2.605   1.625  14.231 -0.4105 -0.0338  0.3697
 7175SOL    HW133161   2.562   1.709  14.249  1.4378  1.1568 -0.7518
 7175SOL    HW233162   2.542   1.583  14.173  0.9233 -0.5472 -0.6920
 7176SOL     OW33163   4.021   3.341  10.683 -0.1920 -0.4118  0.1434
 7176SOL    HW133164   3.988   3.257  10.716 -3.0173  0.9335  0.6940
 7176SOL    HW233165   3.935   3.378  10.664  0.3570  0.7176 -0.0923
 7177SOL     OW33166   3.860   3.275  12.053  0.3373 -0.1689 -0.2343
 7177SOL    HW133167   3.840   3.301  11.964 -1.4680  2.0545  0.8383
 7177SOL    HW233168   3.781   3.297  12.102  0.8304  2.7059 -0.7463
 7178SOL     OW33169   0.902   2.692   5.937  0.0404  0.8263  0.0952
 7178SOL    HW133170   0.838   2.649   5.879 -1.3392  0.9000  1.5544
 7178SOL    HW233171   0.960   2.732   5.872 -0.3094 -0.1717 -0.8339
 7179SOL     OW33172   0.139   0.719   6.189  0.0704 -0.3287  0.0135
 7179SOL    HW133173   0.188   0.800   6.182 -0.4278 -0.1585 -1.4068
 7179SOL    HW233174   0.063   0.741   6.135  0.3139 -1.4331 -0.7878
 7180SOL     OW33175   4.190   3.457  10.867 -0.0140  0.3024  0.1489
 7180SOL    HW133176   4.134   3.412  10.803 -0.8663  0.3532  0.8681
 7180SOL    HW233177   4.182   3.540  10.821  1.4002  0.0189 -0.6249
 7181SOL     OW33178   2.217   0.999   0.573 -0.3845 -0.4406  0.3971
 7181SOL    HW133179   2.220   0.906   0.596  0.8566 -0.4662  0.0941
 7181SOL    HW233180   2.311   1.010   0.563 -0.2410 -0.7246  1.3757
 7182SOL     OW33181   4.522   1.859   5.400 -0.1544 -0.0825 -0.1288
 7182SOL    HW133182   4.443   1.818   5.435 -0.5488 -0.1375 -1.0898
 7182SOL    HW233183   4.506   1.944   5.440 -0.6102 -0.0768 -0.3209
 7183SOL     OW33184   0.481   0.115   9.702 -0.0544  0.5418 -0.1152
 7183SOL    HW133185   0.574   0.103   9.719  0.5445  1.0245 -3.0400
 7183SOL    HW233186   0.487   0.084   9.612  0.4239  0.2969  0.0035
 7184SOL     OW33187   0.508   1.487   3.698 -0.4033 -0.8219 -0.0859
 7184SOL    HW133188   0.588   1.435   3.686 -0.4669 -1.1566  0.9747
 7184SOL    HW233189   0.457   1.468   3.619  0.3960  3.2571 -1.5624
 7185SOL     OW33190   2.576   2.839  15.413 -0.1278  0.3538  0.6611
 7185SOL    HW133191   2.583   2.825  15.507  0.8763 -0.2893  0.4919
 7185SOL    HW233192   2.525   2.760  15.395  1.9887 -0.8907  0.1653
 7186SOL     OW33193   1.603   4.610   8.884  0.4527  0.2051  0.5107
 7186SOL    HW133194   1.611   4.618   8.789  0.3112  0.2503  0.5014
 7186SOL    HW233195   1.561   4.524   8.886 -0.6697  0.7704  1.4979
 7187SOL     OW33196   3.225   3.051  17.075 -0.0969 -0.2045  0.5228
 7187SOL    HW133197   3.143   3.014  17.043  0.6206 -1.2459 -0.1304
 7187SOL    HW233198   3.202   3.117  17.140 -0.9376 -2.1745  2.2140
 7188SOL     OW33199   1.569   3.815   0.977  0.0369  0.5749  0.2981
 7188SOL    HW133200   1.505   3.797   0.908 -1.1087  2.7634  0.7934
 7188SOL    HW233201   1.512   3.880   1.018 -0.4594  0.2255  0.1697
 7189SOL     OW33202   4.334   4.380  16.354  0.1374  0.4645 -0.1094
 7189SOL    HW133203   4.246   4.414  16.339  0.2464  0.5428 -0.5710
 7189SOL    HW233204   4.393   4.452  16.332  0.4385  0.6250  1.1813
 7190SOL     OW33205   1.170   1.388   9.056  0.5462 -0.7252  0.1076
 7190SOL    HW133206   1.094   1.368   9.111  1.3452  3.1315  2.6495
 7190SOL    HW233207   1.161   1.317   8.993 -0.8698 -0.1101 -0.3662
 7191SOL     OW33208   4.213   4.394   7.985  0.4945 -0.6530  0.2114
 7191SOL    HW133209   4.256   4.310   7.999  0.9601 -0.2964  0.8740
 7191SOL    HW233210   4.290   4.450   7.994  0.2827 -0.4565  0.7820
 7192SOL     OW33211   3.702   2.870   6.583  0.4078 -0.5188  0.1227
 7192SOL    HW133212   3.648   2.948   6.593  1.4989  0.1195  1.0529
 7192SOL    HW233213   3.638   2.799   6.590 -1.1419  0.7776 -0.7736
 7193SOL     OW33214   3.784   2.610   7.839  0.0072  0.0371  0.0207
 7193SOL    HW133215   3.748   2.689   7.880  1.3094  0.2232  0.8410
 7193SOL    HW233216   3.873   2.643   7.826 -0.5816  1.3558 -0.6338
 7194SOL     OW33217   0.821   2.850  10.685  0.0540  0.3309  0.0126
 7194SOL    HW133218   0.783   2.789  10.749  1.9792 -0.6521  0.2288
 7194SOL    HW233219   0.747   2.898  10.647 -0.0528 -0.0676 -0.2901
 7195SOL     OW33220   4.133   3.053   6.396  0.0177 -0.0523 -0.5780
 7195SOL    HW133221   4.089   3.136   6.377 -1.1303 -0.5068  0.0885
 7195SOL    HW233222   4.101   3.025   6.482 -1.5490 -1.3429 -1.5825
 7196SOL     OW33223   1.061   4.391   1.046  0.4252 -0.2366  0.6145
 7196SOL    HW133224   1.034   4.390   0.955  2.5550  3.1315 -0.0727
 7196SOL    HW233225   1.094   4.481   1.052  3.1908 -1.0496 -2.2878
 7197SOL     OW33226   2.570   4.626  16.614  0.6030 -0.8920  0.5287
 7197SOL    HW133227   2.581   4.718  16.592  2.3483 -1.2057  0.0804
 7197SOL    HW233228   2.477   4.623  16.640  0.8666  0.6261  1.6373
 7198SOL     OW33229   1.882   3.390   6.901  0.0523  0.2109  0.6276
 7198SOL    HW133230   1.944   3.327   6.937  0.2586 -0.3091 -0.6397
 7198SOL    HW233231   1.914   3.409   6.813 -1.0406  0.1286  0.2122
 7199SOL     OW33232   0.731   4.490   9.321 -0.2583 -0.5706  0.7241
 7199SOL    HW133233   0.820   4.462   9.341  0.8486  2.9779  0.8046
 7199SOL    HW233234   0.676   4.421   9.357  0.1568 -1.0432  0.4469
 7200SOL     OW33235   3.572   4.395   7.586  0.8348  0.0032  0.2555
 7200SOL    HW133236   3.480   4.422   7.588  0.4091 -1.4690  0.4414
 7200SOL    HW233237   3.558   4.301   7.596 -1.3474  0.2535 -0.5719
 7201SOL     OW33238   0.302   1.554  10.126 -0.1746  0.0716 -0.3972
 7201SOL    HW133239   0.356   1.632  10.129  0.5792 -0.5476  1.9462
 7201SOL    HW233240   0.355   1.480  10.157 -0.8521 -0.0604  0.4300
 7202SOL     OW33241   3.275   3.544   7.536 -0.5813 -0.4851 -0.0786
 7202SOL    HW133242   3.360   3.535   7.493  0.2640  0.6044  1.3694
 7202SOL    HW233243   3.242   3.454   7.535 -0.3423 -0.5603 -1.7039
 7203SOL     OW33244   0.441   3.596   5.779 -0.7185  0.2623  0.0554
 7203SOL    HW133245   0.410   3.551   5.857 -1.7909  0.5385 -0.2112
 7203SOL    HW233246   0.403   3.536   5.714 -1.2051  1.8875 -1.1519
 7204SOL     OW33247   2.567   2.524   2.418  0.5468 -0.2874  1.1288
 7204SOL    HW133248   2.600   2.614   2.416 -1.6949  0.4915 -0.3834
 7204SOL    HW233249   2.473   2.539   2.407  1.0476  1.3904 -0.7551
 7205SOL     OW33250   0.213   0.056   3.757 -0.0683 -0.4244 -0.2948
 7205SOL    HW133251   0.278   4.734   3.721  0.6393  0.4262 -0.4379
 7205SOL    HW233252   0.260   0.110   3.822 -0.1655 -0.3888 -0.2541
 7206SOL     OW33253   4.202   0.016   4.318  0.7704  0.1603  0.4523
 7206SOL    HW133254   4.116   0.002   4.356 -0.0197 -1.0838 -1.7607
 7206SOL    HW233255   4.232   4.664   4.328  1.4646  0.3348 -0.0595
 7207SOL     OW33256   2.047   4.086   4.346  0.0909  0.4176 -0.0752
 7207SOL    HW133257   1.975   4.023   4.344 -0.8788  1.4797  1.6525
 7207SOL    HW233258   2.074   4.082   4.438 -1.7390 -2.3952  0.3444
 7208SOL     OW33259   1.600   1.666   1.945 -0.1233 -0.2093  0.2635
 7208SOL    HW133260   1.681   1.673   1.893 -0.5418 -2.8326 -0.7348
 7208SOL    HW233261   1.550   1.729   1.893  0.9045  0.0034 -0.4784
 7209SOL     OW33262   1.812   3.572   7.853 -0.5439  0.5282 -0.3540
 7209SOL    HW133263   1.722   3.557   7.822 -0.1340 -2.5603 -0.0442
 7209SOL    HW233264   1.803   3.586   7.947 -0.8020  1.9929 -0.6097
 7210SOL     OW33265   4.700   2.268  12.284 -0.1858 -0.0822  0.1357
 7210SOL    HW133266   4.645   2.250  12.360  0.3712  2.0661  1.0570
 7210SOL    HW233267   0.046   2.303  12.315 -0.6453  0.6990  0.5083
 7211SOL     OW33268   3.884   0.664  14.335  0.1156  0.1150  0.3550
 7211SOL    HW133269   3.914   0.753  14.350 -1.1007  0.7998 -1.2709
 7211SOL    HW233270   3.833   0.664  14.254  2.1053 -0.5592 -0.8905
 7212SOL     OW33271   2.239   4.723  12.645 -0.2549  0.0836  0.1150
 7212SOL    HW133272   2.301   4.668  12.597 -1.7243  0.4379 -2.1648
 7212SOL    HW233273   2.290   0.063  12.670 -0.3830  0.2976 -0.2875
 7213SOL     OW33274   0.568   1.932   8.949  0.3346  0.1828 -0.2905
 7213SOL    HW133275   0.534   1.864   8.891  2.3626  0.7563 -2.1315
 7213SOL    HW233276   0.588   1.878   9.026  1.8584 -0.1228 -0.9083
 7214SOL     OW33277   3.145   4.225   6.337  0.1881 -0.2255  0.2313
 7214SOL    HW133278   3.210   4.290   6.308  1.3834 -1.4321  0.2180
 7214SOL    HW233279   3.067   4.259   6.294  1.4387  1.1835 -0.9385
 7215SOL     OW33280   4.060   3.211   1.554 -0.2817 -0.4098  0.0477
 7215SOL    HW133281   4.043   3.219   1.648  2.8460 -1.6313  0.7109
 7215SOL    HW233282   4.137   3.155   1.542 -0.5052 -0.4655 -1.1382
 7216SOL     OW33283   4.401   3.212   4.022 -0.2426 -0.0570 -0.6187
 7216SOL    HW133284   4.433   3.122   4.016  0.5636  0.2174 -0.4064
 7216SOL    HW233285   4.305   3.210   4.029 -0.1696  0.5228  0.6852
 7217SOL     OW33286   4.400   2.159   7.203  0.4125 -0.4127 -0.0834
 7217SOL    HW133287   4.408   2.220   7.129  0.3026  2.0087  1.8990
 7217SOL    HW233288   4.479   2.107   7.187  1.3966  0.4188  2.1429
 7218SOL     OW33289   1.001   1.426  11.680 -0.1421  0.6117 -0.5201
 7218SOL    HW133290   0.944   1.350  11.678  1.2485 -0.5086  1.9304
 7218SOL    HW233291   0.972   1.483  11.752 -1.9397  0.3085 -0.9996
 7219SOL     OW33292   0.077   4.683   4.222 -0.0990  0.1277 -0.0062
 7219SOL    HW133293   4.728   4.686   4.183 -0.2641  0.9491  0.4229
 7219SOL    HW233294   0.052   4.709   4.310 -0.0249 -0.9573  0.3349
 7220SOL     OW33295   1.091   0.140   1.927  0.2342  0.0907 -0.4765
 7220SOL    HW133296   1.070   0.099   1.843  0.0785  1.4013 -1.0828
 7220SOL    HW233297   1.026   0.210   1.922  0.5184  0.4245  0.4512
 7221SOL     OW33298   2.515   0.481   3.796  0.0752 -0.1491  1.0147
 7221SOL    HW133299   2.547   0.556   3.746  2.0515 -0.7582  1.3610
 7221SOL    HW233300   2.598   0.440   3.820  0.0935  0.5131  2.0586
 7222SOL     OW33301   3.364   2.972   2.054 -0.2723 -0.0118 -0.3641
 7222SOL    HW133302   3.318   2.920   2.121  0.5435  1.5063  1.3656
 7222SOL    HW233303   3.452   2.977   2.092 -0.9680 -1.8576  1.5211
 7223SOL     OW33304   2.514   3.315   7.610  0.1060 -0.1727 -0.3968
 7223SOL    HW133305   2.603   3.322   7.577  0.1999  1.5126  0.2213
 7223SOL    HW233306   2.515   3.229   7.652  1.5030 -1.3709 -2.9089
 7224SOL     OW33307   0.294   3.533  11.686 -0.1716  0.1754 -0.0476
 7224SOL    HW133308   0.328   3.605  11.633  1.7906  0.8271  2.1011
 7224SOL    HW233309   0.227   3.490  11.632  0.5826 -1.3412  0.2298
 7225SOL     OW33310   3.509   0.725   9.527 -0.3947 -0.4036 -0.3943
 7225SOL    HW133311   3.552   0.691   9.605  0.3039  0.8019 -0.2580
 7225SOL    HW233312   3.419   0.708   9.555  0.5657 -1.6199  1.9768
 7226SOL     OW33313   3.739   1.906   9.599  0.2904 -0.2383 -0.1233
 7226SOL    HW133314   3.715   1.964   9.528 -1.0608  1.0264  1.3750
 7226SOL    HW233315   3.831   1.890   9.577 -0.2449  0.5684 -2.8952
 7227SOL     OW33316   3.508   3.404  10.261 -0.3691 -0.3187  0.0235
 7227SOL    HW133317   3.521   3.498  10.272  0.9554 -0.3989 -0.8741
 7227SOL    HW233318   3.488   3.375  10.350 -1.2012  1.4036  0.3991
 7228SOL     OW33319   3.618   1.412   0.168 -0.2540 -0.1888 -0.1145
 7228SOL    HW133320   3.591   1.354   0.239 -0.8314  1.2438  0.8523
 7228SOL    HW233321   3.558   1.485   0.180 -0.7421 -0.6192  0.0601
 7229SOL     OW33322   2.419   4.109  14.267  0.3531  0.5101 -0.5646
 7229SOL    HW133323   2.425   4.192  14.220  1.1575  0.9231  0.2673
 7229SOL    HW233324   2.329   4.078  14.254  1.1967 -2.0129 -0.4883
 7230SOL     OW33325   2.041   3.410   1.459 -0.6514 -0.5192  0.4993
 7230SOL    HW133326   2.105   3.480   1.446 -1.5179  0.3608  0.9710
 7230SOL    HW233327   2.000   3.392   1.375  1.9789  2.5465 -1.3857
 7231SOL     OW33328   2.462   2.550   3.932  0.2851 -0.1449 -0.3088
 7231SOL    HW133329   2.514   2.597   3.866  1.2291 -0.9087 -0.1223
 7231SOL    HW233330   2.440   2.471   3.883 -2.5003  0.0014  0.7332
 7232SOL     OW33331   0.615   0.698   8.976  0.0923  0.1343  0.2268
 7232SOL    HW133332   0.601   0.635   9.047  0.1409  0.8551  0.8700
 7232SOL    HW233333   0.548   0.764   8.993 -2.2026 -1.4437 -2.6960
 7233SOL     OW33334   3.769   3.047   7.713  0.1840 -0.7058 -0.0803
 7233SOL    HW133335   3.679   3.071   7.736 -0.0670 -1.1296 -0.6234
 7233SOL    HW233336   3.803   3.026   7.800 -0.0101 -1.2316 -0.1319
 7234SOL     OW33337   1.422   2.505   6.674  0.4860 -0.2328  0.0778
 7234SOL    HW133338   1.397   2.523   6.764  1.8083  1.2460  0.1539
 7234SOL    HW233339   1.514   2.530   6.678  0.2880  0.8139 -1.7613
 7235SOL     OW33340   4.537   3.279  11.290 -0.0126 -0.4743  0.6140
 7235SOL    HW133341   4.509   3.271  11.381  1.1625  1.6530  1.1462
 7235SOL    HW233342   4.622   3.323  11.298  0.2270 -0.6735 -0.8210
 7236SOL     OW33343   4.254   1.504  16.829 -0.5905  0.6989 -0.5526
 7236SOL    HW133344   4.340   1.470  16.803 -0.9710 -0.2175 -0.6319
 7236SOL    HW233345   4.287   1.565  16.895 -0.8055  1.9518 -1.6104
 7237SOL     OW33346   4.660   3.605   5.148 -0.0235  0.1283 -0.1625
 7237SOL    HW133347   4.685   3.519   5.183  2.0807  0.0725 -1.8243
 7237SOL    HW233348   4.715   3.598   5.069 -1.9647  0.1925 -1.5128
 7238SOL     OW33349   0.015   1.103   7.971 -0.5756  0.0031  0.4186
 7238SOL    HW133350   4.731   1.145   7.888 -1.1949  0.7867  0.9826
 7238SOL    HW233351   0.097   1.145   7.996 -0.0695 -0.8959  0.2694
 7239SOL     OW33352   1.931   1.583   9.731  0.1601 -0.4040  0.7030
 7239SOL    HW133353   1.861   1.608   9.791  0.1774 -1.8369  1.3099
 7239SOL    HW233354   1.992   1.653   9.756  2.1449 -1.7900 -0.2423
 7240SOL     OW33355   0.318   0.587   3.968 -0.2024  0.3142 -0.1713
 7240SOL    HW133356   0.409   0.586   3.938  0.5530  1.2555  2.0981
 7240SOL    HW233357   0.316   0.659   4.031 -1.1396 -1.8537  2.2565
 7241SOL     OW33358   1.859   3.013   8.338 -0.1606  0.0217  0.1925
 7241SOL    HW133359   1.769   2.984   8.355 -0.2045  1.3204  2.0862
 7241SOL    HW233360   1.890   3.064   8.412  0.4026  0.5808 -0.4321
 7242SOL     OW33361   0.824   2.515  12.404  0.9239  0.2283 -0.1143
 7242SOL    HW133362   0.843   2.421  12.409  1.1961  0.4592  3.4213
 7242SOL    HW233363   0.881   2.540  12.477 -1.1061  0.0112  1.5387
 7243SOL     OW33364   0.157   2.457  13.306  0.0221 -0.0228  0.3917
 7243SOL    HW133365   0.235   2.487  13.259  0.3847  0.6893  1.4691
 7243SOL    HW233366   0.085   2.477  13.246 -1.7598  1.2836  2.9698
 7244SOL     OW33367   3.203   2.948   0.793 -0.6189 -0.1137 -0.0126
 7244SOL    HW133368   3.263   2.943   0.867 -0.7118  1.0684  0.1382
 7244SOL    HW233369   3.261   2.910   0.727  0.3520  1.1006  0.1345
 7245SOL     OW33370   2.488   3.669   0.654 -0.2810 -0.5532 -0.3712
 7245SOL    HW133371   2.527   3.653   0.740  0.5269 -0.9677 -0.8168
 7245SOL    HW233372   2.503   3.585   0.610 -2.0602 -2.3358  2.4222
 7246SOL     OW33373   4.541   1.189  13.911 -0.6576  0.0661  0.4445
 7246SOL    HW133374   4.576   1.171  13.998  1.9635 -1.0769 -0.8180
 7246SOL    HW233375   4.582   1.117  13.863 -2.2870 -0.4363 -0.1917
 7247SOL     OW33376   0.497   4.507   7.999 -0.3946 -0.2740 -0.3411
 7247SOL    HW133377   0.484   4.435   7.937  1.7915 -0.0672 -1.0521
 7247SOL    HW233378   0.555   4.461   8.060 -0.8561 -0.6099 -0.1598
 7248SOL     OW33379   0.822   2.323   7.169 -0.4400 -0.7058  0.5616
 7248SOL    HW133380   0.838   2.412   7.201 -0.2972 -0.9817  1.2427
 7248SOL    HW233381   0.815   2.336   7.074  0.2295  1.0564  0.7577
 7249SOL     OW33382   2.387   0.392   7.496  0.3821  0.0146  0.3285
 7249SOL    HW133383   2.330   0.356   7.564  1.1157  0.5450  1.2317
 7249SOL    HW233384   2.465   0.398   7.552  0.9826 -1.9628 -0.2723
 7250SOL     OW33385   1.187   2.521   5.912 -0.0836 -0.4106 -0.0752
 7250SOL    HW133386   1.210   2.471   5.990 -0.1902  0.2527  0.3732
 7250SOL    HW233387   1.251   2.592   5.910 -0.3576 -0.1766 -0.6501
 7251SOL     OW33388   0.489   3.930  11.741  0.1067  0.1733  0.7116
 7251SOL    HW133389   0.457   3.948  11.830  1.8701 -2.0739  1.7936
 7251SOL    HW233390   0.580   3.909  11.761 -0.9170 -1.6304  3.5595
 7252SOL     OW33391   4.087   0.410   8.182  0.0058  0.3716 -0.0029
 7252SOL    HW133392   4.033   0.483   8.154  0.1746  1.0111  1.3187
 7252SOL    HW233393   4.026   0.337   8.176 -1.7913  1.5697  3.6452
 7253SOL     OW33394   1.964   3.037   3.200  0.4417 -0.0320  0.9326
 7253SOL    HW133395   2.011   2.972   3.253 -0.1366 -2.9753 -2.2015
 7253SOL    HW233396   1.925   3.087   3.272  2.8766 -0.8852  2.8622
 7254SOL     OW33397   3.454   0.330   9.137 -0.0590  0.2567  0.0029
 7254SOL    HW133398   3.385   0.360   9.079 -1.7844 -1.3003  1.2805
 7254SOL    HW233399   3.533   0.329   9.082  0.1038 -0.7914  0.2578
 7255SOL     OW33400   3.389   3.774   5.508  0.1451  0.7538  0.0574
 7255SOL    HW133401   3.448   3.707   5.542  1.9500  1.0280 -2.5366
 7255SOL    HW233402   3.311   3.728   5.476  0.5929 -0.2597  0.4436
 7256SOL     OW33403   3.293   0.811  13.079 -0.1880  0.4834 -0.0420
 7256SOL    HW133404   3.327   0.860  13.154 -0.6637 -1.3994  1.3986
 7256SOL    HW233405   3.219   0.772  13.127  0.0883  1.4862  1.2075
 7257SOL     OW33406   2.836   3.138   9.501  0.3526  0.1537  0.1982
 7257SOL    HW133407   2.799   3.054   9.527 -0.0619  0.1139 -0.5282
 7257SOL    HW233408   2.853   3.120   9.409  1.8648  1.3155  0.2564
 7258SOL     OW33409   0.692   4.685   4.954  0.3134 -0.2665  0.0305
 7258SOL    HW133410   0.758   4.714   4.891  0.9711 -0.0950  0.7899
 7258SOL    HW233411   0.628   4.665   4.886  0.2829 -1.3671  0.3887
 7259SOL     OW33412   1.129   2.977   5.941  0.1044 -0.0698 -0.1740
 7259SOL    HW133413   1.052   2.954   5.889 -0.5890  2.4287 -0.2251
 7259SOL    HW233414   1.122   2.934   6.027 -1.4820  1.2083  0.3277
 7260SOL     OW33415   4.165   4.083  12.364 -0.1828 -0.6716 -0.6432
 7260SOL    HW133416   4.174   4.055  12.455  1.3581  3.0768  0.3211
 7260SOL    HW233417   4.125   4.004  12.326 -1.2738 -0.5544  0.2573
 7261SOL     OW33418   4.239   2.181   5.338  0.0473 -0.2164 -0.2381
 7261SOL    HW133419   4.272   2.113   5.397  0.8120 -0.8302 -1.3683
 7261SOL    HW233420   4.303   2.253   5.338 -1.6464  1.2732  1.9954
 7262SOL     OW33421   2.981   2.783  17.583  0.2327  0.3724 -0.1694
 7262SOL    HW133422   2.929   2.768  17.504  0.4522  0.2839 -0.2985
 7262SOL    HW233423   3.033   2.863  17.571 -1.5732  1.7608  1.2385
 7263SOL     OW33424   0.743   4.610   1.346  0.2755  0.2825 -0.6118
 7263SOL    HW133425   0.674   4.585   1.407  1.0345 -1.9254 -0.6489
 7263SOL    HW233426   0.769   4.529   1.302  1.1853 -0.3191  1.0221
 7264SOL     OW33427   2.350   4.658   4.113 -0.1389  0.7046 -0.0448
 7264SOL    HW133428   2.412   4.667   4.041 -0.4160  1.1907 -0.2208
 7264SOL    HW233429   2.404   4.656   4.192  0.9990 -0.6195 -0.8544
 7265SOL     OW33430   4.432   1.441   4.443  0.2999 -0.6142  0.5445
 7265SOL    HW133431   4.410   1.534   4.436 -0.2188 -0.7618  0.1585
 7265SOL    HW233432   4.426   1.419   4.350 -0.1060  2.2249 -0.0980
 7266SOL     OW33433   3.267   0.666   3.311  0.3562 -0.1425  0.2047
 7266SOL    HW133434   3.347   0.634   3.269  0.3185  1.3762 -1.0253
 7266SOL    HW233435   3.299   0.690   3.398 -1.0794  0.2482  0.6314
 7267SOL     OW33436   1.011   3.188   3.326  0.0696  0.0700 -0.1649
 7267SOL    HW133437   1.044   3.151   3.244  1.6289 -0.8488  0.8813
 7267SOL    HW233438   1.061   3.140   3.392 -1.4901 -2.4116 -0.7923
 7268SOL     OW33439   3.270   3.496   8.376 -0.2863 -0.2534 -0.3255
 7268SOL    HW133440   3.189   3.472   8.422  0.0787  0.2841  0.5868
 7268SOL    HW233441   3.281   3.583   8.413  1.2858 -0.7801  0.4204
 7269SOL     OW33442   1.686   3.346   2.419  0.4058 -0.3181  0.2847
 7269SOL    HW133443   1.748   3.360   2.347 -0.4998  0.2366 -0.3763
 7269SOL    HW233444   1.611   3.394   2.386  1.1422  2.2391  2.3487
 7270SOL     OW33445   2.228   3.469   1.884 -0.1556 -0.4043 -0.2217
 7270SOL    HW133446   2.149   3.524   1.887  2.1174  2.8898 -0.6206
 7270SOL    HW233447   2.177   3.389   1.882 -1.1281  0.1712  1.6712
 7271SOL     OW33448   4.080   0.949   8.562 -0.2218 -0.2477 -0.5856
 7271SOL    HW133449   4.073   1.026   8.505  0.2068 -0.0004 -0.2976
 7271SOL    HW233450   4.124   0.896   8.496  1.3038 -1.1229  1.1272
 7272SOL     OW33451   2.367   3.930   8.160 -0.3589  0.3097  0.4232
 7272SOL    HW133452   2.340   3.927   8.068  0.3910 -0.4905  0.2274
 7272SOL    HW233453   2.458   3.949   8.139 -0.3489 -0.5798 -0.3719
 7273SOL     OW33454   3.563   3.693   7.010  0.7873  0.0515 -0.5186
 7273SOL    HW133455   3.647   3.729   7.040  1.3393 -2.8165  1.4127
 7273SOL    HW233456   3.560   3.708   6.915  0.2830 -2.6883 -0.9295
 7274SOL     OW33457   2.080   4.299   3.856 -0.4089 -0.3116  0.6083
 7274SOL    HW133458   2.090   4.395   3.855 -1.3548 -0.2121  2.6898
 7274SOL    HW233459   1.991   4.299   3.821  0.4648 -2.6694 -1.5655
 7275SOL     OW33460   0.165   3.480   5.748  0.4726  0.3474 -0.1791
 7275SOL    HW133461   0.232   3.467   5.815 -0.3821  1.0669  0.8060
 7275SOL    HW233462   0.177   3.392   5.712  1.1216  0.1572  0.4947
 7276SOL     OW33463   4.487   2.013   3.651  0.7816 -0.5719 -0.2887
 7276SOL    HW133464   4.547   2.020   3.724  1.2821  1.2216 -0.8855
 7276SOL    HW233465   4.530   1.942   3.602 -2.0054 -1.6960 -1.1212
 7277SOL     OW33466   1.182   3.174   2.846  0.1269  0.3569 -0.2924
 7277SOL    HW133467   1.134   3.251   2.878  0.4136  0.2097  0.5016
 7277SOL    HW233468   1.246   3.211   2.785  1.2203  2.9736  2.4065
 7278SOL     OW33469   2.643   0.337   9.115  0.2526 -0.3691  0.5253
 7278SOL    HW133470   2.591   0.258   9.109  0.7150 -0.4869 -1.8520
 7278SOL    HW233471   2.710   0.328   9.047 -2.4195  1.2606 -2.3178
 7279SOL     OW33472   1.639   2.693  12.608 -0.4898 -0.5901  0.0469
 7279SOL    HW133473   1.639   2.737  12.693 -2.5380  0.0144 -0.2889
 7279SOL    HW233474   1.618   2.771  12.557  2.3083  1.6256  2.2315
 7280SOL     OW33475   3.862   0.866   9.272  0.5589 -0.2586  0.2830
 7280SOL    HW133476   3.872   0.845   9.179 -0.5613 -0.1675  0.1396
 7280SOL    HW233477   3.935   0.926   9.286  0.2018  1.0795 -3.8117
 7281SOL     OW33478   2.126   1.850   2.705 -0.8837  0.5308 -0.0616
 7281SOL    HW133479   2.174   1.776   2.743 -1.8878 -1.3287 -2.4216
 7281SOL    HW233480   2.197   1.906   2.674  0.2092 -1.4184 -1.0992
 7282SOL     OW33481   0.674   0.859   9.846  0.1188 -0.0758  0.2328
 7282SOL    HW133482   0.617   0.856   9.924  1.9009 -1.1683  1.4797
 7282SOL    HW233483   0.759   0.840   9.885  0.1320 -1.2577 -0.3948
 7283SOL     OW33484   4.443   3.026   5.055 -0.5289  0.3927  0.0876
 7283SOL    HW133485   4.515   3.026   5.119  0.4139  3.0990 -0.9646
 7283SOL    HW233486   4.370   3.048   5.112 -0.0064  0.3740  0.7715
 7284SOL     OW33487   1.661   3.958  12.864 -0.0412 -0.1961  0.6787
 7284SOL    HW133488   1.659   3.947  12.959 -1.8908 -0.0593  0.6567
 7284SOL    HW233489   1.667   3.864  12.843 -0.3884  0.0347 -0.4955
 7285SOL     OW33490   4.049   0.186   8.718 -0.1980 -0.6790  0.8627
 7285SOL    HW133491   4.011   0.231   8.794  0.3050 -1.1349  1.3833
 7285SOL    HW233492   4.026   0.252   8.652 -1.9527  0.4522  2.6107
 7286SOL     OW33493   3.793   2.464   0.676  0.0387 -0.2804 -0.5397
 7286SOL    HW133494   3.738   2.478   0.753  1.4075 -1.6067  0.6888
 7286SOL    HW233495   3.853   2.394   0.703 -0.5454 -0.2635  0.7866
 7287SOL     OW33496   1.132   4.667   5.303 -0.3776 -0.2272  0.1125
 7287SOL    HW133497   1.041   4.652   5.329 -0.0087 -0.5055  1.2209
 7287SOL    HW233498   1.145   4.594   5.242 -0.2320  0.6664 -0.9320
 7288SOL     OW33499   2.065   2.432   7.623  0.6940 -0.2100 -0.1358
 7288SOL    HW133500   1.992   2.370   7.624  2.2469 -2.0717 -0.6300
 7288SOL    HW233501   2.025   2.510   7.585  2.5708  0.2246 -1.2065
 7289SOL     OW33502   0.623   1.814   9.439 -0.1837  0.2103  0.3241
 7289SOL    HW133503   0.558   1.868   9.484 -1.7256 -0.7187 -0.7838
 7289SOL    HW233504   0.701   1.869   9.434  0.6435 -0.9444  0.4903
 7290SOL     OW33505   0.702   1.919   1.668  0.1179  0.1130 -0.2361
 7290SOL    HW133506   0.733   2.005   1.641  0.5698 -0.2160 -0.7528
 7290SOL    HW233507   0.781   1.868   1.651  0.2912  0.1360  0.4865
 7291SOL     OW33508   2.957   3.493  17.413 -0.1213 -0.6897  0.6384
 7291SOL    HW133509   2.971   3.486  17.318 -0.8123 -1.0411  0.5632
 7291SOL    HW233510   2.877   3.441  17.409 -0.1414 -0.6435  0.4596
 7292SOL     OW33511   1.206   3.574   0.913  0.5420 -0.5992  0.6016
 7292SOL    HW133512   1.283   3.517   0.909 -0.2105 -1.6046  0.1306
 7292SOL    HW233513   1.138   3.525   0.866  0.0049 -1.8133  2.6430
 7293SOL     OW33514   2.750   2.703   3.270  0.3282  0.4334  0.8137
 7293SOL    HW133515   2.794   2.618   3.273  0.9715  0.7350 -0.2460
 7293SOL    HW233516   2.814   2.764   3.232  0.7695  0.5763  1.7901
 7294SOL     OW33517   2.779   3.834   2.063  0.3928  0.5393 -0.3416
 7294SOL    HW133518   2.693   3.802   2.035  1.8609 -3.3255 -0.4333
 7294SOL    HW233519   2.835   3.765   2.026  1.8662  0.0530  2.8068
 7295SOL     OW33520   3.665   0.110   3.717 -0.1225 -0.5842  0.6109
 7295SOL    HW133521   3.585   0.134   3.671 -0.0531 -0.6318  0.4621
 7295SOL    HW233522   3.670   0.017   3.695  1.6449 -0.1971 -0.6261
 7296SOL     OW33523   0.121   1.994   6.981  0.1228  0.1312 -0.3275
 7296SOL    HW133524   0.135   2.040   6.899  1.1741  1.0240  0.3594
 7296SOL    HW233525   0.136   1.903   6.954 -0.0369  0.6460 -2.1382
 7297SOL     OW33526   3.562   0.708   2.757  0.3716 -0.1353  0.4205
 7297SOL    HW133527   3.556   0.612   2.752 -4.1605  0.3124 -2.1715
 7297SOL    HW233528   3.656   0.720   2.744  0.2207 -1.3433 -1.7678
 7298SOL     OW33529   4.533   2.693  13.300  0.1098 -0.5064  0.2388
 7298SOL    HW133530   4.476   2.693  13.377  0.7817 -1.0080  0.7306
 7298SOL    HW233531   4.607   2.742  13.336 -0.4977 -0.3670  1.2951
 7299SOL     OW33532   2.985   4.164  16.280 -0.2639 -0.1052  0.1082
 7299SOL    HW133533   2.899   4.190  16.311 -0.0392  1.5707 -0.6546
 7299SOL    HW233534   3.002   4.235  16.218 -1.8632  1.9618  2.0671
 7300SOL     OW33535   3.866   3.545   3.693 -0.2305  0.2215  0.6180
 7300SOL    HW133536   3.937   3.609   3.692  0.0303 -0.0598  0.9312
 7300SOL    HW233537   3.880   3.497   3.611  1.4798  2.1489 -0.2110
 7301SOL     OW33538   1.149   1.758  15.730  0.4374 -0.4162 -0.3631
 7301SOL    HW133539   1.098   1.839  15.736  3.4319  1.4481 -0.3485
 7301SOL    HW233540   1.181   1.754  15.640  0.3524  1.4541 -0.4738
 7302SOL     OW33541   2.890   3.548   0.554 -0.3172 -0.3201 -0.1348
 7302SOL    HW133542   2.907   3.491   0.479  1.9891 -0.4333  0.4497
 7302SOL    HW233543   2.974   3.533   0.598 -0.9775 -1.1636  0.8342
 7303SOL     OW33544   1.348   0.840   3.839  0.5824  0.2077  0.5479
 7303SOL    HW133545   1.395   0.906   3.890  0.9461  1.2588 -1.1470
 7303SOL    HW233546   1.395   0.845   3.756 -1.1114  2.6165 -0.2820
 7304SOL     OW33547   2.033   2.251   4.067 -0.1559 -0.3346  0.4430
 7304SOL    HW133548   1.986   2.190   4.010  0.9567 -0.5668 -0.2264
 7304SOL    HW233549   2.122   2.237   4.037 -0.2363  1.4216 -0.5867
 7305SOL     OW33550   2.369   1.950   7.255  0.3105  0.0122  0.2122
 7305SOL    HW133551   2.328   2.006   7.321  0.8031 -0.3799  0.8572
 7305SOL    HW233552   2.350   2.003   7.178  1.3960 -0.4443 -0.3687
 7306SOL     OW33553   1.774   4.074   2.753 -0.2491 -0.0652 -0.1398
 7306SOL    HW133554   1.849   4.128   2.726 -0.8917  0.1267 -1.5593
 7306SOL    HW233555   1.815   3.999   2.797 -0.1801 -0.9308 -1.6546
 7307SOL     OW33556   2.582   1.659  11.889 -0.1085  0.3780 -0.0153
 7307SOL    HW133557   2.670   1.621  11.895 -0.3455  0.0783  1.4250
 7307SOL    HW233558   2.527   1.584  11.866 -0.4735  0.1955  1.4608
 7308SOL     OW33559   0.341   0.157   3.996 -0.2141  0.7274 -0.3705
 7308SOL    HW133560   0.299   0.210   4.063 -0.1536  0.8975 -0.4660
 7308SOL    HW233561   0.356   0.081   4.053  0.3307  1.2118  0.1303
 7309SOL     OW33562   3.034   4.214  15.053  0.0970  0.2439 -0.6197
 7309SOL    HW133563   3.068   4.298  15.022  0.1903  0.7121  0.7760
 7309SOL    HW233564   3.104   4.188  15.112 -0.4547 -1.6424 -0.8056
 7310SOL     OW33565   1.636   2.865   5.190  0.1731 -0.5160 -0.5038
 7310SOL    HW133566   1.635   2.775   5.222 -0.4937 -0.3906 -0.1692
 7310SOL    HW233567   1.549   2.878   5.151  0.2026 -0.9751 -0.7186
 7311SOL     OW33568   0.537   4.622   9.193  0.4781  0.5815  0.1819
 7311SOL    HW133569   0.526   4.697   9.251 -4.0140  0.6286 -0.7155
 7311SOL    HW233570   0.601   4.564   9.234  0.3668  1.7903  2.0513
 7312SOL     OW33571   3.330   0.862   2.440 -0.2614  0.1721 -0.2085
 7312SOL    HW133572   3.312   0.806   2.364 -1.4656  2.0150 -1.2620
 7312SOL    HW233573   3.263   0.826   2.498 -0.2015 -0.6278 -0.6403
 7313SOL     OW33574   3.046   1.187   6.665 -0.0597 -0.1588 -0.3528
 7313SOL    HW133575   3.047   1.210   6.758  0.8792 -0.2633 -0.3418
 7313SOL    HW233576   3.108   1.116   6.653 -0.5182 -1.1631  3.1736
 7314SOL     OW33577   0.997   3.323   1.711 -0.2475 -0.4266 -0.1128
 7314SOL    HW133578   0.951   3.268   1.648 -0.2248  0.4418 -0.8885
 7314SOL    HW233579   1.083   3.288   1.691 -0.1162 -0.8420  1.1512
 7315SOL     OW33580   1.640   0.122   8.666  0.5535 -0.5295  1.2223
 7315SOL    HW133581   1.545   0.125   8.651  0.8427 -0.1762 -0.5405
 7315SOL    HW233582   1.645   0.156   8.755  1.6548  3.1129 -0.2186
 7316SOL     OW33583   4.651   2.387   9.014  0.6401 -0.2258 -0.2291
 7316SOL    HW133584   4.636   2.381   9.109 -2.7861 -1.0537 -0.8109
 7316SOL    HW233585   4.676   2.296   9.000 -0.0369  0.3642 -5.2926
 7317SOL     OW33586   0.822   1.283   9.949 -0.8057  1.1512  0.1806
 7317SOL    HW133587   0.727   1.290   9.944 -0.7533 -0.1973 -2.4788
 7317SOL    HW233588   0.823   1.282  10.045  1.0006  2.1993  0.1801
 7318SOL     OW33589   0.677   2.481   0.211  0.0946  0.0449  0.8415
 7318SOL    HW133590   0.585   2.498   0.193  0.9354  2.1188 -1.5482
 7318SOL    HW233591   0.732   2.510   0.138 -0.8370  2.3248  1.0384
 7319SOL     OW33592   1.488   1.950   8.122 -0.4408 -0.4701 -0.1128
 7319SOL    HW133593   1.412   1.921   8.071  0.8667 -0.8044 -1.8895
 7319SOL    HW233594   1.516   2.029   8.075  0.4520  0.5040  2.0835
 7320SOL     OW33595   0.873   3.545  11.046  0.1527 -0.3136  0.5294
 7320SOL    HW133596   0.875   3.492  10.966  1.2925 -1.5425  1.3805
 7320SOL    HW233597   0.833   3.473  11.094 -2.1598  1.0478  0.6417
 7321SOL     OW33598   0.206   4.531  10.303  0.4211 -0.3423  0.5112
 7321SOL    HW133599   0.279   4.588  10.278 -2.0725  2.0310 -1.4153
 7321SOL    HW233600   0.153   4.528  10.224 -0.0871 -0.9739  0.8829
 7322SOL     OW33601   2.660   3.523   4.602 -0.2939  0.6775  0.0355
 7322SOL    HW133602   2.687   3.607   4.640 -1.0698  1.3720 -0.9377
 7322SOL    HW233603   2.680   3.464   4.675  1.7853  0.5750 -0.6010
 7323SOL     OW33604   2.640   3.662   1.129 -0.8119  0.2673  0.0444
 7323SOL    HW133605   2.549   3.639   1.146 -1.0103  1.8971  1.1823
 7323SOL    HW233606   2.639   3.756   1.109  1.6144  0.2282 -0.1934
 7324SOL     OW33607   0.403   4.127   9.283 -0.0286  0.0966  0.1893
 7324SOL    HW133608   0.440   4.046   9.250  0.7379  0.6244 -0.2250
 7324SOL    HW233609   0.314   4.091   9.292 -1.1850  2.6188 -1.1640
 7325SOL     OW33610   0.250   2.973   8.898  0.4239 -0.3068 -0.3928
 7325SOL    HW133611   0.155   2.960   8.898  0.1460  1.6721  0.4638
 7325SOL    HW233612   0.284   2.919   8.970  0.8520  0.2464 -0.1804
 7326SOL     OW33613   1.764   0.872   4.910  0.5872  0.0489  0.4098
 7326SOL    HW133614   1.842   0.891   4.961  0.0939 -0.2960  1.2920
 7326SOL    HW233615   1.734   0.794   4.957  0.2591  0.2348  0.5114
 7327SOL     OW33616   0.689   2.817   6.094  0.2872 -0.0764 -0.2544
 7327SOL    HW133617   0.609   2.772   6.067  1.0599 -1.3722 -0.3914
 7327SOL    HW233618   0.750   2.764   6.043 -0.8118 -2.3140  0.7624
 7328SOL     OW33619   2.842   0.125   0.143 -0.2441  0.1082 -0.0952
 7328SOL    HW133620   2.843   0.041   0.190 -3.0305 -0.2470 -0.6610
 7328SOL    HW233621   2.780   0.177   0.194 -2.1733 -0.1031 -2.2420
 7329SOL     OW33622   4.184   1.910  14.798  0.9911 -0.6662 -0.4866
 7329SOL    HW133623   4.159   1.828  14.754 -1.3120  0.3791 -1.1386
 7329SOL    HW233624   4.252   1.941  14.738 -1.7329  0.6060 -2.9159
 7330SOL     OW33625   4.456   2.901   1.547  0.1474 -0.0570  0.0821
 7330SOL    HW133626   4.514   2.887   1.472 -0.0028 -0.1365 -0.0194
 7330SOL    HW233627   4.513   2.906   1.624  1.1918  0.0752 -0.6954
 7331SOL     OW33628   2.214   3.063   7.651  0.1990  0.0121  0.3074
 7331SOL    HW133629   2.241   2.974   7.627  0.3069  0.5921 -1.7341
 7331SOL    HW233630   2.224   3.095   7.562  0.1545 -1.4685 -0.2348
 7332SOL     OW33631   0.676   2.681  15.273  0.1335 -0.2614  0.2817
 7332SOL    HW133632   0.730   2.619  15.322  0.6344  0.5939  0.8126
 7332SOL    HW233633   0.749   2.717  15.222 -1.1084 -1.0957 -2.0694
 7333SOL     OW33634   1.938   3.260   2.956  0.0631 -0.3279 -0.1543
 7333SOL    HW133635   1.969   3.332   3.011  2.0528 -1.3692  0.0946
 7333SOL    HW233636   1.860   3.239   3.007 -0.6404 -0.0615 -1.1472
 7334SOL     OW33637   1.960   0.887   9.387 -0.3731  0.4711 -0.0845
 7334SOL    HW133638   1.909   0.922   9.314 -0.3043  2.2705  0.7294
 7334SOL    HW233639   1.981   0.970   9.430  1.2177  0.0472 -0.0480
 7335SOL     OW33640   2.318   4.160   2.834 -0.3369 -0.0671  0.1336
 7335SOL    HW133641   2.324   4.106   2.755 -0.3604  1.2180 -0.7348
 7335SOL    HW233642   2.254   4.114   2.889 -1.2543  2.5859  1.2734
 7336SOL     OW33643   2.354   2.983   9.545  0.4572 -0.0013 -0.1184
 7336SOL    HW133644   2.433   3.001   9.494 -1.2326  0.6931 -2.4962
 7336SOL    HW233645   2.294   2.956   9.475 -1.2419 -0.1159  1.3813
 7337SOL     OW33646   1.030   2.895   7.878  0.0324 -0.3306  0.2744
 7337SOL    HW133647   1.125   2.897   7.868 -0.1516  1.0806 -1.1947
 7337SOL    HW233648   1.026   2.870   7.970 -0.0377 -0.9728  0.0978
 7338SOL     OW33649   0.693   1.063   5.690  0.6703  0.2901  0.4920
 7338SOL    HW133650   0.770   1.047   5.636  0.6929  0.0755  0.5881
 7338SOL    HW233651   0.715   1.112   5.770  0.0292  0.1803  0.7346
 7339SOL     OW33652   3.025   0.480  11.821 -0.4737  0.2803  0.3600
 7339SOL    HW133653   3.025   0.464  11.727 -2.3235  1.8940  0.0946
 7339SOL    HW233654   3.101   0.431  11.852 -0.5297  0.0326  0.1016
 7340SOL     OW33655   2.267   3.363   5.822 -0.5533  0.1204 -0.7736
 7340SOL    HW133656   2.360   3.343   5.815  0.0106  3.2147 -1.7298
 7340SOL    HW233657   2.273   3.445   5.870  0.2006  0.0730 -0.7858
 7341SOL     OW33658   3.365   1.045   2.157  0.2368  0.2377 -0.3633
 7341SOL    HW133659   3.342   0.970   2.102  0.2291 -1.2239  1.6073
 7341SOL    HW233660   3.361   1.118   2.096 -0.0042 -1.1805 -2.0500
 7342SOL     OW33661   4.136   2.687   9.347 -0.3981 -0.0555  0.7630
 7342SOL    HW133662   4.095   2.759   9.394 -0.7409 -1.1752  2.1789
 7342SOL    HW233663   4.079   2.614   9.372 -0.6266 -0.9692 -2.3738
 7343SOL     OW33664   4.094   2.349   3.887  0.0109 -0.3189  0.1338
 7343SOL    HW133665   4.054   2.363   3.972  1.4234  4.9904 -0.0814
 7343SOL    HW233666   4.018   2.333   3.831  0.2379  1.6146 -0.7201
 7344SOL     OW33667   0.712   0.818   2.547 -0.5769  0.2729  0.7727
 7344SOL    HW133668   0.713   0.805   2.642 -0.4896 -1.5441  0.5203
 7344SOL    HW233669   0.792   0.861   2.517  0.0268 -1.7320 -0.4687
 7345SOL     OW33670   4.157   3.196  15.249 -0.4014  0.1760 -0.0089
 7345SOL    HW133671   4.146   3.266  15.184 -0.3820  0.8252  0.6752
 7345SOL    HW233672   4.066   3.197  15.281 -0.6083  0.3193 -0.6026
 7346SOL     OW33673   0.238   0.178   4.465 -0.1515 -1.1881 -0.1163
 7346SOL    HW133674   0.242   0.158   4.558  0.4777 -0.6035 -0.0143
 7346SOL    HW233675   0.148   0.159   4.436 -0.5519  0.3945  0.1194
 7347SOL     OW33676   2.457   3.469   3.056  0.4959  0.2101  0.6315
 7347SOL    HW133677   2.471   3.382   3.095 -0.1394  0.1627  0.7557
 7347SOL    HW233678   2.545   3.502   3.035 -0.4289 -0.1394 -3.7136
 7348SOL     OW33679   0.876   4.674   7.996  0.6442  0.3957 -0.1403
 7348SOL    HW133680   0.901   4.691   7.905  0.0038 -3.0213 -0.9359
 7348SOL    HW233681   0.955   4.709   8.037 -0.3767  0.3923  1.8069
 7349SOL     OW33682   1.490   1.378   8.342 -0.0687  0.0138 -0.4626
 7349SOL    HW133683   1.585   1.388   8.349 -0.0798  0.5554 -1.0727
 7349SOL    HW233684   1.472   1.441   8.272  0.5681  1.5149  0.7332
 7350SOL     OW33685   1.928   4.603   2.779  0.2120  0.0655  0.1882
 7350SOL    HW133686   1.975   4.656   2.715  1.1387  2.1837  2.6328
 7350SOL    HW233687   2.002   4.561   2.823 -1.0458 -0.4269  1.8404
 7351SOL     OW33688   0.290   0.614   2.932  0.6896  0.1273  0.3514
 7351SOL    HW133689   0.240   0.540   2.967  0.6989  0.1160  0.3408
 7351SOL    HW233690   0.262   0.615   2.840 -0.1502 -1.2143  0.5935
 7352SOL     OW33691   0.967   3.457   3.531 -0.0034 -0.0420 -0.0244
 7352SOL    HW133692   1.039   3.394   3.524 -0.6389 -0.8264  0.5513
 7352SOL    HW233693   0.897   3.398   3.559 -1.2476  0.5323 -1.9896
 7353SOL     OW33694   2.816   1.833  11.821 -0.0581 -0.5981  0.0004
 7353SOL    HW133695   2.812   1.817  11.915  2.4418  0.5686  0.2916
 7353SOL    HW233696   2.908   1.814  11.806  0.0261  0.7318 -1.1884
 7354SOL     OW33697   0.138   2.451   1.984 -0.4253  0.4465 -0.3605
 7354SOL    HW133698   0.183   2.529   1.953 -2.3683  1.1998 -1.3033
 7354SOL    HW233699   0.207   2.418   2.042  1.9279  1.6423 -2.4921
 7355SOL     OW33700   3.100   0.117  13.767 -0.4107 -0.1951 -0.3873
 7355SOL    HW133701   3.178   0.077  13.731  0.0527 -0.5435  1.0071
 7355SOL    HW233702   3.134   0.155  13.848  1.0749  2.8105 -2.4227
 7356SOL     OW33703   2.242   2.689   7.935  0.6746  0.2294 -0.3631
 7356SOL    HW133704   2.177   2.721   7.872 -0.0182 -1.5203 -0.5543
 7356SOL    HW233705   2.303   2.638   7.882  0.0446 -2.0997  1.1561
 7357SOL     OW33706   4.005   1.999   5.934 -0.4286  0.1664 -0.8918
 7357SOL    HW133707   3.948   1.931   5.969  0.3827  0.4494  0.9801
 7357SOL    HW233708   4.063   1.949   5.877  0.3043 -0.3220  0.2911
 7358SOL     OW33709   4.001   2.944   3.706 -0.0260 -0.6495 -0.2501
 7358SOL    HW133710   3.914   2.930   3.743  0.0694 -0.9745 -0.1478
 7358SOL    HW233711   4.009   3.029   3.663  0.5422 -0.8644 -0.5707
 7359SOL     OW33712   2.671   3.192   7.233  0.1751 -0.1130 -0.6681
 7359SOL    HW133713   2.716   3.131   7.174  0.0422 -1.1531  0.3187
 7359SOL    HW233714   2.610   3.138   7.284  0.9008 -1.4195 -1.1899
 7360SOL     OW33715   1.403   2.995  17.134  0.1509 -0.5083  0.4348
 7360SOL    HW133716   1.335   2.953  17.082 -1.6647  0.3697  2.1024
 7360SOL    HW233717   1.423   3.076  17.087 -2.2010  0.2302  0.7012
 7361SOL     OW33718   1.724   1.865   8.687 -0.0555  0.2739 -0.2401
 7361SOL    HW133719   1.726   1.961   8.679  5.1185  0.2586  0.2603
 7361SOL    HW233720   1.804   1.854   8.740  0.0280 -0.0328 -0.4305
 7362SOL     OW33721   1.857   2.447   2.582  0.1250  0.5109  0.3694
 7362SOL    HW133722   1.845   2.470   2.674 -0.3660 -0.3658  0.5292
 7362SOL    HW233723   1.772   2.466   2.543  0.4482 -0.3792 -0.7961
 7363SOL     OW33724   1.375   1.556   0.617  0.0835 -0.4898  0.0287
 7363SOL    HW133725   1.393   1.650   0.624 -1.1016 -0.3661  1.3448
 7363SOL    HW233726   1.285   1.551   0.648  0.3759 -1.6212  0.6908
 7364SOL     OW33727   3.002   3.944   1.884 -0.5656  0.1006 -0.3970
 7364SOL    HW133728   3.070   3.877   1.884  1.3101  2.0201  0.0183
 7364SOL    HW233729   2.958   3.942   1.969  1.3726 -2.3846  0.5354
 7365SOL     OW33730   2.625   2.837  16.797  0.1811  0.7653  0.1100
 7365SOL    HW133731   2.530   2.851  16.797  0.1966  0.8890 -0.6614
 7365SOL    HW233732   2.649   2.799  16.713 -0.8178 -2.8919  1.5074
 7366SOL     OW33733   4.441   3.243   8.431 -0.1249 -0.1453  0.0110
 7366SOL    HW133734   4.514   3.250   8.370 -0.2857 -2.7563 -0.4793
 7366SOL    HW233735   4.393   3.326   8.421  0.5807  0.2929  0.2603
 7367SOL     OW33736   2.100   0.689   2.225 -0.1364  0.3022  0.0934
 7367SOL    HW133737   2.120   0.624   2.158  1.5438  1.5957 -0.6743
 7367SOL    HW233738   2.007   0.671   2.236  0.1419 -1.5574 -0.5233
 7368SOL     OW33739   0.506   1.672   9.906  0.5760  0.1649  0.1366
 7368SOL    HW133740   0.444   1.730   9.951  0.1459 -0.0173 -0.2286
 7368SOL    HW233741   0.570   1.738   9.878 -0.3058  0.7612 -0.5025
 7369SOL     OW33742   1.828   1.239   8.963 -0.3111 -0.0545  0.0245
 7369SOL    HW133743   1.893   1.185   8.917  0.1076  0.2184  0.2869
 7369SOL    HW233744   1.867   1.327   8.963  1.3411 -0.7727  1.2451
 7370SOL     OW33745   1.765   1.685   2.889  0.6520  0.7958  0.3890
 7370SOL    HW133746   1.799   1.771   2.911  0.9138  0.7843  0.0252
 7370SOL    HW233747   1.759   1.678   2.794  1.3684  0.3250  0.3733
 7371SOL     OW33748   0.976   1.720  16.755  0.3710 -0.1572  0.2242
 7371SOL    HW133749   0.911   1.703  16.823  1.4268  1.7552  1.7016
 7371SOL    HW233750   0.954   1.660  16.684  1.1928  0.9168 -0.9412
 7372SOL     OW33751   2.198   3.448  11.203 -0.0950 -0.0982 -0.0711
 7372SOL    HW133752   2.161   3.533  11.226  1.3821  0.2651  0.9970
 7372SOL    HW233753   2.278   3.446  11.256  0.2955  0.1645 -0.6420
 7373SOL     OW33754   4.426   2.492   0.715  0.2376 -0.2240 -0.4409
 7373SOL    HW133755   4.377   2.441   0.650 -0.3534 -0.7504  0.4244
 7373SOL    HW233756   4.393   2.577   0.686 -0.9729 -0.0898  1.3527
 7374SOL     OW33757   0.572   2.064   3.159 -0.1633  1.0067 -0.1166
 7374SOL    HW133758   0.481   2.042   3.138 -0.4169  2.0996 -0.2013
 7374SOL    HW233759   0.598   1.988   3.211  0.3080  1.0527 -0.2874
 7375SOL     OW33760   2.460   1.316   7.790 -0.5732 -0.2342 -0.1859
 7375SOL    HW133761   2.457   1.312   7.694  0.0513 -0.1028 -0.2118
 7375SOL    HW233762   2.370   1.291   7.809 -0.7055  0.7240  0.4408
 7376SOL     OW33763   1.585   4.322   8.250  0.2017  0.3573 -0.3690
 7376SOL    HW133764   1.625   4.328   8.337 -0.2480  0.5521 -0.1770
 7376SOL    HW233765   1.649   4.274   8.197 -0.7171  0.8657 -1.9366
 7377SOL     OW33766   2.013   2.924   5.601 -0.3409  0.3098  0.0463
 7377SOL    HW133767   2.057   2.883   5.527 -0.8973 -2.4720  1.2390
 7377SOL    HW233768   2.088   2.959   5.649 -2.0670  1.8454  1.6436
 7378SOL     OW33769   2.348   0.356   1.297 -0.2243 -0.6962 -0.2114
 7378SOL    HW133770   2.394   0.308   1.366  0.5838 -1.8884 -1.5636
 7378SOL    HW233771   2.257   0.343   1.323 -0.2144  0.5719  0.4281
 7379SOL     OW33772   1.429   0.635   6.562  0.1839  0.1056 -0.0980
 7379SOL    HW133773   1.383   0.682   6.493  0.5771 -0.5160 -0.7802
 7379SOL    HW233774   1.516   0.621   6.526 -0.4965 -0.4916 -1.5019
 7380SOL     OW33775   0.889   1.253   2.347  0.5546 -0.0779 -0.4966
 7380SOL    HW133776   0.919   1.187   2.410 -2.2772 -0.7884  0.1066
 7380SOL    HW233777   0.968   1.307   2.343 -0.0742  0.8590 -0.1361
 7381SOL     OW33778   3.013   3.692   4.739 -0.0994  0.5301  0.0721
 7381SOL    HW133779   3.052   3.699   4.826 -0.4092 -0.5176  0.2995
 7381SOL    HW233780   2.952   3.766   4.746 -0.4367  0.4779 -2.4200
 7382SOL     OW33781   0.864   1.662   7.445  0.0127  0.5265  0.3105
 7382SOL    HW133782   0.878   1.653   7.539  3.3918  0.4185 -0.1983
 7382SOL    HW233783   0.944   1.627   7.406 -1.1389 -3.0081  1.1486
 7383SOL     OW33784   4.215   0.272   9.564 -0.3790 -0.4663  0.6842
 7383SOL    HW133785   4.302   0.232   9.560 -0.2923 -0.3900  1.9027
 7383SOL    HW233786   4.174   0.259   9.479 -0.7953 -0.8715  0.9468
 7384SOL     OW33787   2.429   2.757   6.514 -0.1696 -0.4324  0.4583
 7384SOL    HW133788   2.408   2.663   6.518  0.2417 -0.5227  0.4951
 7384SOL    HW233789   2.352   2.789   6.562 -2.2150 -0.3409 -2.9234
 7385SOL     OW33790   2.091   1.389  13.914 -0.6114  0.6581  0.5322
 7385SOL    HW133791   2.054   1.473  13.941 -2.0130 -0.8171  3.1650
 7385SOL    HW233792   2.032   1.356  13.846 -0.4642 -0.0134  0.7300
 7386SOL     OW33793   3.179   4.657   5.992 -0.2635  0.0767  0.1380
 7386SOL    HW133794   3.150   4.642   6.082  2.1442  1.5558  1.1683
 7386SOL    HW233795   3.269   4.623   5.992 -0.4738 -0.5282  2.4837
 7387SOL     OW33796   0.704   0.221   0.763 -0.1109 -0.0285  0.2914
 7387SOL    HW133797   0.611   0.220   0.744  0.0901  1.1282 -0.7333
 7387SOL    HW233798   0.733   0.189   0.677  0.0323  0.6607  0.0824
 7388SOL     OW33799   1.436   4.349   4.514 -0.0747  0.4779 -0.2274
 7388SOL    HW133800   1.522   4.306   4.512  0.5343  1.5589  1.9702
 7388SOL    HW233801   1.394   4.289   4.453 -1.9689  2.6545 -1.0861
 7389SOL     OW33802   3.807   1.382   5.456 -0.8542 -0.2520 -0.2713
 7389SOL    HW133803   3.783   1.425   5.538 -1.3996 -0.8720 -0.1055
 7389SOL    HW233804   3.785   1.289   5.466 -1.0641 -0.2811 -1.0097
 7390SOL     OW33805   0.117   2.793   6.043 -0.4066 -0.5259  0.0995
 7390SOL    HW133806   0.107   2.700   6.062  2.0846 -0.4752  1.5890
 7390SOL    HW233807   0.061   2.829   6.112 -1.1536  0.6547 -1.0997
 7391SOL     OW33808   1.582   1.580   7.406  1.2618  0.2173 -0.3549
 7391SOL    HW133809   1.672   1.610   7.400  1.9776 -1.7897  0.3791
 7391SOL    HW233810   1.593   1.486   7.419 -0.0346  0.2998  1.4119
 7392SOL     OW33811   2.260   2.562   5.708  0.3061 -0.1210 -0.0478
 7392SOL    HW133812   2.317   2.488   5.730  1.1813 -0.2142 -2.5526
 7392SOL    HW233813   2.185   2.568   5.766  0.3977 -0.6270  0.1222
 7393SOL     OW33814   1.445   0.925  10.990  0.2482  0.3098 -0.1977
 7393SOL    HW133815   1.387   0.891  10.922 -3.0232  0.8761  2.3316
 7393SOL    HW233816   1.421   0.863  11.059  1.4316  0.6348  0.5069
 7394SOL     OW33817   1.752   1.443   4.742 -0.2581 -0.0822  0.2845
 7394SOL    HW133818   1.721   1.377   4.804  0.2025  0.6237  1.2603
 7394SOL    HW233819   1.769   1.391   4.664  0.9288  0.3816  0.2349
 7395SOL     OW33820   2.996   1.477   7.535  0.2577  0.5160  0.0062
 7395SOL    HW133821   3.057   1.443   7.469 -0.8841 -0.9494 -0.3074
 7395SOL    HW233822   2.999   1.411   7.605 -0.8586 -2.1888 -2.4829
 7396SOL     OW33823   2.833   3.185  15.324  0.0514 -0.0096 -0.4500
 7396SOL    HW133824   2.900   3.185  15.256 -0.9557  0.1249 -1.4596
 7396SOL    HW233825   2.816   3.279  15.320 -0.9028 -0.1033  1.2254
 7397SOL     OW33826   0.872   1.845   7.964 -0.3028  0.1169  0.0413
 7397SOL    HW133827   0.793   1.867   7.916  0.0048  0.8372 -0.1240
 7397SOL    HW233828   0.842   1.849   8.054  2.9399 -1.7437  1.2144
 7398SOL     OW33829   2.695   3.743   4.743 -0.5916  0.2747  0.3933
 7398SOL    HW133830   2.718   3.835   4.755  3.5951 -0.4512 -2.0364
 7398SOL    HW233831   2.603   3.750   4.767 -0.9032 -0.1136 -0.7023
 7399SOL     OW33832   0.747   3.710   5.498  0.0413 -0.4558 -0.3815
 7399SOL    HW133833   0.788   3.753   5.423  0.9339 -0.8237 -0.1033
 7399SOL    HW233834   0.652   3.721   5.490 -0.1345 -2.2761 -0.6374
 7400SOL     OW33835   0.519   2.051   6.611 -0.2806 -0.0524 -0.1158
 7400SOL    HW133836   0.442   2.046   6.667 -0.0873  1.8833  0.3253
 7400SOL    HW233837   0.539   1.958   6.602 -0.5326 -0.0844 -0.3311
 7401SOL     OW33838   2.424   1.369   6.355  0.0618 -0.1349  0.0680
 7401SOL    HW133839   2.395   1.405   6.272  1.4373 -1.2811 -0.8952
 7401SOL    HW233840   2.363   1.295   6.345 -1.9580  1.8086 -1.9298
 7402SOL     OW33841   3.140   0.517  17.010 -0.0258  0.1851 -0.5051
 7402SOL    HW133842   3.059   0.470  17.029  0.9988 -1.9222 -1.2196
 7402SOL    HW233843   3.122   0.546  16.921  0.2990  0.3411 -0.5203
 7403SOL     OW33844   2.167   4.163  13.957  0.1382 -0.4381 -0.4834
 7403SOL    HW133845   2.173   4.104  14.033  2.7292 -2.3930 -2.1837
 7403SOL    HW233846   2.166   4.100  13.885  0.5811  0.4563 -1.2630
 7404SOL     OW33847   1.292   1.234   2.111  0.0873 -0.0744 -0.2654
 7404SOL    HW133848   1.220   1.179   2.143 -1.6042  2.4289  0.2196
 7404SOL    HW233849   1.259   1.323   2.122  1.3404  0.6651 -2.4542
 7405SOL     OW33850   2.225   2.163   9.111  0.0806  0.3070 -0.3167
 7405SOL    HW133851   2.159   2.151   9.180 -0.8833  0.3894 -1.2308
 7405SOL    HW233852   2.290   2.208   9.165 -0.2191  0.5688 -0.1743
 7406SOL     OW33853   0.403   2.143  16.280  0.1733 -0.3304  0.2535
 7406SOL    HW133854   0.314   2.173  16.296 -0.1033 -0.2885 -1.3484
 7406SOL    HW233855   0.466   2.211  16.302 -0.8297  0.4399  0.7357
 7407SOL     OW33856   3.050   4.200   4.446 -0.4512  0.1456  0.0769
 7407SOL    HW133857   3.101   4.120   4.452 -2.4812 -1.2242 -0.7489
 7407SOL    HW233858   3.113   4.271   4.437  0.0308  0.2775  4.5101
 7408SOL     OW33859   4.523   4.155   7.789 -0.4087 -0.1025 -0.4380
 7408SOL    HW133860   4.536   4.219   7.720 -0.6451  1.1558  0.6716
 7408SOL    HW233861   4.491   4.083   7.734 -1.2774  0.0647 -0.1486
 7409SOL     OW33862   3.087   2.542   8.883  0.0594 -0.4648  0.1903
 7409SOL    HW133863   3.031   2.518   8.809 -0.7029 -0.1812  0.6775
 7409SOL    HW233864   3.161   2.481   8.877  0.2662 -0.2094  0.1882
 7410SOL     OW33865   0.320   3.422   5.961 -0.3899  0.9646  0.5157
 7410SOL    HW133866   0.383   3.354   5.983  0.1502  1.6082  0.9581
 7410SOL    HW233867   0.309   3.473   6.041 -2.2659 -2.1352  2.2469
 7411SOL     OW33868   4.339   3.996   2.866 -0.6472 -0.2825 -0.0747
 7411SOL    HW133869   4.419   3.943   2.860 -0.2588  0.1893  0.7413
 7411SOL    HW233870   4.290   3.937   2.923 -0.2659 -0.2475  0.2969
 7412SOL     OW33871   2.568   2.736   4.659 -0.5276 -0.0577 -0.0364
 7412SOL    HW133872   2.595   2.793   4.732  1.7023 -1.7409  0.4228
 7412SOL    HW233873   2.556   2.800   4.588  0.9053  0.6511  0.3583
 7413SOL     OW33874   1.453   0.586   8.130  0.2128  0.1433 -0.2260
 7413SOL    HW133875   1.520   0.591   8.063  0.8194  2.4344  0.5623
 7413SOL    HW233876   1.499   0.625   8.205  2.4612 -1.0108 -0.9979
 7414SOL     OW33877   2.219   0.782  12.778 -0.1942  0.0967  0.6553
 7414SOL    HW133878   2.277   0.709  12.756  0.8312  0.6483  1.5313
 7414SOL    HW233879   2.131   0.746  12.786 -0.1077 -0.1932  0.2918
 7415SOL     OW33880   2.332   1.162   5.430 -0.8385 -0.5656 -0.8487
 7415SOL    HW133881   2.371   1.074   5.424  0.9516  0.0370  2.2085
 7415SOL    HW233882   2.334   1.182   5.523  1.8447 -0.7496 -0.8682
 7416SOL     OW33883   2.698   0.647   8.473 -0.3234 -0.2012  0.0056
 7416SOL    HW133884   2.694   0.735   8.511  2.4047 -0.2181  0.3441
 7416SOL    HW233885   2.608   0.617   8.479 -0.4334  0.2524  0.5811
 7417SOL     OW33886   4.120   1.579   6.837  0.2279 -0.3031 -0.0116
 7417SOL    HW133887   4.101   1.553   6.747 -1.7698 -0.3955  0.4396
 7417SOL    HW233888   4.038   1.560   6.882 -1.2731 -0.3916 -2.7563
 7418SOL     OW33889   1.205   1.356   4.805 -0.1095  0.2211  0.0407
 7418SOL    HW133890   1.261   1.312   4.741 -2.2345 -1.7466 -0.4706
 7418SOL    HW233891   1.124   1.355   4.753  0.4960 -1.2901 -0.8656
 7419SOL     OW33892   3.978   3.238   3.698 -0.3484  0.0531 -0.0233
 7419SOL    HW133893   3.968   3.326   3.662  1.8332  0.3408  0.0491
 7419SOL    HW233894   3.887   3.213   3.710 -0.1683  0.1049  1.4659
 7420SOL     OW33895   3.135   3.321  14.736  0.0061 -0.0565 -0.4272
 7420SOL    HW133896   3.048   3.300  14.770  1.2307 -1.4331  1.8831
 7420SOL    HW233897   3.153   3.242  14.686  1.3288 -0.4589  0.6652
 7421SOL     OW33898   2.937   4.295   8.947  0.4094 -0.6550 -0.2769
 7421SOL    HW133899   2.858   4.243   8.937  2.0445 -2.9955 -1.1514
 7421SOL    HW233900   3.003   4.227   8.961  1.3426  0.3916  0.4949
 7422SOL     OW33901   4.298   3.502   7.205  0.5749 -0.6132 -0.2352
 7422SOL    HW133902   4.390   3.486   7.188  0.4383  0.0390 -1.5931
 7422SOL    HW233903   4.263   3.429   7.256  1.0028  0.0847  1.0653
 7423SOL     OW33904   0.664   1.903   2.828  0.2811 -0.0346 -0.2035
 7423SOL    HW133905   0.652   1.812   2.854 -0.0178  0.6170  1.9528
 7423SOL    HW233906   0.578   1.945   2.839  1.9558  2.7769  2.0530
 7424SOL     OW33907   4.601   1.640   0.521  0.1574  0.6603  0.0831
 7424SOL    HW133908   4.586   1.591   0.440  1.4507  0.1368  0.1605
 7424SOL    HW233909   4.549   1.595   0.587  1.5918  1.8802  2.0694
 7425SOL     OW33910   0.436   2.792   4.042  0.0517  0.1278  0.3556
 7425SOL    HW133911   0.449   2.842   3.962 -1.9141  1.3694  0.8021
 7425SOL    HW233912   0.436   2.854   4.114 -0.5373  1.9109 -1.1729
 7426SOL     OW33913   3.075   1.990   4.265 -0.1289 -0.8177  0.0832
 7426SOL    HW133914   3.057   2.025   4.178  1.3854 -1.7636 -0.6158
 7426SOL    HW233915   3.049   2.065   4.319 -1.3002 -0.7236 -0.6127
 7427SOL     OW33916   3.390   4.277   2.671  0.4574 -0.2566  0.0882
 7427SOL    HW133917   3.324   4.229   2.621  0.0596  0.9998 -0.5849
 7427SOL    HW233918   3.470   4.269   2.619 -1.1474 -4.2206 -1.7045
 7428SOL     OW33919   4.355   4.302   4.259  0.2831 -0.1346 -0.1816
 7428SOL    HW133920   4.378   4.332   4.171 -1.6555  3.3153  0.4774
 7428SOL    HW233921   4.389   4.213   4.249 -1.1694 -0.6885 -0.2737
 7429SOL     OW33922   2.670   3.429  15.409  0.5599 -0.0555 -0.1607
 7429SOL    HW133923   2.752   3.416  15.455 -0.7079  0.0408  2.0915
 7429SOL    HW233924   2.613   3.355  15.428  0.3912  0.1054 -0.0456
 7430SOL     OW33925   2.565   2.937   3.450  0.1533 -0.1976  0.1698
 7430SOL    HW133926   2.600   3.020   3.418 -1.7052  1.2180  1.8476
 7430SOL    HW233927   2.641   2.896   3.490 -1.4290 -1.1362  2.1927
 7431SOL     OW33928   1.666   1.196   6.064 -0.4595  0.5419 -0.6249
 7431SOL    HW133929   1.579   1.226   6.088 -1.4918 -1.3750 -1.9695
 7431SOL    HW233930   1.725   1.270   6.077  1.6988 -1.4438  0.8930
 7432SOL     OW33931   3.912   4.209   6.417 -0.1608  0.2078 -0.0675
 7432SOL    HW133932   3.832   4.158   6.401 -0.3310  0.2261  0.7602
 7432SOL    HW233933   3.955   4.194   6.332  1.9651  0.7921  0.9023
 7433SOL     OW33934   4.304   4.356   8.830  0.4615  0.1190  0.3622
 7433SOL    HW133935   4.395   4.380   8.815  0.5672  0.4349  1.4777
 7433SOL    HW233936   4.265   4.433   8.790  0.5548 -0.4689 -0.8517
 7434SOL     OW33937   0.488   0.006   5.169  0.3324  0.0208  0.1388
 7434SOL    HW133938   0.532   0.064   5.231  0.7519  0.2655 -0.3880
 7434SOL    HW233939   0.564   4.705   5.125  0.2149 -0.0165 -0.0333
 7435SOL     OW33940   1.039   3.028   9.389  0.2569  0.0625  0.2757
 7435SOL    HW133941   0.992   3.060   9.311  0.0833 -0.7884  0.0381
 7435SOL    HW233942   0.980   3.043   9.463 -1.0559 -3.3951 -0.1083
 7436SOL     OW33943   0.442   3.598   7.843  0.0332  0.0309  0.0095
 7436SOL    HW133944   0.388   3.622   7.918  3.1312  0.8685  1.9972
 7436SOL    HW233945   0.523   3.635   7.878 -0.2592 -0.0127  0.7372
 7437SOL     OW33946   4.238   0.888   2.972  0.5657  0.0479  0.1323
 7437SOL    HW133947   4.250   0.934   2.888 -1.6464  1.2597  0.4988
 7437SOL    HW233948   4.306   0.926   3.028  0.0187  0.1912  0.6941
 7438SOL     OW33949   3.936   0.574   3.321  0.3527 -0.2688 -0.0721
 7438SOL    HW133950   3.910   0.526   3.243 -0.1930 -0.3717  0.1731
 7438SOL    HW233951   4.031   0.584   3.320  0.2336  0.9641  0.2336
 7439SOL     OW33952   0.336   0.608   5.182  0.4322 -0.4582 -0.1117
 7439SOL    HW133953   0.421   0.652   5.189 -0.5963  1.1250  2.4160
 7439SOL    HW233954   0.351   0.562   5.265 -0.3070 -0.5095 -0.0041
 7440SOL     OW33955   2.702   3.026   0.949 -0.1147 -0.2273  0.4351
 7440SOL    HW133956   2.783   3.072   0.974  0.3490 -0.7998 -0.0086
 7440SOL    HW233957   2.712   3.023   0.854  0.7226  0.4271  0.5011
 7441SOL     OW33958   1.266   2.486  16.394  0.0305 -0.1160  0.5741
 7441SOL    HW133959   1.347   2.439  16.416  0.4020  0.3065  0.1145
 7441SOL    HW233960   1.210   2.465  16.469 -1.7998  1.4358 -0.3582
 7442SOL     OW33961   2.272   3.893   0.198 -0.2831  0.3642  0.8022
 7442SOL    HW133962   2.366   3.886   0.182 -0.2103 -1.5037  2.1123
 7442SOL    HW233963   2.263   3.987   0.181  0.9186  0.0758 -1.4812
 7443SOL     OW33964   4.204   2.830   5.143  0.1312  0.3955  0.3493
 7443SOL    HW133965   4.203   2.817   5.238 -1.7958 -1.1001  0.1399
 7443SOL    HW233966   4.201   2.925   5.138 -0.6995  0.4765  2.1439
 7444SOL     OW33967   2.933   2.180   8.565  0.3607 -0.1740  0.9170
 7444SOL    HW133968   2.841   2.164   8.585 -0.0123  1.1861  0.3292
 7444SOL    HW233969   2.931   2.239   8.489  1.2364 -1.1177  0.1711
 7445SOL     OW33970   1.687   4.337   3.456 -0.2467 -0.0364 -0.6339
 7445SOL    HW133971   1.678   4.355   3.362 -0.6740  1.7853 -0.2461
 7445SOL    HW233972   1.771   4.295   3.468  0.5191  2.8118  4.0243
 7446SOL     OW33973   4.595   4.396  17.266 -0.4515  0.5004  0.1942
 7446SOL    HW133974   4.518   4.342  17.250 -1.2650  1.4572  0.8470
 7446SOL    HW233975   4.653   4.368  17.195 -2.3998 -2.1663 -0.3127
 7447SOL     OW33976   2.106   2.550   4.669  0.1902  0.1021  0.0688
 7447SOL    HW133977   2.184   2.497   4.657 -0.9831 -1.7231  0.4235
 7447SOL    HW233978   2.073   2.526   4.755  0.6377 -0.5726  0.0505
 7448SOL     OW33979   0.153   2.461   4.064  0.0809  0.1143 -0.8422
 7448SOL    HW133980   0.084   2.519   4.095 -0.0443 -1.3391  1.5635
 7448SOL    HW233981   0.176   2.417   4.146 -0.8228 -1.4207 -1.4209
 7449SOL     OW33982   1.429   2.409   7.354  0.1909 -0.2515 -0.0639
 7449SOL    HW133983   1.422   2.467   7.279  0.2022 -0.2898 -0.0943
 7449SOL    HW233984   1.372   2.333   7.345 -0.8543  0.9445 -3.3531
 7450SOL     OW33985   1.959   2.017   8.475 -0.6622 -0.1387  0.0967
 7450SOL    HW133986   1.900   2.037   8.402 -1.2772 -0.2710  0.5528
 7450SOL    HW233987   1.913   2.064   8.544 -0.2863 -0.2313  0.4100
 7451SOL     OW33988   0.778   2.086   8.967  0.0727  0.4786  0.2763
 7451SOL    HW133989   0.758   2.174   8.934  0.0887  0.0057 -1.0235
 7451SOL    HW233990   0.687   2.056   8.963 -0.1225  1.2885 -1.5967
 7452SOL     OW33991   4.489   3.457   5.801  0.5328 -0.1690  0.0621
 7452SOL    HW133992   4.552   3.527   5.821  1.0377 -0.1968 -1.4103
 7452SOL    HW233993   4.453   3.465   5.890 -0.1759  1.4681 -0.3752
 7453SOL     OW33994   2.042   2.634   2.472 -0.0914  0.3029 -0.1601
 7453SOL    HW133995   2.047   2.691   2.548  1.8927 -0.1823  0.0536
 7453SOL    HW233996   1.982   2.564   2.497  2.1959 -1.5873 -0.0245
 7454SOL     OW33997   0.187   3.946  15.671 -0.1031 -0.4731 -0.0905
 7454SOL    HW133998   0.186   3.993  15.588 -0.3545 -0.8670 -0.3152
 7454SOL    HW233999   0.252   4.000  15.715  0.5922 -1.0580 -0.4096
 7455SOL     OW34000   0.387   3.220   2.489  0.1101  0.4331 -0.0515
 7455SOL    HW134001   0.474   3.183   2.501  0.0243 -0.1964 -1.3414
 7455SOL    HW234002   0.356   3.236   2.578  0.9568  0.1123  0.2989
 7456SOL     OW34003   3.563   1.923   7.927 -0.4122 -0.3018 -0.0460
 7456SOL    HW134004   3.617   1.933   7.849 -1.2275 -0.3404 -0.6148
 7456SOL    HW234005   3.608   1.849   7.969  0.7868  0.2357 -0.3852
 7457SOL     OW34006   2.124   4.232   6.801 -0.0589 -0.0450  0.0930
 7457SOL    HW134007   2.183   4.288   6.752 -1.3378  0.3911 -0.9423
 7457SOL    HW234008   2.148   4.244   6.893  0.2595  1.2701 -0.1706
 7458SOL     OW34009   3.912   2.971   2.040  0.1518 -0.2725 -0.2192
 7458SOL    HW134010   3.855   3.042   2.009  1.8334  0.3073 -1.9992
 7458SOL    HW234011   3.863   2.901   1.996  0.9035 -0.5194 -0.6713
 7459SOL     OW34012   3.046   1.102   7.601  0.2795  0.7008 -0.0344
 7459SOL    HW134013   3.098   1.171   7.561  1.0188  0.5314  0.6348
 7459SOL    HW234014   3.115   1.058   7.650 -0.8979  0.1123  1.1134
 7460SOL     OW34015   0.592   1.994   7.927 -0.5230  0.0459  0.2008
 7460SOL    HW134016   0.540   1.980   8.005  1.3404  1.2915  1.6620
 7460SOL    HW234017   0.640   2.077   7.936  1.4423 -0.8911 -1.7484
 7461SOL     OW34018   0.156   4.291   4.544 -0.1084  0.1441 -0.3390
 7461SOL    HW134019   0.065   4.279   4.518 -0.2278 -0.7588  0.5113
 7461SOL    HW234020   0.178   4.203   4.575  1.8751  0.6530 -0.2851
 7462SOL     OW34021   3.532   1.785   3.505  0.3850 -0.1540  0.1670
 7462SOL    HW134022   3.525   1.766   3.599 -1.7559 -2.2416 -0.4043
 7462SOL    HW234023   3.481   1.713   3.467 -0.3953  0.3114  0.3284
 7463SOL     OW34024   1.421   4.713   0.264  1.3995 -0.0614  0.4460
 7463SOL    HW134025   1.407   4.618   0.266 -0.6326  0.2129 -1.1403
 7463SOL    HW234026   1.508   4.720   0.224  0.1772 -1.4775 -2.5312
 7464SOL     OW34027   2.159   0.382   4.497 -0.1890 -0.5152  0.2413
 7464SOL    HW134028   2.110   0.308   4.459 -1.2855 -1.1937  2.9850
 7464SOL    HW234029   2.092   0.435   4.538 -0.3742  0.9582 -1.9533
 7465SOL     OW34030   2.810   2.778  17.366  0.0737 -0.3082 -0.0129
 7465SOL    HW134031   2.740   2.772  17.431 -1.4349  2.7117 -1.4008
 7465SOL    HW234032   2.765   2.759  17.284 -1.5610  4.0019 -0.0766
 7466SOL     OW34033   2.902   4.232   7.392  0.7007 -1.0439 -0.3624
 7466SOL    HW134034   2.908   4.261   7.301 -0.3421  0.0234 -0.0896
 7466SOL    HW234035   2.935   4.316   7.424  2.4035  0.2172 -5.3198
 7467SOL     OW34036   1.950   1.356   6.720 -0.2933  0.0608 -0.1175
 7467SOL    HW134037   1.924   1.341   6.629 -1.6029  1.4430  0.0344
 7467SOL    HW234038   2.036   1.314   6.728  0.3212  1.6290  1.7004
 7468SOL     OW34039   0.742   3.480   5.295 -0.2639  0.3003 -0.2017
 7468SOL    HW134040   0.780   3.526   5.370 -0.3239 -0.1877  0.1331
 7468SOL    HW234041   0.772   3.523   5.215  2.5915 -1.1516  0.0643
 7469SOL     OW34042   0.328   1.250   9.369  0.1646 -0.0130 -0.1522
 7469SOL    HW134043   0.281   1.170   9.345 -0.5229 -0.4476  2.7702
 7469SOL    HW234044   0.271   1.279   9.439 -1.5999 -1.2397 -1.0885
 7470SOL     OW34045   2.099   2.570  10.290  0.1471  0.8329 -0.0125
 7470SOL    HW134046   2.135   2.525  10.213  2.2708  1.6449  0.5237
 7470SOL    HW234047   2.163   2.538  10.354  1.3933  2.0281 -0.6578
 7471SOL     OW34048   2.401   2.050   8.260  0.4972 -0.1513 -0.1894
 7471SOL    HW134049   2.346   1.980   8.295  1.0093 -0.7638 -0.6201
 7471SOL    HW234050   2.409   2.013   8.172  1.7376 -0.3857  0.0174
 7472SOL     OW34051   1.547   3.784   3.907  0.3461 -0.5852 -0.1901
 7472SOL    HW134052   1.599   3.760   3.831 -0.3687 -3.2294  0.1385
 7472SOL    HW234053   1.463   3.752   3.874 -0.0032  1.4923 -1.2813
 7473SOL     OW34054   3.999   2.495  11.768 -0.5290  0.0595 -0.1939
 7473SOL    HW134055   3.935   2.452  11.712 -0.1541 -0.8388  0.0787
 7473SOL    HW234056   4.075   2.506  11.710  0.7503 -0.0389  1.4777
 7474SOL     OW34057   3.522   2.359   9.579  0.2807 -0.1582 -0.2639
 7474SOL    HW134058   3.565   2.298   9.640  1.9894  2.4903  1.1733
 7474SOL    HW234059   3.461   2.395   9.643  2.2517 -0.3131  1.7040
 7475SOL     OW34060   3.248   2.699   3.458 -0.2355  0.0719 -0.5321
 7475SOL    HW134061   3.196   2.765   3.413  1.3768  0.7165 -1.4332
 7475SOL    HW234062   3.184   2.638   3.497 -0.1570  0.4036  0.1249
 7476SOL     OW34063   0.989   4.662   0.801  0.7525 -0.1472  0.4171
 7476SOL    HW134064   0.997   0.018   0.785 -2.2293  0.1567  0.6438
 7476SOL    HW234065   1.038   4.625   0.727  0.0751  0.8758 -0.5386
 7477SOL     OW34066   4.457   3.390   8.117 -0.5554  0.6072 -0.0560
 7477SOL    HW134067   4.412   3.308   8.097  1.7017 -0.0194 -2.5610
 7477SOL    HW234068   4.525   3.360   8.176 -0.2662 -1.3082 -1.3500
 7478SOL     OW34069   4.212   0.507   5.390 -0.5980  0.0467  0.4322
 7478SOL    HW134070   4.149   0.554   5.335  0.6822  1.9926  0.6356
 7478SOL    HW234071   4.206   0.423   5.345  2.3569  1.1897 -2.0871
 7479SOL     OW34072   2.950   0.795  16.955 -0.2964 -0.3828  0.2390
 7479SOL    HW134073   2.978   0.723  17.012  0.8677  1.1014  1.5206
 7479SOL    HW234074   3.017   0.856  16.986  0.6543 -1.2327 -0.1212
 7480SOL     OW34075   1.910   4.258   4.139  0.1396  0.2831  0.2740
 7480SOL    HW134076   1.941   4.201   4.209  2.0003  0.4504 -0.4281
 7480SOL    HW234077   1.977   4.326   4.145  0.2865  0.2310 -0.9201
 7481SOL     OW34078   4.098   4.448   7.496 -0.3271  0.3032  0.4122
 7481SOL    HW134079   4.005   4.467   7.505 -0.3562  0.0314  0.6877
 7481SOL    HW234080   4.143   4.530   7.516  0.3837  0.3295 -1.2207
 7482SOL     OW34081   1.621   4.357   3.180 -0.1131 -0.2574  0.0188
 7482SOL    HW134082   1.587   4.296   3.114  1.0543 -1.3837  0.4720
 7482SOL    HW234083   1.664   4.416   3.118 -2.0907  0.9493 -0.2175
 7483SOL     OW34084   0.044   1.180   1.158 -0.0471 -0.1303 -0.0325
 7483SOL    HW134085   0.038   1.233   1.078  4.2293  1.3309  0.6202
 7483SOL    HW234086   4.718   1.114   1.131  0.2933 -0.1260 -0.8548
 7484SOL     OW34087   3.838   1.820   4.633  0.5921 -0.1122  0.0192
 7484SOL    HW134088   3.782   1.744   4.647 -1.5846  1.6399  0.8799
 7484SOL    HW234089   3.778   1.894   4.643  0.9508  0.0643  0.8713
 7485SOL     OW34090   1.209   3.823   1.773 -0.0312 -0.5348  0.0682
 7485SOL    HW134091   1.185   3.783   1.856  0.1535  0.4362  0.5908
 7485SOL    HW234092   1.303   3.812   1.767  0.1009  1.5434 -1.7590
 7486SOL     OW34093   2.731   2.720   2.686  0.5970 -0.4541  0.5175
 7486SOL    HW134094   2.721   2.626   2.671 -2.1548 -0.2684  1.1235
 7486SOL    HW234095   2.820   2.734   2.655  0.8942 -2.6863  0.3358
 7487SOL     OW34096   3.801   4.444   6.370  0.0906 -0.2355 -0.1225
 7487SOL    HW134097   3.732   4.425   6.306  0.3911  1.1252 -0.8520
 7487SOL    HW234098   3.824   4.355   6.395 -1.1668 -1.1121 -2.0746
 7488SOL     OW34099   2.894   0.242  15.803  0.3308 -0.5045 -0.1419
 7488SOL    HW134100   2.865   0.321  15.759  2.6315 -0.1736 -1.0534
 7488SOL    HW234101   2.985   0.239  15.775 -0.1925 -2.4363 -1.6245
 7489SOL     OW34102   4.673   0.069   7.470  0.0334  0.1055  0.1385
 7489SOL    HW134103   4.591   0.113   7.446  0.5727  2.2398  2.1261
 7489SOL    HW234104   4.694   0.108   7.555  0.3143  1.9633 -0.7881
 7490SOL     OW34105   2.246   1.615   5.550  0.4456 -0.1139  0.2890
 7490SOL    HW134106   2.311   1.664   5.501 -0.7191  0.7679 -0.3973
 7490SOL    HW234107   2.298   1.568   5.615 -1.7946 -1.8211  0.8362
 7491SOL     OW34108   3.628   0.640   8.563  0.0255  0.4095 -0.1770
 7491SOL    HW134109   3.582   0.583   8.503  0.6686 -0.2427 -0.0494
 7491SOL    HW234110   3.581   0.619   8.644 -0.2472  2.7732  0.2745
 7492SOL     OW34111   1.314   1.833   7.938 -0.1159  0.2668  0.1679
 7492SOL    HW134112   1.308   1.745   7.975  1.4382 -0.4950 -1.4128
 7492SOL    HW234113   1.299   1.830   7.843  0.4489 -1.0883  0.1349
 7493SOL     OW34114   3.610   0.238   4.199  0.2217 -0.2606 -0.1374
 7493SOL    HW134115   3.592   0.293   4.122  2.6829  0.8175  0.0381
 7493SOL    HW234116   3.532   0.228   4.254  0.5424  2.3534  0.8031
 7494SOL     OW34117   2.430   3.069   8.789  0.1745 -0.0884  0.1969
 7494SOL    HW134118   2.462   3.033   8.872 -0.2855  1.6853  1.1532
 7494SOL    HW234119   2.335   3.078   8.791  0.2590  0.9842 -0.4117
 7495SOL     OW34120   2.321   0.375   2.919  0.7290  0.1627  0.3492
 7495SOL    HW134121   2.304   0.385   3.013 -0.7913  0.9617 -0.0123
 7495SOL    HW234122   2.246   0.414   2.873  0.9067  1.6208  1.3034
 7496SOL     OW34123   2.460   1.573   7.495  0.2119  0.0303 -0.0637
 7496SOL    HW134124   2.555   1.567   7.499  0.2960  0.3165 -1.6647
 7496SOL    HW234125   2.440   1.480   7.483  0.9662 -0.1187 -0.1390
 7497SOL     OW34126   2.990   4.404  11.663 -0.0673 -0.2154  0.2785
 7497SOL    HW134127   2.955   4.442  11.743  0.6471 -0.1749  0.5659
 7497SOL    HW234128   2.911   4.370  11.620  1.1628  0.1067 -2.2222
 7498SOL     OW34129   4.730   0.463   5.089  0.0338  0.1939  0.3065
 7498SOL    HW134130   0.043   0.421   5.019  0.3574 -0.9631  1.2455
 7498SOL    HW234131   0.015   0.406   5.162 -3.0208 -1.4254 -0.0476
 7499SOL     OW34132   0.806   0.131   5.708  0.4309 -0.3057  0.8820
 7499SOL    HW134133   0.756   0.212   5.700  1.2072  0.0490 -0.3246
 7499SOL    HW234134   0.885   0.155   5.660 -0.3711 -0.2341 -0.4135
 7500SOL     OW34135   1.165   0.853   9.346 -0.7254  0.0780 -0.3415
 7500SOL    HW134136   1.173   0.948   9.337 -0.9775 -0.0045 -1.3626
 7500SOL    HW234137   1.257   0.830   9.331 -0.8985 -1.0125  0.2603
 7501SOL     OW34138   0.737   2.363   3.962 -0.3365  0.6089  0.0123
 7501SOL    HW134139   0.799   2.435   3.946 -1.2711  0.7009 -3.2484
 7501SOL    HW234140   0.654   2.410   3.951 -0.2157  1.6488  3.4682
 7502SOL     OW34141   3.559   0.437   2.673 -0.5087 -0.1352 -0.6429
 7502SOL    HW134142   3.496   0.367   2.689 -0.3792 -0.0033  0.5076
 7502SOL    HW234143   3.631   0.388   2.712 -1.1461  0.2732  1.0966
 7503SOL     OW34144   3.578   0.014   4.511  0.4674 -0.3455  0.1228
 7503SOL    HW134145   3.563   4.705   4.428 -0.5870 -0.0515  0.1450
 7503SOL    HW234146   3.637   4.690   4.554 -0.6198 -0.6625  1.1704
 7504SOL     OW34147   1.686   1.920  14.265  0.2263 -0.1143 -1.3789
 7504SOL    HW134148   1.604   1.909  14.314  0.3734 -1.7586 -1.5129
 7504SOL    HW234149   1.705   1.830  14.243 -0.6993 -0.3654 -1.1797
 7505SOL     OW34150   4.574   0.274   1.988 -0.5255  0.6611  0.6216
 7505SOL    HW134151   4.613   0.351   2.029  0.0043  0.6100  0.2166
 7505SOL    HW234152   4.594   0.211   2.057  1.5565 -1.4543 -1.9079
 7506SOL     OW34153   0.241   4.022  11.533 -0.3432  0.4303  0.0720
 7506SOL    HW134154   0.210   3.976  11.455 -0.4601 -0.0048  0.3725
 7506SOL    HW234155   0.296   4.095  11.505 -0.9343  1.2175  0.9699
 7507SOL     OW34156   0.357   2.739   9.666  0.1956 -0.3977 -0.2883
 7507SOL    HW134157   0.435   2.732   9.611 -0.0552  0.9100 -0.8249
 7507SOL    HW234158   0.396   2.774   9.746  0.7091  0.6516 -0.9960
 7508SOL     OW34159   2.727   4.568   6.327 -0.4705  0.1114 -0.3317
 7508SOL    HW134160   2.656   4.562   6.390  1.3009  1.4266  1.7800
 7508SOL    HW234161   2.676   4.590   6.249 -0.2546 -1.8747 -1.0363
 7509SOL     OW34162   1.940   0.085   8.699  0.1143 -0.4226  0.4042
 7509SOL    HW134163   1.945   0.130   8.783 -0.3993  0.3356  0.0342
 7509SOL    HW234164   1.847   0.095   8.677  0.3862 -1.5662 -1.2934
 7510SOL     OW34165   2.511   0.359  14.187 -0.2609 -0.5238  0.0626
 7510SOL    HW134166   2.596   0.395  14.211  0.0308  0.2170 -2.0294
 7510SOL    HW234167   2.456   0.435  14.205 -0.4793 -0.6111 -0.2362
 7511SOL     OW34168   0.789   1.724   8.823  0.2817  0.1477  0.1794
 7511SOL    HW134169   0.788   1.748   8.916  1.2111  0.9715 -0.0304
 7511SOL    HW234170   0.861   1.662   8.812  0.5417  0.3316  0.8643
 7512SOL     OW34171   3.435   3.442   7.075  0.4309 -0.0048 -0.1164
 7512SOL    HW134172   3.513   3.497   7.074  1.0696 -0.8461  3.3436
 7512SOL    HW234173   3.382   3.474   7.002 -0.4918 -1.1963  0.0177
 7513SOL     OW34174   3.648   0.549   6.035  0.4587 -0.0900 -0.3681
 7513SOL    HW134175   3.586   0.593   5.976  0.0897 -0.4788 -0.2662
 7513SOL    HW234176   3.589   0.481   6.068 -1.0663 -0.2899 -3.5171
 7514SOL     OW34177   4.498   2.896  15.850  0.0394 -0.4674 -0.0225
 7514SOL    HW134178   4.554   2.910  15.773 -0.1091  3.6539  0.5901
 7514SOL    HW234179   4.419   2.929  15.806 -0.8230 -2.1751  0.2535
 7515SOL     OW34180   2.565   3.332  13.400  0.3019  0.4979 -0.6042
 7515SOL    HW134181   2.580   3.426  13.416  0.0933  0.2401  1.1993
 7515SOL    HW234182   2.594   3.283  13.477 -0.1842  1.2851  0.0876
 7516SOL     OW34183   1.243   1.218  13.825  0.0303  0.2652 -0.1051
 7516SOL    HW134184   1.200   1.231  13.740 -0.4070  1.7615  0.3470
 7516SOL    HW234185   1.179   1.169  13.877  1.3801 -2.2461 -0.8220
 7517SOL     OW34186   2.125   1.735  14.725 -0.2491  0.1411 -0.6625
 7517SOL    HW134187   2.104   1.787  14.802  1.5523  0.9819 -0.7434
 7517SOL    HW234188   2.124   1.802  14.657 -0.9649 -0.0637 -0.8591
 7518SOL     OW34189   2.774   0.889   2.337 -0.5844  0.0793 -0.1696
 7518SOL    HW134190   2.765   0.802   2.375 -0.9690  0.4695  0.6313
 7518SOL    HW234191   2.862   0.885   2.298 -0.5445 -0.9136  0.0141
 7519SOL     OW34192   0.872   1.224   6.130 -0.2344 -0.3784 -0.2100
 7519SOL    HW134193   0.939   1.290   6.150 -0.8450  0.5996 -1.3727
 7519SOL    HW234194   0.823   1.233   6.211  2.1545  2.7364  0.8839
 7520SOL     OW34195   3.416   3.711  15.699 -0.4607 -0.0571 -0.1485
 7520SOL    HW134196   3.360   3.748  15.767  1.3942  0.7937  0.9147
 7520SOL    HW234197   3.493   3.669  15.737 -0.6867  1.6521  2.1912
 7521SOL     OW34198   0.622   4.351   0.807 -0.2381 -0.0911 -0.2236
 7521SOL    HW134199   0.707   4.392   0.789 -0.5589 -0.5104 -2.7599
 7521SOL    HW234200   0.558   4.421   0.796  0.0528  0.3626  0.9229
 7522SOL     OW34201   3.834   4.542   9.710  0.1866  0.6383  0.0329
 7522SOL    HW134202   3.839   4.629   9.668 -2.9509  0.5917 -0.4674
 7522SOL    HW234203   3.908   4.541   9.770 -0.1365  0.2438  0.4224
 7523SOL     OW34204   1.776   4.541   4.801 -0.1766 -0.1775  1.2544
 7523SOL    HW134205   1.770   4.618   4.859  0.1639 -0.4277  1.6229
 7523SOL    HW234206   1.683   4.522   4.793 -0.4889  2.1330 -0.6755
 7524SOL     OW34207   0.116   3.504   7.472  0.4126 -0.0631  0.1826
 7524SOL    HW134208   0.123   3.495   7.567  1.8507  0.7665  0.1687
 7524SOL    HW234209   0.027   3.473   7.459  0.1565  0.3987  0.8536
 7525SOL     OW34210   1.009   4.018   3.278 -0.1233  0.0626 -0.7319
 7525SOL    HW134211   1.029   4.096   3.329 -1.7309 -1.3429  2.0209
 7525SOL    HW234212   1.084   4.016   3.218  0.6145 -2.0828  0.2825
 7526SOL     OW34213   1.811   3.797   2.662  0.1187  0.1226  0.1726
 7526SOL    HW134214   1.850   3.843   2.587  1.8895 -0.4028  0.7706
 7526SOL    HW234215   1.887   3.786   2.718  0.3646  0.7163 -0.0489
 7527SOL     OW34216   2.831   1.782   7.537 -0.0350  0.6373  0.5237
 7527SOL    HW134217   2.746   1.803   7.498  0.0485  2.1080  1.1266
 7527SOL    HW234218   2.885   1.780   7.458 -0.2496  0.5517  0.3773
 7528SOL     OW34219   3.195   2.713   2.644  0.1529 -0.0876  0.1635
 7528SOL    HW134220   3.280   2.700   2.687 -1.1759  2.1980  3.4647
 7528SOL    HW234221   3.187   2.643   2.580  0.5794  0.0869 -0.0871
 7529SOL     OW34222   3.293   0.585  12.935 -0.0383 -0.0134  0.5259
 7529SOL    HW134223   3.204   0.592  12.900 -0.6506 -1.7824  1.7475
 7529SOL    HW234224   3.302   0.677  12.962  0.0027  0.5947 -1.5583
 7530SOL     OW34225   3.156   1.575   3.510 -0.0265  0.2828 -0.3658
 7530SOL    HW134226   3.244   1.546   3.533  0.2425  0.2203 -1.4892
 7530SOL    HW234227   3.172   1.587   3.416 -2.6056 -0.8875 -0.9678
 7531SOL     OW34228   4.557   2.550   3.642  0.4294 -0.2875 -0.2121
 7531SOL    HW134229   4.475   2.513   3.608 -0.2194  0.9352 -0.0031
 7531SOL    HW234230   4.570   2.499   3.721  1.9377 -2.1168 -1.6447
 7532SOL     OW34231   0.205   2.717  15.901 -0.4420  0.1400 -0.2068
 7532SOL    HW134232   0.122   2.674  15.920 -1.6055  2.3085 -0.3721
 7532SOL    HW234233   0.212   2.728  15.806  2.2791  0.7172  0.0444
 7533SOL     OW34234   0.533   3.640   3.172 -0.4079  0.0917 -0.3379
 7533SOL    HW134235   0.531   3.577   3.245 -0.1388  0.5678  0.0824
 7533SOL    HW234236   0.620   3.619   3.138 -0.3244  1.0297 -0.6887
 7534SOL     OW34237   3.393   2.136   5.845  0.0177 -0.5986 -0.1804
 7534SOL    HW134238   3.300   2.144   5.822  0.5681  4.3656 -0.7591
 7534SOL    HW234239   3.440   2.164   5.767 -0.4833  2.5197  0.6337
 7535SOL     OW34240   1.251   3.211   9.553 -0.1739  0.4619  0.0841
 7535SOL    HW134241   1.293   3.291   9.584 -0.1683  1.0209 -1.3944
 7535SOL    HW234242   1.168   3.240   9.516 -0.2360 -1.9152 -1.6274
 7536SOL     OW34243   4.449   0.187   7.365 -0.6246 -0.6079 -0.6237
 7536SOL    HW134244   4.405   0.154   7.443 -0.3784 -0.8929 -0.6060
 7536SOL    HW234245   4.369   0.184   7.312 -0.7272 -0.2978 -0.4888
 7537SOL     OW34246   2.266   2.594   1.816  0.1712 -0.0011  0.0951
 7537SOL    HW134247   2.207   2.526   1.848  0.2974  0.7242  1.8995
 7537SOL    HW234248   2.209   2.655   1.769  1.5517  1.6510  0.5531
 7538SOL     OW34249   1.457   2.086   9.097  0.2865  0.0193  0.0478
 7538SOL    HW134250   1.456   1.995   9.128 -1.3241  0.9381  2.6299
 7538SOL    HW234251   1.455   2.128   9.183 -0.0626  0.5605 -0.2260
 7539SOL     OW34252   3.244   1.275  15.435 -0.6030  0.1503 -0.2529
 7539SOL    HW134253   3.260   1.204  15.373  3.0620 -0.2020  1.0775
 7539SOL    HW234254   3.329   1.284  15.478 -0.2235  0.2708 -1.0268
 7540SOL     OW34255   0.238   1.502   1.223 -0.2340  0.4743 -0.0177
 7540SOL    HW134256   0.291   1.497   1.144  0.5405 -1.0661  0.5911
 7540SOL    HW234257   0.302   1.550   1.276  0.2800  1.4218 -1.4847
 7541SOL     OW34258   0.880   3.561   4.688 -0.3278  0.4173  0.8354
 7541SOL    HW134259   0.836   3.645   4.699  0.6091  1.1419 -0.9216
 7541SOL    HW234260   0.926   3.563   4.773  0.8033 -3.0799  0.3283
 7542SOL     OW34261   4.001   0.783   7.865 -0.7576  0.3958 -0.4896
 7542SOL    HW134262   3.997   0.694   7.832 -1.2267  0.5351 -0.8068
 7542SOL    HW234263   4.069   0.822   7.808  0.0761  0.0848  0.2977
 7543SOL     OW34264   4.368   1.258   2.964  0.0371 -0.2914  0.2867
 7543SOL    HW134265   4.366   1.187   2.900  0.0523  0.0743 -0.1209
 7543SOL    HW234266   4.405   1.327   2.909  1.8532 -0.8725  0.7812
 7544SOL     OW34267   2.617   3.109   5.143 -0.0009  0.8870  0.1903
 7544SOL    HW134268   2.560   3.121   5.067 -1.1969  0.3200  1.0106
 7544SOL    HW234269   2.621   3.014   5.140  1.1446  0.9065  0.9541
 7545SOL     OW34270   0.233   4.445   4.745  0.0531 -0.3492  0.1154
 7545SOL    HW134271   0.232   4.364   4.796  0.5105 -0.5073 -0.1220
 7545SOL    HW234272   0.191   4.409   4.668  0.3316 -0.8891  0.2191
 7546SOL     OW34273   4.059   2.889   0.388  0.2623 -0.2439  0.0708
 7546SOL    HW134274   4.097   2.867   0.304 -3.0848  0.8623 -1.7573
 7546SOL    HW234275   4.069   2.809   0.439  0.2429 -0.4583 -0.2621
 7547SOL     OW34276   4.537   1.196   3.357 -0.1545  0.3037  0.3310
 7547SOL    HW134277   4.590   1.158   3.427 -0.4817 -1.3543 -0.3425
 7547SOL    HW234278   4.592   1.245   3.295 -0.8356  0.4156 -0.1814
 7548SOL     OW34279   0.888   1.069   8.058  0.1217 -0.1414  0.4488
 7548SOL    HW134280   0.954   1.070   8.127 -0.2835  0.7997  0.8253
 7548SOL    HW234281   0.808   1.047   8.105 -0.1912  0.9951  0.4559
 7549SOL     OW34282   2.792   0.991   9.427 -0.3645 -0.1168  0.5864
 7549SOL    HW134283   2.735   0.990   9.350  2.5618  1.2031 -1.5819
 7549SOL    HW234284   2.759   1.057   9.489 -0.0840  0.8897 -0.3332
 7550SOL     OW34285   0.390   3.744  11.552 -0.4048 -0.3043 -0.0637
 7550SOL    HW134286   0.461   3.754  11.489  0.2114 -0.2246  0.6427
 7550SOL    HW234287   0.404   3.821  11.607 -3.3022  1.2831 -1.5829
 7551SOL     OW34288   0.601   3.620  15.071  0.3503  0.0884  0.0995
 7551SOL    HW134289   0.690   3.594  15.047  0.0188  0.1939 -1.2320
 7551SOL    HW234290   0.581   3.692  15.011 -0.1926 -1.3545 -1.4786
 7552SOL     OW34291   2.577   1.042   7.225 -0.3083 -0.5197 -0.2733
 7552SOL    HW134292   2.604   0.950   7.222  1.8282  0.0851  0.7832
 7552SOL    HW234293   2.503   1.041   7.286 -0.8170 -0.9584 -0.8986
 7553SOL     OW34294   4.132   4.428   2.677  0.8605 -0.0096  0.0548
 7553SOL    HW134295   4.167   4.436   2.766 -0.7118 -2.1523  0.8789
 7553SOL    HW234296   4.160   4.343   2.644  0.9192  0.6001 -1.4839
 7554SOL     OW34297   2.357   2.769   5.093  0.2489  0.3005 -0.0677
 7554SOL    HW134298   2.352   2.681   5.131  2.3925 -0.3273 -1.2477
 7554SOL    HW234299   2.297   2.758   5.019  1.1469 -0.8593 -0.6329
 7555SOL     OW34300   0.186   4.123   0.595  0.1033 -0.1262 -0.4713
 7555SOL    HW134301   0.185   4.218   0.609 -1.6227 -0.7194  3.5156
 7555SOL    HW234302   0.092   4.107   0.599  0.0138  0.2156 -1.4003
 7556SOL     OW34303   2.048   3.907   3.620  0.4274 -0.3250  0.9480
 7556SOL    HW134304   2.109   3.978   3.600 -1.2494  0.9615  0.4823
 7556SOL    HW234305   2.094   3.868   3.694 -0.9617 -1.9782  0.9306
 7557SOL     OW34306   4.650   1.795   6.737 -0.1021  0.6714  0.1379
 7557SOL    HW134307   4.696   1.792   6.652 -0.6672 -1.4490 -0.0832
 7557SOL    HW234308   4.715   1.800   6.807 -0.6720 -0.2483  0.7232
 7558SOL     OW34309   3.704   4.261  15.376 -0.5161  0.2853 -0.4242
 7558SOL    HW134310   3.683   4.168  15.373 -0.9075  0.3590  0.0311
 7558SOL    HW234311   3.784   4.266  15.324  0.8621 -1.5716  1.5497
 7559SOL     OW34312   4.345   2.094   2.347  0.0467  0.1368  0.0994
 7559SOL    HW134313   4.402   2.117   2.274  0.5735  0.6180  0.6594
 7559SOL    HW234314   4.406   2.087   2.421 -0.0809  0.0455  0.1963
 7560SOL     OW34315   4.442   1.013  10.285 -0.2212  0.4882  0.4781
 7560SOL    HW134316   4.532   1.043  10.294 -0.1906  0.4969  0.1265
 7560SOL    HW234317   4.458   0.937  10.229 -2.4583 -0.3236  0.9302
 7561SOL     OW34318   2.559   0.975   2.119  0.0976 -0.7513 -0.3590
 7561SOL    HW134319   2.642   0.928   2.111 -1.1853 -2.7261 -1.9935
 7561SOL    HW234320   2.578   1.033   2.193  0.0408 -1.7578  0.4393
 7562SOL     OW34321   4.410   0.138   3.931 -0.2970 -0.0680 -0.1790
 7562SOL    HW134322   4.462   0.157   3.853 -1.0571  0.0577 -0.6561
 7562SOL    HW234323   4.320   0.161   3.907 -0.5571  0.7830  1.5632
 7563SOL     OW34324   2.964   3.191   7.520  0.1542 -0.4452 -0.1709
 7563SOL    HW134325   2.988   3.147   7.601 -4.3193  0.1957  1.5421
 7563SOL    HW234326   3.049   3.231   7.503  0.7851 -1.6465  0.2060
 7564SOL     OW34327   1.953   2.710  17.349 -0.5301 -0.2543  0.2393
 7564SOL    HW134328   2.021   2.692  17.414  0.6906 -2.7880 -1.7319
 7564SOL    HW234329   1.882   2.723  17.412 -1.0356 -1.5918 -0.0441
 7565SOL     OW34330   3.199   3.802   6.044  0.3713  0.3925 -0.0707
 7565SOL    HW134331   3.110   3.766   6.052  0.5425  0.1260  0.5991
 7565SOL    HW234332   3.247   3.719   6.042  1.2709  0.8974  1.0103
 7566SOL     OW34333   3.680   4.121   4.570  0.1906 -0.3559 -0.5337
 7566SOL    HW134334   3.737   4.070   4.627  1.0409  1.3832  0.1815
 7566SOL    HW234335   3.743   4.179   4.528 -0.1288  1.4175  1.4362
 7567SOL     OW34336   2.028   1.042   5.324 -0.2274  0.0825 -0.2157
 7567SOL    HW134337   2.036   0.965   5.379 -1.9793 -0.4296 -0.6749
 7567SOL    HW234338   2.014   1.001   5.239  1.1261  1.4651 -1.1141
 7568SOL     OW34339   3.040   4.490  15.906  0.2988  0.0625  0.4850
 7568SOL    HW134340   3.076   4.574  15.878  2.2632 -0.4063  1.6247
 7568SOL    HW234341   3.059   4.450  15.821  0.3598  1.4178 -0.1503
 7569SOL     OW34342   0.381   0.556   6.165  0.1831  0.3034  0.5642
 7569SOL    HW134343   0.310   0.620   6.164 -1.0102 -1.0855 -2.2656
 7569SOL    HW234344   0.425   0.578   6.084 -0.4001  0.1551  0.2055
 7570SOL     OW34345   0.658   0.885   7.465 -0.3631 -0.2055 -0.4666
 7570SOL    HW134346   0.634   0.978   7.470  0.6567  0.0681 -0.6049
 7570SOL    HW234347   0.591   0.863   7.400 -3.3721  0.9897  2.1723
 7571SOL     OW34348   3.828   3.719   7.863 -0.3499  0.3054 -0.3172
 7571SOL    HW134349   3.798   3.809   7.870  1.6387  0.7826  2.3014
 7571SOL    HW234350   3.911   3.720   7.911 -0.7696  0.5155  0.4189
 7572SOL     OW34351   1.529   2.588  10.326 -0.0060 -0.1279  0.2432
 7572SOL    HW134352   1.518   2.675  10.365  0.9779  1.5045 -3.0671
 7572SOL    HW234353   1.598   2.549  10.380 -0.6329  1.1458  1.9743
 7573SOL     OW34354   0.254   4.383   9.479  0.2896  0.2242  0.1907
 7573SOL    HW134355   0.308   4.387   9.400  0.3855 -1.0613  0.1957
 7573SOL    HW234356   0.292   4.301   9.510 -1.6316 -0.5301  0.5911
 7574SOL     OW34357   2.728   2.599   6.749 -0.5507  0.1087  0.1974
 7574SOL    HW134358   2.778   2.618   6.829 -1.9454  2.3639  0.5377
 7574SOL    HW234359   2.666   2.539   6.789  0.5052 -0.4737  0.9590
 7575SOL     OW34360   1.241   4.066   0.046  0.5342 -0.2945 -0.0828
 7575SOL    HW134361   1.275   4.093   0.131  0.9720  2.8442 -1.2595
 7575SOL    HW234362   1.170   4.004   0.063 -1.2617  2.2041  1.4890
 7576SOL     OW34363   3.219   1.288   4.428  0.3603  0.1099 -0.5618
 7576SOL    HW134364   3.202   1.326   4.342 -0.2802 -0.7953 -0.8336
 7576SOL    HW234365   3.262   1.207   4.399  0.3500 -0.3629  0.7690
 7577SOL     OW34366   3.210   1.651   9.351 -0.1120 -0.0679 -0.2652
 7577SOL    HW134367   3.280   1.663   9.415  0.9981 -0.2104 -1.4587
 7577SOL    HW234368   3.195   1.740   9.319 -0.7337 -0.0648  0.0377
 7578SOL     OW34369   3.981   0.851   4.744  0.3407  0.4535 -0.3676
 7578SOL    HW134370   4.057   0.822   4.694  1.9113  2.6770  0.7562
 7578SOL    HW234371   3.930   0.771   4.730 -0.9525  0.3148  5.3886
 7579SOL     OW34372   1.426   4.727   6.586 -0.2834 -0.6123  0.1385
 7579SOL    HW134373   1.353   4.730   6.524 -0.0915 -0.1131 -0.0630
 7579SOL    HW234374   1.419   4.645   6.635  1.3870  1.7882  4.4205
 7580SOL     OW34375   0.576   1.375  16.458 -0.3163  0.0263 -0.6777
 7580SOL    HW134376   0.564   1.323  16.537  1.3394 -0.9527 -1.0756
 7580SOL    HW234377   0.596   1.458  16.501  0.2124 -0.2861 -0.3340
 7581SOL     OW34378   1.259   3.635   3.244 -0.2774 -0.1463  0.4758
 7581SOL    HW134379   1.218   3.676   3.168  0.4916  1.3766  0.8782
 7581SOL    HW234380   1.210   3.660   3.322 -0.0539 -2.5773  1.3966
 7582SOL     OW34381   0.685   4.357  11.552 -0.1591  0.0454  0.4485
 7582SOL    HW134382   0.637   4.278  11.529 -0.9581  0.7400 -0.2981
 7582SOL    HW234383   0.616   4.421  11.569  0.4891  0.4859  1.4177
 7583SOL     OW34384   1.337   2.217   4.818 -0.1360  0.7460  0.0736
 7583SOL    HW134385   1.346   2.149   4.752 -3.1048  0.0933  0.3556
 7583SOL    HW234386   1.409   2.274   4.789 -2.1306  2.5024 -1.4123
 7584SOL     OW34387   1.081   4.311   5.620 -0.0912 -0.1479 -0.7278
 7584SOL    HW134388   1.157   4.277   5.668  0.0490  0.6546 -0.3682
 7584SOL    HW234389   1.037   4.352   5.695 -1.2082 -0.8028 -1.0320
 7585SOL     OW34390   3.415   2.591   9.779 -0.0147  0.1822  0.9184
 7585SOL    HW134391   3.325   2.595   9.811 -0.7688 -1.6560 -0.9544
 7585SOL    HW234392   3.458   2.603   9.864  1.7043 -0.4501  0.1402
 7586SOL     OW34393   4.702   4.324   9.222 -1.2020  0.5039 -0.3035
 7586SOL    HW134394   0.043   4.378   9.223  0.2972 -1.6682 -1.0564
 7586SOL    HW234395   0.002   4.245   9.261  1.0242  1.5629 -0.3186
 7587SOL     OW34396   3.406   0.808   4.973 -0.5040 -0.0866  0.3065
 7587SOL    HW134397   3.451   0.728   4.946 -0.3989  0.4811 -1.1849
 7587SOL    HW234398   3.432   0.875   4.910 -1.1197  0.7863  0.9713
 7588SOL     OW34399   2.538   3.524   6.091  0.8939  0.7338 -0.0120
 7588SOL    HW134400   2.600   3.485   6.029  0.2805 -0.0201 -0.1615
 7588SOL    HW234401   2.493   3.587   6.034  1.1037  0.6697 -0.2506
 7589SOL     OW34402   3.595   4.133   3.938 -0.4033  0.0579  0.2581
 7589SOL    HW134403   3.652   4.132   3.861 -0.3319 -0.0177  0.3127
 7589SOL    HW234404   3.523   4.081   3.905 -0.1718  0.0993 -0.3058
 7590SOL     OW34405   2.560   0.409  10.007 -0.1691 -0.4989  0.7281
 7590SOL    HW134406   2.506   0.482   9.974  1.3814  0.6234  0.6912
 7590SOL    HW234407   2.641   0.446  10.042  0.1675  1.5932 -2.2202
 7591SOL     OW34408   3.543   4.536  11.001  0.4855  0.2624 -0.6856
 7591SOL    HW134409   3.592   4.617  11.014  0.6646  0.0755 -0.2281
 7591SOL    HW234410   3.548   4.478  11.076  1.3088 -0.2019 -1.0925
 7592SOL     OW34411   0.886   0.224   3.037  0.1714  0.2693  0.4726
 7592SOL    HW134412   0.796   0.211   3.068  0.4502  2.1005  2.0770
 7592SOL    HW234413   0.934   0.195   3.114  1.1509  2.3347  0.6581
 7593SOL     OW34414   2.052   1.630  13.336  0.3891 -0.2205 -0.8151
 7593SOL    HW134415   1.975   1.662  13.289 -0.1727 -0.5373 -0.1125
 7593SOL    HW234416   2.114   1.702  13.321  3.1718 -2.4438  0.0904
 7594SOL     OW34417   0.303   4.104   8.594 -0.4524  0.0878  0.1448
 7594SOL    HW134418   0.295   4.101   8.690 -0.0685 -0.5004  0.1567
 7594SOL    HW234419   0.345   4.189   8.583 -1.2140  0.4668  0.1578
 7595SOL     OW34420   1.464   2.533   0.217  0.3840 -0.0525  0.0308
 7595SOL    HW134421   1.370   2.519   0.211  0.2566  0.9078 -0.2754
 7595SOL    HW234422   1.471   2.628   0.231  0.4669 -0.0608  0.0432
 7596SOL     OW34423   0.405   3.371   2.714  0.1378 -0.1314 -0.0196
 7596SOL    HW134424   0.459   3.451   2.716 -0.8468  0.5149  0.8675
 7596SOL    HW234425   0.463   3.307   2.754 -1.8610 -1.2069  1.1688
 7597SOL     OW34426   3.023   3.442   8.119 -0.1184 -0.5265  0.3878
 7597SOL    HW134427   3.003   3.480   8.033 -0.8145 -1.4537  0.1472
 7597SOL    HW234428   2.948   3.388   8.144 -1.0991  0.0315 -1.3452
 7598SOL     OW34429   2.193   0.134   3.018  0.8657 -0.7972  0.0225
 7598SOL    HW134430   2.208   0.202   2.953  0.1350 -0.9475 -0.3098
 7598SOL    HW234431   2.167   0.178   3.099 -0.8469  0.9665 -1.4777
 7599SOL     OW34432   3.810   3.259   1.442  0.0354  0.4415 -0.3610
 7599SOL    HW134433   3.785   3.173   1.475 -3.0185  1.0932 -1.0025
 7599SOL    HW234434   3.901   3.257   1.472  0.1699 -0.0360 -0.7876
 7600SOL     OW34435   2.585   1.995   3.600  0.0737 -0.4714  0.2564
 7600SOL    HW134436   2.662   2.041   3.567 -1.8532  3.2147  0.8611
 7600SOL    HW234437   2.614   1.948   3.679  2.0075  0.4779  0.1263
 7601SOL     OW34438   1.356   0.918   4.813  0.0197  0.1463 -0.3406
 7601SOL    HW134439   1.406   0.987   4.858  1.5748 -0.9569 -0.3633
 7601SOL    HW234440   1.426   0.870   4.768 -1.4920 -1.3906 -1.0095
 7602SOL     OW34441   0.843   2.642  16.520 -0.2209 -0.1482  0.6088
 7602SOL    HW134442   0.898   2.707  16.564 -0.3280 -0.1459  0.7398
 7602SOL    HW234443   0.780   2.686  16.463  1.4084  0.9837 -0.3029
 7603SOL     OW34444   2.262   4.636   7.577 -0.8963  0.6118  0.1243
 7603SOL    HW134445   2.259   4.709   7.638 -0.0766 -0.9076  1.9961
 7603SOL    HW234446   2.169   4.614   7.566 -1.2497  1.1040  1.9756
 7604SOL     OW34447   3.875   2.744   6.910 -0.1865 -0.4926 -0.4510
 7604SOL    HW134448   3.865   2.839   6.898 -0.5127 -0.6112 -1.1817
 7604SOL    HW234449   3.956   2.721   6.863  0.4958  1.7737 -0.3972
 7605SOL     OW34450   4.278   3.475   4.986 -0.2952  0.1092  0.1708
 7605SOL    HW134451   4.341   3.476   4.914 -0.6609  2.2186 -0.1177
 7605SOL    HW234452   4.317   3.508   5.066 -0.8562  0.2563  0.3827
 7606SOL     OW34453   1.231   1.883   1.630 -0.1137  0.6199 -0.4478
 7606SOL    HW134454   1.200   1.968   1.664 -1.8827 -0.2960  0.2266
 7606SOL    HW234455   1.224   1.901   1.536 -2.5446 -1.2299 -0.6190
 7607SOL     OW34456   3.682   2.070   3.533  0.3261  0.4610 -0.5679
 7607SOL    HW134457   3.646   1.982   3.525 -0.0747  0.4567  1.1896
 7607SOL    HW234458   3.774   2.050   3.514  0.1113 -0.3888 -0.6964
 7608SOL     OW34459   1.242   0.250   8.078  0.1198 -0.7019  0.1188
 7608SOL    HW134460   1.217   0.253   7.986 -0.4616  0.7080  0.3160
 7608SOL    HW234461   1.281   0.337   8.074  3.4498 -2.2884 -1.8783
 7609SOL     OW34462   2.442   2.733   8.162  0.4628  0.1923  0.1241
 7609SOL    HW134463   2.373   2.686   8.115  1.0236 -0.0041 -0.5107
 7609SOL    HW234464   2.474   2.670   8.226  1.1469  1.2709  0.8555
 7610SOL     OW34465   1.853   3.456  11.444 -0.0981  0.1214 -0.5174
 7610SOL    HW134466   1.856   3.535  11.498 -1.2975  2.0024 -3.2214
 7610SOL    HW234467   1.811   3.487  11.364  1.0217  0.6202 -0.9073
 7611SOL     OW34468   4.248   2.903  16.427 -0.2552  0.3651 -0.5280
 7611SOL    HW134469   4.227   2.976  16.370 -0.8641  0.2065 -0.5138
 7611SOL    HW234470   4.285   2.845  16.361  3.2279 -0.5047  2.2075
 7612SOL     OW34471   3.048   3.503   2.842  0.2120 -0.4328 -0.0554
 7612SOL    HW134472   3.060   3.495   2.747  0.0246  0.2448 -0.1328
 7612SOL    HW234473   3.112   3.572   2.859 -0.6939  0.3571  0.0969
 7613SOL     OW34474   1.912   3.155   9.099 -0.0971  0.6149  0.0228
 7613SOL    HW134475   1.990   3.136   9.151  0.3258 -0.0281 -0.8449
 7613SOL    HW234476   1.857   3.125   9.171  0.3821  1.6846  0.8243
 7614SOL     OW34477   2.271   4.012   3.802  0.3991 -0.4928  0.3035
 7614SOL    HW134478   2.337   4.071   3.766  0.1776 -0.0234  0.6705
 7614SOL    HW234479   2.225   4.061   3.870  1.0600  0.9488 -0.3088
 7615SOL     OW34480   1.102   2.275   1.365 -0.1731  0.4030 -0.0510
 7615SOL    HW134481   1.087   2.299   1.274 -2.5307  0.5759  0.3751
 7615SOL    HW234482   1.098   2.363   1.405  1.9963  0.6003 -0.3028
 7616SOL     OW34483   1.871   4.181   4.613 -0.1431  0.4724  0.2764
 7616SOL    HW134484   1.947   4.239   4.615  0.7046 -0.6355  0.2179
 7616SOL    HW234485   1.905   4.095   4.635 -0.7914 -0.6271 -3.0217
 7617SOL     OW34486   2.825   3.366   7.066  0.7342 -0.4774 -0.1203
 7617SOL    HW134487   2.757   3.407   7.014 -0.1634 -0.6434  0.9225
 7617SOL    HW234488   2.765   3.312   7.118  2.2362 -1.1676  0.9268
 7618SOL     OW34489   1.020   0.870   6.803 -0.3285 -0.2001 -0.0518
 7618SOL    HW134490   0.999   0.936   6.869 -3.1568 -1.0937 -0.0560
 7618SOL    HW234491   1.069   0.803   6.850  1.4514  0.1204 -1.4352
 7619SOL     OW34492   1.118   2.994   5.379  0.2473 -0.2308  0.5561
 7619SOL    HW134493   1.115   3.080   5.338  0.7069 -0.9046 -0.9166
 7619SOL    HW234494   1.032   2.978   5.416 -0.6289 -0.2382 -1.4594
 7620SOL     OW34495   0.197   0.828   5.140  0.8675  0.0360  0.2083
 7620SOL    HW134496   0.227   0.739   5.158  2.6007  0.8350  1.3026
 7620SOL    HW234497   0.153   0.823   5.056 -0.9346 -1.0814  1.2157
 7621SOL     OW34498   4.526   1.536  17.178  0.2424  0.0538 -0.1538
 7621SOL    HW134499   4.466   1.581  17.118  0.4109 -0.7678 -0.9264
 7621SOL    HW234500   4.541   1.597  17.250  1.7994  1.0879 -1.3518
 7622SOL     OW34501   1.163   1.729   9.510  0.7282  0.6044  0.1262
 7622SOL    HW134502   1.250   1.731   9.471  0.6693  0.8161  0.0004
 7622SOL    HW234503   1.122   1.647   9.482  0.5635  0.9449 -0.6235
 7623SOL     OW34504   4.684   4.400   9.875 -0.2840 -0.7901  0.3555
 7623SOL    HW134505   4.646   4.392   9.963  0.2004 -0.7746  0.5658
 7623SOL    HW234506   4.715   4.490   9.867  0.5558 -0.9165  2.2514
 7624SOL     OW34507   2.048   0.887   3.795  1.0377 -0.4472  0.8159
 7624SOL    HW134508   1.984   0.827   3.757 -0.2807  1.2850  0.3370
 7624SOL    HW234509   2.007   0.917   3.876 -1.1086  1.9621 -1.1743
 7625SOL     OW34510   3.402   3.041   8.270 -0.6247  0.4114 -0.4231
 7625SOL    HW134511   3.376   3.119   8.319  2.0383  1.6392 -0.9873
 7625SOL    HW234512   3.324   2.990   8.292 -0.7037  1.2553  1.2253
 7626SOL     OW34513   0.069   0.403   4.022 -0.2227  0.2703  0.2218
 7626SOL    HW134514   0.133   0.428   4.089 -1.3859  0.3770  1.2965
 7626SOL    HW234515   0.062   0.308   4.034  2.0341 -0.0416 -0.8553
 7627SOL     OW34516   0.104   4.291   6.913  0.7973  0.2135  0.4925
 7627SOL    HW134517   0.067   4.246   6.989  0.7869  1.5684  1.2901
 7627SOL    HW234518   0.042   4.246   6.856  1.9271 -0.9504  0.1694
 7628SOL     OW34519   1.813   2.994   7.719 -0.2964  0.5950  0.5392
 7628SOL    HW134520   1.830   2.945   7.639  0.2595 -0.4764  1.3255
 7628SOL    HW234521   1.750   2.939   7.765 -0.5937 -0.6976 -1.4592
 7629SOL     OW34522   2.846   4.370   3.962  0.4536  0.4072  0.0638
 7629SOL    HW134523   2.869   4.430   4.033 -0.6739 -2.2072  2.6435
 7629SOL    HW234524   2.810   4.298   4.015 -0.7047  0.0109 -1.2859
 7630SOL     OW34525   3.518   4.104   5.151  0.5790  0.2239 -0.5833
 7630SOL    HW134526   3.443   4.057   5.113 -0.1931  0.1396  1.0406
 7630SOL    HW234527   3.507   4.076   5.241 -4.1949  0.6152 -1.0553
 7631SOL     OW34528   0.070   3.894  16.003  0.0899 -0.8164 -0.1871
 7631SOL    HW134529   0.066   3.964  15.938  0.2115 -0.0140  0.6815
 7631SOL    HW234530   0.134   3.927  16.066  0.6204 -2.3565  0.0843
 7632SOL     OW34531   3.354   4.192   3.307 -0.0293 -0.4589 -0.0701
 7632SOL    HW134532   3.296   4.262   3.338  2.7747  1.5002  0.6879
 7632SOL    HW234533   3.368   4.230   3.220 -1.1962  1.1436  0.4187
 7633SOL     OW34534   2.199   3.029   2.690  0.1821 -0.5407 -0.1297
 7633SOL    HW134535   2.104   3.041   2.686  0.5637  2.4504 -0.0469
 7633SOL    HW234536   2.230   3.100   2.747  1.0831  0.0831 -1.4172
 7634SOL     OW34537   2.754   1.983   2.437  0.0918 -0.0085  0.2829
 7634SOL    HW134538   2.809   2.058   2.413 -0.0071  0.4287  1.4145
 7634SOL    HW234539   2.664   2.016   2.427 -0.3786 -0.8086  1.9758
 7635SOL     OW34540   0.062   2.158   8.193  0.2433 -0.3305 -0.1660
 7635SOL    HW134541   0.048   2.100   8.268  0.1706 -2.9091 -2.1611
 7635SOL    HW234542   0.019   2.103   8.126  1.5867 -1.6119  0.0190
 7636SOL     OW34543   1.370   4.588   7.539 -0.3757  0.4794  0.2738
 7636SOL    HW134544   1.309   4.640   7.593 -1.1387  0.7892 -0.8845
 7636SOL    HW234545   1.446   4.642   7.561  0.5383 -1.2815  1.3526
 7637SOL     OW34546   3.154   3.601   0.287 -0.1400  0.2017  0.8876
 7637SOL    HW134547   3.133   3.577   0.377  0.6169 -0.2985  0.9329
 7637SOL    HW234548   3.241   3.561   0.285 -0.0578  0.4391 -0.1161
 7638SOL     OW34549   0.284   0.639   6.975 -0.3962 -0.4132  0.1179
 7638SOL    HW134550   0.290   0.648   6.880  2.4142  0.3265  0.3791
 7638SOL    HW234551   0.377   0.620   6.980 -0.2675  0.2482  0.3343
 7639SOL     OW34552   3.632   3.259  15.587  0.0400 -0.0323 -0.3462
 7639SOL    HW134553   3.562   3.272  15.652  1.0752 -0.0826  0.7920
 7639SOL    HW234554   3.595   3.259  15.499 -0.5509  2.4357 -0.0778
 7640SOL     OW34555   3.933   0.978   3.664  0.3713  0.3853 -0.2962
 7640SOL    HW134556   3.849   1.002   3.624 -0.9740 -1.2917  1.5293
 7640SOL    HW234557   3.902   0.942   3.747  0.5097 -0.7627 -0.7558
 7641SOL     OW34558   0.777   2.228   7.790  0.1210 -0.2979  0.0228
 7641SOL    HW134559   0.808   2.307   7.746  0.3993  0.5027  1.6673
 7641SOL    HW234560   0.852   2.185   7.830  0.6108  0.8562  0.3451
 7642SOL     OW34561   0.995   3.795   4.235  0.5074  0.5734 -0.0496
 7642SOL    HW134562   1.041   3.725   4.281 -1.5588 -1.9514 -1.7800
 7642SOL    HW234563   0.910   3.787   4.280  2.3552  1.3505  3.5415
 7643SOL     OW34564   4.234   2.900   6.081  0.8687 -0.3219  0.5060
 7643SOL    HW134565   4.243   2.820   6.029  0.3044 -0.8577  1.2325
 7643SOL    HW234566   4.231   2.861   6.168 -0.9928  0.0719  0.6378
 7644SOL     OW34567   4.528   1.714   6.436 -0.0346 -0.3024  0.7420
 7644SOL    HW134568   4.551   1.653   6.367  0.4479 -1.3490  1.8268
 7644SOL    HW234569   4.451   1.666   6.468  0.3122 -1.4507 -0.1720
 7645SOL     OW34570   1.244   0.021  14.070 -0.2494  0.0296  0.2579
 7645SOL    HW134571   1.196   4.712  14.138 -1.6781  1.1492  0.0227
 7645SOL    HW234572   1.279   4.687  14.016  0.1243  0.6872 -0.3763
 7646SOL     OW34573   1.840   2.564  10.340  0.4204 -0.4412  0.0013
 7646SOL    HW134574   1.818   2.559  10.433  0.4900 -0.7735  0.0013
 7646SOL    HW234575   1.935   2.562  10.327  0.2604 -1.0485 -1.1160
 7647SOL     OW34576   1.851   3.245  16.572  0.0328  0.0290  0.7448
 7647SOL    HW134577   1.823   3.272  16.485  0.3368  0.2504  0.7117
 7647SOL    HW234578   1.767   3.225  16.614 -0.9608  3.9189  0.5981
 7648SOL     OW34579   0.079   4.035  11.752  0.4321 -0.3768 -0.4304
 7648SOL    HW134580   0.002   4.075  11.711  0.3486 -2.1154 -1.9605
 7648SOL    HW234581   0.144   4.014  11.686  0.8817 -1.7492  0.4458
 7649SOL     OW34582   3.073   1.538   9.945  0.6925 -0.0417 -0.1677
 7649SOL    HW134583   3.117   1.487  10.013  0.1678 -0.4066 -0.1038
 7649SOL    HW234584   3.114   1.504   9.866 -1.3761 -1.9219 -0.4269
 7650SOL     OW34585   3.970   1.831   6.286 -0.1332  0.2267 -0.4804
 7650SOL    HW134586   3.894   1.843   6.343  0.2488 -0.6449  0.2052
 7650SOL    HW234587   3.988   1.737   6.283  0.5289  0.3613 -0.6988
 7651SOL     OW34588   4.570   4.558   0.181 -0.1145 -0.4883 -1.0456
 7651SOL    HW134589   4.484   4.589   0.154 -0.2293  0.5758  0.5232
 7651SOL    HW234590   4.627   4.630   0.155  0.5490 -0.5341  0.2359
 7652SOL     OW34591   2.295   3.702   8.731  0.1538 -1.4188 -0.2837
 7652SOL    HW134592   2.322   3.793   8.717 -0.8711 -0.6516  2.6285
 7652SOL    HW234593   2.251   3.703   8.816  1.3936  0.6300  0.3182
 7653SOL     OW34594   4.331   3.870   3.569  0.1368 -0.6874 -0.0016
 7653SOL    HW134595   4.382   3.908   3.498 -1.0292  0.9559  0.0544
 7653SOL    HW234596   4.369   3.782   3.566 -1.6327 -1.3417 -3.2621
 7654SOL     OW34597   1.636   3.675   2.811 -0.4954  0.0659  0.6463
 7654SOL    HW134598   1.694   3.725   2.754  1.7595 -2.2906  0.8923
 7654SOL    HW234599   1.689   3.599   2.836 -0.7594  0.6226  2.8956
 7655SOL     OW34600   1.533   1.235   8.030  0.7359  0.1467 -0.6363
 7655SOL    HW134601   1.538   1.330   8.022 -0.4476  0.1848 -0.8847
 7655SOL    HW234602   1.583   1.201   7.956 -0.1038 -0.6762 -0.8213
 7656SOL     OW34603   3.122   2.644  12.779  0.5307 -0.2578  0.5005
 7656SOL    HW134604   3.132   2.661  12.873 -0.9033  0.7068  0.4659
 7656SOL    HW234605   3.212   2.641  12.746  0.2670 -1.6190 -0.0816
 7657SOL     OW34606   3.380   0.179  10.935  0.2123  0.0890  0.6322
 7657SOL    HW134607   3.377   0.105  10.873  0.4265 -2.2587  3.4306
 7657SOL    HW234608   3.290   0.199  10.959  0.3889  0.9784  0.5578
 7658SOL     OW34609   4.015   4.360  12.818 -0.6080  0.0542  0.5497
 7658SOL    HW134610   4.084   4.297  12.800 -0.8129  0.2794 -1.0148
 7658SOL    HW234611   3.939   4.302  12.817 -1.8965  1.7589 -0.3685
 7659SOL     OW34612   2.113   0.684   6.376 -0.3153  0.1838 -0.2616
 7659SOL    HW134613   2.158   0.769   6.377 -2.2325  1.1633  0.9448
 7659SOL    HW234614   2.177   0.631   6.328  1.8305  1.7306  0.8936
 7660SOL     OW34615   1.602   2.603   0.661 -0.2690 -0.1618 -0.0129
 7660SOL    HW134616   1.671   2.649   0.615  0.1986 -0.1007  0.7549
 7660SOL    HW234617   1.524   2.614   0.605  0.0288  2.9594  0.1950
 7661SOL     OW34618   3.880   2.307   3.734 -0.4905  0.4290 -0.2270
 7661SOL    HW134619   3.870   2.397   3.700  1.7508  1.3360  1.5334
 7661SOL    HW234620   3.795   2.270   3.709 -1.5152  2.1168  0.7064
 7662SOL     OW34621   3.174   4.355   3.599  0.1355 -0.1258  0.0121
 7662SOL    HW134622   3.268   4.357   3.579  0.4273 -2.4002  1.1184
 7662SOL    HW234623   3.167   4.308   3.683  3.7957  1.1685  1.0505
 7663SOL     OW34624   0.228   0.090   6.338 -0.7776 -0.3432  0.7392
 7663SOL    HW134625   0.186   0.005   6.332 -0.2476 -0.6138  0.9056
 7663SOL    HW234626   0.152   0.140   6.368  0.4329  1.2898  1.0974
 7664SOL     OW34627   4.096   3.790   3.318 -0.3258 -0.3662 -0.3985
 7664SOL    HW134628   4.117   3.707   3.362 -2.0083 -0.0988  0.8803
 7664SOL    HW234629   4.059   3.838   3.392 -1.6918 -0.0670 -1.2864
 7665SOL     OW34630   3.028   1.819  13.504  0.2270 -0.6276 -0.3481
 7665SOL    HW134631   3.074   1.894  13.466 -0.8148  0.5801  0.7450
 7665SOL    HW234632   3.079   1.789  13.580 -0.2359  1.3474  0.7651
 7666SOL     OW34633   2.473   4.262  11.643  0.1000 -0.2265  0.0975
 7666SOL    HW134634   2.419   4.292  11.569  0.3478  0.8888  0.3714
 7666SOL    HW234635   2.467   4.335  11.705  0.0021 -0.1565  0.0075
 7667SOL     OW34636   2.838   0.603  13.240 -0.3545 -0.5339  0.0368
 7667SOL    HW134637   2.846   0.666  13.312 -0.3632 -1.8646  1.2188
 7667SOL    HW234638   2.887   0.524  13.265  0.3197 -0.3313 -0.6709
 7668SOL     OW34639   1.080   3.794   7.781 -0.1912 -0.2905 -0.2385
 7668SOL    HW134640   0.991   3.773   7.754  0.7680 -0.7413 -2.9830
 7668SOL    HW234641   1.137   3.764   7.710 -0.4503  0.0048 -0.5680
 7669SOL     OW34642   2.886   3.016   8.647 -0.1959  0.2194 -0.6481
 7669SOL    HW134643   2.890   2.939   8.703 -0.2989  1.0244  0.4677
 7669SOL    HW234644   2.792   3.033   8.653 -0.1033  0.3553  0.4772
 7670SOL     OW34645   4.235   2.501   9.827  0.5063 -0.0207 -0.1248
 7670SOL    HW134646   4.249   2.419   9.780  2.1522 -1.2642  2.5375
 7670SOL    HW234647   4.255   2.566   9.761 -0.3597 -0.3272 -0.6873
 7671SOL     OW34648   4.551   0.376   9.600  0.3307  0.1282 -0.4665
 7671SOL    HW134649   4.498   0.301   9.571  0.2103 -0.3027  0.8898
 7671SOL    HW234650   4.638   0.339   9.587 -0.5862 -2.3857  0.5163
 7672SOL     OW34651   0.293   2.470  14.543  0.1708 -0.0664  0.3173
 7672SOL    HW134652   0.201   2.486  14.564 -0.6652 -1.5776 -2.1926
 7672SOL    HW234653   0.320   2.542  14.485 -0.9221 -0.1736 -0.3226
 7673SOL     OW34654   2.721   3.473  11.781  0.3283 -0.2618  0.1896
 7673SOL    HW134655   2.787   3.538  11.805 -0.9949  1.3992 -0.6372
 7673SOL    HW234656   2.727   3.412  11.854  0.0328 -0.6478 -0.1021
 7674SOL     OW34657   0.609   3.947   6.192 -0.1654 -0.2404 -0.2994
 7674SOL    HW134658   0.556   3.915   6.265  2.0608 -0.9301  1.0157
 7674SOL    HW234659   0.694   3.927   6.231  0.4180  2.7529 -0.0888
 7675SOL     OW34660   1.836   4.132   5.797 -0.1700  0.2585 -0.0902
 7675SOL    HW134661   1.818   4.135   5.891 -0.4101 -0.0845 -0.1238
 7675SOL    HW234662   1.748   4.158   5.771 -0.2083  0.3890  0.1659
 7676SOL     OW34663   4.154   2.008  10.005  0.2516  0.5103 -0.3322
 7676SOL    HW134664   4.108   2.070  10.061 -0.6673  0.3485 -0.9115
 7676SOL    HW234665   4.165   1.936  10.066  0.5212  0.4075 -0.5015
 7677SOL     OW34666   2.767   4.044  16.544 -0.1355 -0.5574  0.6246
 7677SOL    HW134667   2.710   4.080  16.612 -0.2677  1.5375 -0.5920
 7677SOL    HW234668   2.794   4.118  16.490  1.9533 -0.6450  1.5413
 7678SOL     OW34669   4.041   3.094  11.966 -0.4209 -0.2217  0.2413
 7678SOL    HW134670   4.003   3.036  11.900 -1.6035 -1.3768  1.9493
 7678SOL    HW234671   3.968   3.151  11.990 -0.0042  0.4492 -0.1019
 7679SOL     OW34672   2.576   3.275   3.769 -0.4093 -0.0397  0.3842
 7679SOL    HW134673   2.576   3.338   3.841  2.2128 -0.9008  1.1590
 7679SOL    HW234674   2.606   3.318   3.689 -3.1296  1.5520  0.2171
 7680SOL     OW34675   2.910   0.444   7.411  0.3722 -0.3587 -0.3417
 7680SOL    HW134676   2.835   0.385   7.416 -0.4389  0.8886  2.0815
 7680SOL    HW234677   2.973   0.377   7.438 -1.2522 -2.0143 -0.6471
 7681SOL     OW34678   2.840   0.996  15.143 -0.0307  0.5256 -0.6885
 7681SOL    HW134679   2.909   1.020  15.081  0.1493  1.4767 -0.1268
 7681SOL    HW234680   2.759   0.999  15.093 -0.9119 -0.6194  0.6431
 7682SOL     OW34681   0.999   0.564   9.789 -0.1314  0.5354  0.5394
 7682SOL    HW134682   1.021   0.645   9.834  0.0761  0.7388  0.0823
 7682SOL    HW234683   0.915   0.588   9.750  0.5070  0.9956 -0.5755
 7683SOL     OW34684   2.865   1.305   5.721  0.2889 -0.6046 -0.0790
 7683SOL    HW134685   2.859   1.400   5.719  1.2662 -0.5356  0.4176
 7683SOL    HW234686   2.919   1.277   5.647 -0.8097 -2.2851 -0.2511
 7684SOL     OW34687   1.948   1.328  12.832 -0.0596 -0.1192 -0.0864
 7684SOL    HW134688   2.009   1.284  12.773 -1.3845 -0.1348 -1.4376
 7684SOL    HW234689   1.895   1.253  12.860 -0.5972  0.8805  1.5382
 7685SOL     OW34690   1.579   4.463   2.699  0.5078  0.8581  0.0909
 7685SOL    HW134691   1.615   4.416   2.774  0.5906  1.2417  0.2929
 7685SOL    HW234692   1.581   4.396   2.631  0.0432 -1.3965  2.2935
 7686SOL     OW34693   0.909   1.882   9.575 -0.0753  0.1040 -0.6606
 7686SOL    HW134694   0.850   1.828   9.627  1.6012 -1.1190 -0.0122
 7686SOL    HW234695   0.986   1.826   9.578 -0.5779 -0.6299 -1.6075
 7687SOL     OW34696   3.108   0.630  12.242  0.5581  0.3660 -0.0215
 7687SOL    HW134697   3.149   0.704  12.286 -0.8017  1.6307 -0.8624
 7687SOL    HW234698   3.152   0.551  12.275  0.3047 -0.7082 -2.2098
 7688SOL     OW34699   3.832   2.995   8.292  0.4520  0.0446 -0.0900
 7688SOL    HW134700   3.870   3.068   8.341 -0.1398  0.0252  0.4010
 7688SOL    HW234701   3.840   2.922   8.354 -0.6191 -1.1880 -1.3917
 7689SOL     OW34702   1.372   4.161   3.291 -0.5377  0.6949 -0.3228
 7689SOL    HW134703   1.398   4.072   3.266  1.2057  0.3877  2.5378
 7689SOL    HW234704   1.434   4.190   3.359 -0.1618 -1.4854  0.2502
 7690SOL     OW34705   1.106   1.151   7.490  0.3893  0.1239 -0.4689
 7690SOL    HW134706   1.200   1.136   7.496 -0.1993 -3.1478  0.5384
 7690SOL    HW234707   1.079   1.153   7.581 -0.5718 -1.8323 -0.7236
 7691SOL     OW34708   1.538   2.562  11.360 -0.4037 -0.2232 -0.5542
 7691SOL    HW134709   1.458   2.611  11.380  0.5982  0.9635  0.5454
 7691SOL    HW234710   1.589   2.632  11.321 -0.0332 -0.6345 -0.8013
 7692SOL     OW34711   1.508   1.219  15.661  0.2559  0.0956  0.5010
 7692SOL    HW134712   1.509   1.262  15.576 -0.2144 -0.7409  0.0774
 7692SOL    HW234713   1.603   1.215  15.674  0.4414 -2.8940 -1.7139
 7693SOL     OW34714   2.390   4.262  14.524 -0.8307 -0.1051  0.4161
 7693SOL    HW134715   2.351   4.346  14.550  1.4699  0.7018  1.2986
 7693SOL    HW234716   2.396   4.270  14.428 -1.9001  0.7121  0.4158
 7694SOL     OW34717   2.535   4.356   7.260 -0.0545  0.1773 -0.0890
 7694SOL    HW134718   2.470   4.285   7.256  0.1938 -0.1588  1.8021
 7694SOL    HW234719   2.584   4.334   7.340 -0.2847  0.5288  0.1499
 7695SOL     OW34720   3.075   1.284   2.165  0.4067  0.2474 -0.9461
 7695SOL    HW134721   3.024   1.258   2.088  1.7616  1.5835 -2.3155
 7695SOL    HW234722   3.041   1.369   2.194  0.2465  0.4583 -1.7232
 7696SOL     OW34723   3.429   0.777   3.486 -0.1356 -0.1520  0.2103
 7696SOL    HW134724   3.510   0.726   3.495 -0.2210 -0.2760  0.2768
 7696SOL    HW234725   3.466   0.841   3.426 -0.0132 -1.0793 -0.7051
 7697SOL     OW34726   3.004   4.245   3.429 -0.3353 -0.3200 -0.0627
 7697SOL    HW134727   3.053   4.291   3.496 -0.2446 -0.9323  0.2918
 7697SOL    HW234728   3.051   4.286   3.356 -0.5471 -2.2926 -1.3173
 7698SOL     OW34729   1.878   1.368   1.549 -0.0972 -0.2422  0.0257
 7698SOL    HW134730   1.804   1.310   1.532  0.2224 -0.6097 -0.1179
 7698SOL    HW234731   1.956   1.319   1.522 -0.2834 -0.1439 -0.6937
 7699SOL     OW34732   2.565   3.099   8.325  0.0526 -0.1116 -0.0905
 7699SOL    HW134733   2.590   3.082   8.415 -0.8580  0.9076  0.3521
 7699SOL    HW234734   2.569   3.195   8.324 -0.4648 -0.0831  0.4143
 7700SOL     OW34735   4.251   4.145   2.459 -0.4196  0.6669 -0.6213
 7700SOL    HW134736   4.327   4.093   2.432 -1.5380 -1.5240  0.4027
 7700SOL    HW234737   4.184   4.116   2.397 -0.1218  0.0237 -0.6401
 7701SOL     OW34738   0.794   0.806  17.192  0.5035  0.4615 -0.3605
 7701SOL    HW134739   0.858   0.847  17.251  0.0731  0.6445 -0.0193
 7701SOL    HW234740   0.853   0.761  17.131 -0.7430  1.0756 -2.0106
 7702SOL     OW34741   3.110   3.703   3.149 -0.1911  0.1149  0.3309
 7702SOL    HW134742   3.095   3.797   3.155  0.9750  0.3029  0.2673
 7702SOL    HW234743   3.186   3.681   3.203  0.1602 -0.3974 -0.3751
 7703SOL     OW34744   1.575   4.021   3.407  0.2984 -0.2951  0.0901
 7703SOL    HW134745   1.508   3.959   3.433  0.8738 -1.6746 -1.6729
 7703SOL    HW234746   1.598   4.071   3.485  0.6809  0.6400 -0.6229
 7704SOL     OW34747   1.050   0.422   2.405  0.1614 -0.4775  0.2603
 7704SOL    HW134748   1.099   0.433   2.487  2.3990  0.5120 -1.1908
 7704SOL    HW234749   1.018   0.333   2.410 -0.7985 -0.1602 -0.3555
 7705SOL     OW34750   0.168   3.442   9.447  0.5330 -0.3123  0.5148
 7705SOL    HW134751   0.216   3.363   9.423 -0.4722 -1.0916  1.0948
 7705SOL    HW234752   0.080   3.420   9.418  0.5399  1.4656 -0.8749
 7706SOL     OW34753   1.396   2.512   4.686 -0.0959 -0.1786 -0.1280
 7706SOL    HW134754   1.354   2.469   4.612 -0.0166 -1.3930  0.5179
 7706SOL    HW234755   1.481   2.545   4.657 -0.5322 -0.4116 -1.6573
 7707SOL     OW34756   2.279   1.566   1.990 -0.0253  0.1358  0.5090
 7707SOL    HW134757   2.275   1.484   1.941 -1.0180  0.1065  0.6326
 7707SOL    HW234758   2.276   1.628   1.916 -0.7937  0.2289  0.6216
 7708SOL     OW34759   3.657   0.610   8.881 -0.0879  0.2163 -0.4002
 7708SOL    HW134760   3.590   0.604   8.948 -0.2465  0.6419 -0.5204
 7708SOL    HW234761   3.662   0.520   8.850  0.8167  0.3905 -0.7627
 7709SOL     OW34762   4.708   4.224  11.461  0.5638 -0.0703  0.2353
 7709SOL    HW134763   4.727   4.141  11.417  1.1254  0.2942 -0.2056
 7709SOL    HW234764   4.619   4.205  11.488  0.1077  0.3954 -0.9202
 7710SOL     OW34765   2.612   0.413   5.380 -0.6130 -0.4773  0.2221
 7710SOL    HW134766   2.579   0.492   5.422 -1.8451  0.0850 -1.8482
 7710SOL    HW234767   2.637   0.453   5.297 -2.6072  1.2321  0.4728
 7711SOL     OW34768   3.578   4.231   8.975  0.3804  0.4029  0.2174
 7711SOL    HW134769   3.548   4.290   9.044  1.9623 -2.1236  3.0941
 7711SOL    HW234770   3.657   4.191   9.011  0.0924  0.7255  1.1994
 7712SOL     OW34771   3.732   1.880   6.405 -0.2365  0.0616 -0.5422
 7712SOL    HW134772   3.676   1.852   6.478  0.4909  0.3096  0.1218
 7712SOL    HW234773   3.679   1.948   6.364  2.2760  3.5811  1.9310
 7713SOL     OW34774   1.348   1.973   6.887  0.2434 -0.8155 -0.7376
 7713SOL    HW134775   1.377   1.950   6.799  0.8736 -0.3377 -0.6467
 7713SOL    HW234776   1.308   1.894   6.924 -3.9445  0.1270 -3.1962
 7714SOL     OW34777   0.653   2.939   4.958  0.6113  0.1839 -0.4179
 7714SOL    HW134778   0.738   2.896   4.958  0.0628 -0.9021  0.2366
 7714SOL    HW234779   0.634   2.934   4.864  0.7007 -0.6904 -0.3916
 7715SOL     OW34780   3.844   3.392   4.799 -0.2707 -0.0879 -0.2915
 7715SOL    HW134781   3.901   3.340   4.856 -1.6195 -2.4390 -1.1038
 7715SOL    HW234782   3.760   3.367   4.837 -0.1308 -1.4900 -0.9229
 7716SOL     OW34783   4.064   2.061   9.277 -0.6391  0.1486 -0.2478
 7716SOL    HW134784   4.147   2.026   9.309 -1.0448  0.8532  1.6127
 7716SOL    HW234785   4.089   2.115   9.202  0.6074 -0.2922 -0.1426
 7717SOL     OW34786   1.589   2.678   6.440 -0.4739  0.1195 -0.2791
 7717SOL    HW134787   1.550   2.592   6.456 -0.8285  0.1525 -0.9720
 7717SOL    HW234788   1.667   2.658   6.387 -1.4425 -1.2767 -1.1597
 7718SOL     OW34789   1.258   3.812   5.481 -0.0618 -0.1794 -0.2961
 7718SOL    HW134790   1.219   3.898   5.497 -0.9306 -0.7018  0.3819
 7718SOL    HW234791   1.179   3.758   5.476 -0.6432  0.7213 -0.7984
 7719SOL     OW34792   3.056   1.558   8.422  0.0678  0.1231 -0.2437
 7719SOL    HW134793   2.998   1.515   8.359 -2.5314  1.7706  0.9969
 7719SOL    HW234794   2.991   1.581   8.488  1.5009  1.3075  0.7516
 7720SOL     OW34795   0.464   3.354   3.724  0.7272  0.7422 -0.1070
 7720SOL    HW134796   0.376   3.390   3.716  1.2918  1.3071 -3.7485
 7720SOL    HW234797   0.444   3.261   3.738  2.9839  0.5608  1.8750
 7721SOL     OW34798   1.449   4.276   7.914  0.5743  0.0804 -0.3596
 7721SOL    HW134799   1.510   4.203   7.926 -1.5131 -1.8243 -1.3593
 7721SOL    HW234800   1.375   4.239   7.963  1.3419 -0.3331  0.4898
 7722SOL     OW34801   4.422   2.009   5.096  0.8319  0.3567  0.5424
 7722SOL    HW134802   4.458   1.991   5.183  2.6653  0.4758 -0.2026
 7722SOL    HW234803   4.475   2.081   5.062  0.7389  0.6371  0.9830
 7723SOL     OW34804   1.513   0.695   3.130  0.3066  0.0609 -0.3078
 7723SOL    HW134805   1.488   0.619   3.078 -1.8724  0.9826 -0.6443
 7723SOL    HW234806   1.560   0.654   3.202  1.3674  0.9421 -0.5014
 7724SOL     OW34807   3.194   2.832   2.219  0.4616  0.3590 -0.2969
 7724SOL    HW134808   3.197   2.737   2.209 -1.2486  0.0436  2.2816
 7724SOL    HW234809   3.157   2.842   2.306  0.1618 -0.4501 -0.3384
 7725SOL     OW34810   1.415   1.797   0.722  0.0870  0.0609 -0.3988
 7725SOL    HW134811   1.351   1.797   0.793  1.7857  0.1635  1.1303
 7725SOL    HW234812   1.476   1.861   0.759  0.2286 -0.1166 -0.3252
 7726SOL     OW34813   0.462   2.016   9.528 -0.1533 -0.2172  0.3306
 7726SOL    HW134814   0.458   2.049   9.618  0.5949 -0.4088  0.4353
 7726SOL    HW234815   0.373   1.994   9.499 -0.0562 -0.0133 -0.1302
 7727SOL     OW34816   1.800   1.394  11.013 -0.2030  0.0010 -0.0076
 7727SOL    HW134817   1.789   1.306  11.049  1.3152 -0.2541 -0.1767
 7727SOL    HW234818   1.776   1.445  11.091  0.8233  0.7725 -0.2028
 7728SOL     OW34819   2.867   2.990  15.527  0.5314 -0.2356 -0.7573
 7728SOL    HW134820   2.860   2.926  15.456  2.8307  0.3049 -1.4829
 7728SOL    HW234821   2.889   3.071  15.481 -0.6342 -0.7750 -2.2736
 7729SOL     OW34822   2.127   3.951  13.739  0.0096 -0.2261 -0.3828
 7729SOL    HW134823   2.184   3.875  13.727  0.2623  0.2113 -1.9996
 7729SOL    HW234824   2.068   3.914  13.805  1.1797  2.6235  2.1929
 7730SOL     OW34825   4.227   2.623  12.555  0.0442 -0.1402  0.1781
 7730SOL    HW134826   4.135   2.645  12.544  0.4964  1.9547  0.4303
 7730SOL    HW234827   4.258   2.704  12.597  1.0416 -0.6917  0.4947
 7731SOL     OW34828   1.385   4.019   2.578 -0.4955 -0.6109  0.0022
 7731SOL    HW134829   1.433   3.946   2.539  1.6065 -0.3101  1.9796
 7731SOL    HW234830   1.307   3.979   2.617 -1.3176  1.7005  0.7750
 7732SOL     OW34831   3.854   2.356   2.824 -0.0093 -1.0288  0.1638
 7732SOL    HW134832   3.838   2.262   2.828 -1.2179 -0.8805 -0.8876
 7732SOL    HW234833   3.798   2.373   2.748 -0.0074 -0.3317  0.3125
 7733SOL     OW34834   3.583   1.179   5.598  0.0675 -0.0713 -0.5201
 7733SOL    HW134835   3.577   1.265   5.556 -1.4351 -0.1959 -0.5680
 7733SOL    HW234836   3.491   1.160   5.618 -0.7477  1.8391 -2.4149
 7734SOL     OW34837   0.284   4.524   5.130  0.4811 -0.2452 -0.2249
 7734SOL    HW134838   0.351   4.591   5.119 -0.3899  0.7945  0.7932
 7734SOL    HW234839   0.203   4.575   5.126 -0.2568 -1.6173 -2.7399
 7735SOL     OW34840   1.800   2.463   1.548  0.1552  0.0095 -0.0367
 7735SOL    HW134841   1.838   2.453   1.461  3.1619 -2.2356  1.5428
 7735SOL    HW234842   1.717   2.501   1.518  0.2919  0.5365  0.2447
 7736SOL     OW34843   4.002   1.474   2.702 -0.0775 -0.4317  0.2740
 7736SOL    HW134844   4.057   1.443   2.630 -0.8115  1.5963 -1.1506
 7736SOL    HW234845   3.913   1.456   2.669 -0.4606 -0.3044  1.2590
 7737SOL     OW34846   0.366   1.102  15.999  0.3935  0.3334 -0.5253
 7737SOL    HW134847   0.286   1.132  16.043  1.3328 -1.4659  2.3827
 7737SOL    HW234848   0.356   1.147  15.915 -2.4560  0.8622  0.0861
 7738SOL     OW34849   4.495   1.761  10.316 -0.4793  0.1045 -0.0364
 7738SOL    HW134850   4.579   1.755  10.269  0.5958 -0.8417  2.0119
 7738SOL    HW234851   4.490   1.856  10.319  1.7556  0.1953  1.2102
 7739SOL     OW34852   1.279   2.688  16.168  0.6020 -0.0978 -0.1496
 7739SOL    HW134853   1.195   2.693  16.123  0.3594  0.9407  0.4042
 7739SOL    HW234854   1.255   2.642  16.249 -1.3153  1.1431 -0.0250
 7740SOL     OW34855   2.234   0.022   7.342 -0.3672 -1.0883  0.0590
 7740SOL    HW134856   2.251   4.718   7.426  0.6153  1.2167  1.0072
 7740SOL    HW234857   2.265   4.678   7.302  0.6444 -0.7875  0.2308
 7741SOL     OW34858   0.952   0.200   0.105 -0.0021  0.1267 -0.6082
 7741SOL    HW134859   0.976   0.289   0.079 -0.6079  0.6134  0.5263
 7741SOL    HW234860   1.003   0.147   0.043  0.3649  0.7115 -0.8071
 7742SOL     OW34861   3.911   3.404   7.957  0.3022  0.7928  0.8184
 7742SOL    HW134862   3.960   3.350   8.020  0.0606  1.0472  1.2263
 7742SOL    HW234863   3.819   3.379   7.962  0.3735  0.4424  0.3853
 7743SOL     OW34864   4.288   0.313   8.391 -0.2268  0.2671  0.3505
 7743SOL    HW134865   4.277   0.341   8.301 -1.1941 -0.2240  0.3107
 7743SOL    HW234866   4.250   0.383   8.445 -1.4553 -0.4072  0.3497
 7744SOL     OW34867   4.500   2.970   3.953 -0.4789 -0.1973 -0.0020
 7744SOL    HW134868   4.567   2.916   3.910 -1.6078 -1.1428 -0.5715
 7744SOL    HW234869   4.427   2.939   3.900 -2.4883 -1.8874  3.7469
 7745SOL     OW34870   4.318   2.431   8.650  0.7414  0.1707  0.1830
 7745SOL    HW134871   4.315   2.457   8.742 -1.0575 -1.0557  0.4590
 7745SOL    HW234872   4.243   2.376   8.630  1.8301 -0.4935 -2.1378
 7746SOL     OW34873   1.392   4.292   6.556 -0.1690  0.4313  0.3884
 7746SOL    HW134874   1.399   4.362   6.620 -1.9747  0.3461  0.6933
 7746SOL    HW234875   1.433   4.336   6.481  3.0657 -0.3491  1.7281
 7747SOL     OW34876   3.833   2.838   5.709 -0.8944 -0.0965  1.0239
 7747SOL    HW134877   3.775   2.763   5.721 -0.1789 -0.7490  0.3697
 7747SOL    HW234878   3.865   2.842   5.799  1.4329  1.5118  0.0975
 7748SOL     OW34879   2.868   1.051   7.348  0.1229  0.8692  0.0987
 7748SOL    HW134880   2.939   1.001   7.389 -1.1364 -0.8708  0.1739
 7748SOL    HW234881   2.917   1.089   7.275  1.9805 -1.2862  0.1996
 7749SOL     OW34882   4.241   2.647   9.063 -0.0921  0.0267 -0.2926
 7749SOL    HW134883   4.256   2.731   9.020 -0.6333 -0.7825 -2.0406
 7749SOL    HW234884   4.196   2.669   9.145  1.1422  3.2964 -0.4928
 7750SOL     OW34885   1.259   1.664   6.555 -0.2334  0.3761  0.1920
 7750SOL    HW134886   1.337   1.682   6.608  0.2802  0.1708 -0.5011
 7750SOL    HW234887   1.194   1.692   6.620  0.7076  1.3417  0.7171
 7751SOL     OW34888   2.329   3.229   2.098 -0.0147 -0.4767 -0.3228
 7751SOL    HW134889   2.352   3.164   2.165 -1.3170 -0.9133 -0.2881
 7751SOL    HW234890   2.401   3.220   2.036  1.6795 -0.1832  1.6045
 7752SOL     OW34891   2.942   1.515   5.494  0.5083 -1.0047  0.1677
 7752SOL    HW134892   2.967   1.592   5.443 -0.0485 -1.2650 -0.4892
 7752SOL    HW234893   3.020   1.491   5.545 -0.6036 -1.7568  1.5321
 7753SOL     OW34894   1.326   1.946   4.943  0.0597  0.5759 -0.0229
 7753SOL    HW134895   1.303   1.951   4.850  2.6313  2.2711 -0.5650
 7753SOL    HW234896   1.381   2.023   4.962 -1.1688  0.5841  3.5964
 7754SOL     OW34897   1.813   3.879   5.197 -0.5427 -0.6572 -0.0566
 7754SOL    HW134898   1.770   3.814   5.141 -2.8003  1.2770 -0.5899
 7754SOL    HW234899   1.771   3.955   5.157 -1.7270 -0.8387  0.8116
 7755SOL     OW34900   2.802   2.842   7.246  0.1157  0.4072 -0.2971
 7755SOL    HW134901   2.839   2.858   7.333  0.3720 -0.6335 -0.2151
 7755SOL    HW234902   2.822   2.923   7.199 -3.4801  1.2277 -0.4192
 7756SOL     OW34903   4.685   2.216   4.077  0.4176 -0.8238 -0.2737
 7756SOL    HW134904   4.701   2.172   4.160 -1.7379 -0.4739  0.3466
 7756SOL    HW234905   0.018   2.279   4.065 -1.6146  1.8286  1.7852
 7757SOL     OW34906   1.193   4.239   8.843  0.1242  0.1734  0.2651
 7757SOL    HW134907   1.183   4.168   8.907  1.2819  2.0161  2.4620
 7757SOL    HW234908   1.140   4.214   8.767  0.1002  1.0634 -0.0069
 7758SOL     OW34909   4.600   2.291   6.208  0.0394  0.0897 -0.3422
 7758SOL    HW134910   4.630   2.200   6.200 -1.2992 -0.4992  1.4169
 7758SOL    HW234911   4.586   2.332   6.122  0.0411  0.8816  0.0420
 7759SOL     OW34912   2.293   4.272   7.030 -0.2751 -0.2153 -0.4651
 7759SOL    HW134913   2.352   4.346   7.016  2.1745 -1.4132  3.4179
 7759SOL    HW234914   2.361   4.204   7.022 -0.9357 -0.4913 -3.9334
 7760SOL     OW34915   0.974   2.083  17.451 -0.3495 -0.2213  0.2765
 7760SOL    HW134916   0.909   2.130  17.503 -0.6816 -0.1201 -0.2294
 7760SOL    HW234917   1.045   2.147  17.457 -2.8874  2.8065 -1.7281
 7761SOL     OW34918   3.189   4.141   0.509  0.2726 -0.0475 -0.5857
 7761SOL    HW134919   3.269   4.148   0.561 -0.0523 -1.4317  0.1294
 7761SOL    HW234920   3.194   4.049   0.481  0.5877  0.0700 -0.9212
 7762SOL     OW34921   1.284   1.661   6.991 -0.1401 -0.2530 -0.3598
 7762SOL    HW134922   1.214   1.690   6.933  1.1163 -1.1889 -2.3095
 7762SOL    HW234923   1.257   1.711   7.068  0.5598 -0.1043 -0.2181
 7763SOL     OW34924   4.025   2.145   4.728  0.3722 -0.2650  0.4444
 7763SOL    HW134925   4.098   2.123   4.785 -0.1326 -2.6391  0.1664
 7763SOL    HW234926   3.983   2.208   4.787 -1.3345 -2.7297  1.8900
 7764SOL     OW34927   2.750   3.489   6.698  0.4880  0.0680 -0.3266
 7764SOL    HW134928   2.765   3.517   6.608  0.6435 -0.6060 -0.5096
 7764SOL    HW234929   2.812   3.552   6.735  0.0241  0.0565  0.4526
 7765SOL     OW34930   3.575   3.772   6.750  0.7457 -0.0046  0.3707
 7765SOL    HW134931   3.562   3.758   6.657 -0.2720  0.3798  0.4518
 7765SOL    HW234932   3.616   3.858   6.742  0.7578 -0.1889 -1.4947
 7766SOL     OW34933   0.751   0.639   9.688 -0.6627 -0.0171 -0.4145
 7766SOL    HW134934   0.686   0.701   9.721  1.0999  1.3393  0.5710
 7766SOL    HW234935   0.798   0.699   9.630  0.5736 -1.6851 -1.1270
 7767SOL     OW34936   3.092   1.230  13.294 -0.6552 -0.1772 -0.1789
 7767SOL    HW134937   3.065   1.307  13.345 -3.5225 -2.4524  1.7285
 7767SOL    HW234938   3.109   1.262  13.205 -1.3122 -0.0625 -0.2663
 7768SOL     OW34939   4.078   4.512  13.449  0.2752 -0.3864  0.1325
 7768SOL    HW134940   4.063   4.437  13.506  1.3783  0.6262  1.7679
 7768SOL    HW234941   4.172   4.500  13.433  0.6920  0.4691  1.8839
 7769SOL     OW34942   2.423   0.610   5.526  0.1817  0.7836 -0.1429
 7769SOL    HW134943   2.398   0.530   5.572  0.1105  2.2911  2.3945
 7769SOL    HW234944   2.360   0.624   5.455 -0.1741  1.8091  0.3746
 7770SOL     OW34945   2.885   2.706  14.860  0.7512  0.1430 -0.4489
 7770SOL    HW134946   2.856   2.638  14.921 -1.9892  0.0674 -1.8647
 7770SOL    HW234947   2.801   2.724  14.819  1.6650  1.7960 -1.6322
 7771SOL     OW34948   0.669   3.618   0.316 -0.7405  0.1570 -0.1214
 7771SOL    HW134949   0.638   3.699   0.276 -0.7129 -0.7042 -1.8775
 7771SOL    HW234950   0.735   3.650   0.377  0.4424  1.5155 -2.1347
 7772SOL     OW34951   3.937   4.537   6.157 -0.3171  0.2006  0.8495
 7772SOL    HW134952   4.023   4.497   6.145 -1.0672 -0.7070 -1.4823
 7772SOL    HW234953   3.913   4.478   6.229 -3.1673  0.6330  0.2754
 7773SOL     OW34954   0.492   4.606   4.760  0.0673  0.1553  0.0836
 7773SOL    HW134955   0.412   4.554   4.754  0.8177 -1.2119  2.2107
 7773SOL    HW234956   0.512   4.632   4.670 -1.8694 -2.0811 -0.9817
 7774SOL     OW34957   0.705   0.409   6.564 -0.6540 -0.0453 -0.1453
 7774SOL    HW134958   0.761   0.344   6.521  0.1089  1.4638 -1.4365
 7774SOL    HW234959   0.619   0.384   6.529 -0.2538 -1.8761  0.1662
 7775SOL     OW34960   0.189   1.127   0.544  0.5399  0.7171 -0.4685
 7775SOL    HW134961   0.146   1.106   0.628 -0.5954  0.4698 -1.1106
 7775SOL    HW234962   0.207   1.038   0.516 -2.4290  0.7683 -2.5116
 7776SOL     OW34963   0.665   1.013   8.716 -0.8570  0.3117  0.1468
 7776SOL    HW134964   0.728   1.050   8.654 -0.0375  0.5403  1.1148
 7776SOL    HW234965   0.647   0.931   8.669 -0.6946 -0.1091  0.8154
 7777SOL     OW34966   4.549   3.912   9.355 -0.2618  0.0244  0.5272
 7777SOL    HW134967   4.591   3.894   9.440  0.6935 -0.1297  0.0284
 7777SOL    HW234968   4.599   3.858   9.294 -0.3400 -0.3912  0.8272
 7778SOL     OW34969   1.373   4.499  17.164  0.1944  0.2460 -0.2167
 7778SOL    HW134970   1.419   4.581  17.145 -0.5663  0.2772 -1.9783
 7778SOL    HW234971   1.282   4.520  17.144  0.3437  1.5813  0.4930
 7779SOL     OW34972   2.555   0.623   7.686  0.5430  0.2181 -0.0590
 7779SOL    HW134973   2.490   0.674   7.735 -0.1688  1.7394 -2.5254
 7779SOL    HW234974   2.635   0.663   7.721  0.6646  0.4641 -0.6124
 7780SOL     OW34975   4.185   0.253   1.516  0.2112 -0.0803 -0.3320
 7780SOL    HW134976   4.267   0.255   1.466 -1.2749 -2.0644 -2.8749
 7780SOL    HW234977   4.135   0.326   1.479 -0.9412 -1.6120 -1.8047
 7781SOL     OW34978   4.631   1.225  16.177  0.0654 -0.1672 -0.1327
 7781SOL    HW134979   4.540   1.194  16.183  0.3283 -1.0500 -0.6798
 7781SOL    HW234980   4.630   1.299  16.238 -3.1296  0.4339 -0.9071
 7782SOL     OW34981   1.181   1.773   9.789  0.3942  0.1262  0.4077
 7782SOL    HW134982   1.177   1.752   9.696 -0.1075 -0.3036  0.5289
 7782SOL    HW234983   1.202   1.688   9.828 -1.1151 -1.3609 -2.0075
 7783SOL     OW34984   3.721   3.972   8.298  0.0794 -0.4636  0.4754
 7783SOL    HW134985   3.758   4.040   8.354 -3.9121  3.9177 -2.2509
 7783SOL    HW234986   3.797   3.925   8.263  1.2620  1.8821 -0.1051
 7784SOL     OW34987   0.030   4.366   2.026 -0.7387 -0.0825 -0.1844
 7784SOL    HW134988   0.049   4.288   1.973 -1.0450 -1.2358  1.4074
 7784SOL    HW234989   0.027   4.434   1.958 -0.5466  0.3631  0.2581
 7785SOL     OW34990   1.138   3.800   0.344  0.3446  0.3433  0.0426
 7785SOL    HW134991   1.092   3.763   0.419 -0.2090  0.3833 -0.2778
 7785SOL    HW234992   1.216   3.746   0.351  0.1215 -0.0658 -0.6255
 7786SOL     OW34993   0.103   3.913  15.044  0.8222  0.1449  0.8653
 7786SOL    HW134994   0.026   3.933  14.991  0.2723  0.2538  1.6908
 7786SOL    HW234995   0.088   3.825  15.078  1.6269 -0.4310 -0.3116
 7787SOL     OW34996   2.296   1.704   3.642  0.1238  0.5169 -0.4652
 7787SOL    HW134997   2.361   1.665   3.584  0.1541  0.4292 -0.3718
 7787SOL    HW234998   2.243   1.626   3.656 -0.5032  0.9083 -0.6213
 7788SOL     OW34999   3.984   1.122   5.075  0.3291  0.2809  0.2259
 7788SOL    HW135000   4.062   1.169   5.102  1.7819 -1.6070 -0.6496
 7788SOL    HW235001   3.958   1.182   5.005 -0.0770  0.9856  0.9809
 7789SOL     OW35002   4.343   2.881   7.940 -0.1138 -0.2312 -0.0735
 7789SOL    HW135003   4.311   2.968   7.915 -0.1920 -0.0882  0.5357
 7789SOL    HW235004   4.395   2.860   7.862  1.0292  1.9717  0.0979
 7790SOL     OW35005   1.161   1.241   6.786  0.6745 -0.2474  0.2035
 7790SOL    HW135006   1.094   1.201   6.842  0.4335  0.4558  0.4190
 7790SOL    HW235007   1.206   1.164   6.750  2.2388  1.7795 -2.2012
 7791SOL     OW35008   2.741   3.549   3.843 -0.2860 -0.0255  0.4717
 7791SOL    HW135009   2.725   3.481   3.908  3.2632  0.1454  1.5446
 7791SOL    HW235010   2.652   3.582   3.831 -0.4137 -1.0948 -1.5109
 7792SOL     OW35011   2.548   2.179   2.921 -0.2140 -0.4804  0.0613
 7792SOL    HW135012   2.596   2.258   2.895 -1.0992  0.2265  0.5409
 7792SOL    HW235013   2.617   2.115   2.940 -1.9726 -2.0436  1.1718
 7793SOL     OW35014   3.890   2.208   4.979 -0.5013  0.1264 -0.1167
 7793SOL    HW135015   3.927   2.236   5.063  0.8468 -0.6343 -0.4567
 7793SOL    HW235016   3.891   2.113   4.993 -0.9625 -0.0083 -0.9719
 7794SOL     OW35017   0.677   4.014  13.936  0.1893  0.2413 -0.5090
 7794SOL    HW135018   0.631   4.076  13.880  0.1739  0.4279 -0.2898
 7794SOL    HW235019   0.748   4.068  13.971 -3.1552  2.0075  3.5081
 7795SOL     OW35020   1.254   4.031  11.324  0.5408  0.5147  0.1772
 7795SOL    HW135021   1.282   3.949  11.282  0.4377  0.4581  0.2186
 7795SOL    HW235022   1.283   4.093  11.257  3.4620 -0.2004  0.8063
 7796SOL     OW35023   0.332   1.607  14.940  0.0536  0.2984  0.0735
 7796SOL    HW135024   0.252   1.646  14.977 -1.1610 -1.5361 -0.6406
 7796SOL    HW235025   0.347   1.535  15.002  1.1618 -1.2343 -1.9971
 7797SOL     OW35026   3.467   0.404  17.493  0.4330 -0.6177 -0.3559
 7797SOL    HW135027   3.412   0.482  17.486  1.7980  0.3266 -0.5874
 7797SOL    HW235028   3.527   0.419  17.420  2.6895 -0.7099  1.4889
 7798SOL     OW35029   3.733   3.794   3.546  1.0300 -0.0580  0.3664
 7798SOL    HW135030   3.817   3.816   3.586  0.9859 -1.9377  1.4637
 7798SOL    HW235031   3.764   3.749   3.467  1.9033 -0.0068  0.6804
 7799SOL     OW35032   3.158   4.430  14.950 -0.2645  0.5126  0.5368
 7799SOL    HW135033   3.165   4.523  14.971  2.0215  0.2912  0.8384
 7799SOL    HW235034   3.251   4.405  14.941 -0.4726 -0.0813  0.0365
 7800SOL     OW35035   3.559   1.006   9.975  0.3669  0.5171  0.1147
 7800SOL    HW135036   3.579   1.023  10.067  2.8894 -1.3213 -0.0807
 7800SOL    HW235037   3.588   1.087   9.933 -1.4333  0.7336 -0.7267
 7801SOL     OW35038   3.450   3.277  15.786 -0.0810 -0.6081  0.0444
 7801SOL    HW135039   3.407   3.195  15.762  2.1335 -0.7571 -3.4597
 7801SOL    HW235040   3.385   3.322  15.840  1.6661  2.0948 -0.0838
 7802SOL     OW35041   2.611   0.496  10.955  0.0549 -0.0619  0.4103
 7802SOL    HW135042   2.687   0.445  10.983  0.7293  1.5428  1.5564
 7802SOL    HW235043   2.634   0.499  10.862  0.8145 -2.0774  0.5371
 7803SOL     OW35044   4.220   1.507   2.295  0.0103  0.4485  0.0189
 7803SOL    HW135045   4.203   1.590   2.339  1.5342  1.3085 -1.0113
 7803SOL    HW235046   4.292   1.532   2.236 -0.0170  0.9163  0.1821
 7804SOL     OW35047   1.376   2.011   4.643 -0.0156 -0.0529  0.3542
 7804SOL    HW135048   1.442   1.942   4.653  1.4359  1.2516 -0.2033
 7804SOL    HW235049   1.394   2.044   4.556 -0.5011 -0.3997  0.1250
 7805SOL     OW35050   2.816   1.542   6.217 -0.0559  0.1964  0.0178
 7805SOL    HW135051   2.754   1.615   6.228 -2.4046 -1.4345 -2.0546
 7805SOL    HW235052   2.777   1.472   6.268  0.3974  1.1075  1.5987
 7806SOL     OW35053   0.461   2.611   3.650  0.1066  0.0400  0.3615
 7806SOL    HW135054   0.382   2.592   3.599  1.1027  0.1180 -1.1794
 7806SOL    HW235055   0.447   2.547   3.720 -2.2821  0.1659  0.0167
 7807SOL     OW35056   3.498   3.023   3.720  0.0098 -0.4451  0.0870
 7807SOL    HW135057   3.421   3.080   3.723  0.2209 -0.1939  0.7500
 7807SOL    HW235058   3.479   2.955   3.784 -0.5984  1.4001  1.8574
 7808SOL     OW35059   4.320   0.492   3.998 -0.2569  0.1219  0.0997
 7808SOL    HW135060   4.334   0.457   4.086  0.4128 -0.0588 -0.0800
 7808SOL    HW235061   4.269   0.427   3.950  1.5840 -0.4761 -1.0652
 7809SOL     OW35062   4.053   3.977  17.422  0.1388  0.7117  0.0552
 7809SOL    HW135063   3.993   3.902  17.418  2.8155 -1.3071 -1.7313
 7809SOL    HW235064   4.005   4.039  17.366  0.7231 -0.1233 -1.3795
 7810SOL     OW35065   0.078   3.180  13.271 -0.0685  0.2166 -0.0278
 7810SOL    HW135066   0.136   3.239  13.321  0.0868  0.8503 -0.9545
 7810SOL    HW235067   0.049   3.117  13.337 -1.0640 -1.3673 -1.9783
 7811SOL     OW35068   4.639   1.134  16.491 -0.3836 -0.3498  0.2461
 7811SOL    HW135069   4.692   1.086  16.428  0.0952 -0.3684  0.6622
 7811SOL    HW235070   4.668   1.223  16.469 -0.6547 -0.2766  0.1873
 7812SOL     OW35071   3.641   2.614   8.359 -0.4160 -0.2712  0.5698
 7812SOL    HW135072   3.664   2.649   8.445  3.8467  0.7294 -0.9839
 7812SOL    HW235073   3.726   2.615   8.316 -0.3550  0.6678  0.7186
 7813SOL     OW35074   2.227   2.960   3.719  0.7686 -0.3753 -0.0906
 7813SOL    HW135075   2.227   3.053   3.743  0.7664 -0.5050  0.4082
 7813SOL    HW235076   2.236   2.928   3.809 -1.4719  0.1254  0.3239
 7814SOL     OW35077   2.288   4.412   5.081 -0.1813  0.9496  0.0814
 7814SOL    HW135078   2.236   4.394   5.003 -0.4329 -1.0737  0.7391
 7814SOL    HW235079   2.374   4.430   5.043 -1.1772  3.1642 -1.1177
 7815SOL     OW35080   3.714   1.093  14.558  0.2024  0.2131  0.6383
 7815SOL    HW135081   3.715   1.175  14.507  1.0255  0.5217  1.1597
 7815SOL    HW235082   3.741   1.027  14.494 -0.7082  0.4448  0.0147
 7816SOL     OW35083   2.673   1.142  17.732 -0.2948 -0.3516  0.3583
 7816SOL    HW135084   2.656   1.048  17.734  0.1919 -0.4405  0.1890
 7816SOL    HW235085   2.631   1.158  17.647 -0.3357 -0.7886  0.2983
 7817SOL     OW35086   3.182   3.611   4.957  0.7239  0.6844  0.4354
 7817SOL    HW135087   3.246   3.658   4.902 -0.5150 -0.3260 -1.8457
 7817SOL    HW235088   3.216   3.627   5.045  1.5698  3.1907 -0.3464
 7818SOL     OW35089   1.026   4.276   1.465  0.1009  0.6282 -0.0551
 7818SOL    HW135090   0.968   4.329   1.519  1.4505  1.3784  0.6697
 7818SOL    HW235091   1.116   4.303   1.486 -0.1351  0.8725  0.6267
 7819SOL     OW35092   1.432   4.110   4.248 -0.0503 -0.0246  0.0916
 7819SOL    HW135093   1.458   4.188   4.297 -0.3474  0.5401 -0.6437
 7819SOL    HW235094   1.355   4.133   4.196 -0.6162 -3.5208 -0.6291
 7820SOL     OW35095   4.390   3.948   5.259  0.1326  0.2896  0.3431
 7820SOL    HW135096   4.371   3.994   5.340  2.4901  0.7927  0.6075
 7820SOL    HW235097   4.477   3.977   5.233 -0.0337 -0.0387 -0.5986
 7821SOL     OW35098   3.427   4.599   3.258  0.2009  0.1905  0.1488
 7821SOL    HW135099   3.434   4.660   3.185  0.7918 -0.9699 -0.7663
 7821SOL    HW235100   3.509   4.614   3.304  0.1874  2.3152 -0.5272
 7822SOL     OW35101   2.580   4.534   2.848  0.0396 -0.1014 -0.6783
 7822SOL    HW135102   2.627   4.493   2.920 -1.2232 -0.2154  0.0725
 7822SOL    HW235103   2.649   4.516   2.785  0.0786  0.9094 -0.9266
 7823SOL     OW35104   3.493   2.865   0.900 -1.0164  0.1748  0.0583
 7823SOL    HW135105   3.571   2.890   0.949 -1.4177 -1.9841  1.7705
 7823SOL    HW235106   3.431   2.853   0.972 -0.3353 -1.3207  0.4000
 7824SOL     OW35107   0.375   2.456   7.770  0.1611 -0.2488  0.1625
 7824SOL    HW135108   0.439   2.433   7.838 -1.8667 -1.3493  1.6891
 7824SOL    HW235109   0.377   2.385   7.706  0.5080 -0.5042  0.4495
 7825SOL     OW35110   0.278   4.184  14.525 -0.3280  0.5046 -0.2857
 7825SOL    HW135111   0.267   4.278  14.510 -2.1607  0.0708 -1.7233
 7825SOL    HW235112   0.373   4.184  14.528 -0.3128 -0.6428 -0.8121
 7826SOL     OW35113   3.958   2.326  11.546 -0.5140  0.2923  0.3068
 7826SOL    HW135114   3.959   2.387  11.472 -0.9768  0.9730  0.8616
 7826SOL    HW235115   4.050   2.321  11.571 -0.2076 -1.0439 -1.0868
 7827SOL     OW35116   2.889   1.859   8.765 -0.1079 -0.1753  0.2820
 7827SOL    HW135117   2.819   1.923   8.754  0.8723  0.7514 -0.5429
 7827SOL    HW235118   2.885   1.803   8.687 -1.1954 -1.8841  1.5742
 7828SOL     OW35119   0.992   3.037   4.972 -0.4757  0.3607 -0.0090
 7828SOL    HW135120   1.034   2.992   4.899  1.1950  1.7847  0.0748
 7828SOL    HW235121   0.950   2.961   5.013  2.3074  0.0170  2.2255
 7829SOL     OW35122   4.473   1.403   4.844  0.6977 -0.0885  0.6613
 7829SOL    HW135123   4.565   1.385   4.824  0.2590  1.1213 -2.4113
 7829SOL    HW235124   4.444   1.316   4.872 -1.5586  1.4031  3.0163
 7830SOL     OW35125   2.002   0.912   6.139 -0.0454  0.0136  0.4707
 7830SOL    HW135126   2.071   0.939   6.078  0.9149  1.5860  2.2761
 7830SOL    HW235127   2.016   0.818   6.152  0.6800  0.0239 -0.2695
 7831SOL     OW35128   0.325   2.210   8.473  0.2511  0.0912 -0.0941
 7831SOL    HW135129   0.303   2.131   8.522  0.5197 -0.0040 -0.1290
 7831SOL    HW235130   0.279   2.185   8.392 -0.9828  1.4387  0.1879
 7832SOL     OW35131   3.378   1.156   8.133  0.0017  0.1962 -0.7306
 7832SOL    HW135132   3.302   1.209   8.109 -2.0858 -1.9256  1.1491
 7832SOL    HW235133   3.439   1.218   8.172  2.2563 -0.8570 -2.6083
 7833SOL     OW35134   1.142   4.071   0.393  0.2735 -0.4102  0.4558
 7833SOL    HW135135   1.150   3.976   0.386 -0.4855 -0.4202 -0.2752
 7833SOL    HW235136   1.230   4.100   0.372  0.3309  0.2333  1.5866
 7834SOL     OW35137   1.796   1.735   3.336  0.8375  0.5969  0.4661
 7834SOL    HW135138   1.889   1.751   3.326  1.0971 -0.0450  1.7891
 7834SOL    HW235139   1.785   1.678   3.260 -0.3806 -0.8292  1.7069
 7835SOL     OW35140   0.749   1.468  16.027 -0.3517 -0.3273  0.0913
 7835SOL    HW135141   0.746   1.432  15.938  1.2484 -1.5182  0.5162
 7835SOL    HW235142   0.674   1.433  16.075  0.3285 -0.6460  0.9220
 7836SOL     OW35143   0.946   1.312   4.685 -0.0580  0.0142  0.1996
 7836SOL    HW135144   0.878   1.374   4.659  0.3397  1.2105  2.0389
 7836SOL    HW235145   0.962   1.260   4.606  1.7112  1.2579 -0.2616
 7837SOL     OW35146   0.631   2.984   9.166  0.0628  0.4106 -0.3126
 7837SOL    HW135147   0.662   2.894   9.153 -1.1319 -0.5218  3.4217
 7837SOL    HW235148   0.539   2.982   9.142  0.6104  1.2226 -2.5162
 7838SOL     OW35149   2.046   4.639  16.386 -0.3274  0.5434  0.1235
 7838SOL    HW135150   2.030   4.679  16.301 -1.8970 -1.2521 -0.4336
 7838SOL    HW235151   2.083   4.713  16.435  1.2630  0.2648 -0.6471
 7839SOL     OW35152   2.377   2.072  17.400 -0.1561  0.1560  0.3828
 7839SOL    HW135153   2.412   2.095  17.486  0.6295  1.9083 -0.4022
 7839SOL    HW235154   2.435   1.997  17.388  0.1887  0.5040 -0.1013
 7840SOL     OW35155   1.087   2.295   8.699  0.1226 -0.3071  0.0149
 7840SOL    HW135156   1.163   2.259   8.653 -1.0597 -2.8139  0.0349
 7840SOL    HW235157   1.011   2.252   8.659 -0.4438 -0.2231  0.9989
 7841SOL     OW35158   0.008   4.445   9.599 -0.1686 -0.1631 -0.3223
 7841SOL    HW135159   0.102   4.432   9.587 -0.0941  1.4548 -1.4698
 7841SOL    HW235160   4.716   4.355   9.593  2.7301 -1.0194 -1.9347
 7842SOL     OW35161   3.881   4.294   8.214  0.3074  0.6871 -0.1870
 7842SOL    HW135162   3.840   4.236   8.278 -1.5628 -0.5162 -2.4699
 7842SOL    HW235163   3.870   4.382   8.249 -1.1514  0.9360 -1.2949
 7843SOL     OW35164   1.435   0.114  16.605 -0.0347  0.8683 -0.4530
 7843SOL    HW135165   1.432   0.160  16.690  0.1975  1.7294 -0.9120
 7843SOL    HW235166   1.530   0.119  16.596  0.0275 -0.8730 -0.7249
 7844SOL     OW35167   3.794   1.433   5.732  0.1361  0.1244 -0.2400
 7844SOL    HW135168   3.882   1.394   5.732 -0.9366 -2.2780 -2.0902
 7844SOL    HW235169   3.806   1.528   5.742  2.1122 -0.1438 -0.0347
 7845SOL     OW35170   2.125   4.477   7.067 -0.6064  0.7058  0.4445
 7845SOL    HW135171   2.183   4.401   7.072  0.4643  1.5464  0.7894
 7845SOL    HW235172   2.184   4.552   7.079  0.0814  0.6310 -2.3109
 7846SOL     OW35173   3.841   4.398   2.367  0.0065  0.0628  0.1525
 7846SOL    HW135174   3.764   4.420   2.315 -0.0148  1.0650  0.6114
 7846SOL    HW235175   3.904   4.377   2.297 -0.9153 -0.8254 -0.4106
 7847SOL     OW35176   2.967   0.562   5.018 -0.0208 -0.2705  0.5651
 7847SOL    HW135177   3.052   0.541   4.980 -0.7708 -0.9977 -0.6985
 7847SOL    HW235178   2.911   0.582   4.943  0.3006 -0.8985  0.1579
 7848SOL     OW35179   1.717   3.177   8.915 -0.1360 -0.0215 -0.0234
 7848SOL    HW135180   1.797   3.174   8.967 -0.2024  2.1271  0.1937
 7848SOL    HW235181   1.745   3.234   8.843  0.4115  1.8326  1.6901
 7849SOL     OW35182   1.382   1.617   3.046 -0.1808  0.1057  0.6932
 7849SOL    HW135183   1.417   1.622   3.136  1.8492 -2.9692  0.0855
 7849SOL    HW235184   1.392   1.711   3.032 -1.0822 -0.2124 -1.9773
 7850SOL     OW35185   3.663   0.877  10.922  0.5502  0.4130  0.1121
 7850SOL    HW135186   3.741   0.825  10.903 -0.2700 -0.0867 -1.8874
 7850SOL    HW235187   3.680   0.896  11.014  1.3328  0.3970 -0.0263
 7851SOL     OW35188   0.897   0.646   4.146  0.5525  0.2446 -0.1193
 7851SOL    HW135189   0.881   0.637   4.240  0.3821  1.7869 -0.0022
 7851SOL    HW235190   0.905   0.559   4.107  0.3623 -0.0086  0.4060
 7852SOL     OW35191   0.936   0.809   9.534  0.6366  0.4482  0.2289
 7852SOL    HW135192   0.994   0.797   9.609 -1.0404 -1.2664  1.2723
 7852SOL    HW235193   1.001   0.816   9.464  1.7931  0.5374  1.3137
 7853SOL     OW35194   0.092   3.712   9.715 -0.4891 -0.3060  0.6639
 7853SOL    HW135195   0.043   3.630   9.705  0.2760 -0.3246 -2.9135
 7853SOL    HW235196   0.015   3.766   9.697 -0.9297 -0.9479  0.6103
 7854SOL     OW35197   0.242   2.000   4.108 -0.4725  0.0605  0.1730
 7854SOL    HW135198   0.171   1.939   4.129  0.0125 -0.0892  1.3589
 7854SOL    HW235199   0.253   1.977   4.015  1.8532  0.3788  0.3623
 7855SOL     OW35200   3.299   3.731  15.451 -0.0343  0.0180 -0.4136
 7855SOL    HW135201   3.289   3.826  15.447  2.3118  0.3295  0.6992
 7855SOL    HW235202   3.361   3.726  15.524  0.2538  2.4774 -0.4720
 7856SOL     OW35203   2.234   2.247   5.439  0.3204 -0.2995 -0.5684
 7856SOL    HW135204   2.215   2.238   5.533 -2.3210 -2.4709 -1.3224
 7856SOL    HW235205   2.194   2.333   5.426  2.0603  0.5000 -0.6290
 7857SOL     OW35206   2.353   3.138   5.566 -0.3199 -0.3651  0.1156
 7857SOL    HW135207   2.320   3.195   5.496 -1.1796 -0.9924  0.0105
 7857SOL    HW235208   2.401   3.068   5.522  0.8081 -1.2772  2.7954
 7858SOL     OW35209   0.109   1.826   6.117  0.0524 -0.5086 -0.0435
 7858SOL    HW135210   0.113   1.732   6.133  0.1641 -0.5554 -0.3313
 7858SOL    HW235211   0.204   1.839   6.118  0.1546 -1.0702 -1.4619
 7859SOL     OW35212   4.330   3.010   0.602 -0.4358 -0.7218 -0.1981
 7859SOL    HW135213   4.424   3.026   0.590 -0.4568 -0.4989 -0.0547
 7859SOL    HW235214   4.286   3.092   0.578 -1.1872 -1.4893 -1.4608
 7860SOL     OW35215   4.222   2.877   8.185  0.6764 -0.0865 -0.3281
 7860SOL    HW135216   4.256   2.953   8.232  0.0937 -0.1642  0.2260
 7860SOL    HW235217   4.279   2.879   8.108  0.2433  0.3630 -0.6375
 7861SOL     OW35218   3.280   4.538   6.298  0.6515 -0.1803  0.6760
 7861SOL    HW135219   3.193   4.513   6.329  0.3669  0.7328  0.6171
 7861SOL    HW235220   3.282   4.626   6.261 -0.1086  0.0823  1.2624
 7862SOL     OW35221   2.052   1.961  14.877 -0.6668  0.3419  0.0269
 7862SOL    HW135222   1.974   1.929  14.832  1.6777  0.5824 -4.1973
 7862SOL    HW235223   2.057   2.056  14.866  3.4861  0.1152 -0.1445
 7863SOL     OW35224   2.525   2.683   9.798  0.4446  0.3084  0.3509
 7863SOL    HW135225   2.532   2.752   9.864 -0.7116  2.2719 -1.5883
 7863SOL    HW235226   2.442   2.703   9.756  0.6793 -0.0498 -0.2850
 7864SOL     OW35227   2.792   1.152   6.579 -0.1359  0.5404 -0.2815
 7864SOL    HW135228   2.874   1.156   6.628 -0.6526 -0.5448  0.6823
 7864SOL    HW235229   2.726   1.152   6.648 -0.5460 -0.9839 -0.6777
 7865SOL     OW35230   2.056   2.327   6.216  0.4860 -0.1949  0.5931
 7865SOL    HW135231   2.143   2.309   6.182 -0.2418 -1.3491 -0.6494
 7865SOL    HW235232   2.076   2.383   6.291 -3.4054  1.4673  0.4216
 7866SOL     OW35233   2.148   4.478  13.331 -0.8099  0.3413 -0.7429
 7866SOL    HW135234   2.136   4.463  13.425 -2.3522 -0.8564 -1.1389
 7866SOL    HW235235   2.065   4.520  13.309 -1.8525  0.2510  2.9938
 7867SOL     OW35236   4.294   0.021   5.106 -0.1957  0.4739  0.3841
 7867SOL    HW135237   4.268   0.037   5.016 -0.3065 -1.4376  0.0806
 7867SOL    HW235238   4.359   0.088   5.124  0.9936 -0.7269  0.5263
 7868SOL     OW35239   0.910   3.187   0.222 -0.5573  0.0286  0.5639
 7868SOL    HW135240   0.912   3.283   0.222 -0.3854  0.0261 -0.5404
 7868SOL    HW235241   0.839   3.162   0.163 -0.1724 -0.7983  0.4596
 7869SOL     OW35242   4.664   2.460   5.100  0.2287  0.9805 -0.0336
 7869SOL    HW135243   4.670   2.550   5.068  1.0366  1.1364  0.5667
 7869SOL    HW235244   0.020   2.441   5.098 -0.0118 -0.3476  1.0564
 7870SOL     OW35245   1.605   4.425   2.219 -0.5473 -0.0180 -0.2467
 7870SOL    HW135246   1.536   4.479   2.183  0.0412  1.4025  0.7442
 7870SOL    HW235247   1.651   4.484   2.279  1.1721 -1.6418  0.0556
 7871SOL     OW35248   2.453   0.953   1.131  0.3075  0.0294  0.0185
 7871SOL    HW135249   2.396   0.955   1.208 -1.0787  0.0349 -1.0005
 7871SOL    HW235250   2.397   0.914   1.063  1.2760 -2.0557  0.4272
 7872SOL     OW35251   0.929   0.256   8.011 -0.0833  0.0744  0.3617
 7872SOL    HW135252   0.995   0.302   7.960  0.0901 -0.8650 -0.2521
 7872SOL    HW235253   0.864   0.230   7.945 -1.9990  1.7105  1.5894
 7873SOL     OW35254   4.169   2.373   4.936 -0.4044 -0.8299  0.2804
 7873SOL    HW135255   4.084   2.417   4.930  0.5589  0.8423 -1.2113
 7873SOL    HW235256   4.205   2.402   5.020 -0.6114 -0.4454  0.2353
 7874SOL     OW35257   4.420   2.515  14.125  0.0209  0.1198  0.0825
 7874SOL    HW135258   4.338   2.520  14.076  0.4790 -0.5078 -0.7503
 7874SOL    HW235259   4.472   2.449  14.080  2.5613  2.2325 -0.0696
 7875SOL     OW35260   1.808   0.184   2.591 -0.9235 -0.3012 -0.5306
 7875SOL    HW135261   1.723   0.185   2.635  0.0072 -4.9263  1.4499
 7875SOL    HW235262   1.789   0.259   2.535  0.6557  0.6353  0.1932
 7876SOL     OW35263   4.542   2.847   7.751  0.5421 -0.0645 -0.3364
 7876SOL    HW135264   4.627   2.804   7.742  2.0634  3.1554 -0.9240
 7876SOL    HW235265   4.495   2.812   7.676  0.4417  3.2510 -1.8078
 7877SOL     OW35266   2.668   1.144   5.613  0.0630 -0.3112  0.2750
 7877SOL    HW135267   2.580   1.170   5.641  0.0290  0.9108 -0.9605
 7877SOL    HW235268   2.719   1.203   5.669 -0.0998 -0.3355  0.4471
 7878SOL     OW35269   0.382   0.298   2.345 -0.1014  0.2714  0.5686
 7878SOL    HW135270   0.444   0.366   2.371 -0.7328  1.1658 -0.2640
 7878SOL    HW235271   0.324   0.349   2.289 -1.9646 -2.3973  0.0460
 7879SOL     OW35272   2.423   1.229   5.716 -0.4696  0.2233 -0.1202
 7879SOL    HW135273   2.445   1.314   5.753 -2.2584  1.6986 -2.4586
 7879SOL    HW235274   2.355   1.194   5.775  0.6651  0.1097  1.1216
 7880SOL     OW35275   0.989   4.038   3.751 -0.1116  0.8222 -0.1511
 7880SOL    HW135276   0.983   4.017   3.844 -1.1900  2.2329  0.0887
 7880SOL    HW235277   1.083   4.051   3.743  0.2452 -1.5409  0.2615
 7881SOL     OW35278   4.186   0.395   6.948 -0.1170 -0.3840  0.1565
 7881SOL    HW135279   4.144   0.323   6.902 -0.9577  0.4838 -0.4297
 7881SOL    HW235280   4.226   0.439   6.873  2.0781  0.8193  2.0461
 7882SOL     OW35281   3.241   0.823   8.795  0.0930  0.5468 -0.3532
 7882SOL    HW135282   3.255   0.847   8.887  0.5129 -1.3891  0.0987
 7882SOL    HW235283   3.156   0.779   8.797  0.9711 -1.2103 -1.0013
 7883SOL     OW35284   2.422   0.012   1.821  0.3071  0.2567  0.1208
 7883SOL    HW135285   2.393   0.102   1.835  0.7098  0.5006 -0.5940
 7883SOL    HW235286   2.384   4.704   1.896  1.7031 -0.0028  0.6730
 7884SOL     OW35287   0.078   3.509   0.544  0.3599  0.9010 -0.1228
 7884SOL    HW135288   0.146   3.470   0.488 -0.8366 -0.7186 -0.4480
 7884SOL    HW235289   0.072   3.445   0.615 -1.2302 -0.2537 -1.3070
 7885SOL     OW35290   3.646   3.505   9.155  0.1356 -1.0280 -0.6689
 7885SOL    HW135291   3.555   3.514   9.182  0.6434  1.7522  0.1968
 7885SOL    HW235292   3.653   3.560   9.077  3.4423 -0.6868 -0.1296
 7886SOL     OW35293   0.516   1.413   7.536 -0.2389  0.1229  0.1357
 7886SOL    HW135294   0.596   1.395   7.585 -0.2948 -1.2482 -0.2870
 7886SOL    HW235295   0.474   1.468   7.602  0.2916  3.0952 -2.0304
 7887SOL     OW35296   2.854   1.397  13.369 -0.6616  0.8300 -0.2938
 7887SOL    HW135297   2.845   1.412  13.274  0.0806  4.9172  0.2689
 7887SOL    HW235298   2.764   1.378  13.394 -0.3432 -0.0309  0.1923
 7888SOL     OW35299   4.020   0.101   1.890 -0.1561  0.3065  0.3852
 7888SOL    HW135300   3.994   0.118   1.980 -1.2221  0.7451 -0.0024
 7888SOL    HW235301   4.114   0.114   1.905  0.2373 -1.6522 -0.3782
 7889SOL     OW35302   1.860   2.132   2.520 -0.3166  0.1439 -0.1239
 7889SOL    HW135303   1.849   2.227   2.526  0.2881  0.2667 -1.0466
 7889SOL    HW235304   1.954   2.126   2.507 -0.1055  0.5442  1.3003
 7890SOL     OW35305   4.081   1.170   7.067 -0.8314  0.1007  0.4065
 7890SOL    HW135306   4.123   1.084   7.066 -0.7902  0.1218  0.3225
 7890SOL    HW235307   4.138   1.210   7.002 -1.6701 -1.6475 -1.4271
 7891SOL     OW35308   4.214   1.336   0.928  0.1609 -0.0364  0.6562
 7891SOL    HW135309   4.238   1.408   0.869 -1.9391  0.9478  1.0059
 7891SOL    HW235310   4.181   1.277   0.860  0.3416 -0.6459  1.1042
 7892SOL     OW35311   0.423   0.871   9.135  0.2920  0.3682  0.1934
 7892SOL    HW135312   0.477   0.932   9.185  1.1848 -0.5079  0.2913
 7892SOL    HW235313   0.410   0.905   9.046  1.3513 -0.1009 -0.1350
 7893SOL     OW35314   1.766   2.780   0.545  0.2955 -0.0957 -0.3563
 7893SOL    HW135315   1.862   2.775   0.544  0.3910  1.6127 -1.1740
 7893SOL    HW235316   1.757   2.842   0.472 -1.4420  1.5840  1.3094
 7894SOL     OW35317   1.421   2.275   9.601 -0.6685  0.4929 -0.2175
 7894SOL    HW135318   1.409   2.255   9.694  2.2247  1.3882  0.3282
 7894SOL    HW235319   1.440   2.369   9.609  0.1069  0.2042  1.2640
 7895SOL     OW35320   0.338   3.434   0.432  0.7230 -0.4811  0.0653
 7895SOL    HW135321   0.422   3.397   0.404  0.8114 -0.7072  0.6281
 7895SOL    HW235322   0.305   3.487   0.359  0.6292  2.2536  2.1188
 7896SOL     OW35323   4.498   0.026  15.205  1.1550  0.3012 -0.3918
 7896SOL    HW135324   4.430   4.726  15.261  1.6241  1.0552  0.6978
 7896SOL    HW235325   4.536   4.683  15.172  0.7076  0.2816 -0.8628
 7897SOL     OW35326   3.258   3.503   6.829  0.1872 -0.1057  0.2709
 7897SOL    HW135327   3.179   3.483   6.778  0.7602 -0.2838 -0.5524
 7897SOL    HW235328   3.318   3.511   6.755 -0.4757 -1.8760 -0.4821
 7898SOL     OW35329   3.054   2.945   4.711  0.1147 -0.3333 -0.1456
 7898SOL    HW135330   3.092   2.922   4.625 -4.2239 -3.1513 -1.3134
 7898SOL    HW235331   3.135   2.952   4.762  1.2489 -2.6547 -1.6163
 7899SOL     OW35332   4.411   1.135   4.886 -0.2969 -0.1515  0.3633
 7899SOL    HW135333   4.386   1.069   4.950 -0.1589  1.2263  1.8428
 7899SOL    HW235334   4.374   1.102   4.804  1.3354  2.3685 -1.3930
 7900SOL     OW35335   0.442   2.438  13.581 -0.0672  0.5255  0.3422
 7900SOL    HW135336   0.510   2.485  13.533 -0.6029 -0.3057 -1.2086
 7900SOL    HW235337   0.368   2.499  13.585  0.3723  1.0837 -0.0996
 7901SOL     OW35338   2.093   3.238   8.039  0.3489  0.0480  0.2640
 7901SOL    HW135339   2.070   3.151   8.008 -0.3483  0.6271 -0.8306
 7901SOL    HW235340   2.097   3.282   7.954  2.0292 -1.2749 -0.3355
 7902SOL     OW35341   0.235   4.731   6.702 -0.1739  0.9618 -0.0455
 7902SOL    HW135342   0.264   0.063   6.644  0.3899 -1.1929 -2.3394
 7902SOL    HW235343   0.262   0.041   6.780  3.0328 -0.5620 -0.2231
 7903SOL     OW35344   2.605   2.159   7.503  0.7748  0.9657 -0.3417
 7903SOL    HW135345   2.632   2.077   7.462  0.4073  1.3680 -1.3854
 7903SOL    HW235346   2.675   2.213   7.468  0.4209  0.5126 -1.7644
 7904SOL     OW35347   4.613   1.450   3.830 -0.1150 -0.2927 -0.5216
 7904SOL    HW135348   4.640   1.494   3.910 -0.4607  1.9590 -1.6557
 7904SOL    HW235349   4.611   1.359   3.862 -2.8611  0.4324  1.3857
 7905SOL     OW35350   3.197   1.665   4.094 -0.2245 -0.2235 -0.5395
 7905SOL    HW135351   3.165   1.613   4.167  2.1678 -1.1487 -0.1436
 7905SOL    HW235352   3.209   1.600   4.024 -0.1070  2.3650 -2.9387
 7906SOL     OW35353   2.627   3.340   0.856  0.0682 -0.0452  0.0931
 7906SOL    HW135354   2.543   3.323   0.899  0.1316 -1.3670 -0.3017
 7906SOL    HW235355   2.599   3.335   0.764  1.3382  0.3770 -0.3064
 7907SOL     OW35356   1.712   3.167   4.832  0.2926  0.1732  1.0606
 7907SOL    HW135357   1.643   3.233   4.839 -1.1281 -1.3011  0.9187
 7907SOL    HW235358   1.786   3.211   4.874 -0.0245  1.6421  0.0591
 7908SOL     OW35359   2.610   3.015   9.744 -0.4510  0.3090  0.7701
 7908SOL    HW135360   2.674   2.994   9.812 -0.5656 -1.5293  0.3253
 7908SOL    HW235361   2.545   2.945   9.743  2.1528 -2.0958 -0.0229
 7909SOL     OW35362   1.577   1.572   5.564  0.2705  0.1409 -0.0954
 7909SOL    HW135363   1.571   1.523   5.646 -3.8329 -1.0956 -1.1404
 7909SOL    HW235364   1.568   1.662   5.597 -2.5769 -0.7589  1.5370
 7910SOL     OW35365   3.068   4.167  17.611  0.4118 -0.2224  0.4607
 7910SOL    HW135366   2.978   4.156  17.580  0.5691 -0.9926  0.2636
 7910SOL    HW235367   3.089   4.084  17.655 -0.1272 -0.7791 -0.3387
 7911SOL     OW35368   3.970   0.512   3.692 -0.3657  0.2368 -0.6390
 7911SOL    HW135369   3.950   0.544   3.780 -4.4892 -2.9847 -0.4271
 7911SOL    HW235370   3.937   0.423   3.699 -1.2470  0.7824  2.1596
 7912SOL     OW35371   1.038   1.780   7.070  0.0568 -0.3826  0.6679
 7912SOL    HW135372   1.071   1.740   7.151  0.0167 -3.1847 -0.6990
 7912SOL    HW235373   0.945   1.783   7.096 -0.4348 -0.5788 -1.0752
 7913SOL     OW35374   4.685   1.022   0.343 -0.2802 -0.1177 -0.4082
 7913SOL    HW135375   4.664   1.041   0.434 -2.7565  0.3048 -1.0643
 7913SOL    HW235376   4.738   0.942   0.340 -4.0849 -2.6581  0.7211
 7914SOL     OW35377   2.287   4.139   0.122 -0.4357  0.0606 -0.0771
 7914SOL    HW135378   2.301   4.183   0.038 -3.5948 -0.2360 -0.7721
 7914SOL    HW235379   2.307   4.215   0.176  3.5817 -1.6954  0.9387
 7915SOL     OW35380   2.592   3.587   0.315  0.3122  0.0502 -0.1280
 7915SOL    HW135381   2.551   3.513   0.272 -1.5924  0.2523  1.3665
 7915SOL    HW235382   2.672   3.579   0.262  0.6618  0.3944  0.3432
 7916SOL     OW35383   0.866   0.037   4.115 -0.3418  0.5930  0.3721
 7916SOL    HW135384   0.799   0.105   4.107  0.4352  1.2307 -0.8935
 7916SOL    HW235385   0.860   0.009   4.206  0.6464 -0.3426  0.1517
 7917SOL     OW35386   0.062   3.281   4.948 -0.0284  0.2422 -0.2020
 7917SOL    HW135387   0.104   3.246   5.027 -1.0822  0.6819  0.5470
 7917SOL    HW235388   0.028   3.206   4.899  1.1634 -0.8336  0.6056
 7918SOL     OW35389   4.268   4.606   7.209 -0.0932  0.4121 -0.3320
 7918SOL    HW135390   4.203   4.536   7.205  0.4104  0.1403 -3.9382
 7918SOL    HW235391   4.325   4.581   7.136 -0.6981 -3.2384  0.4225
 7919SOL     OW35392   1.714   1.577   2.624 -0.0108 -0.3965  0.1854
 7919SOL    HW135393   1.781   1.633   2.585 -0.9941  2.4029  2.4894
 7919SOL    HW235394   1.634   1.610   2.584 -0.6012 -2.0856  0.0050
 7920SOL     OW35395   3.648   2.098  12.423 -0.1726  0.5504 -0.4243
 7920SOL    HW135396   3.568   2.053  12.451  0.6398 -1.4453 -1.2985
 7920SOL    HW235397   3.632   2.179  12.472  0.8003 -0.4881  1.6114
 7921SOL     OW35398   0.207   1.917  14.200 -0.7485  0.9464  0.4890
 7921SOL    HW135399   0.155   1.974  14.144  0.8298 -1.5643 -3.5047
 7921SOL    HW235400   0.281   1.973  14.224 -2.2439  1.5741  3.6752
 7922SOL     OW35401   1.482   3.857   4.336  0.1951 -0.5006 -0.1344
 7922SOL    HW135402   1.547   3.856   4.266 -0.9996  2.8054 -1.2903
 7922SOL    HW235403   1.454   3.947   4.323 -1.4826 -0.9976 -0.0064
 7923SOL     OW35404   0.903   3.241   7.307 -0.4217  0.5012 -0.3026
 7923SOL    HW135405   0.895   3.336   7.302 -0.4020  0.6240  1.8263
 7923SOL    HW235406   0.853   3.224   7.387 -1.0705  1.9522 -0.4090
 7924SOL     OW35407   0.112   2.321   2.673 -0.5740  0.3235  0.3648
 7924SOL    HW135408   0.052   2.326   2.598 -1.1011  1.6687  0.8898
 7924SOL    HW235409   0.151   2.233   2.667 -3.1925 -1.0056  2.9673
 7925SOL     OW35410   1.041   1.322  16.084  0.2508 -0.4203 -0.4835
 7925SOL    HW135411   1.109   1.259  16.059 -0.7980 -1.5665 -0.4845
 7925SOL    HW235412   1.102   1.383  16.124  0.8241 -0.9832 -0.4915
 7926SOL     OW35413   0.996   1.646   3.290  0.7073 -0.1740  0.1281
 7926SOL    HW135414   0.983   1.721   3.232  0.5061 -0.5805 -0.3490
 7926SOL    HW235415   1.005   1.689   3.375  1.3183 -0.7252  0.3471
 7927SOL     OW35416   2.659   2.896   6.381 -0.0314 -0.3265 -0.3479
 7927SOL    HW135417   2.576   2.884   6.427  0.3970  1.6701  0.9361
 7927SOL    HW235418   2.665   2.991   6.369 -0.6110 -0.0186  1.7293
 7928SOL     OW35419   3.390   2.237   7.556  0.0856 -0.0529  0.0485
 7928SOL    HW135420   3.315   2.260   7.611  0.3185  2.6054 -0.7286
 7928SOL    HW235421   3.422   2.158   7.599  0.2758  0.4039  0.7587
 7929SOL     OW35422   2.873   0.282   0.581 -0.4239  0.1432  0.9345
 7929SOL    HW135423   2.869   0.187   0.573 -1.0167  0.2940 -0.4126
 7929SOL    HW235424   2.818   0.305   0.507 -1.8864  0.2396  2.0427
 7930SOL     OW35425   3.923   3.815   8.204  0.2394 -0.3612 -0.2747
 7930SOL    HW135426   3.998   3.874   8.195  1.4752 -1.8959 -0.0019
 7930SOL    HW235427   3.944   3.747   8.141  1.1046  0.3390 -0.7431
 7931SOL     OW35428   1.741   2.011   1.945 -0.3240 -0.3668 -0.0841
 7931SOL    HW135429   1.776   2.050   1.864  0.5215  1.6459  1.2486
 7931SOL    HW235430   1.759   1.925   1.908  2.3534  0.3583 -0.4515
 7932SOL     OW35431   3.831   2.600  17.522 -0.4887  0.2496 -0.1139
 7932SOL    HW135432   3.907   2.567  17.570 -1.7443  0.6485  2.1639
 7932SOL    HW235433   3.773   2.538  17.566 -0.2039  0.2692  0.2890
 7933SOL     OW35434   1.844   1.761  12.268  0.3815  0.1442  0.2185
 7933SOL    HW135435   1.802   1.695  12.324 -1.7982  1.1862 -0.1698
 7933SOL    HW235436   1.887   1.824  12.325  1.7563  1.7104 -2.5720
 7934SOL     OW35437   1.631   3.635  17.303 -0.0548 -0.1143 -0.5525
 7934SOL    HW135438   1.696   3.691  17.260  2.0087 -1.2656  1.0475
 7934SOL    HW235439   1.569   3.699  17.338  0.3849  1.0514 -1.9123
 7935SOL     OW35440   0.513   1.897   5.005 -0.2952  0.0030  0.3711
 7935SOL    HW135441   0.540   1.926   5.092  0.2282 -2.3713  0.9949
 7935SOL    HW235442   0.504   1.802   5.005  0.0059 -0.0294 -0.3054
 7936SOL     OW35443   1.356   3.621   5.664 -0.3180 -0.5541 -0.8285
 7936SOL    HW135444   1.325   3.702   5.624 -1.5391 -0.0443  1.1636
 7936SOL    HW235445   1.451   3.629   5.662 -0.2735 -1.1393 -1.0701
 7937SOL     OW35446   1.427   1.355   1.691 -0.3104 -0.5435 -0.2824
 7937SOL    HW135447   1.337   1.365   1.721  0.0781  1.8069  0.1247
 7937SOL    HW235448   1.453   1.446   1.673  1.8668 -0.5413  2.7411
 7938SOL     OW35449   2.727   0.158   8.690 -0.0192  0.1286  0.3588
 7938SOL    HW135450   2.758   0.097   8.623  0.3665 -1.1936  1.7364
 7938SOL    HW235451   2.636   0.129   8.687 -0.5111  1.9180 -1.7789
 7939SOL     OW35452   3.964   2.121   3.214 -0.5459  0.0692 -0.1511
 7939SOL    HW135453   3.960   2.052   3.148 -1.8436  1.1811 -1.2310
 7939SOL    HW235454   3.896   2.187   3.197  0.0688  0.5533 -0.7480
 7940SOL     OW35455   3.575   4.477   8.152  0.5521  0.2535 -0.0543
 7940SOL    HW135456   3.580   4.458   8.059  2.7390 -1.0567  0.3453
 7940SOL    HW235457   3.507   4.423   8.194  0.6415  1.5076  1.7108
 7941SOL     OW35458   1.070   2.472  16.573  0.5629  0.3382  0.5642
 7941SOL    HW135459   0.990   2.482  16.523  0.9207 -2.4803 -0.5614
 7941SOL    HW235460   1.018   2.453  16.651  0.6558  3.3761  1.3416
 7942SOL     OW35461   2.303   2.323   8.219 -0.3468  0.6251 -0.1773
 7942SOL    HW135462   2.321   2.229   8.231 -0.2198  0.9061  1.8158
 7942SOL    HW235463   2.363   2.346   8.149 -0.4261 -2.0584 -1.1133
 7943SOL     OW35464   3.660   3.011  15.257 -0.2842 -0.3485  0.6520
 7943SOL    HW135465   3.656   2.920  15.288 -1.1121  0.0234  1.6612
 7943SOL    HW235466   3.577   3.012  15.209  0.9614 -0.5621 -1.4981
 7944SOL     OW35467   4.732   0.523   0.831  0.5191  0.2185  0.0996
 7944SOL    HW135468   0.051   0.465   0.882 -0.7521 -2.4204 -1.5225
 7944SOL    HW235469   4.647   0.502   0.869  0.2744  0.8040 -0.1218
 7945SOL     OW35470   2.230   3.300   2.510  0.1507 -0.1999 -0.0968
 7945SOL    HW135471   2.204   3.229   2.569  0.1411 -0.5926 -0.5806
 7945SOL    HW235472   2.150   3.319   2.462  1.0670  0.3868 -1.3867
 7946SOL     OW35473   2.680   2.146  12.395  0.0833 -0.1563  0.0845
 7946SOL    HW135474   2.700   2.231  12.355 -2.0912 -0.0328 -0.7583
 7946SOL    HW235475   2.624   2.120  12.321  0.2692  0.9696 -0.4686
 7947SOL     OW35476   0.911   2.429   0.334  0.1866 -0.1867  0.3646
 7947SOL    HW135477   0.824   2.411   0.298 -2.1127  4.2373  3.6285
 7947SOL    HW235478   0.926   2.344   0.374 -3.0918 -1.3419 -0.8161
 7948SOL     OW35479   0.355   2.993   0.605 -0.1495 -0.0806 -0.1731
 7948SOL    HW135480   0.263   2.968   0.601 -0.0674 -0.4782  0.3681
 7948SOL    HW235481   0.376   2.996   0.698  0.5780 -0.8712 -0.3094
 7949SOL     OW35482   0.221   3.292  17.524  0.0130  0.2466  0.3185
 7949SOL    HW135483   0.239   3.286  17.618 -0.3839  0.7611  0.4304
 7949SOL    HW235484   0.165   3.370  17.519 -0.3680 -0.1170 -1.0708
 7950SOL     OW35485   0.330   2.004  10.273  0.0627  0.0484 -0.0307
 7950SOL    HW135486   0.235   2.004  10.259  0.2373 -0.6718 -1.2362
 7950SOL    HW235487   0.362   2.085  10.233 -0.4523 -0.7764 -2.1301
 7951SOL     OW35488   3.785   2.768   3.776  0.4920  0.0216  0.0679
 7951SOL    HW135489   3.700   2.730   3.801  0.1805  0.7661  0.1525
 7951SOL    HW235490   3.809   2.710   3.705  2.2543  0.0977  0.6103
 7952SOL     OW35491   0.469   1.781  10.233  0.4263 -0.2238  0.6046
 7952SOL    HW135492   0.421   1.855  10.271 -0.0811 -0.4532  0.4049
 7952SOL    HW235493   0.557   1.814  10.250 -1.3637  4.0516  1.7646
 7953SOL     OW35494   4.705   2.577  10.575 -0.3176 -0.0275  0.2704
 7953SOL    HW135495   4.648   2.523  10.521  1.1679 -2.6147  1.2997
 7953SOL    HW235496   4.680   2.552  10.664 -1.7276 -0.4853 -0.2498
 7954SOL     OW35497   1.994   3.061   6.231 -0.4977 -0.1369  0.3177
 7954SOL    HW135498   1.998   3.107   6.147 -1.0901  1.2198  1.0413
 7954SOL    HW235499   1.975   3.132   6.292  1.6865 -2.3323  3.5271
 7955SOL     OW35500   4.559   4.681   5.852  0.2417  0.9034 -0.3022
 7955SOL    HW135501   4.617   4.605   5.862 -0.3464  0.2469 -1.8780
 7955SOL    HW235502   4.485   4.624   5.830 -0.5702  1.3833  1.1681
 7956SOL     OW35503   1.181   3.431   7.066  0.3438  0.1644  0.6992
 7956SOL    HW135504   1.169   3.518   7.104 -2.5332  0.3536 -0.6565
 7956SOL    HW235505   1.205   3.450   6.975  1.3311  0.4636  1.0206
 7957SOL     OW35506   0.337   0.431   8.294 -0.1422  0.2001 -0.4947
 7957SOL    HW135507   0.328   0.418   8.389 -0.0530 -2.4866 -0.8615
 7957SOL    HW235508   0.385   0.352   8.270  2.3530  0.8536  2.3468
 7958SOL     OW35509   4.696   3.181   3.144  0.6674 -0.0367  0.1934
 7958SOL    HW135510   0.007   3.121   3.201  1.6879  2.7998  2.3203
 7958SOL    HW235511   4.639   3.222   3.209  0.0743 -1.7490  0.7554
 7959SOL     OW35512   4.569   0.445   2.309  0.0601  0.5720  0.5762
 7959SOL    HW135513   4.638   0.392   2.270 -0.6776  0.0843 -0.0660
 7959SOL    HW235514   4.589   0.527   2.264  1.2707 -0.8016 -1.3670
 7960SOL     OW35515   0.979   0.426   6.700 -0.4037  0.2254  0.3847
 7960SOL    HW135516   0.902   0.378   6.670 -1.5630  3.0899 -1.1993
 7960SOL    HW235517   0.944   0.508   6.665 -2.8113 -0.0048  2.2644
 7961SOL     OW35518   2.313   3.552   5.444  0.7274 -0.4257 -0.0894
 7961SOL    HW135519   2.392   3.570   5.495  0.0056 -1.1863  1.3136
 7961SOL    HW235520   2.299   3.459   5.462  2.3756 -0.7709 -0.5853
 7962SOL     OW35521   3.433   0.261   2.303  0.2790 -0.6958  0.3011
 7962SOL    HW135522   3.364   0.238   2.241  0.6032  1.3233 -0.8273
 7962SOL    HW235523   3.470   0.329   2.247  0.2694 -0.7957  0.1740
 7963SOL     OW35524   4.484   1.339  14.238 -0.7833 -0.1709  0.3534
 7963SOL    HW135525   4.532   1.257  14.221 -0.8606  0.0191 -0.7948
 7963SOL    HW235526   4.558   1.390  14.269  0.5802 -2.4232  0.8263
 7964SOL     OW35527   0.824   0.592   8.163 -0.4681 -0.0519 -0.3781
 7964SOL    HW135528   0.891   0.602   8.096  1.0166  1.7102  1.3645
 7964SOL    HW235529   0.761   0.660   8.138 -0.9823 -0.2750  0.2859
 7965SOL     OW35530   3.327   2.495   4.561  0.3347  0.1798  0.4267
 7965SOL    HW135531   3.297   2.420   4.612 -0.8185 -0.8748 -1.8256
 7965SOL    HW235532   3.385   2.538   4.624 -1.2056  0.1869  1.8437
 7966SOL     OW35533   2.676   4.534   7.913 -0.5871 -0.1397 -0.1340
 7966SOL    HW135534   2.757   4.502   7.873 -0.1432 -0.6423  1.1627
 7966SOL    HW235535   2.639   4.453   7.947  1.1658 -0.3150  1.3642
 7967SOL     OW35536   3.175   1.089  17.566  0.1373  0.1839  0.1108
 7967SOL    HW135537   3.257   1.040  17.577 -0.8419 -1.5849 -0.3993
 7967SOL    HW235538   3.109   1.023  17.584  1.6844 -1.6135 -0.7708
 7968SOL     OW35539   3.300   3.395  11.118 -0.1644  0.0716  0.2949
 7968SOL    HW135540   3.281   3.328  11.185  3.9650 -0.6003  0.7955
 7968SOL    HW235541   3.348   3.338  11.058  0.7346  3.0111 -1.7579
 7969SOL     OW35542   1.585   1.053   7.226  0.4089 -0.1459 -0.3897
 7969SOL    HW135543   1.606   0.963   7.251  2.4739  0.4617  0.0618
 7969SOL    HW235544   1.503   1.036   7.179 -1.1987  0.4812  2.2032
 7970SOL     OW35545   1.241   0.343   3.850 -0.4274  0.6389 -0.5079
 7970SOL    HW135546   1.146   0.331   3.845 -0.2701 -0.0862 -1.7284
 7970SOL    HW235547   1.236   0.428   3.893 -1.0707  0.5568 -0.4203
 7971SOL     OW35548   4.204   3.670  14.869  0.3498  0.1201  0.0796
 7971SOL    HW135549   4.131   3.613  14.844 -1.3294  2.1010  0.5238
 7971SOL    HW235550   4.179   3.762  14.873 -2.7155 -0.6907 -0.1778
 7972SOL     OW35551   2.346   3.986   4.666 -0.2314  0.3765  0.1102
 7972SOL    HW135552   2.364   3.918   4.730 -1.8006  1.9470  2.2289
 7972SOL    HW235553   2.429   4.015   4.628 -0.8156 -0.5919 -1.9073
 7973SOL     OW35554   3.032   0.688   6.774 -0.0154 -0.8657  0.0769
 7973SOL    HW135555   3.001   0.707   6.862 -2.6836  3.4930 -1.7693
 7973SOL    HW235556   3.072   0.602   6.787 -0.2617 -0.8484  0.9493
 7974SOL     OW35557   3.738   1.702   5.493  0.0817 -0.5337 -0.0367
 7974SOL    HW135558   3.662   1.757   5.512  0.3760 -0.2159  0.2230
 7974SOL    HW235559   3.713   1.636   5.427  2.1034 -0.5584 -0.7944
 7975SOL     OW35560   1.603   1.336   7.257  0.3158  0.3631  0.1022
 7975SOL    HW135561   1.612   1.244   7.232  0.9289  0.0000  1.6975
 7975SOL    HW235562   1.687   1.372   7.226  1.7818 -1.2946  2.2059
 7976SOL     OW35563   4.634   3.078   4.825 -0.2759 -0.0964  0.2095
 7976SOL    HW135564   4.608   2.990   4.854 -0.9740 -0.8589 -2.7122
 7976SOL    HW235565   4.678   3.059   4.742  1.5831 -2.4772  1.7343
 7977SOL     OW35566   4.437   2.731   7.533  0.5190  0.6104  0.7017
 7977SOL    HW135567   4.502   2.720   7.463  1.6043 -1.1746  1.9931
 7977SOL    HW235568   4.373   2.663   7.513  0.2073  0.7879  1.0988
 7978SOL     OW35569   4.169   1.406   6.199 -0.3835 -0.2570  0.0479
 7978SOL    HW135570   4.207   1.482   6.154  3.2979 -1.7322  0.6381
 7978SOL    HW235571   4.121   1.363   6.129 -0.4745 -1.3845  0.7903
 7979SOL     OW35572   2.369   2.855   3.960  0.2728 -0.2177  0.0184
 7979SOL    HW135573   2.400   2.772   3.924  0.3027 -0.9390  1.7180
 7979SOL    HW235574   2.438   2.920   3.944 -0.1752  0.1852 -0.2649
 7980SOL     OW35575   3.283   4.262   2.339  0.3571 -0.0909  0.1681
 7980SOL    HW135576   3.351   4.216   2.289  1.0488  1.6723 -0.5107
 7980SOL    HW235577   3.224   4.195   2.374 -0.8325  0.3546 -0.9902
 7981SOL     OW35578   2.444   3.381   0.154  0.5798 -0.1946  0.2570
 7981SOL    HW135579   2.399   3.389   0.070  2.5815 -2.0888 -0.9860
 7981SOL    HW235580   2.376   3.413   0.213 -0.6426 -1.3080 -0.5465
 7982SOL     OW35581   3.518   1.279   6.992 -0.5825 -0.5128  0.2551
 7982SOL    HW135582   3.564   1.258   7.073  0.3853 -0.4639 -0.2825
 7982SOL    HW235583   3.510   1.374   7.005 -2.6420 -0.7231  0.4738
 7983SOL     OW35584   1.903   2.997   4.572  0.8189 -0.2295 -0.4061
 7983SOL    HW135585   1.842   3.013   4.499 -0.0548  0.6192  0.5110
 7983SOL    HW235586   1.923   3.083   4.608  0.6743  0.9283 -3.0491
 7984SOL     OW35587   1.988   2.680  15.911  0.3347  0.2193  0.0872
 7984SOL    HW135588   2.039   2.681  15.992 -1.7003  0.7509  1.3489
 7984SOL    HW235589   2.059   2.652  15.854 -0.0277  0.3871 -0.4481
 7985SOL     OW35590   4.711   3.841  16.867 -0.0574  0.6921  0.5634
 7985SOL    HW135591   0.049   3.884  16.827  1.4867 -0.0565  2.6511
 7985SOL    HW235592   4.644   3.829  16.800  1.0138 -0.0955 -0.3675
 7986SOL     OW35593   0.211   2.555   8.513 -0.4407  0.3291 -0.3281
 7986SOL    HW135594   0.286   2.498   8.529 -1.2049 -0.3962  0.7145
 7986SOL    HW235595   0.135   2.515   8.556  1.1590  0.2457  2.4196
 7987SOL     OW35596   4.070   4.066   2.272  0.7833 -0.1942 -0.4319
 7987SOL    HW135597   4.013   4.083   2.196  1.0283 -1.5067 -0.9164
 7987SOL    HW235598   4.132   4.000   2.240  0.5271 -1.6606  2.0832
 7988SOL     OW35599   3.586   4.508   2.373  0.5544  0.0170 -0.0257
 7988SOL    HW135600   3.496   4.500   2.405  1.1128 -2.2660  1.0018
 7988SOL    HW235601   3.596   4.594   2.333 -0.5940  0.0038 -0.3285
 7989SOL     OW35602   3.333   0.465  12.403 -0.5679  0.1626  0.3087
 7989SOL    HW135603   3.390   0.532  12.441  0.1176  0.2122 -0.8092
 7989SOL    HW235604   3.362   0.487  12.314 -2.0715  2.2298  0.3519
 7990SOL     OW35605   1.972   3.798   6.751 -0.6508 -0.0522  0.0983
 7990SOL    HW135606   1.911   3.819   6.680  0.5124  1.6497 -0.4024
 7990SOL    HW235607   1.932   3.856   6.816 -0.1894  1.9770 -1.4116
 7991SOL     OW35608   3.186   2.558  14.423  0.0856 -0.1782  0.1488
 7991SOL    HW135609   3.104   2.601  14.445  2.1435  2.9571  1.6385
 7991SOL    HW235610   3.173   2.481  14.479 -2.1875  1.0900  1.3400
 7992SOL     OW35611   3.120   3.204  10.142  0.0834  0.1071  0.0780
 7992SOL    HW135612   3.160   3.120  10.121  0.2148  0.3014 -0.4480
 7992SOL    HW235613   3.030   3.174  10.155 -0.3099  2.1987  2.1478
 7993SOL     OW35614   2.946   3.375  16.847 -0.3092 -0.5750 -0.2953
 7993SOL    HW135615   2.858   3.350  16.818 -0.0764 -0.4008 -1.1671
 7993SOL    HW235616   2.946   3.463  16.808 -1.4693 -0.5730 -0.2912
 7994SOL     OW35617   2.589   2.253   9.313  0.2278 -0.0506 -0.0300
 7994SOL    HW135618   2.610   2.211   9.230 -1.3271 -0.6428 -0.1250
 7994SOL    HW235619   2.528   2.191   9.354  0.2547  0.5274  0.9111
 7995SOL     OW35620   1.926   3.457   0.044  0.2878  0.0689  0.3232
 7995SOL    HW135621   1.909   3.363   0.032  1.7574 -0.2889  1.0815
 7995SOL    HW235622   1.944   3.448   0.138  1.2859  0.8219  0.2101
 7996SOL     OW35623   1.628   0.460  17.327 -0.4005  0.3280 -0.3871
 7996SOL    HW135624   1.569   0.493  17.260 -2.3754  0.6292  1.4675
 7996SOL    HW235625   1.671   0.540  17.357  1.9753 -0.3884 -1.9190
 7997SOL     OW35626   3.934   1.326   0.436 -0.3707  0.3163  0.2551
 7997SOL    HW135627   3.898   1.384   0.370  1.7677  0.0645 -1.1450
 7997SOL    HW235628   4.021   1.309   0.399 -0.0856  1.8321  0.2465
 7998SOL     OW35629   1.910   3.286   4.971 -0.1893  0.1226  0.1114
 7998SOL    HW135630   1.902   3.268   5.064  1.1425 -0.1484  0.1738
 7998SOL    HW235631   1.917   3.381   4.964 -0.0024 -0.0381 -2.0096
 7999SOL     OW35632   2.895   2.974  14.987  0.3988  0.1320  0.1901
 7999SOL    HW135633   2.904   2.887  14.946  0.8811 -0.5549  1.7591
 7999SOL    HW235634   2.834   2.959  15.059  0.2098  0.9710  0.2005
 8000SOL     OW35635   4.379   0.966   5.098 -0.3586  0.2591  0.3119
 8000SOL    HW135636   4.287   0.940   5.107  0.3149 -2.1971 -0.1719
 8000SOL    HW235637   4.397   0.976   5.191 -0.7481  1.1716  0.2971
 8001SOL     OW35638   3.632   1.409  12.431  0.4801 -0.0962  0.2783
 8001SOL    HW135639   3.673   1.330  12.396 -2.5381 -1.7063  0.4215
 8001SOL    HW235640   3.619   1.374  12.520  0.5426 -0.3805  0.1775
 8002SOL     OW35641   0.301   3.660   1.596  0.2818 -0.2931  0.1624
 8002SOL    HW135642   0.207   3.660   1.612  0.4072 -0.6841  0.8922
 8002SOL    HW235643   0.304   3.589   1.531 -3.2577  0.0618 -0.3653
 8003SOL     OW35644   0.338   0.197   6.570 -0.3251  0.3892  0.1462
 8003SOL    HW135645   0.322   0.170   6.479  0.2275  2.9704 -0.7036
 8003SOL    HW235646   0.318   0.290   6.562 -0.7743  0.2537 -0.3085
 8004SOL     OW35647   4.313   1.048   3.950 -0.1891 -0.4993 -0.5642
 8004SOL    HW135648   4.389   1.011   3.996 -0.8779 -1.2715 -0.0338
 8004SOL    HW235649   4.247   0.990   3.989  0.0019  0.3021  0.9661
 8005SOL     OW35650   3.043   4.522   5.067  0.4474  0.5822  0.6960
 8005SOL    HW135651   3.122   4.529   5.013 -0.6214 -1.0684 -1.0803
 8005SOL    HW235652   3.010   4.434   5.046  1.5713 -0.3588  2.8317
 8006SOL     OW35653   3.854   1.236   3.945 -0.1865 -0.2621  0.1046
 8006SOL    HW135654   3.898   1.298   4.003  0.4616  1.8903 -2.6266
 8006SOL    HW235655   3.887   1.151   3.972  0.5836 -0.5389 -1.6658
 8007SOL     OW35656   3.379   3.967   3.157 -0.3438 -0.7801  0.1075
 8007SOL    HW135657   3.356   4.023   3.231  0.8552 -0.0103 -0.1113
 8007SOL    HW235658   3.383   3.880   3.197 -2.0036 -0.6588  0.5324
 8008SOL     OW35659   4.182   2.336   4.240  0.3561 -0.7159 -0.0538
 8008SOL    HW135660   4.246   2.271   4.211  0.4653 -0.4222 -0.4708
 8008SOL    HW235661   4.228   2.416   4.213  0.6452 -0.6245  0.7008
 8009SOL     OW35662   0.705   1.365   0.457 -0.0464  0.4459  0.2822
 8009SOL    HW135663   0.669   1.339   0.541  1.0979  1.0702  0.9639
 8009SOL    HW235664   0.679   1.282   0.417  0.3110 -0.0953  1.1699
 8010SOL     OW35665   1.730   1.331   2.756 -0.1153  0.2840 -0.1868
 8010SOL    HW135666   1.637   1.342   2.774  0.2932  0.6444  1.7129
 8010SOL    HW235667   1.743   1.411   2.704  0.1939 -0.4267 -1.1910
 8011SOL     OW35668   0.899   1.970  10.085 -0.9692  0.2723  0.6526
 8011SOL    HW135669   0.937   1.984   9.999  0.2535 -0.4626  1.0777
 8011SOL    HW235670   0.868   2.058  10.103 -0.0348  1.2780 -2.7114
 8012SOL     OW35671   3.334   3.379   7.854  0.0773 -0.0500 -0.6919
 8012SOL    HW135672   3.310   3.471   7.864  1.6963  0.7032 -3.7577
 8012SOL    HW235673   3.351   3.358   7.945 -1.7732  1.1658 -0.0667
 8013SOL     OW35674   1.432   0.789   9.331 -0.0269 -0.2241 -0.1501
 8013SOL    HW135675   1.489   0.750   9.265  0.0619  0.8425 -0.7116
 8013SOL    HW235676   1.451   0.734   9.407  1.0043  1.0754  0.5411
 8014SOL     OW35677   2.422   4.550   3.163  0.5304 -0.1189 -0.3661
 8014SOL    HW135678   2.444   4.537   3.071  0.3431  2.2711 -0.7573
 8014SOL    HW235679   2.354   4.485   3.179  0.5434  0.3641  1.6207
 8015SOL     OW35680   1.190   0.727   7.149 -0.5480  0.1035  0.2589
 8015SOL    HW135681   1.151   0.665   7.087 -0.9893 -0.0016  0.6450
 8015SOL    HW235682   1.151   0.700   7.232  0.7085  0.3463  0.9309
 8016SOL     OW35683   3.502   2.954   2.801 -0.1903  0.1463 -0.0448
 8016SOL    HW135684   3.570   2.919   2.743  0.4543  0.5137  0.4978
 8016SOL    HW235685   3.503   3.045   2.774  1.2414 -0.6554 -2.7065
 8017SOL     OW35686   3.684   0.624   7.940 -0.4739 -0.4117  0.5315
 8017SOL    HW135687   3.649   0.545   7.900  0.7082 -1.9032  2.4466
 8017SOL    HW235688   3.623   0.689   7.904  1.5556  2.5044  2.3146
 8018SOL     OW35689   3.160   2.126  15.859  0.0283  0.8958 -0.1361
 8018SOL    HW135690   3.210   2.189  15.807 -3.5872  2.2395 -1.9789
 8018SOL    HW235691   3.068   2.148  15.846 -0.1472  0.2036 -0.0609
 8019SOL     OW35692   3.943   1.238  17.653  0.7350 -0.2943  0.0427
 8019SOL    HW135693   3.857   1.266  17.686  0.2229 -2.1306  0.2631
 8019SOL    HW235694   4.008   1.308  17.665  0.0465  0.7090 -2.0550
 8020SOL     OW35695   2.366   3.056   8.105 -0.5987  0.4212  0.3372
 8020SOL    HW135696   2.299   2.988   8.113 -1.6475  1.3545 -0.5775
 8020SOL    HW235697   2.435   3.010   8.153 -2.4851  0.0631  2.7034
 8021SOL     OW35698   4.036   0.015  12.270 -0.0742 -0.0198  0.2728
 8021SOL    HW135699   4.114   4.699  12.287  2.2357  3.4226  0.3920
 8021SOL    HW235700   4.058   0.103  12.299  0.9537  0.6087 -2.4961
 8022SOL     OW35701   3.690   2.817   7.993  0.4481 -0.1003  0.6806
 8022SOL    HW135702   3.597   2.797   7.994  0.1374  1.2642 -0.4055
 8022SOL    HW235703   3.683   2.902   8.036  1.3096  0.4109 -0.1884
 8023SOL     OW35704   1.934   1.483   5.288 -0.4337 -0.1416  0.1031
 8023SOL    HW135705   1.997   1.411   5.284 -1.6105 -1.1999  0.6952
 8023SOL    HW235706   1.989   1.549   5.332 -0.9505  0.5210 -0.2329
 8024SOL     OW35707   4.546   4.574  16.628  0.1479  0.1335 -0.1578
 8024SOL    HW135708   4.455   4.547  16.622  0.1832 -0.6695  3.0371
 8024SOL    HW235709   4.576   4.563  16.538  0.4077  0.9647 -0.1705
 8025SOL     OW35710   3.639   2.671   5.106 -0.7850  0.2568 -0.5397
 8025SOL    HW135711   3.656   2.584   5.071  0.7223 -0.5643  2.1597
 8025SOL    HW235712   3.723   2.710   5.132 -0.0070  1.3174 -4.7385
 8026SOL     OW35713   1.265   1.365   6.448 -0.1201  0.6224 -0.3547
 8026SOL    HW135714   1.336   1.353   6.511  1.4491 -2.3089 -2.7393
 8026SOL    HW235715   1.291   1.442   6.397  0.7298  0.5980  0.0526
 8027SOL     OW35716   4.485   0.440  12.860 -0.3332  0.6411 -0.2011
 8027SOL    HW135717   4.424   0.509  12.888 -4.0829 -2.9130  0.3293
 8027SOL    HW235718   4.461   0.377  12.929  0.1902 -0.5893 -1.1551
 8028SOL     OW35719   1.356   0.926   8.301 -0.2205  0.1923 -0.0962
 8028SOL    HW135720   1.284   0.894   8.247 -0.7359 -1.6647  1.7010
 8028SOL    HW235721   1.363   0.846   8.354 -0.3201 -0.1793 -0.6496
 8029SOL     OW35722   1.282   1.387   7.041 -0.6774  0.4892  0.0693
 8029SOL    HW135723   1.278   1.481   7.024 -2.6192  0.4943  0.6217
 8029SOL    HW235724   1.204   1.352   6.998  0.0861  2.3782 -2.8831
 8030SOL     OW35725   4.279   3.854   9.248  0.5962  0.2316 -0.0496
 8030SOL    HW135726   4.362   3.847   9.294  0.5735 -2.0020 -0.3313
 8030SOL    HW235727   4.259   3.947   9.258 -1.7721  0.0900 -3.3358
 8031SOL     OW35728   0.207   0.152   8.430  0.2059 -0.8859 -0.2501
 8031SOL    HW135729   0.236   0.233   8.472  0.0312 -0.9337 -0.0397
 8031SOL    HW235730   0.156   0.189   8.359 -0.8412  0.7060  1.3542
 8032SOL     OW35731   1.077   2.618   1.817 -0.2473 -0.1261 -0.3284
 8032SOL    HW135732   1.134   2.689   1.786  0.3600  0.1817  1.4976
 8032SOL    HW235733   1.091   2.621   1.911  0.3031  0.6483 -0.4263
 8033SOL     OW35734   2.689   3.404   2.069 -0.3635  0.1528  0.1596
 8033SOL    HW135735   2.730   3.479   2.025 -2.6461  1.3672  0.0885
 8033SOL    HW235736   2.620   3.384   2.006 -1.0012 -0.8469  1.1800
 8034SOL     OW35737   4.073   2.219   9.053 -0.6624  0.2456 -0.0938
 8034SOL    HW135738   4.143   2.233   8.989 -0.4128 -0.7897 -0.0491
 8034SOL    HW235739   4.097   2.279   9.123 -2.2323  1.0542 -0.2386
 8035SOL     OW35740   3.613   4.536  12.365  0.0228 -0.3113  0.7283
 8035SOL    HW135741   3.683   4.549  12.429  2.0267  1.7822 -1.8501
 8035SOL    HW235742   3.547   4.531  12.434  0.1438  0.1935  0.8864
 8036SOL     OW35743   2.887   2.212  15.815 -0.4219  0.4315  0.8851
 8036SOL    HW135744   2.829   2.273  15.770  2.9446  2.7222 -0.4147
 8036SOL    HW235745   2.902   2.143  15.751  1.7628  0.2466  1.5997
 8037SOL     OW35746   1.646   3.542   1.587 -0.2393  0.3396  0.0057
 8037SOL    HW135747   1.590   3.475   1.547 -1.7995  1.3079  0.5521
 8037SOL    HW235748   1.673   3.479   1.653  2.8066 -0.7067 -2.2407
 8038SOL     OW35749   4.549   0.918   5.870  0.5227  0.2940 -0.3156
 8038SOL    HW135750   4.459   0.948   5.861  0.8566  1.7571  1.2953
 8038SOL    HW235751   4.581   0.896   5.782  0.3497  2.1952 -0.8517
 8039SOL     OW35752   1.434   2.147   4.370  0.0352  0.9357  0.2688
 8039SOL    HW135753   1.528   2.165   4.372  0.0605  0.5939  2.4715
 8039SOL    HW235754   1.432   2.058   4.335  1.8498  0.9719  0.0549
 8040SOL     OW35755   2.575   3.870   7.840 -0.4298  0.5796  0.0692
 8040SOL    HW135756   2.609   3.830   7.920 -1.4616 -2.1837 -0.8679
 8040SOL    HW235757   2.482   3.855   7.858 -0.1907 -0.5776  0.3747
 8041SOL     OW35758   4.463   1.891   7.097 -0.4569 -0.0937  0.0196
 8041SOL    HW135759   4.404   1.946   7.045  1.3660  1.5819 -0.2896
 8041SOL    HW235760   4.444   1.808   7.054  0.7300  0.0071 -0.7120
 8042SOL     OW35761   0.274   3.823   9.298  0.4339 -0.4919  0.4092
 8042SOL    HW135762   0.277   3.765   9.374 -0.7377 -0.8286  0.2059
 8042SOL    HW235763   0.227   3.761   9.241 -1.0941  0.2828  0.8371
 8043SOL     OW35764   2.520   0.240   9.806  0.7071 -0.1597  0.0661
 8043SOL    HW135765   2.566   0.296   9.868 -1.6544  1.7185  0.1654
 8043SOL    HW235766   2.513   0.306   9.737  2.8349  0.7821  0.7552
 8044SOL     OW35767   0.478   2.196   8.976 -0.2867 -0.0244 -0.1787
 8044SOL    HW135768   0.397   2.238   8.948 -0.2591  0.5868  0.6482
 8044SOL    HW235769   0.474   2.109   8.935 -2.7324  0.6032 -1.2472
 8045SOL     OW35770   0.284   2.838  16.528 -0.2188 -0.3067 -0.0727
 8045SOL    HW135771   0.210   2.845  16.467 -2.8064  0.2809  3.1110
 8045SOL    HW235772   0.343   2.901  16.487  0.2210  0.8433  2.3003
 8046SOL     OW35773   2.498   1.540   6.555  0.6164 -0.7148 -0.1614
 8046SOL    HW135774   2.501   1.483   6.478 -1.7965 -1.1796  0.0918
 8046SOL    HW235775   2.504   1.466   6.615 -0.2724 -0.5698  0.1061
 8047SOL     OW35776   0.794   0.106   1.973 -0.1873 -0.3291 -0.3264
 8047SOL    HW135777   0.725   0.108   2.040  0.2523  1.0541  0.0900
 8047SOL    HW235778   0.819   0.199   1.967 -0.6689 -0.1323  0.7816
 8048SOL     OW35779   0.107   3.665   4.542 -0.5015  0.4530 -0.1134
 8048SOL    HW135780   0.089   3.579   4.581 -0.5894  0.3262 -0.4343
 8048SOL    HW235781   0.027   3.706   4.576 -1.6912 -1.0077 -1.0943
 8049SOL     OW35782   1.044   3.483   6.576 -0.0720 -0.5763  0.4525
 8049SOL    HW135783   1.128   3.475   6.530 -1.0947  1.5327 -1.7879
 8049SOL    HW235784   1.001   3.554   6.529 -0.6998  0.0430  1.9591
 8050SOL     OW35785   0.063   3.972   4.387 -0.2007  0.1657  0.5858
 8050SOL    HW135786   0.139   3.948   4.334 -0.4812 -1.1068  0.7562
 8050SOL    HW235787   0.023   4.039   4.331 -0.5295 -0.1467  0.4492
 8051SOL     OW35788   3.266   4.501   4.926 -0.0187 -0.5053 -0.6337
 8051SOL    HW135789   3.333   4.560   4.890 -1.1759  0.5914 -0.9797
 8051SOL    HW235790   3.313   4.454   4.995  1.2946  0.2602 -0.9889
 8052SOL     OW35791   3.609   2.658   9.478  0.1652  0.3838 -0.2497
 8052SOL    HW135792   3.608   2.568   9.508 -0.9698  0.0650 -1.2230
 8052SOL    HW235793   3.546   2.698   9.539  1.2337  0.0402  1.0611
 8053SOL     OW35794   2.255   0.013   0.096  0.1375  0.0573 -0.3830
 8053SOL    HW135795   2.323   4.714   0.039  1.5795  0.1121  1.3028
 8053SOL    HW235796   2.229   4.674   0.147 -0.8480  0.5062 -0.2066
 8054SOL     OW35797   2.227   2.397  10.450  0.1681  0.0336  0.3339
 8054SOL    HW135798   2.311   2.401  10.495  0.2411  1.1014  0.1078
 8054SOL    HW235799   2.191   2.313  10.478 -2.5495  0.7002 -1.0826
 8055SOL     OW35800   0.060   0.893  13.370 -0.5911  0.0163 -0.1210
 8055SOL    HW135801   4.711   0.907  13.332 -0.6842  0.9017  0.4164
 8055SOL    HW235802   0.036   0.921  13.459 -2.0205 -0.2590 -0.4200
 8056SOL     OW35803   1.931   3.396   4.257 -0.3002 -0.1799 -0.1868
 8056SOL    HW135804   1.901   3.357   4.339 -1.1487  0.7389 -0.0556
 8056SOL    HW235805   1.842   3.418   4.228  0.6198  3.1254 -0.4776
 8057SOL     OW35806   0.618   1.787   6.631 -0.6700  0.1016  0.2541
 8057SOL    HW135807   0.645   1.772   6.722  0.8781  0.3937 -0.1605
 8057SOL    HW235808   0.695   1.750   6.588 -0.5142  1.5293 -0.7078
 8058SOL     OW35809   1.647   4.321   7.122 -0.3219  0.4458 -0.0900
 8058SOL    HW135810   1.687   4.407   7.117  2.0958 -0.6838 -0.0506
 8058SOL    HW235811   1.650   4.311   7.218  0.6686 -1.8978 -0.3536
 8059SOL     OW35812   1.853   3.479   3.695 -0.0832  0.2453  0.4067
 8059SOL    HW135813   1.815   3.468   3.783 -0.1229 -1.3926  0.1723
 8059SOL    HW235814   1.940   3.447   3.719 -0.9066 -2.1344  0.2072
 8060SOL     OW35815   3.456   1.454   4.260  0.3968 -0.4076 -0.1346
 8060SOL    HW135816   3.373   1.435   4.216  0.6669  0.4286 -1.0153
 8060SOL    HW235817   3.467   1.364   4.290  1.2943 -0.4257 -0.5026
 8061SOL     OW35818   4.701   4.527   6.886 -0.6367 -0.1084  0.1838
 8061SOL    HW135819   4.727   4.590   6.953 -0.6203 -0.7413  0.7633
 8061SOL    HW235820   0.031   4.460   6.899  0.5483  1.2626  1.1936
 8062SOL     OW35821   4.347   2.625   5.723 -0.0591  0.0783 -0.4384
 8062SOL    HW135822   4.409   2.695   5.742 -0.6725  0.4278  0.2827
 8062SOL    HW235823   4.389   2.573   5.654  1.0791 -1.2190  1.2203
 8063SOL     OW35824   2.853   0.076   6.209  0.7549  0.0177 -0.0065
 8063SOL    HW135825   2.807   0.152   6.244  0.1821 -0.3019 -0.0700
 8063SOL    HW235826   2.792   0.010   6.243  0.7357 -0.3178 -0.7079
 8064SOL     OW35827   1.053   0.007   7.300  0.1891  0.6875 -0.7359
 8064SOL    HW135828   1.090   0.032   7.385 -1.8365 -1.4525  0.7831
 8064SOL    HW235829   1.129   0.021   7.244  1.2157  2.0884  1.0098
 8065SOL     OW35830   1.895   3.565   7.453  0.2403  0.0958  0.2342
 8065SOL    HW135831   1.954   3.497   7.419 -0.8387 -2.0700  2.7130
 8065SOL    HW235832   1.823   3.506   7.476 -0.8501  1.2548 -0.2030
 8066SOL     OW35833   4.349   1.080   8.305  0.3552 -0.3566  0.8435
 8066SOL    HW135834   4.397   1.021   8.364 -0.6604 -1.1390  0.9012
 8066SOL    HW235835   4.372   1.041   8.221  0.0179  0.6505  0.2926
 8067SOL     OW35836   0.928   3.594  12.213  0.0434  0.0790 -0.6172
 8067SOL    HW135837   0.946   3.580  12.306 -0.1731  2.6470 -0.1820
 8067SOL    HW235838   0.998   3.535  12.183 -1.5231 -1.0673 -2.0192
 8068SOL     OW35839   1.234   1.462   5.953  0.4713  0.7033  0.4604
 8068SOL    HW135840   1.242   1.489   5.861  1.2381  1.5556  0.7822
 8068SOL    HW235841   1.236   1.546   5.997  2.0528  0.6354  0.5239
 8069SOL     OW35842   3.977   4.399   2.134 -0.5641  0.1903 -0.3663
 8069SOL    HW135843   4.061   4.445   2.137 -0.9972  0.8722  1.2497
 8069SOL    HW235844   4.001   4.345   2.059  0.6980  1.7850 -1.1023
 8070SOL     OW35845   3.027   3.463  10.011  0.8119  0.3763  0.7561
 8070SOL    HW135846   3.092   3.430   9.948  0.2871  1.9163 -0.5893
 8070SOL    HW235847   3.086   3.458  10.086  0.8110  0.7707  0.7799
 8071SOL     OW35848   3.205   2.290  17.523 -0.2413  0.5427 -0.1060
 8071SOL    HW135849   3.295   2.260  17.531  0.3668  2.1751 -0.7484
 8071SOL    HW235850   3.209   2.363  17.584  0.1541 -0.9194  1.6231
 8072SOL     OW35851   3.626   0.459  12.027  0.1204 -0.2041 -0.2089
 8072SOL    HW135852   3.608   0.378  12.075 -1.4476 -0.5304 -1.3637
 8072SOL    HW235853   3.576   0.444  11.947  0.0284  1.3020 -0.4187
 8073SOL     OW35854   3.851   1.291   4.878  0.2554 -0.1863  0.1081
 8073SOL    HW135855   3.783   1.331   4.932  0.3663 -0.5659  0.5272
 8073SOL    HW235856   3.899   1.374   4.873 -0.1234  0.1296  1.6191
 8074SOL     OW35857   2.166   3.768   2.427  0.2241  0.0853 -0.2741
 8074SOL    HW135858   2.239   3.763   2.489 -0.8703 -3.8261  0.6502
 8074SOL    HW235859   2.112   3.835   2.471 -0.1717 -0.9928  0.8989
 8075SOL     OW35860   0.012   3.239  16.123 -0.4147  0.3549  0.5343
 8075SOL    HW135861   0.040   3.263  16.035  0.3755  0.2908  0.7742
 8075SOL    HW235862   4.660   3.211  16.104  0.0686  0.1494 -1.4316
 8076SOL     OW35863   3.926   3.177   9.534 -0.7225 -0.8512  0.0288
 8076SOL    HW135864   3.880   3.110   9.584 -3.1328  1.6604  1.1778
 8076SOL    HW235865   3.904   3.253   9.588 -0.8941  0.8997 -2.5589
 8077SOL     OW35866   1.464   3.917  17.071 -0.1966 -0.3472  0.1601
 8077SOL    HW135867   1.514   3.998  17.065 -0.6438 -0.1676 -1.1342
 8077SOL    HW235868   1.503   3.896  17.156 -0.1831 -0.3004  0.1655
 8078SOL     OW35869   3.903   1.177   7.743  0.3473  0.0638 -0.7924
 8078SOL    HW135870   3.965   1.118   7.699  1.1251 -0.7206  1.3512
 8078SOL    HW235871   3.820   1.129   7.746  0.9533 -0.7800  3.0713
 8079SOL     OW35872   0.669   1.069   8.996 -0.4632  0.5256  0.4223
 8079SOL    HW135873   0.582   1.064   9.035 -1.0112 -0.6050 -0.9569
 8079SOL    HW235874   0.652   1.057   8.903 -0.5832 -0.5800  0.5895
 8080SOL     OW35875   1.771   3.931   3.670  0.1284 -0.5768 -0.2523
 8080SOL    HW135876   1.859   3.906   3.641  0.1747 -0.8483  0.1211
 8080SOL    HW235877   1.727   3.846   3.660 -0.5439 -0.5899  2.8476
 8081SOL     OW35878   2.782   1.520   3.263 -0.6944  0.2253  0.7320
 8081SOL    HW135879   2.784   1.448   3.325 -0.2745 -0.5976 -0.2462
 8081SOL    HW235880   2.689   1.511   3.240  0.1219  1.2030 -3.0833
 8082SOL     OW35881   0.295   1.484  14.526 -0.7537  0.0264 -0.1947
 8082SOL    HW135882   0.260   1.559  14.476  0.1529  1.1393  0.8567
 8082SOL    HW235883   0.388   1.489  14.505 -0.3914  1.6685  1.8480
 8083SOL     OW35884   0.693   0.547   6.809 -0.0283 -0.6168  0.2335
 8083SOL    HW135885   0.736   0.462   6.819  2.5989  0.5485 -0.9065
 8083SOL    HW235886   0.709   0.556   6.715 -0.8205  0.0723  0.1710
 8084SOL     OW35887   2.314   1.992   6.431  0.4165  0.0754 -0.1656
 8084SOL    HW135888   2.300   2.018   6.340  0.5793 -0.5086 -0.3514
 8084SOL    HW235889   2.345   1.903   6.415 -0.8070 -0.0081 -2.1160
 8085SOL     OW35890   2.907   0.751   3.457 -0.3937 -0.2272 -0.3394
 8085SOL    HW135891   2.971   0.684   3.435  0.6701  0.1564  1.6748
 8085SOL    HW235892   2.954   0.782   3.534 -0.0919  0.4850 -0.8061
 8086SOL     OW35893   0.581   4.616   5.493  0.6095  0.2323 -0.1882
 8086SOL    HW135894   0.550   4.557   5.425  0.7161 -0.3792  0.2970
 8086SOL    HW235895   0.556   4.565   5.571 -0.4905  2.5446  1.0011
 8087SOL     OW35896   3.062   3.635   7.388 -0.4043 -0.0773 -0.7741
 8087SOL    HW135897   3.006   3.615   7.463  0.2581 -0.2984 -0.3356
 8087SOL    HW235898   3.140   3.634   7.443 -0.8131  3.4996 -0.1336
 8088SOL     OW35899   2.391   0.652   7.316  0.3206  0.1557 -0.4115
 8088SOL    HW135900   2.326   0.651   7.246  0.1032  0.7446 -0.2156
 8088SOL    HW235901   2.387   0.572   7.369 -0.0139  1.1060  0.9899
 8089SOL     OW35902   1.833   3.861   5.688 -0.0686 -0.2255 -0.6081
 8089SOL    HW135903   1.819   3.950   5.718 -1.0683 -1.2383  1.8855
 8089SOL    HW235904   1.919   3.835   5.722  0.4591  1.3452 -0.7456
 8090SOL     OW35905   2.948   0.521   6.584  0.4827 -0.0355  0.1887
 8090SOL    HW135906   2.992   0.596   6.622 -0.1166  1.3390 -1.8474
 8090SOL    HW235907   2.909   0.468   6.654  0.8096  0.5225  0.7884
 8091SOL     OW35908   1.736   0.307   1.575  0.1087  0.2040  0.2305
 8091SOL    HW135909   1.650   0.288   1.613  0.4127 -0.6400  0.4925
 8091SOL    HW235910   1.774   0.370   1.636 -0.4087 -1.2359  2.0130
 8092SOL     OW35911   2.313   1.752   2.196 -0.4088  0.2214  1.3594
 8092SOL    HW135912   2.222   1.769   2.170  0.3177  0.7927 -0.7486
 8092SOL    HW235913   2.334   1.682   2.135  1.7405  2.5395 -0.5544
 8093SOL     OW35914   3.756   0.056   0.678 -0.1878 -0.3648  0.5578
 8093SOL    HW135915   3.704   0.040   0.757 -0.5253 -0.2607  0.3583
 8093SOL    HW235916   3.719   0.143   0.661 -3.1971 -1.6281  0.5549
 8094SOL     OW35917   3.834   0.766   9.032 -0.3555  0.3137 -0.2914
 8094SOL    HW135918   3.823   0.851   8.989  1.6991 -0.9024 -3.1496
 8094SOL    HW235919   3.784   0.707   8.976  1.5890 -1.9875  0.4481
 8095SOL     OW35920   3.996   3.276   7.353  0.2472 -0.4701 -0.3335
 8095SOL    HW135921   3.936   3.310   7.420 -0.6562  3.4042 -3.0545
 8095SOL    HW235922   4.003   3.183   7.371 -0.8121 -0.0417  2.3622
 8096SOL     OW35923   2.889   2.792  15.349  0.2797 -0.1539 -0.4733
 8096SOL    HW135924   2.934   2.711  15.372  0.6787  0.2888  0.3113
 8096SOL    HW235925   2.847   2.770  15.266 -0.3148 -2.1206  0.3538
 8097SOL     OW35926   0.303   4.208   5.330 -0.0424 -0.1841  0.5084
 8097SOL    HW135927   0.277   4.132   5.278 -1.2672 -0.1457  1.0799
 8097SOL    HW235928   0.301   4.172   5.419 -0.5486 -1.6654 -0.1007
 8098SOL     OW35929   2.305   2.448  16.402  0.0186  0.0996 -0.1835
 8098SOL    HW135930   2.215   2.429  16.373  1.5597 -2.4831 -3.3164
 8098SOL    HW235931   2.346   2.412  16.324 -1.4027 -1.5247 -0.1914
 8099SOL     OW35932   2.239   2.783   8.856  0.3449  0.3819  0.3531
 8099SOL    HW135933   2.157   2.744   8.885 -0.6246  2.8006  0.8239
 8099SOL    HW235934   2.230   2.774   8.761 -1.1593  0.7586  0.4694
 8100SOL     OW35935   3.711   1.051   5.892  0.4703 -0.8126  0.1680
 8100SOL    HW135936   3.640   0.989   5.909 -0.7099  0.5619  0.3171
 8100SOL    HW235937   3.656   1.130   5.884 -1.1278 -1.9851 -0.3951
 8101SOL     OW35938   1.326   4.332   3.087  0.0351  0.2761  0.3903
 8101SOL    HW135939   1.345   4.278   3.164  0.8216  2.4856  1.7567
 8101SOL    HW235940   1.333   4.271   3.014  0.0417 -0.2094  0.7930
 8102SOL     OW35941   1.136   0.794   8.010  0.1286  0.1345 -0.0694
 8102SOL    HW135942   1.105   0.866   7.956  0.8181 -0.9178 -1.8737
 8102SOL    HW235943   1.221   0.781   7.967 -0.0534 -0.5048 -0.2369
 8103SOL     OW35944   0.104   2.501   6.173 -0.4499 -0.5988  0.5412
 8103SOL    HW135945   0.043   2.443   6.219 -1.3560  1.6582  2.2033
 8103SOL    HW235946   0.177   2.495   6.235 -1.8478  1.0098  2.3468
 8104SOL     OW35947   4.240   4.680   6.370  0.0208  0.4169  0.3185
 8104SOL    HW135948   4.249   4.700   6.277  1.4234 -0.5804  0.2421
 8104SOL    HW235949   4.167   4.731   6.404 -0.6511  0.4889 -1.2170
 8105SOL     OW35950   2.183   1.720   7.057 -0.1191 -0.8382  0.5265
 8105SOL    HW135951   2.215   1.759   6.975  3.1272 -1.7680  1.3249
 8105SOL    HW235952   2.263   1.727   7.110 -0.5897  0.1746  1.1085
 8106SOL     OW35953   0.009   1.600  15.517 -0.7181  0.0216 -0.5486
 8106SOL    HW135954   4.734   1.691  15.544  0.3620 -0.2112  0.7321
 8106SOL    HW235955   4.656   1.575  15.503 -0.5009  0.0011 -1.9331
 8107SOL     OW35956   1.934   2.635  16.850  0.4050 -0.5785 -0.1545
 8107SOL    HW135957   2.029   2.626  16.854  0.4138 -0.2532  0.2846
 8107SOL    HW235958   1.901   2.644  16.939 -1.1416  1.1162 -0.8946
 8108SOL     OW35959   1.069   4.015   6.925 -0.4894 -0.3945  0.0442
 8108SOL    HW135960   1.071   4.082   6.993  3.7595 -0.6301  0.1006
 8108SOL    HW235961   1.152   3.974   6.949  0.8448  3.3385  1.8478
 8109SOL     OW35962   1.747   3.198  11.609  0.3853  0.4042 -0.2322
 8109SOL    HW135963   1.807   3.255  11.560 -1.0886  0.9446 -1.3981
 8109SOL    HW235964   1.769   3.231  11.696 -2.6953  0.2401  0.5897
 8110SOL     OW35965   1.972   4.256   3.510 -0.1491  0.2662 -0.1718
 8110SOL    HW135966   1.995   4.212   3.428  1.6142 -1.0539  1.0275
 8110SOL    HW235967   2.037   4.326   3.501 -1.6255  1.8461  1.4641
 8111SOL     OW35968   0.609   4.139   6.548 -0.4411 -0.0768 -0.8129
 8111SOL    HW135969   0.575   4.223   6.517 -1.3492  0.5123  1.7683
 8111SOL    HW235970   0.702   4.157   6.540 -0.0681 -1.5373  0.2080
 8112SOL     OW35971   3.152   4.193   3.808  0.0118 -0.0019  0.0322
 8112SOL    HW135972   3.163   4.228   3.897  3.2097  0.0679 -0.4121
 8112SOL    HW235973   3.100   4.117   3.833 -2.3170  0.8823 -2.0519
 8113SOL     OW35974   3.684   3.021   1.528  0.0448  0.2566 -0.1077
 8113SOL    HW135975   3.643   2.979   1.452 -1.3100  0.8891  0.2736
 8113SOL    HW235976   3.626   2.984   1.594  1.0884 -1.5503 -0.2159
 8114SOL     OW35977   2.253   1.956   5.592 -1.0724 -0.9156 -0.1980
 8114SOL    HW135978   2.189   2.025   5.611  0.3220  0.1236  0.6975
 8114SOL    HW235979   2.241   1.902   5.670  0.4202 -2.5190 -1.0824
 8115SOL     OW35980   1.210   3.464   1.517  0.6422 -0.2606 -0.6833
 8115SOL    HW135981   1.144   3.397   1.500  0.4959 -0.8547  2.2158
 8115SOL    HW235982   1.178   3.485   1.605 -2.8209  0.1748 -2.0323
 8116SOL     OW35983   3.689   4.017   6.721  0.2762  0.1034 -0.0261
 8116SOL    HW135984   3.784   4.021   6.711  0.3986 -0.6461  0.8454
 8116SOL    HW235985   3.666   4.107   6.696  0.0954 -0.6466 -2.5878
 8117SOL     OW35986   4.053   4.102   9.305  0.5426 -0.1775 -0.3970
 8117SOL    HW135987   4.030   4.195   9.307 -0.7170 -0.4865 -0.2046
 8117SOL    HW235988   3.996   4.074   9.233  0.2152 -1.3223  0.3069
 8118SOL     OW35989   3.120   4.078   2.445 -0.4031  0.3555 -0.2226
 8118SOL    HW135990   3.072   4.120   2.516  0.0085 -0.2581  0.4223
 8118SOL    HW235991   3.108   3.988   2.475 -0.8387  0.8503  1.0847
 8119SOL     OW35992   2.889   4.343  12.284  0.5131  0.1012 -0.0680
 8119SOL    HW135993   2.899   4.434  12.258 -3.3628  0.0100 -1.8398
 8119SOL    HW235994   2.893   4.349  12.379  1.4563 -1.3135 -0.0089
 8120SOL     OW35995   2.107   2.537   9.041 -0.0843  0.9297 -0.0293
 8120SOL    HW135996   2.048   2.608   9.067  0.4731  1.1542  0.6483
 8120SOL    HW235997   2.166   2.533   9.117  1.0925 -0.8337 -1.0548
 8121SOL     OW35998   0.318   0.202  12.107  0.1088 -0.0143  0.3740
 8121SOL    HW135999   0.340   0.178  12.017  0.7726  0.3080  0.4478
 8121SOL    HW236000   0.378   0.275  12.119  1.4258 -1.0583  0.1154
 8122SOL     OW36001   0.646   4.002   6.799 -0.5483  0.8163 -0.5889
 8122SOL    HW136002   0.564   4.023   6.844 -0.2804 -0.4181  0.4482
 8122SOL    HW236003   0.648   4.074   6.735  0.5548  1.6227  0.3509
 8123SOL     OW36004   0.595   2.015   7.647 -0.2374 -0.5158  0.3916
 8123SOL    HW136005   0.679   2.059   7.630  0.3142 -0.9483  1.9936
 8123SOL    HW236006   0.591   1.994   7.740  0.2068 -2.6759 -0.0614
 8124SOL     OW36007   3.981   0.095   2.790  0.3700  1.1652 -0.2533
 8124SOL    HW136008   4.071   0.080   2.762  0.4115 -0.7704  0.9196
 8124SOL    HW236009   3.976   0.066   2.881  0.8828  1.3687 -0.1606
 8125SOL     OW36010   3.324   3.804   0.985 -0.2955  0.1231 -0.2008
 8125SOL    HW136011   3.260   3.872   1.008 -0.0459  0.3915 -0.3111
 8125SOL    HW236012   3.385   3.819   1.057  0.1729  1.4324 -0.8722
 8126SOL     OW36013   0.215   2.432   4.855  0.0426  0.7779  0.0629
 8126SOL    HW136014   0.206   2.438   4.950 -0.2339 -1.8757  0.2006
 8126SOL    HW236015   0.280   2.502   4.845 -1.1845  2.1451  1.6520
 8127SOL     OW36016   0.208   1.279   7.481 -0.1527  0.1038 -0.1928
 8127SOL    HW136017   0.263   1.339   7.431  1.5322 -1.1568  0.1742
 8127SOL    HW236018   0.135   1.270   7.420 -1.5187 -0.5529  1.5361
 8128SOL     OW36019   0.538   2.203   7.324 -0.2510 -0.2736 -0.4459
 8128SOL    HW136020   0.564   2.285   7.283  1.0977 -0.5482 -0.1221
 8128SOL    HW236021   0.507   2.147   7.253  0.7067 -0.9705 -0.3078
 8129SOL     OW36022   4.190   3.115   9.526 -0.1575  0.5180  1.1414
 8129SOL    HW136023   4.214   3.109   9.618 -0.4024  0.5864  1.2083
 8129SOL    HW236024   4.106   3.160   9.520 -0.1437  0.4352  0.3033
 8130SOL     OW36025   0.385   1.468   8.452 -0.6358 -0.5897 -0.3281
 8130SOL    HW136026   0.331   1.390   8.436  0.1006 -1.1588 -0.0516
 8130SOL    HW236027   0.465   1.416   8.456 -0.5231 -0.3423  0.7910
 8131SOL     OW36028   0.539   2.180   6.307 -0.7647 -0.4519  0.3860
 8131SOL    HW136029   0.454   2.212   6.276 -0.8002  0.1480  1.1180
 8131SOL    HW236030   0.517   2.122   6.380 -1.1506  1.0643  1.4696
 8132SOL     OW36031   0.563   4.168   1.313  0.1201 -0.0934 -0.2467
 8132SOL    HW136032   0.629   4.098   1.304  1.5770  1.2591 -0.0954
 8132SOL    HW236033   0.594   4.214   1.390 -1.4874 -0.6778  0.7330
 8133SOL     OW36034   3.700   0.600   9.728 -0.0028 -0.0200 -0.0870
 8133SOL    HW136035   3.777   0.657   9.724 -0.7232  0.8196 -1.9161
 8133SOL    HW236036   3.662   0.621   9.814  0.4401 -1.8629  0.5570
 8134SOL     OW36037   4.174   2.281   2.123  0.1030 -0.0361  0.3074
 8134SOL    HW136038   4.107   2.219   2.094 -2.7337  1.8847  2.8254
 8134SOL    HW236039   4.164   2.271   2.218  1.5076  0.8256  0.5495
 8135SOL     OW36040   1.507   1.477   2.838 -0.2656 -0.4506 -0.0870
 8135SOL    HW136041   1.465   1.526   2.908  0.4353 -1.4298  1.0211
 8135SOL    HW236042   1.512   1.544   2.769 -2.9779 -2.3217 -2.0859
 8136SOL     OW36043   1.470   2.433   3.442  0.3379 -0.0488  0.2162
 8136SOL    HW136044   1.460   2.351   3.491 -2.0655 -0.4904 -1.0463
 8136SOL    HW236045   1.500   2.480   3.520  1.0979 -1.6438  0.8791
 8137SOL     OW36046   1.490   1.502   8.078 -0.0997  0.4620  0.0106
 8137SOL    HW136047   1.515   1.520   7.987  1.0249 -3.8508 -0.4991
 8137SOL    HW236048   1.400   1.532   8.069 -0.5532 -1.5624 -2.2058
 8138SOL     OW36049   3.111   3.720   1.614  0.4881 -0.0089 -0.3666
 8138SOL    HW136050   3.025   3.729   1.654  0.2798  0.3535 -0.8941
 8138SOL    HW236051   3.145   3.640   1.654  2.8286  0.5893 -1.1765
 8139SOL     OW36052   1.608   1.384   3.563 -0.2708  0.1883 -0.6608
 8139SOL    HW136053   1.656   1.387   3.646 -1.5156 -3.2516  0.2147
 8139SOL    HW236054   1.683   1.376   3.504 -1.3565 -1.9367 -1.7478
 8140SOL     OW36055   4.310   4.613   9.127  0.3087 -0.0929  0.6418
 8140SOL    HW136056   4.249   4.552   9.086 -1.7891  1.4295  1.5130
 8140SOL    HW236057   4.261   4.689   9.096  0.3498  0.0779  0.9913
 8141SOL     OW36058   4.311   0.309   8.006  0.0940  0.0348  0.0399
 8141SOL    HW136059   4.331   0.392   7.963 -1.9742  0.7903  0.5075
 8141SOL    HW236060   4.237   0.325   8.066  0.4527  0.4460  0.3703
 8142SOL     OW36061   0.302   2.530   6.404 -0.4284 -0.0272 -0.0961
 8142SOL    HW136062   0.337   2.496   6.486  0.1395  0.6237 -0.0711
 8142SOL    HW236063   0.387   2.552   6.366 -0.2173  1.2637  1.1335
 8143SOL     OW36064   2.008   3.254   0.648 -0.3821 -0.4238  0.6194
 8143SOL    HW136065   2.023   3.165   0.680 -0.2455 -0.4440  0.4974
 8143SOL    HW236066   1.946   3.288   0.713 -2.0580 -0.2835 -1.0569
 8144SOL     OW36067   1.042   3.761   0.727 -0.4867 -0.2393  0.1172
 8144SOL    HW136068   1.093   3.830   0.770  1.2802 -1.2070 -0.4615
 8144SOL    HW236069   0.953   3.797   0.734 -0.3508  0.4486 -1.7154
 8145SOL     OW36070   1.466   3.448  10.065  0.0697  0.0054  0.3006
 8145SOL    HW136071   1.529   3.521  10.061 -0.2708  0.3534  1.3992
 8145SOL    HW236072   1.386   3.499  10.051  1.0292  1.7954  1.2463
 8146SOL     OW36073   2.033   2.075   7.572 -0.6915  0.0173 -0.1271
 8146SOL    HW136074   1.972   2.104   7.640  0.0174  1.5374 -0.1491
 8146SOL    HW236075   2.040   1.980   7.582 -0.2445  0.3564  2.8186
 8147SOL     OW36076   0.964   1.056   7.021  0.0097  0.4874  0.0392
 8147SOL    HW136077   0.890   1.116   7.024  0.5642  1.1451  0.6633
 8147SOL    HW236078   1.022   1.094   7.087 -0.1724  1.9740 -0.6635
 8148SOL     OW36079   0.289   2.820  12.468 -0.2469  0.2812  0.4419
 8148SOL    HW136080   0.234   2.754  12.510 -1.6775  0.7643 -0.6999
 8148SOL    HW236081   0.232   2.896  12.477  0.2341  0.8728 -1.6351
 8149SOL     OW36082   4.602   4.722   3.507  0.2347  0.2597 -0.3534
 8149SOL    HW136083   4.610   0.010   3.599 -0.6840  0.7599 -0.4108
 8149SOL    HW236084   4.669   0.037   3.464 -1.3903  2.7004  0.1120
 8150SOL     OW36085   4.037   1.436  14.171  0.2789  0.2176 -0.6257
 8150SOL    HW136086   4.087   1.354  14.166  0.9736  0.6717 -1.0644
 8150SOL    HW236087   3.962   1.405  14.119 -0.6210  1.7840 -0.2722
 8151SOL     OW36088   3.960   3.029   8.003  0.7144 -0.2215 -0.2397
 8151SOL    HW136089   3.918   3.108   8.036  0.8392 -0.2270 -0.0692
 8151SOL    HW236090   3.983   2.984   8.084  2.6458  1.5028  0.1586
 8152SOL     OW36091   4.215   4.493   2.198  0.3727 -0.0920 -0.1315
 8152SOL    HW136092   4.301   4.464   2.228  0.5379  3.0191  2.4338
 8152SOL    HW236093   4.188   4.536   2.279 -0.7133 -3.8499  1.4976
 8153SOL     OW36094   4.716   3.353   8.849  0.1085  0.5439 -0.3875
 8153SOL    HW136095   4.656   3.282   8.873  1.3403 -0.5877 -0.6639
 8153SOL    HW236096   4.645   3.414   8.828 -1.3061 -0.0796  2.4934
 8154SOL     OW36097   4.179   1.844   5.063 -0.3917  0.0289  0.1257
 8154SOL    HW136098   4.253   1.904   5.061  0.2023 -0.6773  0.7192
 8154SOL    HW236099   4.212   1.773   5.119  1.9708  0.1617 -1.0731
 8155SOL     OW36100   2.043   3.580   5.485  0.2098  0.6031  0.4205
 8155SOL    HW136101   2.032   3.625   5.569 -0.0558 -0.0110  0.7148
 8155SOL    HW236102   2.138   3.585   5.476  0.0470  1.2376 -0.8704
 8156SOL     OW36103   2.599   1.276  13.367  0.5713  0.4142 -0.9907
 8156SOL    HW136104   2.594   1.208  13.301 -3.3360 -0.7455  0.5240
 8156SOL    HW236105   2.511   1.308  13.348  1.2329  1.7827 -1.7385
 8157SOL     OW36106   0.394   0.720   9.758 -0.5471  0.1017  0.3119
 8157SOL    HW136107   0.393   0.753   9.669  0.9470  0.5257  0.4509
 8157SOL    HW236108   0.393   0.625   9.747 -1.0496  0.1628 -0.1471
 8158SOL     OW36109   0.151   0.007   5.558 -0.2728 -0.7696  0.0120
 8158SOL    HW136110   0.166   4.652   5.571  2.0643 -0.5963 -1.3490
 8158SOL    HW236111   0.064   0.022   5.595  0.0823  0.1598  0.4920
 8159SOL     OW36112   1.761   1.958   5.036  0.3643  0.8564 -0.0531
 8159SOL    HW136113   1.765   1.881   4.980  0.6231 -1.9009  3.7425
 8159SOL    HW236114   1.841   2.004   5.011  0.1381 -0.0446 -2.3677
 8160SOL     OW36115   0.855   0.367   4.173  0.2841  0.3414  0.1931
 8160SOL    HW136116   0.944   0.331   4.181 -1.0127 -2.8911 -0.0650
 8160SOL    HW236117   0.822   0.334   4.257 -1.2729 -1.4560 -1.1418
 8161SOL     OW36118   0.832   3.137   0.900  0.3104 -0.3380 -0.2546
 8161SOL    HW136119   0.745   3.117   0.865  0.1390 -2.7194  1.5414
 8161SOL    HW236120   0.885   3.061   0.876  0.3744 -1.2525  2.8494
 8162SOL     OW36121   2.350   4.406   2.673  0.3560 -0.0573  0.1559
 8162SOL    HW136122   2.323   4.342   2.739  1.2188  0.2887  0.8547
 8162SOL    HW236123   2.422   4.459   2.707 -0.1151 -0.1355  1.2826
 8163SOL     OW36124   3.505   0.905   5.367 -0.4160  0.2013 -0.0341
 8163SOL    HW136125   3.461   0.820   5.358 -4.0260  2.1579 -0.7072
 8163SOL    HW236126   3.474   0.962   5.297 -2.4582 -0.8861  0.0091
 8164SOL     OW36127   3.068   4.473   4.720  0.0084 -0.0599 -0.0802
 8164SOL    HW136128   3.120   4.477   4.801 -0.3054  1.3974  0.0506
 8164SOL    HW236129   3.066   4.378   4.714 -1.4951 -0.0779  0.6346
 8165SOL     OW36130   1.820   1.834  16.096  0.1621 -0.3039 -0.8652
 8165SOL    HW136131   1.831   1.794  16.010 -0.5234  0.9212 -1.5138
 8165SOL    HW236132   1.728   1.832  16.120  0.5025  0.6324  0.5814
 8166SOL     OW36133   0.593   2.830   3.689  0.4369  0.8418  0.1325
 8166SOL    HW136134   0.669   2.774   3.703  0.4837  0.5524 -1.3483
 8166SOL    HW236135   0.536   2.759   3.660  0.2733 -0.0271  2.6007
 8167SOL     OW36136   2.062   1.881   3.727  0.0370 -0.3295  0.4068
 8167SOL    HW136137   2.156   1.871   3.721  0.0049  0.4334 -1.5614
 8167SOL    HW236138   2.048   1.957   3.670  1.8242 -1.0708 -1.0084
 8168SOL     OW36139   1.453   2.681  15.531  0.0063 -0.1381  0.4827
 8168SOL    HW136140   1.473   2.767  15.492  2.9745 -0.0078  2.3671
 8168SOL    HW236141   1.484   2.693  15.620  1.7903 -1.2247  0.0029
 8169SOL     OW36142   0.175   1.020   8.585 -0.1588  0.1247  0.1060
 8169SOL    HW136143   0.103   0.987   8.531  0.6130 -1.5011  0.0808
 8169SOL    HW236144   0.187   0.946   8.645 -0.9592  0.7048  0.9833
 8170SOL     OW36145   1.565   1.471   5.015  0.1625 -0.0622 -0.4582
 8170SOL    HW136146   1.654   1.475   5.049 -0.3319  0.4390  0.7775
 8170SOL    HW236147   1.571   1.392   4.962  2.6975  0.1541 -0.5075
 8171SOL     OW36148   3.867   4.719  13.058  0.0555  0.0617 -0.0808
 8171SOL    HW136149   3.872   4.693  13.150  2.8499 -0.5540 -0.4183
 8171SOL    HW236150   3.916   0.063  13.065  0.1712 -0.0683  0.6242
 8172SOL     OW36151   1.384   3.468   0.592  0.2037 -0.2479  0.7387
 8172SOL    HW136152   1.313   3.521   0.556 -1.1133 -0.6035  2.8622
 8172SOL    HW236153   1.327   3.394   0.613  0.9768 -0.2687  2.7442
 8173SOL     OW36154   3.738   3.442   3.961 -0.2549  0.0590 -0.0850
 8173SOL    HW136155   3.771   3.517   4.010  0.6215 -0.0986 -0.4317
 8173SOL    HW236156   3.783   3.453   3.877 -0.9598 -1.6506 -0.7000
 8174SOL     OW36157   4.354   3.618   4.545 -0.1580 -0.4001 -0.6941
 8174SOL    HW136158   4.431   3.671   4.528  0.4676 -0.4089  2.1879
 8174SOL    HW236159   4.385   3.545   4.598  0.1291  0.9678  1.0205
 8175SOL     OW36160   3.683   3.829   9.394 -0.2029 -0.0777 -0.0649
 8175SOL    HW136161   3.708   3.833   9.487  0.0760 -3.6457  0.0095
 8175SOL    HW236162   3.669   3.735   9.384 -1.1587  0.1578 -0.9464
 8176SOL     OW36163   1.463   3.257  17.351 -0.3468 -0.2334  0.0553
 8176SOL    HW136164   1.461   3.184  17.289 -0.3511  0.7519 -1.1063
 8176SOL    HW236165   1.390   3.311  17.320 -0.9011 -0.8296  0.3475
 8177SOL     OW36166   0.066   4.150   3.606  0.0018 -0.5027  0.1577
 8177SOL    HW136167   0.161   4.150   3.595  0.0910 -0.3527  0.8819
 8177SOL    HW236168   0.046   4.232   3.652 -0.0836  0.2392 -1.1928
 8178SOL     OW36169   0.757   4.124   4.868  0.4455  0.0903 -0.0219
 8178SOL    HW136170   0.716   4.151   4.950  0.2222 -0.5691  0.0758
 8178SOL    HW236171   0.848   4.118   4.899  0.7337 -0.6068 -0.9898
 8179SOL     OW36172   2.683   3.986   6.956 -0.2700  0.6060  0.3579
 8179SOL    HW136173   2.701   4.070   6.997  2.3370 -0.4094  1.2303
 8179SOL    HW236174   2.596   4.010   6.923 -1.1759  0.6950  2.8812
 8180SOL     OW36175   2.013   1.480   3.216  0.0627 -0.2359 -0.0477
 8180SOL    HW136176   1.920   1.464   3.201  0.7183 -2.1880 -2.0268
 8180SOL    HW236177   2.014   1.574   3.234  1.0876 -0.3194  0.2993
 8181SOL     OW36178   3.767   0.003   7.718 -0.4889 -0.2624  0.2452
 8181SOL    HW136179   3.829   0.044   7.778  0.2220 -0.5079 -0.3171
 8181SOL    HW236180   3.821   4.677   7.672 -0.5506 -1.1644  1.4316
 8182SOL     OW36181   4.211   1.750  14.366  0.7968  0.1315  0.2406
 8182SOL    HW136182   4.141   1.810  14.391  1.2804  0.5919  0.4924
 8182SOL    HW236183   4.167   1.665  14.371  0.9701  0.0742  0.8547
 8183SOL     OW36184   2.175   0.124  16.495 -0.0782  0.6077  0.3540
 8183SOL    HW136185   2.098   0.178  16.512  1.4646  3.2437 -0.9224
 8183SOL    HW236186   2.238   0.189  16.464 -0.9488  0.5724 -1.4871
 8184SOL     OW36187   2.314   2.209   3.967  0.2287 -0.3034  0.0595
 8184SOL    HW136188   2.319   2.113   3.966 -0.9115 -0.3444 -1.5577
 8184SOL    HW236189   2.333   2.222   4.060  1.0144 -1.4880  0.0672
 8185SOL     OW36190   1.290   0.619   9.989  0.1085  0.2174  0.0840
 8185SOL    HW136191   1.371   0.667  10.008  0.0663 -0.0444  0.8903
 8185SOL    HW236192   1.326   0.593   9.904  0.9791 -0.2479  0.6045
 8186SOL     OW36193   0.008   2.269   2.239  0.1404 -0.3214 -0.7837
 8186SOL    HW136194   4.673   2.206   2.233  0.1350 -0.3083 -0.8584
 8186SOL    HW236195   0.012   2.304   2.150  1.4195 -0.2928 -0.7029
 8187SOL     OW36196   3.753   4.659   8.620 -0.0866 -0.4596  0.4923
 8187SOL    HW136197   3.679   4.715   8.597  0.5932 -0.3291 -1.3496
 8187SOL    HW236198   3.714   4.611   8.694  1.7533 -0.1765  1.6240
 8188SOL     OW36199   0.935   1.409   3.435 -0.3325 -0.1090  0.4524
 8188SOL    HW136200   0.961   1.473   3.369 -0.7703  0.3321  0.7030
 8188SOL    HW236201   0.941   1.466   3.512  4.2554 -2.1388  1.5800
 8189SOL     OW36202   4.317   0.453   6.695  0.4862  0.5925 -0.0281
 8189SOL    HW136203   4.285   0.394   6.627  2.5831 -0.4421 -0.1178
 8189SOL    HW236204   4.404   0.425   6.723  0.4048  0.2043 -0.1693
 8190SOL     OW36205   2.704   1.773   1.959  0.0128  0.1941  0.0511
 8190SOL    HW136206   2.656   1.728   2.028  0.9178 -1.6282 -0.5071
 8190SOL    HW236207   2.633   1.790   1.897  0.0091 -2.8492 -0.8172
 8191SOL     OW36208   1.599   3.213  10.015  0.4064  0.2447 -0.3456
 8191SOL    HW136209   1.632   3.250   9.934  1.2561 -0.8506 -0.5021
 8191SOL    HW236210   1.540   3.287  10.031 -2.7927 -2.8164  2.1868
 8192SOL     OW36211   1.807   0.879   7.899  0.2058  0.3337  0.1177
 8192SOL    HW136212   1.832   0.970   7.882  1.2718 -0.1972 -1.0980
 8192SOL    HW236213   1.881   0.834   7.860 -0.0511  0.5671 -0.6468
 8193SOL     OW36214   1.512   4.128   8.811  0.2009 -0.2164 -0.5239
 8193SOL    HW136215   1.535   4.099   8.723  0.1234 -0.0910 -0.5857
 8193SOL    HW236216   1.466   4.049   8.841 -0.0134 -0.0987 -0.5421
 8194SOL     OW36217   2.998   4.255   5.017  0.5466 -0.8160 -0.3145
 8194SOL    HW136218   3.088   4.222   5.024  0.8617  0.2601  0.7689
 8194SOL    HW236219   2.981   4.227   4.927 -0.4608 -0.7167 -0.1536
 8195SOL     OW36220   2.970   4.682   3.818  0.5431 -0.3314 -0.3668
 8195SOL    HW136221   2.905   4.720   3.877  2.4490  1.1883  0.7400
 8195SOL    HW236222   2.919   4.615   3.772 -0.6844  0.8346 -0.7013
 8196SOL     OW36223   0.345   2.351   2.382 -0.1012  0.3605 -0.9502
 8196SOL    HW136224   0.267   2.302   2.356 -0.0998 -0.0760 -0.1056
 8196SOL    HW236225   0.374   2.297   2.456 -0.2834  2.6837  0.8063
 8197SOL     OW36226   4.201   1.294   6.861 -0.4257 -0.3015 -0.6652
 8197SOL    HW136227   4.207   1.389   6.870 -0.3128 -0.4390  0.6275
 8197SOL    HW236228   4.244   1.286   6.775  1.1994  0.1003  0.1080
 8198SOL     OW36229   3.607   3.305   4.952 -0.3671 -0.1425 -0.0009
 8198SOL    HW136230   3.627   3.212   4.962  1.3567  0.1872 -0.3060
 8198SOL    HW236231   3.512   3.313   4.940 -0.6148  0.3372  2.2550
 8199SOL     OW36232   0.014   3.905   2.720 -1.0302  0.0044  0.2926
 8199SOL    HW136233   4.716   3.817   2.730  1.6017 -1.2493 -1.5980
 8199SOL    HW236234   4.729   3.950   2.802 -1.7633  2.3570 -1.2079
 8200SOL     OW36235   3.000   0.781  12.458 -0.4848 -0.7202  0.4888
 8200SOL    HW136236   2.952   0.769  12.375 -0.6061 -0.4662  0.5205
 8200SOL    HW236237   2.937   0.809  12.524  0.3634 -1.3374  1.5550
 8201SOL     OW36238   4.665   1.394  13.482  0.1887  0.3257  0.3172
 8201SOL    HW136239   4.706   1.388  13.395  1.4433 -1.3810  1.0095
 8201SOL    HW236240   4.633   1.483  13.470  0.6685  0.7167  1.9388
 8202SOL     OW36241   1.802   3.112   6.817 -1.2213  0.2298  0.7731
 8202SOL    HW136242   1.833   3.081   6.732  0.6201  1.7494  0.8839
 8202SOL    HW236243   1.754   3.190   6.787  1.1927  1.4007 -0.0823
 8203SOL     OW36244   0.583   3.338  17.383  0.1735  0.3246 -0.0018
 8203SOL    HW136245   0.678   3.332  17.372  0.3128  0.0183  1.4194
 8203SOL    HW236246   0.555   3.278  17.313 -2.7967  0.5405  1.0188
 8204SOL     OW36247   3.532   0.906   0.803  0.0113 -0.1541  0.4617
 8204SOL    HW136248   3.540   0.906   0.708 -1.5304  3.5170  0.3133
 8204SOL    HW236249   3.462   0.971   0.813 -1.8939 -2.1661  0.3582
 8205SOL     OW36250   1.582   3.313   6.785 -0.4165 -0.3334 -0.1588
 8205SOL    HW136251   1.507   3.256   6.802 -0.6831 -0.2255 -0.9548
 8205SOL    HW236252   1.545   3.389   6.740 -0.0690  0.7882  1.4313
 8206SOL     OW36253   4.557   2.247  16.685  0.1487 -0.1529 -0.0823
 8206SOL    HW136254   4.508   2.218  16.608  0.1539  0.1557 -0.2009
 8206SOL    HW236255   4.491   2.280  16.745  0.9321 -0.7030  1.0848
 8207SOL     OW36256   0.191   0.961  10.396 -0.4191  0.2545  0.0909
 8207SOL    HW136257   0.145   0.918  10.468  1.4394 -0.5957  0.7644
 8207SOL    HW236258   0.266   0.907  10.371 -0.1251  1.2612 -1.2225
 8208SOL     OW36259   1.538   3.780   2.518  0.0450 -0.0579 -0.1012
 8208SOL    HW136260   1.625   3.792   2.481 -0.4458 -1.7852 -1.8191
 8208SOL    HW236261   1.561   3.732   2.597 -0.6578  2.3093  1.5401
 8209SOL     OW36262   0.463   3.792   4.822 -0.1458  0.2504 -0.1076
 8209SOL    HW136263   0.368   3.794   4.807 -0.5284  0.1304  2.3155
 8209SOL    HW236264   0.463   3.712   4.874 -1.3117  1.6669  2.1140
 8210SOL     OW36265   3.558   3.457   8.462 -0.1399 -0.4801 -0.4023
 8210SOL    HW136266   3.474   3.412   8.470 -0.9152  1.0998  0.3579
 8210SOL    HW236267   3.576   3.428   8.373  0.9009 -0.9075 -0.0558
 8211SOL     OW36268   1.338   3.240   7.178  0.1613 -0.1695  0.4292
 8211SOL    HW136269   1.286   3.311   7.141  1.6139  0.3540 -0.5862
 8211SOL    HW236270   1.266   3.214   7.235  1.3812 -1.5466  1.3485
 8212SOL     OW36271   4.456   1.571   6.769  0.7515  0.0945 -0.0239
 8212SOL    HW136272   4.522   1.640   6.776  0.0703  0.7065  0.4711
 8212SOL    HW236273   4.509   1.515   6.713 -0.2801 -0.6076 -0.3060
 8213SOL     OW36274   3.177   1.737   8.628  0.1360  0.0047 -0.1215
 8213SOL    HW136275   3.087   1.720   8.656  0.1993  2.4438  1.5429
 8213SOL    HW236276   3.176   1.679   8.552  0.8779 -0.1916  0.0171
 8214SOL     OW36277   2.900   0.286  10.592 -0.1716 -0.1652  0.4640
 8214SOL    HW136278   2.858   0.201  10.577 -2.1293  0.5688  1.7088
 8214SOL    HW236279   2.991   0.264  10.609  0.0055 -0.2942 -0.6515
 8215SOL     OW36280   4.351   0.553   1.688  0.0922  0.3676 -0.3149
 8215SOL    HW136281   4.280   0.559   1.624 -0.2898 -1.6764 -0.0855
 8215SOL    HW236282   4.419   0.607   1.646  0.2252  0.4619  0.0240
 8216SOL     OW36283   2.270   1.659   2.853  0.3946  0.0179 -0.0123
 8216SOL    HW136284   2.213   1.588   2.883  1.8384 -2.1719 -2.5110
 8216SOL    HW236285   2.327   1.610   2.794 -0.5506 -0.3434 -0.6442
 8217SOL     OW36286   2.057   1.828   9.516  0.3376  0.2645 -0.5329
 8217SOL    HW136287   1.968   1.843   9.485  1.4223  1.6318 -2.9515
 8217SOL    HW236288   2.053   1.801   9.608 -2.4606  2.2165 -0.0877
 8218SOL     OW36289   0.784   4.655  15.125 -0.3797 -0.4276  0.2436
 8218SOL    HW136290   0.821   4.568  15.110  0.5095 -0.7085  3.9461
 8218SOL    HW236291   0.808   4.679  15.215  0.9493 -0.6389 -0.0590
 8219SOL     OW36292   2.017   2.606   8.664 -0.4527  0.2118  0.3341
 8219SOL    HW136293   1.956   2.680   8.674 -0.9416 -0.0428 -0.7889
 8219SOL    HW236294   2.067   2.643   8.591  0.4290 -0.4572  0.5984
 8220SOL     OW36295   3.324   3.926   9.329 -0.3162  0.3886 -0.3762
 8220SOL    HW136296   3.389   3.871   9.286  0.3181  1.2444 -0.5193
 8220SOL    HW236297   3.368   4.010   9.312 -1.1909  1.2335  1.4822
 8221SOL     OW36298   2.927   0.042   3.325  0.3869  0.2309 -0.1237
 8221SOL    HW136299   2.972   4.717   3.382  3.2665 -0.9082 -3.5995
 8221SOL    HW236300   2.948   0.012   3.236 -0.9422 -0.8691 -0.0693
 8222SOL     OW36301   3.009   0.837   6.423  0.3732  0.2801  0.3475
 8222SOL    HW136302   3.003   0.780   6.346 -0.0845 -0.5192  0.9784
 8222SOL    HW236303   3.051   0.911   6.379  0.8432 -0.4294 -0.3923
 8223SOL     OW36304   3.716   3.622   5.938 -0.4440 -0.0490  0.3222
 8223SOL    HW136305   3.644   3.608   5.877  3.2364  0.5530 -4.1493
 8223SOL    HW236306   3.692   3.690   6.000  1.4413 -0.5391  1.5963
 8224SOL     OW36307   0.776   1.504   7.186  0.1107  0.5013  0.0632
 8224SOL    HW136308   0.751   1.574   7.246  0.8000 -1.4829  2.6661
 8224SOL    HW236309   0.858   1.472   7.223  0.7643 -1.6930 -3.1959
 8225SOL     OW36310   3.172   3.176   4.012 -0.4730  0.4772 -0.2800
 8225SOL    HW136311   3.155   3.260   4.055 -3.1354 -0.1836 -0.0123
 8225SOL    HW236312   3.176   3.112   4.083 -1.2450  0.3787 -0.3207
 8226SOL     OW36313   3.469   4.039  15.688 -0.0828  0.1446 -0.5190
 8226SOL    HW136314   3.515   4.048  15.771  0.7463  0.5356 -1.0124
 8226SOL    HW236315   3.482   3.947  15.668  0.9524  0.1227  0.2644
 8227SOL     OW36316   2.824   2.123   7.937 -0.0264 -0.0560  0.1597
 8227SOL    HW136317   2.823   2.033   7.972  0.6210  0.5802  1.8060
 8227SOL    HW236318   2.734   2.133   7.905 -0.1916  0.8345  0.8935
 8228SOL     OW36319   1.239   4.467   5.987 -0.4716 -0.0800  0.1695
 8228SOL    HW136320   1.318   4.416   5.968 -1.9370 -2.1833 -0.1939
 8228SOL    HW236321   1.166   4.407   5.970 -0.1095 -0.6175  0.5203
 8229SOL     OW36322   0.503   2.431   8.020 -0.1055  0.4156 -0.5623
 8229SOL    HW136323   0.561   2.432   8.096  1.0217  1.5756 -1.4275
 8229SOL    HW236324   0.431   2.380   8.056  0.8506 -0.7992 -0.3473
 8230SOL     OW36325   2.029   3.905   9.733  0.3325  1.1357 -0.0724
 8230SOL    HW136326   2.064   3.983   9.776 -0.4736  1.7056 -0.4591
 8230SOL    HW236327   1.940   3.933   9.712  1.0954  3.4640 -0.2715
 8231SOL     OW36328   1.686   3.561   0.984 -0.1535 -0.0556 -0.6636
 8231SOL    HW136329   1.635   3.639   0.964 -0.5914 -0.2402 -0.2655
 8231SOL    HW236330   1.617   3.495   0.975 -0.7175  0.2376  1.3671
 8232SOL     OW36331   2.285   4.152   2.114 -0.3205  0.2459 -0.7379
 8232SOL    HW136332   2.216   4.093   2.083  0.2395 -1.0477  0.4910
 8232SOL    HW236333   2.362   4.118   2.069  0.6665  1.7376 -0.1484
 8233SOL     OW36334   3.404   1.185   1.785  0.2372 -0.0772  0.2457
 8233SOL    HW136335   3.476   1.144   1.832  0.5383 -2.1460 -2.0347
 8233SOL    HW236336   3.375   1.114   1.728  1.0438  0.9755 -1.4885
 8234SOL     OW36337   3.747   2.718   1.811  0.6963 -0.0975 -0.1882
 8234SOL    HW136338   3.765   2.735   1.718  0.4720  1.9319  0.1360
 8234SOL    HW236339   3.758   2.624   1.820  0.3105 -0.1148  0.0925
 8235SOL     OW36340   3.579   2.272  10.293 -0.0546  0.2689 -0.0825
 8235SOL    HW136341   3.551   2.341  10.354  1.6558 -0.0213  1.0037
 8235SOL    HW236342   3.540   2.193  10.330  1.1483  0.7368  2.1915
 8236SOL     OW36343   1.114   2.769   2.872  0.0976  0.8647 -0.1353
 8236SOL    HW136344   1.193   2.778   2.818  0.5446 -1.2641  0.1799
 8236SOL    HW236345   1.103   2.676   2.853  0.0614  0.4123  2.0371
 8237SOL     OW36346   2.306   3.495   7.700  0.4344  0.4242  0.0547
 8237SOL    HW136347   2.381   3.441   7.675  1.7845  1.7388  1.2706
 8237SOL    HW236348   2.234   3.436   7.681 -0.2916  0.9534  1.1397
 8238SOL     OW36349   1.018   0.985   5.308  0.6109 -0.6305  0.3794
 8238SOL    HW136350   0.992   0.978   5.216  1.0267  1.2347  0.1320
 8238SOL    HW236351   1.100   1.035   5.304  0.4540 -0.3318  0.9020
 8239SOL     OW36352   2.359   0.765   6.145 -0.1532  0.0330  0.1631
 8239SOL    HW136353   2.441   0.777   6.194  0.6960 -1.6669 -0.8292
 8239SOL    HW236354   2.388   0.814   6.068 -1.9213 -0.0440 -0.5396
 8240SOL     OW36355   1.908   1.592   0.298  0.5987  0.7559 -0.3120
 8240SOL    HW136356   1.952   1.591   0.383 -0.7289  0.9019  0.3900
 8240SOL    HW236357   1.842   1.525   0.318  2.3683 -0.8931 -0.0047
 8241SOL     OW36358   0.728   1.356   8.745  0.5681  0.2772 -0.4603
 8241SOL    HW136359   0.695   1.446   8.747  1.4234  0.5896 -0.3791
 8241SOL    HW236360   0.657   1.308   8.789  0.8895 -0.7577 -1.0651
 8242SOL     OW36361   2.312   1.092   4.058  0.6604 -0.5137  0.1372
 8242SOL    HW136362   2.237   1.033   4.043 -1.6627  2.6051 -0.4865
 8242SOL    HW236363   2.302   1.162   3.994 -0.7998 -0.3569  0.5350
 8243SOL     OW36364   1.851   1.297   4.521 -0.2512  0.6667  0.0766
 8243SOL    HW136365   1.923   1.353   4.492 -1.0740  0.8412 -1.6600
 8243SOL    HW236366   1.897   1.214   4.534  1.8196  1.6882 -0.7393
 8244SOL     OW36367   1.841   2.429   5.605  0.1171  0.1505 -0.7648
 8244SOL    HW136368   1.892   2.358   5.566  0.7131  0.7387 -1.0756
 8244SOL    HW236369   1.809   2.399   5.690 -0.2233 -2.0416 -1.6828
 8245SOL     OW36370   2.289   1.017  12.909 -0.2013  0.4098 -0.0143
 8245SOL    HW136371   2.227   0.949  12.881  0.0948  1.2728 -2.7051
 8245SOL    HW236372   2.336   0.966  12.976 -0.6021  1.9064  1.3831
 8246SOL     OW36373   2.973   3.885   4.263 -0.4606 -0.5135 -0.1694
 8246SOL    HW136374   2.988   3.818   4.330  0.1303 -0.9240 -0.7091
 8246SOL    HW236375   2.979   3.825   4.188 -1.0564 -0.4946 -0.2324
 8247SOL     OW36376   4.276   2.872  12.634 -1.1536  0.5380 -0.4689
 8247SOL    HW136377   4.237   2.907  12.714  0.9282  0.7113  0.4807
 8247SOL    HW236378   4.227   2.916  12.565  1.8924  1.2806 -2.1743
 8248SOL     OW36379   3.062   3.200   7.001  0.0722  0.0488 -0.7725
 8248SOL    HW136380   3.068   3.233   6.911  0.2956  1.2073 -0.3298
 8248SOL    HW236381   2.980   3.236   7.034 -0.3319 -2.0674  0.5285
 8249SOL     OW36382   4.363   2.483   4.675  0.8945 -0.4021  0.3325
 8249SOL    HW136383   4.385   2.441   4.758  2.5280  0.4955  0.3482
 8249SOL    HW236384   4.301   2.424   4.631  2.0230 -1.2259 -0.1662
 8250SOL     OW36385   4.325   0.854   3.548  0.4390  0.0916 -0.4826
 8250SOL    HW136386   4.244   0.816   3.582  0.9892  1.6724  2.6042
 8250SOL    HW236387   4.367   0.769   3.538  1.6566  0.6095  0.2163
 8251SOL     OW36388   4.312   0.350  13.809 -0.6502  0.1512 -0.2434
 8251SOL    HW136389   4.246   0.409  13.843 -1.4551 -0.3594 -0.9298
 8251SOL    HW236390   4.381   0.410  13.782 -0.9378 -0.4697 -2.3315
 8252SOL     OW36391   1.704   4.337   6.402  0.2185  0.3986  0.4133
 8252SOL    HW136392   1.630   4.357   6.346 -0.0161 -1.4946  0.0424
 8252SOL    HW236393   1.732   4.417   6.447 -0.6470  0.1424  1.3926
 8253SOL     OW36394   2.903   0.285   5.308  0.1282 -0.3270 -0.4402
 8253SOL    HW136395   2.881   0.295   5.216 -0.7627 -1.8335 -0.3838
 8253SOL    HW236396   2.820   0.308   5.350  0.1521  1.6116 -1.4420
 8254SOL     OW36397   2.118   3.485   1.200  0.3087 -0.3878 -0.2448
 8254SOL    HW136398   2.105   3.430   1.123 -2.4573 -0.4636  0.2741
 8254SOL    HW236399   2.059   3.558   1.181  1.7384  1.5768  2.8192
 8255SOL     OW36400   0.010   2.269   5.369 -0.4045 -0.0660 -0.0518
 8255SOL    HW136401   0.062   2.324   5.428 -0.0213  0.6585 -1.0677
 8255SOL    HW236402   4.663   2.314   5.369 -0.2663  0.1782  2.8041
 8256SOL     OW36403   0.850   1.998   9.215  0.6800  0.2641 -0.4887
 8256SOL    HW136404   0.796   2.055   9.271  1.8191 -0.7129  1.5990
 8256SOL    HW236405   0.825   2.036   9.130  0.2198 -0.3257 -0.6175
 8257SOL     OW36406   0.551   1.188   4.527 -0.2910 -0.1636  0.2059
 8257SOL    HW136407   0.611   1.184   4.453 -1.6232 -0.4038 -0.8477
 8257SOL    HW236408   0.534   1.282   4.527 -0.2332 -0.1533  0.2803
 8258SOL     OW36409   4.148   0.484   8.564 -0.1103  0.6028 -0.4176
 8258SOL    HW136410   4.163   0.556   8.502  0.5255  0.5943 -0.2720
 8258SOL    HW236411   4.067   0.448   8.527 -2.3177  1.7929  3.2962
 8259SOL     OW36412   4.637   3.871  11.525  0.9331  0.5291  0.2707
 8259SOL    HW136413   4.579   3.943  11.500 -0.5765 -0.2876  1.4422
 8259SOL    HW236414   4.701   3.882  11.454  0.1497  1.4421 -0.3044
 8260SOL     OW36415   0.850   2.664  10.428  0.0147 -0.1585 -0.4023
 8260SOL    HW136416   0.945   2.650  10.435  0.1186  1.0070  0.6172
 8260SOL    HW236417   0.822   2.712  10.506 -0.1642  0.3520 -0.7797
 8261SOL     OW36418   3.726   1.731   1.765  0.2334 -0.1413 -0.4076
 8261SOL    HW136419   3.697   1.726   1.856  0.7687  0.9314 -0.1825
 8261SOL    HW236420   3.746   1.638   1.752 -3.2842 -0.6152 -2.5330
 8262SOL     OW36421   1.657   3.183   4.141 -0.1012  0.6283  0.0696
 8262SOL    HW136422   1.599   3.259   4.132  0.6597  1.1819 -0.2230
 8262SOL    HW236423   1.676   3.157   4.051  2.3402  1.0196  0.4697
 8263SOL     OW36424   2.214   0.213  15.367  0.0272  0.5682  0.1891
 8263SOL    HW136425   2.240   0.219  15.275 -0.1893  0.8017  0.1420
 8263SOL    HW236426   2.246   0.126  15.390 -0.9907 -0.5670 -2.7554
 8264SOL     OW36427   0.124   3.301  13.734  0.1487 -0.1592  0.1870
 8264SOL    HW136428   0.117   3.354  13.655  0.5776 -1.3238 -0.6347
 8264SOL    HW236429   0.098   3.211  13.715  0.8160 -0.5674  1.2562
 8265SOL     OW36430   2.002   0.652   5.230 -0.0787  0.5479  0.3676
 8265SOL    HW136431   1.968   0.710   5.162  0.5741  0.8159  0.2710
 8265SOL    HW236432   1.930   0.592   5.249 -0.3687  0.4961 -0.9345
 8266SOL     OW36433   4.459   2.519  11.487 -0.4586 -0.0249 -0.2061
 8266SOL    HW136434   4.411   2.588  11.442 -1.5750  0.1318  1.2506
 8266SOL    HW236435   4.481   2.568  11.566  0.4746 -1.2793  0.3185
 8267SOL     OW36436   0.331   2.103   4.611  0.3571 -0.3288  0.1316
 8267SOL    HW136437   0.408   2.053   4.586  0.8024  1.2217 -1.6626
 8267SOL    HW236438   0.263   2.066   4.554 -0.3413  1.0443  0.0550
 8268SOL     OW36439   2.314   3.266   3.634  0.1965 -0.2595  0.0770
 8268SOL    HW136440   2.398   3.282   3.677 -0.6361  1.2089  1.1785
 8268SOL    HW236441   2.286   3.357   3.622 -4.0320 -1.6141 -0.3323
 8269SOL     OW36442   0.654   3.387   2.249  0.5631  0.4367  0.2775
 8269SOL    HW136443   0.708   3.399   2.327  1.2298  1.5370 -0.3572
 8269SOL    HW236444   0.693   3.303   2.227 -1.8162 -1.0838  1.8853
 8270SOL     OW36445   0.022   0.532   6.946 -0.0228  0.3802 -0.6017
 8270SOL    HW136446   0.100   0.580   6.974  1.2670 -1.0701 -1.6757
 8270SOL    HW236447   0.056   0.448   6.977  2.0764  0.8790 -1.5300
 8271SOL     OW36448   0.063   0.878   9.538 -0.4984 -0.1496 -0.1946
 8271SOL    HW136449   0.138   0.894   9.480  0.0483  2.5033  1.2401
 8271SOL    HW236450   4.724   0.863   9.482 -1.7259  1.4814  1.0514
 8272SOL     OW36451   3.528   1.971   6.839  0.6766 -0.2602  0.5672
 8272SOL    HW136452   3.584   2.024   6.895 -1.4358  1.9813  0.5984
 8272SOL    HW236453   3.439   1.970   6.875  0.4286  3.0980  0.0352
 8273SOL     OW36454   4.682   3.647   7.732  0.0030  0.6679 -0.3368
 8273SOL    HW136455   4.707   3.556   7.744  0.0846  1.0220  2.1903
 8273SOL    HW236456   4.719   3.687   7.810 -0.8903  1.5238 -0.3489
 8274SOL     OW36457   4.099   0.709   9.770  0.1336 -0.4706  0.1813
 8274SOL    HW136458   4.103   0.620   9.735 -0.8721 -0.6522  0.5352
 8274SOL    HW236459   4.159   0.709   9.845 -0.2761  1.0277  0.5112
 8275SOL     OW36460   1.075   3.289  10.547 -0.1364  0.4223 -0.0692
 8275SOL    HW136461   1.068   3.324  10.458 -0.4120  1.6064  0.4066
 8275SOL    HW236462   1.068   3.375  10.590 -2.3068  0.1965  0.0252
 8276SOL     OW36463   2.525   1.113  16.178 -0.5322 -0.3578 -0.8986
 8276SOL    HW136464   2.577   1.093  16.100  1.4643  0.2100  0.2843
 8276SOL    HW236465   2.509   1.207  16.166  0.3065 -0.5183 -3.2658
 8277SOL     OW36466   0.367   2.093  12.346  0.2967  0.3602 -0.6989
 8277SOL    HW136467   0.300   2.156  12.372  1.4842  0.5322  1.9354
 8277SOL    HW236468   0.357   2.083  12.251 -3.2078  0.1871 -0.3313
 8278SOL     OW36469   4.321   0.590   7.835  0.0370 -0.1843  0.3004
 8278SOL    HW136470   4.251   0.530   7.810 -1.5716  2.4299 -1.5691
 8278SOL    HW236471   4.395   0.549   7.789  0.0908 -1.8696  1.9368
 8279SOL     OW36472   2.245   0.914   4.862 -0.0386 -0.0494  0.2008
 8279SOL    HW136473   2.301   0.928   4.786  0.4236 -0.4033  0.4778
 8279SOL    HW236474   2.230   0.820   4.850  1.4883 -0.8695  4.6199
 8280SOL     OW36475   2.856   3.082  17.349  0.2770  0.0698  0.2275
 8280SOL    HW136476   2.914   3.009  17.370  0.2078  0.2049  0.8801
 8280SOL    HW236477   2.782   3.028  17.323 -0.1293 -0.1601  1.9303
 8281SOL     OW36478   3.504   3.963  12.853 -0.7603 -0.1978  1.0776
 8281SOL    HW136479   3.496   4.000  12.765 -0.4257  2.4550  2.1407
 8281SOL    HW236480   3.445   3.888  12.856  0.0059 -0.8686 -0.9322
 8282SOL     OW36481   4.171   4.245   3.921 -0.2804 -0.1221 -0.1329
 8282SOL    HW136482   4.146   4.301   3.848 -1.1043  0.1338  0.3486
 8282SOL    HW236483   4.186   4.162   3.875 -0.0973  0.2755 -0.8053
 8283SOL     OW36484   2.814   4.285   6.665  0.6173  0.0709  0.3668
 8283SOL    HW136485   2.857   4.216   6.716 -0.4813  1.6417  3.4092
 8283SOL    HW236486   2.762   4.225   6.612 -1.6177  1.2670  1.1997
 8284SOL     OW36487   0.863   2.597  16.939 -0.6439 -0.1407  0.4345
 8284SOL    HW136488   0.800   2.667  16.924  0.5259  0.9374  0.5395
 8284SOL    HW236489   0.824   2.529  16.884 -1.5958  0.2804  0.5830
 8285SOL     OW36490   3.726   4.467   5.174  0.3103  0.1214 -0.3660
 8285SOL    HW136491   3.731   4.545   5.118  2.1735 -0.8326 -1.5484
 8285SOL    HW236492   3.799   4.477   5.235  0.0394 -1.2487  0.1823
 8286SOL     OW36493   1.981   3.783  16.224 -0.7205 -0.1260 -0.1246
 8286SOL    HW136494   1.985   3.707  16.166  0.1811  0.9005 -1.3989
 8286SOL    HW236495   1.945   3.854  16.171  1.5610  1.2901  0.2555
 8287SOL     OW36496   0.624   2.307   2.137  0.2468 -0.2629 -0.2852
 8287SOL    HW136497   0.532   2.325   2.159  0.0567  0.4025 -1.5721
 8287SOL    HW236498   0.611   2.212   2.133 -1.1393 -0.0589 -0.5716
 8288SOL     OW36499   4.548   3.575  17.130  0.0755 -0.2079 -0.1119
 8288SOL    HW136500   4.588   3.488  17.140  0.3256 -0.3584 -2.4861
 8288SOL    HW236501   4.457   3.553  17.114  0.3808 -1.6638  0.1198
 8289SOL     OW36502   2.964   4.514   0.454 -0.6620  0.2133 -0.1647
 8289SOL    HW136503   2.938   4.422   0.460  0.7752 -0.1562  0.5152
 8289SOL    HW236504   3.059   4.514   0.462 -0.8298  1.5672  1.8954
 8290SOL     OW36505   0.867   0.975   4.452  0.1137 -0.8720 -0.2279
 8290SOL    HW136506   0.876   0.975   4.357  0.7106  0.7893 -0.1748
 8290SOL    HW236507   0.925   0.900   4.463 -0.4547 -1.3613 -0.5812
 8291SOL     OW36508   1.053   3.175  17.419  0.0995 -0.5206 -0.3894
 8291SOL    HW136509   0.982   3.239  17.410 -0.4044 -1.4833 -3.2202
 8291SOL    HW236510   1.123   3.237  17.396  1.0991 -1.4506  0.1599
 8292SOL     OW36511   3.067   3.190   0.841 -0.9246  0.1301  0.2142
 8292SOL    HW136512   3.125   3.114   0.849 -1.0769 -0.2367 -2.0415
 8292SOL    HW236513   3.107   3.220   0.759  2.9410  0.9775  2.4307
 8293SOL     OW36514   1.254   2.983  17.648  0.1866  0.1849  0.5897
 8293SOL    HW136515   1.182   2.969  17.586  1.0798 -0.8739 -0.2020
 8293SOL    HW236516   1.322   2.931  17.605 -1.5597 -1.0494 -0.6707
 8294SOL     OW36517   1.591   4.298   4.966 -0.4937 -0.1024 -0.1693
 8294SOL    HW136518   1.499   4.318   4.986 -1.0528 -1.4724 -1.3802
 8294SOL    HW236519   1.638   4.354   5.027  1.2957 -2.2904  0.4530
 8295SOL     OW36520   3.210   1.721   2.596 -0.1836 -0.6954 -0.8200
 8295SOL    HW136521   3.295   1.749   2.562 -0.6533  0.0499 -1.3687
 8295SOL    HW236522   3.236   1.665   2.669  1.8564  1.9598  0.4864
 8296SOL     OW36523   3.166   0.928   7.301 -0.2615 -0.4860 -0.3758
 8296SOL    HW136524   3.123   0.843   7.301 -2.5242  0.6677 -1.3272
 8296SOL    HW236525   3.245   0.910   7.352  0.6403  1.4908 -1.0397
 8297SOL     OW36526   4.456   3.097   2.683  0.0153 -0.7356  0.7135
 8297SOL    HW136527   4.528   3.086   2.745 -0.4574 -1.5473  1.1219
 8297SOL    HW236528   4.388   3.070   2.745  0.2294  0.9976  1.6803
 8298SOL     OW36529   4.403   4.191   9.395 -0.6144 -0.5965 -0.0627
 8298SOL    HW136530   4.392   4.222   9.305 -1.4077 -0.6040  0.0335
 8298SOL    HW236531   4.487   4.150   9.375 -0.2076 -0.5505  1.6106
 8299SOL     OW36532   1.292   1.660   1.901  0.1202  0.0659 -0.5864
 8299SOL    HW136533   1.361   1.723   1.880  0.1839 -0.5289 -2.1419
 8299SOL    HW236534   1.335   1.604   1.966 -0.4233  2.6122  1.9510
 8300SOL     OW36535   1.651   4.528   8.633  0.5162  0.0247  0.1417
 8300SOL    HW136536   1.737   4.525   8.593  0.9790 -1.5934  1.2547
 8300SOL    HW236537   1.624   4.439   8.613 -0.4964  0.6626 -1.3143
 8301SOL     OW36538   3.140   2.332   5.925 -0.3270 -0.2852  0.1854
 8301SOL    HW136539   3.094   2.383   5.991 -0.5781 -1.1460  0.6725
 8301SOL    HW236540   3.090   2.251   5.915  0.8754 -1.0011 -0.1153
 8302SOL     OW36541   0.845   4.153   2.506 -0.2738 -0.1198 -0.0633
 8302SOL    HW136542   0.784   4.220   2.477  0.2880  0.0549 -0.8483
 8302SOL    HW236543   0.817   4.151   2.597  0.6907  1.4044  0.2709
 8303SOL     OW36544   0.929   4.441  11.622 -0.4749 -0.2532  0.5184
 8303SOL    HW136545   0.842   4.404  11.606  0.2251 -1.8722  0.5174
 8303SOL    HW236546   0.905   4.501  11.693 -1.5861 -0.8429  0.6456
 8304SOL     OW36547   0.029   1.297  10.563 -0.4632 -0.1626 -0.1624
 8304SOL    HW136548   0.123   1.289  10.582 -0.2571  1.1018 -0.6471
 8304SOL    HW236549   0.034   1.381  10.518  1.0806 -0.1174  0.0825
 8305SOL     OW36550   0.131   3.394   2.670 -0.1773  0.4434  0.3645
 8305SOL    HW136551   0.108   3.312   2.713 -0.1603  0.8420  1.1369
 8305SOL    HW236552   0.225   3.389   2.687 -0.4144 -2.0678  0.9383
 8306SOL     OW36553   2.925   4.412   9.806  0.4479 -0.0781 -0.0594
 8306SOL    HW136554   2.842   4.364   9.799  0.2195  0.3368 -0.1892
 8306SOL    HW236555   2.986   4.350   9.847  0.1770 -1.1483 -1.2651
 8307SOL     OW36556   3.451   4.672   9.202 -0.1534 -0.2647  0.2325
 8307SOL    HW136557   3.364   4.699   9.174  0.5323  0.7246 -0.9526
 8307SOL    HW236558   3.456   4.581   9.175  1.6957  0.2024 -1.0371
 8308SOL     OW36559   1.186   2.593   3.175  0.5035 -0.4832 -0.2367
 8308SOL    HW136560   1.189   2.571   3.082  0.1743 -0.3167 -0.2856
 8308SOL    HW236561   1.137   2.675   3.166  0.7878 -0.2893 -0.0152
 8309SOL     OW36562   4.552   1.328   4.113 -0.2112 -0.1652  0.2974
 8309SOL    HW136563   4.641   1.328   4.147  0.7317 -1.4512 -2.2544
 8309SOL    HW236564   4.561   1.279   4.032  0.2219 -1.3550  1.0716
 8310SOL     OW36565   0.661   0.250   9.170  0.0930 -0.5451 -0.0668
 8310SOL    HW136566   0.673   0.344   9.188  1.6345 -0.7361 -0.1125
 8310SOL    HW236567   0.631   0.208   9.251  1.8030  2.0819  1.9670
 8311SOL     OW36568   0.934   0.929   0.394 -0.8806  0.0751 -0.8204
 8311SOL    HW136569   0.948   0.835   0.406 -0.9679  0.0903 -0.6004
 8311SOL    HW236570   0.847   0.930   0.436 -0.0476  1.9149  0.9156
 8312SOL     OW36571   0.340   1.421   7.302 -0.3564  0.0082  0.3912
 8312SOL    HW136572   0.421   1.428   7.353 -1.0506  0.5450  1.4172
 8312SOL    HW236573   0.365   1.394   7.213 -1.2671  1.2415 -0.2407
 8313SOL     OW36574   2.456   0.973  17.290  0.8424 -0.3838  0.5955
 8313SOL    HW136575   2.507   0.892  17.291  0.6589 -0.5312 -1.7660
 8313SOL    HW236576   2.477   1.013  17.375  0.6096  0.3010  0.3298
 8314SOL     OW36577   2.253   2.112   7.052 -0.0557 -0.5629  0.3915
 8314SOL    HW136578   2.228   2.122   6.960 -0.8621  0.3987  0.7142
 8314SOL    HW236579   2.168   2.084   7.087  0.4466  0.5093  2.4403
 8315SOL     OW36580   0.986   1.027  12.546 -0.0959 -0.3088 -0.0307
 8315SOL    HW136581   1.073   1.056  12.571 -0.4913 -0.2003  1.1957
 8315SOL    HW236582   1.004   0.980  12.464 -0.5588 -2.2294  0.9564
 8316SOL     OW36583   0.673   3.517   3.758 -0.7008  0.8101 -0.1296
 8316SOL    HW136584   0.730   3.446   3.787  1.3146  2.2996 -0.4525
 8316SOL    HW236585   0.585   3.481   3.751  0.3020 -1.4264 -1.1824
 8317SOL     OW36586   4.256   1.701   6.513 -0.1305  0.5935 -0.2335
 8317SOL    HW136587   4.264   1.718   6.607  0.3171  0.0210 -0.1679
 8317SOL    HW236588   4.179   1.647   6.530 -0.9829  2.0101  0.4413
 8318SOL     OW36589   4.670   3.372   5.510  0.3673  0.4210  0.2479
 8318SOL    HW136590   4.643   3.311   5.442  1.6778 -0.4046  0.4585
 8318SOL    HW236591   4.599   3.437   5.510 -0.1207 -0.1364  2.5391
 8319SOL     OW36592   1.178   1.608   6.299  0.1612 -0.6044 -0.6170
 8319SOL    HW136593   1.121   1.685   6.291  0.7893  0.2492  3.0456
 8319SOL    HW236594   1.203   1.614   6.391 -1.3627 -0.0285 -0.2343
 8320SOL     OW36595   0.452   2.040  14.273 -0.0577  0.0657 -0.2133
 8320SOL    HW136596   0.534   2.016  14.315  0.0614 -0.7479 -0.9046
 8320SOL    HW236597   0.468   2.089  14.192 -0.1179  0.3098 -0.0790
 8321SOL     OW36598   1.175   3.082   9.010  0.3397  0.1010  0.2150
 8321SOL    HW136599   1.178   3.173   8.981 -2.2194  0.1636  0.1654
 8321SOL    HW236600   1.085   3.071   9.040 -0.2631  2.7246 -0.7145
 8322SOL     OW36601   0.355   2.461   2.150  0.1308 -0.4702 -0.2664
 8322SOL    HW136602   0.421   2.529   2.149  0.0773 -0.3980  0.4444
 8322SOL    HW236603   0.355   2.431   2.242 -0.6587 -1.1204 -0.4766
 8323SOL     OW36604   0.011   3.742   3.329 -0.4806 -0.0648 -0.3081
 8323SOL    HW136605   0.073   3.815   3.324  1.6788 -1.9089 -0.4779
 8323SOL    HW236606   0.056   3.678   3.274  0.4574 -0.3191  0.7668
 8324SOL     OW36607   2.727   0.509  12.435  0.4247 -0.4659  0.4825
 8324SOL    HW136608   2.709   0.480  12.346  1.2800  1.0841 -0.2135
 8324SOL    HW236609   2.794   0.444  12.456  1.7664  1.0659  0.9598
 8325SOL     OW36610   3.066   0.726   4.025  0.8928 -0.2866  0.3753
 8325SOL    HW136611   3.052   0.745   4.118 -0.0025  0.6496  0.0407
 8325SOL    HW236612   2.995   0.772   3.980 -0.4289 -1.6904  1.0220
 8326SOL     OW36613   3.702   1.531   6.108 -0.2006 -0.3738 -0.1336
 8326SOL    HW136614   3.712   1.449   6.060 -0.4582  0.8450 -2.2823
 8326SOL    HW236615   3.687   1.505   6.199 -0.5295  0.5175  0.0748
 8327SOL     OW36616   4.300   2.240   7.547 -0.5893  0.6422 -1.1212
 8327SOL    HW136617   4.273   2.293   7.623  1.6218 -1.8822  1.4286
 8327SOL    HW236618   4.217   2.207   7.512 -1.3494  2.0317 -0.6192
 8328SOL     OW36619   2.152   1.381   2.981  0.2978 -0.0980  0.4388
 8328SOL    HW136620   2.151   1.310   3.045 -3.0059 -1.1367 -0.7319
 8328SOL    HW236621   2.096   1.446   3.024 -1.9541 -2.0435  0.4452
 8329SOL     OW36622   1.757   0.177   6.743 -0.6211  0.3592  0.5845
 8329SOL    HW136623   1.702   0.177   6.665 -0.9398  2.7234  0.7945
 8329SOL    HW236624   1.842   0.199   6.705 -1.4470  5.1410  1.3956
 8330SOL     OW36625   0.961   2.370   1.750  0.2344  0.3311 -0.5982
 8330SOL    HW136626   1.009   2.308   1.805 -1.0521  1.3652  1.6884
 8330SOL    HW236627   1.013   2.450   1.757  0.0422  0.3817  0.2330
 8331SOL     OW36628   3.458   3.309  10.505 -0.6106  0.4502  0.1643
 8331SOL    HW136629   3.389   3.243  10.514  1.5706 -2.1772 -2.1967
 8331SOL    HW236630   3.439   3.370  10.576  0.6834 -1.8882  2.5021
 8332SOL     OW36631   3.239   2.340   8.757  1.0661 -0.1466 -0.2565
 8332SOL    HW136632   3.193   2.258   8.776  2.4957 -0.8847  0.0104
 8332SOL    HW236633   3.230   2.325   8.663 -1.3699 -2.3300  0.3244
 8333SOL     OW36634   3.535   0.794   5.655 -0.3447 -0.3022  0.3576
 8333SOL    HW136635   3.525   0.850   5.578  1.9564  1.5113  1.3680
 8333SOL    HW236636   3.467   0.822   5.717 -0.4074  1.4660 -0.4913
 8334SOL     OW36637   0.596   2.682   7.497  0.3061 -0.4456 -0.1823
 8334SOL    HW136638   0.513   2.704   7.539  0.1587 -0.5593 -0.4142
 8334SOL    HW236639   0.582   2.687   7.402  0.2277  0.5707 -0.1210
 8335SOL     OW36640   2.865   0.282   6.418 -0.4320  0.1990  0.4714
 8335SOL    HW136641   2.930   0.344   6.450 -1.5998 -0.3898  3.9495
 8335SOL    HW236642   2.868   0.217   6.489  1.3436 -0.6692 -0.3773
 8336SOL     OW36643   3.488   2.416  16.479 -0.4567  0.2712 -0.4301
 8336SOL    HW136644   3.581   2.395  16.486 -0.7573 -0.1980  2.3926
 8336SOL    HW236645   3.471   2.483  16.546  2.0409 -1.1679  1.6709
 8337SOL     OW36646   4.501   0.998   2.261 -0.3662  0.0746 -0.2632
 8337SOL    HW136647   4.438   1.066   2.283 -1.4109 -1.1290  0.4478
 8337SOL    HW236648   4.474   0.978   2.172 -1.6935  0.4180  0.0667
 8338SOL     OW36649   1.857   3.276   7.765  0.1140 -0.6785  0.3411
 8338SOL    HW136650   1.816   3.246   7.846 -0.1874 -2.6669 -0.5482
 8338SOL    HW236651   1.791   3.260   7.697 -0.2237  3.3962 -0.2999
 8339SOL     OW36652   4.413   1.499   0.673  0.0373  0.4212  0.4033
 8339SOL    HW136653   4.390   1.556   0.747  0.0346 -0.7168  1.2887
 8339SOL    HW236654   4.325   1.462   0.661  1.4840 -2.4187 -1.2187
 8340SOL     OW36655   0.062   0.089   8.006 -0.0165  0.0230  0.1304
 8340SOL    HW136656   0.006   0.165   8.023  0.0257  0.0253  0.2670
 8340SOL    HW236657   0.111   0.079   8.088 -1.7710 -1.2104  1.0316
 8341SOL     OW36658   4.108   3.163   8.864 -0.5580 -0.2243 -0.0502
 8341SOL    HW136659   4.192   3.194   8.830  0.3940  0.1707  2.6138
 8341SOL    HW236660   4.045   3.230   8.838  0.7710  0.4285 -1.5771
 8342SOL     OW36661   1.432   2.241   2.165  0.1048 -0.0155  0.0083
 8342SOL    HW136662   1.394   2.282   2.087  4.3593  3.6971 -0.0859
 8342SOL    HW236663   1.456   2.160   2.120  0.4922  1.1188 -1.7948
 8343SOL     OW36664   1.249   3.108   0.953 -0.1926 -0.2923  0.2067
 8343SOL    HW136665   1.186   3.180   0.949 -1.0786 -1.1612 -1.3525
 8343SOL    HW236666   1.277   3.130   1.042  3.2905  2.9768 -1.6899
 8344SOL     OW36667   3.231   3.710   6.410  0.1192  0.2846 -0.0770
 8344SOL    HW136668   3.160   3.743   6.356  1.5957  0.6283 -1.8009
 8344SOL    HW236669   3.239   3.779   6.476 -1.4107 -0.4868  0.9068
 8345SOL     OW36670   3.531   3.134   7.778  0.0146 -0.3261 -0.0496
 8345SOL    HW136671   3.460   3.139   7.713  0.1351 -2.8990 -0.3623
 8345SOL    HW236672   3.484   3.103   7.855 -0.9573  0.8514 -0.1630
 8346SOL     OW36673   4.299   3.432   8.678  0.7606 -0.0457  0.0552
 8346SOL    HW136674   4.272   3.429   8.770  2.1326  2.3683  0.5399
 8346SOL    HW236675   4.290   3.525   8.658 -1.2609 -0.3024 -0.1427
 8347SOL     OW36676   1.731   3.117  17.185  0.5245  0.1861  0.4571
 8347SOL    HW136677   1.724   3.203  17.228 -0.0330 -0.5428  1.8257
 8347SOL    HW236678   1.689   3.062  17.251 -0.1670 -0.4468 -0.5149
 8348SOL     OW36679   0.489   0.114   2.589 -0.2548 -0.0384  0.3671
 8348SOL    HW136680   0.566   0.168   2.572 -0.0310  0.3302  2.5830
 8348SOL    HW236681   0.440   0.144   2.512 -0.2211 -0.1944  0.2834
 8349SOL     OW36682   2.831   2.193   3.909  0.1748  0.3090 -0.2309
 8349SOL    HW136683   2.774   2.228   3.841  1.1568  3.0841  0.3696
 8349SOL    HW236684   2.786   2.223   3.988  0.3184  0.0250 -0.0395
 8350SOL     OW36685   2.001   1.968  16.252  0.3755  0.4842  0.5038
 8350SOL    HW136686   1.931   1.921  16.208 -0.5287  1.8166  0.5058
 8350SOL    HW236687   2.056   1.895  16.280 -0.2434 -0.2974 -0.3468
 8351SOL     OW36688   2.780   2.680   4.008 -0.0679 -0.2018 -0.0214
 8351SOL    HW136689   2.846   2.749   4.012  2.5514 -2.6635 -1.4041
 8351SOL    HW236690   2.712   2.710   3.947  0.7345  1.0158 -0.3146
 8352SOL     OW36691   2.812   4.070   3.250  0.3390  0.5254 -0.1124
 8352SOL    HW136692   2.865   4.084   3.172  1.3593 -0.7420  0.3393
 8352SOL    HW236693   2.868   4.011   3.301  0.3987  1.2813  0.6971
 8353SOL     OW36694   1.567   3.422   9.018 -0.2489 -0.2699 -0.0635
 8353SOL    HW136695   1.600   3.374   9.094 -1.1432 -0.5708  0.1374
 8353SOL    HW236696   1.592   3.361   8.949 -1.2694 -1.3336  0.5058
 8354SOL     OW36697   1.805   0.433   2.182 -0.0024 -0.2148  0.0886
 8354SOL    HW136698   1.768   0.430   2.270 -1.7221 -0.4814 -0.6588
 8354SOL    HW236699   1.807   0.339   2.168  3.2413  0.0740 -1.3648
 8355SOL     OW36700   1.459   0.300  17.120 -0.2400 -0.0614 -0.4754
 8355SOL    HW136701   1.424   0.216  17.147  1.1547  0.0284  1.5978
 8355SOL    HW236702   1.379   0.347  17.097 -1.1836 -0.5163  1.9909
 8356SOL     OW36703   3.365   3.986   3.851  0.1896 -0.5517  0.7638
 8356SOL    HW136704   3.422   3.944   3.787  0.8636  0.8376  0.4738
 8356SOL    HW236705   3.288   3.928   3.846  0.2356 -0.4624 -1.1438
 8357SOL     OW36706   0.203   2.010   0.515 -0.9641  0.3855 -0.4026
 8357SOL    HW136707   0.172   2.033   0.427  1.6974  1.3229 -1.0846
 8357SOL    HW236708   0.184   1.917   0.526  0.2908 -0.0860 -2.3544
 8358SOL     OW36709   4.697   1.168  13.102  0.0287  0.2200  0.2734
 8358SOL    HW136710   4.677   1.082  13.063  0.7523 -0.2968  1.0342
 8358SOL    HW236711   4.613   1.207  13.125 -0.7400 -0.7968 -0.7809
 8359SOL     OW36712   0.893   4.379   0.783 -0.4965  0.6839 -0.8360
 8359SOL    HW136713   0.930   4.320   0.717 -0.5818 -1.0409  0.6329
 8359SOL    HW236714   0.884   4.466   0.746  0.5975  1.1542  0.0250
 8360SOL     OW36715   0.823   2.661   8.728  0.2137  0.5079 -0.8189
 8360SOL    HW136716   0.732   2.677   8.700 -0.1085  0.5435  0.2463
 8360SOL    HW236717   0.856   2.613   8.652 -1.0300 -1.0147 -0.3885
 8361SOL     OW36718   2.916   3.087   0.466 -0.0895  0.0632  0.0752
 8361SOL    HW136719   2.865   3.059   0.390 -0.1552  1.0696 -0.2545
 8361SOL    HW236720   2.935   3.177   0.439  0.6127 -0.2429 -0.4466
 8362SOL     OW36721   0.277   2.521   3.468 -0.3529  0.9431  0.7075
 8362SOL    HW136722   0.228   2.451   3.511  0.3838 -0.8409 -1.3398
 8362SOL    HW236723   0.240   2.503   3.381  0.2471 -0.8492  0.8365
 8363SOL     OW36724   1.819   1.359  14.289  0.4034  0.2335 -0.1039
 8363SOL    HW136725   1.821   1.272  14.330 -0.7001 -1.8658 -4.4174
 8363SOL    HW236726   1.727   1.372  14.264  0.0999 -1.8611 -0.1014
 8364SOL     OW36727   3.854   1.031   8.935 -0.3251 -0.2040  0.3344
 8364SOL    HW136728   3.779   1.066   8.886 -1.0597 -0.6871  1.1157
 8364SOL    HW236729   3.886   1.113   8.974  0.4752 -0.8372  0.9949
 8365SOL     OW36730   3.729   2.408   8.889 -0.2415 -0.3123  0.3415
 8365SOL    HW136731   3.641   2.430   8.858 -0.7340 -1.7785  0.7230
 8365SOL    HW236732   3.709   2.380   8.978  1.6734  0.0242  0.8878
 8366SOL     OW36733   2.641   2.905   8.120 -0.1570  0.2429 -0.3868
 8366SOL    HW136734   2.660   2.952   8.202 -1.2239  0.6258 -0.3631
 8366SOL    HW236735   2.573   2.845   8.148 -1.4490  1.9105  0.0610
 8367SOL     OW36736   0.080   1.842   2.778  0.5176 -0.7615 -0.1808
 8367SOL    HW136737   0.131   1.773   2.820  1.7533  0.8637  1.0063
 8367SOL    HW236738   0.026   1.869   2.852  2.1947  1.2337  0.3170
 8368SOL     OW36739   3.778   0.485   1.091  0.2064 -0.2076  0.4332
 8368SOL    HW136740   3.759   0.578   1.073 -0.5508 -0.1890  1.3533
 8368SOL    HW236741   3.706   0.433   1.056 -0.3056  0.2259  0.8491
 8369SOL     OW36742   1.495   3.167   0.511  0.1657  0.1338 -0.0603
 8369SOL    HW136743   1.498   3.261   0.530 -0.8671  0.2918 -0.6644
 8369SOL    HW236744   1.490   3.132   0.600 -0.4576 -2.2176 -1.0276
 8370SOL     OW36745   2.581   1.309   7.188  0.2612  0.1015  0.3135
 8370SOL    HW136746   2.581   1.214   7.192 -1.8434  0.1420  1.2285
 8370SOL    HW236747   2.673   1.313   7.163  0.3662 -2.1276  0.3669
 8371SOL     OW36748   3.448   3.065  15.105  0.4541  0.0513  0.1496
 8371SOL    HW136749   3.484   2.996  15.049  0.6279 -0.0203  0.3494
 8371SOL    HW236750   3.354   3.056  15.090 -0.0263 -0.6471  3.6785
 8372SOL     OW36751   0.962   4.384  16.000 -1.1983  0.2986  0.1372
 8372SOL    HW136752   0.990   4.435  15.924 -0.3851 -2.2876 -1.3167
 8372SOL    HW236753   0.879   4.356  15.961 -1.3080 -1.7483  1.8279
 8373SOL     OW36754   2.175   3.294   5.406 -0.0782 -0.2256 -0.0952
 8373SOL    HW136755   2.134   3.300   5.492  0.0970 -0.6035  0.0141
 8373SOL    HW236756   2.108   3.244   5.360 -0.3088 -1.2098  1.3170
 8374SOL     OW36757   1.569   0.176   2.725  0.2229 -0.2288  0.0044
 8374SOL    HW136758   1.474   0.170   2.724  0.3847 -2.1702 -3.2420
 8374SOL    HW236759   1.592   0.117   2.797  1.0086 -0.5337 -0.4870
 8375SOL     OW36760   2.162   4.453   0.969  0.0207  0.1768  0.1716
 8375SOL    HW136761   2.145   4.460   1.063  1.5495 -0.0566  0.4579
 8375SOL    HW236762   2.216   4.375   0.960  0.1046  0.0372  1.8997
 8376SOL     OW36763   0.373   2.394   9.906 -0.1703 -0.0082 -0.0382
 8376SOL    HW136764   0.448   2.408   9.850  0.4595  0.3694  0.9020
 8376SOL    HW236765   0.408   2.445   9.979 -0.8003 -0.6811  0.7452
 8377SOL     OW36766   2.243   0.932   7.085 -0.0310 -0.4606  0.2701
 8377SOL    HW136767   2.156   0.964   7.109  0.8598  4.7069 -3.3580
 8377SOL    HW236768   2.287   0.930   7.170  0.5077  2.2056  0.0425
 8378SOL     OW36769   0.699   3.862   4.981  0.2655  0.4873 -0.3803
 8378SOL    HW136770   0.608   3.864   4.954  0.0402 -0.0450  0.3403
 8378SOL    HW236771   0.717   3.956   4.973  0.8007  0.5545  1.6145
 8379SOL     OW36772   4.025   2.021   3.895 -0.5040  0.1502  0.0504
 8379SOL    HW136773   4.057   2.008   3.984  0.9949  1.2830 -0.3223
 8379SOL    HW236774   3.964   2.094   3.910 -0.1621  0.0310  2.0114
 8380SOL     OW36775   1.958   3.749   1.688  0.1797 -0.4420  0.2325
 8380SOL    HW136776   1.987   3.745   1.597  0.3468  2.5632  0.1671
 8380SOL    HW236777   1.887   3.813   1.683  0.1826 -0.6804 -2.6249
 8381SOL     OW36778   2.209   0.081   9.111  0.1460  0.7058  0.4457
 8381SOL    HW136779   2.131   0.101   9.163 -0.7272  1.5490 -1.1748
 8381SOL    HW236780   2.251   0.167   9.111 -0.0913  0.8193  1.1324
 8382SOL     OW36781   0.226   1.368   5.124 -0.6296 -0.3804  0.2255
 8382SOL    HW136782   0.271   1.319   5.192  0.4142  1.3820  0.8170
 8382SOL    HW236783   0.141   1.379   5.167 -0.8918 -1.4099 -0.0478
 8383SOL     OW36784   3.359   3.113   8.016  0.3707 -0.3189 -0.2291
 8383SOL    HW136785   3.374   3.095   8.108 -3.2357 -1.4893  0.1388
 8383SOL    HW236786   3.309   3.195   8.023  2.3994  0.9068 -0.2168
 8384SOL     OW36787   2.411   3.065  15.355  0.4190  0.8991 -0.4838
 8384SOL    HW136788   2.462   2.983  15.349  0.8859  1.0817  0.8204
 8384SOL    HW236789   2.383   3.060  15.446 -1.0787 -0.0284 -1.0016
 8385SOL     OW36790   3.234   3.400  15.222  0.7367  0.4305 -0.1446
 8385SOL    HW136791   3.229   3.406  15.317 -1.1927  2.5103 -0.3895
 8385SOL    HW236792   3.291   3.475  15.207  0.3647  0.4563 -1.4042
 8386SOL     OW36793   2.085   4.173   7.284 -0.6429  0.1718 -0.3447
 8386SOL    HW136794   2.180   4.161   7.282 -0.7675 -0.9103  0.0969
 8386SOL    HW236795   2.077   4.106   7.216 -0.7279 -1.3433  1.1688
 8387SOL     OW36796   0.632   1.865   5.315  0.3524 -0.3085  0.0956
 8387SOL    HW136797   0.645   1.938   5.255  0.0964 -0.3391 -0.0012
 8387SOL    HW236798   0.720   1.856   5.352  0.2803 -0.7495  0.1652
 8388SOL     OW36799   3.457   2.474   8.812 -0.3014 -0.1107 -0.1930
 8388SOL    HW136800   3.415   2.508   8.891  1.2648 -0.1068  0.6376
 8388SOL    HW236801   3.389   2.418   8.775 -1.9852  1.3488  0.7095
 8389SOL     OW36802   4.499   4.433   2.836  0.3013 -0.0403  0.7436
 8389SOL    HW136803   4.473   4.354   2.882 -1.8181  0.8003  0.9737
 8389SOL    HW236804   4.431   4.498   2.855  0.0760  0.4236 -1.7108
 8390SOL     OW36805   3.653   4.575   6.575 -0.1378  0.0774  0.1105
 8390SOL    HW136806   3.704   4.560   6.496 -0.3494 -3.4353  0.6493
 8390SOL    HW236807   3.579   4.516   6.561  1.6498 -1.9827 -0.6865
 8391SOL     OW36808   0.765   2.187   5.456  0.1661 -0.1805 -0.4007
 8391SOL    HW136809   0.788   2.100   5.426 -1.4104 -2.0333  3.7769
 8391SOL    HW236810   0.844   2.211   5.504 -0.1307 -0.4846  0.2305
 8392SOL     OW36811   3.063   3.995   3.355  0.0865 -0.4653 -0.0904
 8392SOL    HW136812   3.136   3.958   3.405  0.9387  1.6873  0.2512
 8392SOL    HW236813   3.063   4.086   3.383  2.6499 -1.0244  1.6960
 8393SOL     OW36814   2.248   1.668   9.773 -0.3718 -0.0290 -0.2433
 8393SOL    HW136815   2.241   1.605   9.845  0.0792 -0.6814 -0.7727
 8393SOL    HW236816   2.202   1.742   9.813 -0.1750 -0.4100  0.6814
 8394SOL     OW36817   0.467   0.016  16.936  0.6580 -0.4881 -0.3022
 8394SOL    HW136818   0.498   0.079  16.872  0.9982  0.9658  1.2922
 8394SOL    HW236819   0.552   4.722  16.968  1.7878  1.5990 -1.2140
 8395SOL     OW36820   3.453   2.365  15.499  0.0867  0.1193  0.3566
 8395SOL    HW136821   3.484   2.277  15.477  0.0002  0.3656 -0.7533
 8395SOL    HW236822   3.385   2.372  15.432  0.5642  1.9782  0.0935
 8396SOL     OW36823   1.713   0.232   4.412  0.2894 -0.3686 -0.2564
 8396SOL    HW136824   1.629   0.237   4.458 -0.5334 -1.6920 -1.6385
 8396SOL    HW236825   1.765   0.276   4.480  1.3226 -0.7172 -0.8357
 8397SOL     OW36826   3.061   0.564  10.118  0.1643 -0.3225  0.1831
 8397SOL    HW136827   3.031   0.518  10.196 -0.1083  1.0098  0.8673
 8397SOL    HW236828   3.050   0.495  10.052 -1.2210 -1.7509  1.9320
 8398SOL     OW36829   0.515   3.684   4.168  0.0310  0.2192 -0.5485
 8398SOL    HW136830   0.577   3.611   4.162 -1.7753 -1.3150 -0.7054
 8398SOL    HW236831   0.488   3.671   4.259  1.0030 -1.1667 -0.4573
 8399SOL     OW36832   4.508   3.652   3.547  0.1894 -0.4680 -0.1181
 8399SOL    HW136833   4.534   3.596   3.620  2.3164  1.0857  0.3088
 8399SOL    HW236834   4.587   3.638   3.495  1.6728  0.3972  1.8975
 8400SOL     OW36835   2.453   1.625   1.181 -0.4447 -1.0305 -0.9311
 8400SOL    HW136836   2.508   1.548   1.193  0.1052 -0.5545 -0.4024
 8400SOL    HW236837   2.504   1.700   1.210 -1.6121 -0.7431  0.4169
 8401SOL     OW36838   1.918   1.574  13.973  0.4493  0.2830  0.5716
 8401SOL    HW136839   1.948   1.662  13.997 -0.6699  0.1393  2.5502
 8401SOL    HW236840   1.824   1.584  13.960  0.6588  1.2335 -0.1737
 8402SOL     OW36841   3.749   2.445   4.447 -0.5162 -0.0699 -0.3591
 8402SOL    HW136842   3.809   2.372   4.431 -0.7640 -0.1983 -0.6917
 8402SOL    HW236843   3.808   2.497   4.502 -1.5451 -0.1818  0.8383
 8403SOL     OW36844   3.106   0.248   2.862  0.2032 -0.2819 -0.0243
 8403SOL    HW136845   3.134   0.173   2.809  1.0931  0.2373 -0.2898
 8403SOL    HW236846   3.032   0.291   2.818  0.1699 -0.4196 -0.1011
 8404SOL     OW36847   1.800   2.293   6.724  0.0068 -0.7151  0.0446
 8404SOL    HW136848   1.877   2.255   6.680  0.5336  0.4771 -0.0600
 8404SOL    HW236849   1.827   2.312   6.813  1.0980 -4.8703  0.6031
 8405SOL     OW36850   0.664   3.134   6.864 -0.2052 -0.7901  0.0061
 8405SOL    HW136851   0.744   3.170   6.825  0.5391  0.0186  2.3270
 8405SOL    HW236852   0.658   3.177   6.949  1.3150 -1.5977  0.5275
 8406SOL     OW36853   1.043   0.598  15.553 -0.0759 -0.2652  0.2184
 8406SOL    HW136854   1.050   0.593  15.648  1.0670 -1.3260  0.0913
 8406SOL    HW236855   0.948   0.608  15.544 -0.1238  0.4785  1.5319
 8407SOL     OW36856   0.279   1.830   3.868  0.5898  0.2306 -0.4775
 8407SOL    HW136857   0.288   1.886   3.790  0.3250  0.2371 -0.5016
 8407SOL    HW236858   0.197   1.786   3.847 -0.3942  1.8446  0.0122
 8408SOL     OW36859   2.607   4.608   7.655  0.4390 -0.2227 -0.2447
 8408SOL    HW136860   2.606   4.608   7.751 -0.1610 -1.3607 -0.2441
 8408SOL    HW236861   2.515   4.591   7.635  0.4335 -1.3722  0.7610
 8409SOL     OW36862   4.247   4.295   7.301  0.8875  0.1217  0.5038
 8409SOL    HW136863   4.190   4.357   7.347 -0.4888 -0.3611 -0.5475
 8409SOL    HW236864   4.317   4.311   7.365 -0.3458  0.7619  1.7084
 8410SOL     OW36865   0.219   1.720   9.265 -0.3438  0.1554 -0.1234
 8410SOL    HW136866   0.273   1.760   9.333  0.1811  1.8116 -1.5054
 8410SOL    HW236867   0.283   1.673   9.212  2.0322  4.8700 -1.4074
 8411SOL     OW36868   1.977   2.448   6.935  0.8575 -0.6217 -0.2711
 8411SOL    HW136869   1.955   2.410   7.020 -0.0699  1.7676  0.5498
 8411SOL    HW236870   1.971   2.539   6.965 -1.9865 -0.6990 -0.6024
 8412SOL     OW36871   1.288   2.496   9.306  0.4278 -0.4811  0.3853
 8412SOL    HW136872   1.304   2.576   9.355 -0.4927 -1.6196  2.5490
 8412SOL    HW236873   1.202   2.471   9.342 -0.8686  2.5080 -0.6942
 8413SOL     OW36874   1.626   2.581   1.367 -0.0325 -0.1860  0.2863
 8413SOL    HW136875   1.672   2.647   1.316  0.8263 -1.8358 -1.0838
 8413SOL    HW236876   1.594   2.530   1.292  2.7643  1.2926 -1.9108
 8414SOL     OW36877   1.427   0.455   7.704 -0.9140 -0.0646 -0.3760
 8414SOL    HW136878   1.481   0.475   7.628 -0.5306  2.7337  0.6298
 8414SOL    HW236879   1.478   0.385   7.746 -2.1096 -0.1824  0.8853
 8415SOL     OW36880   2.101   2.280   2.498  0.5284  0.0307  0.0467
 8415SOL    HW136881   2.177   2.314   2.546 -0.6533 -1.0637  2.7228
 8415SOL    HW236882   2.045   2.347   2.537  1.1663 -0.0435  1.1007
 8416SOL     OW36883   1.762   4.469  11.319  0.3123 -0.0420  0.0926
 8416SOL    HW136884   1.825   4.505  11.381  0.6761 -2.1635  0.9613
 8416SOL    HW236885   1.794   4.505  11.236 -0.5474 -0.4597 -0.4326
 8417SOL     OW36886   0.414   1.075  12.753  0.5666 -0.3128 -0.0503
 8417SOL    HW136887   0.325   1.073  12.790  0.0502  3.4770 -1.0783
 8417SOL    HW236888   0.460   1.142  12.802  0.7862 -0.3487 -0.2101
 8418SOL     OW36889   1.579   3.309   7.911 -0.0708 -0.4762  0.2940
 8418SOL    HW136890   1.517   3.241   7.884 -1.4774  0.5920  0.8360
 8418SOL    HW236891   1.569   3.312   8.006 -1.6198 -0.0536  0.1166
 8419SOL     OW36892   0.115   0.267   5.771  0.1124 -0.2904 -0.3005
 8419SOL    HW136893   0.034   0.237   5.813  1.1623 -2.1553  0.4125
 8419SOL    HW236894   0.181   0.212   5.813  2.5639  1.2422 -2.1886
 8420SOL     OW36895   1.742   3.804   0.345 -0.1275  0.3983 -0.1473
 8420SOL    HW136896   1.836   3.801   0.328 -0.2416  1.2662 -0.9177
 8420SOL    HW236897   1.708   3.799   0.256  2.4899 -0.6387 -1.0791
 8421SOL     OW36898   2.396   4.395   7.697 -0.8161 -0.1678 -0.4420
 8421SOL    HW136899   2.332   4.463   7.678  0.2099  1.1224  0.6732
 8421SOL    HW236900   2.359   4.327   7.641 -1.1347 -1.3095  1.1350
 8422SOL     OW36901   1.125   0.710   8.279 -0.2272 -0.3881 -0.6040
 8422SOL    HW136902   1.107   0.616   8.276  0.1935 -0.4671 -0.6650
 8422SOL    HW236903   1.135   0.728   8.185 -1.4484  3.9468  0.0898
 8423SOL     OW36904   4.246   0.193   2.475 -0.1752 -0.0827  0.0425
 8423SOL    HW136905   4.209   0.151   2.553 -0.3671 -0.3428 -0.1910
 8423SOL    HW236906   4.317   0.244   2.515 -0.6463 -0.3315  1.1895
 8424SOL     OW36907   3.379   1.603  10.912  0.1641 -0.1885 -0.2192
 8424SOL    HW136908   3.420   1.566  10.990  0.9489  0.5236 -0.2949
 8424SOL    HW236909   3.422   1.558  10.839  0.6018 -1.0268  0.5563
 8425SOL     OW36910   4.028   2.275   9.598  0.2231 -0.2033  0.0130
 8425SOL    HW136911   4.122   2.284   9.586  0.4142 -2.2376 -0.0440
 8425SOL    HW236912   4.001   2.188   9.629  1.2207 -0.9979 -1.3492
 8426SOL     OW36913   3.390   0.204   4.329 -0.5553 -0.7611 -0.1774
 8426SOL    HW136914   3.312   0.223   4.277  0.8464  1.5902 -1.4507
 8426SOL    HW236915   3.378   0.110   4.343  0.3297 -0.6016  1.7080
 8427SOL     OW36916   3.462   0.458   6.958  0.4850  0.5348  0.7533
 8427SOL    HW136917   3.506   0.408   6.889 -2.0585  0.6789 -1.0138
 8427SOL    HW236918   3.530   0.521   6.981 -0.4187  0.8540  2.5622
 8428SOL     OW36919   3.766   0.647   4.780 -0.1444  0.0951  0.3809
 8428SOL    HW136920   3.758   0.553   4.765 -1.3580  0.0446  1.2920
 8428SOL    HW236921   3.716   0.681   4.705  0.3608 -0.2537 -0.1120
 8429SOL     OW36922   2.556   2.969  16.443 -0.0125  0.2355  0.3408
 8429SOL    HW136923   2.543   3.035  16.512 -0.3460  1.4052 -0.8465
 8429SOL    HW236924   2.607   2.903  16.489  0.5455 -0.3903 -1.1748
 8430SOL     OW36925   2.696   2.954  15.187  0.0439  0.6105  0.5522
 8430SOL    HW136926   2.721   3.041  15.219  0.6911  0.2980  0.8971
 8430SOL    HW236927   2.668   2.911  15.267 -0.3434 -1.3017 -0.6147
 8431SOL     OW36928   3.559   1.049   3.386 -0.2005  0.1329 -0.1026
 8431SOL    HW136929   3.615   0.995   3.329 -1.4050 -1.0084 -0.1944
 8431SOL    HW236930   3.499   1.086   3.322 -2.0546  0.0903  1.6485
 8432SOL     OW36931   1.336   3.095   3.427  0.0486  0.0970  0.0937
 8432SOL    HW136932   1.274   3.022   3.436 -0.7778  0.8607  0.5078
 8432SOL    HW236933   1.359   3.071   3.337 -0.2664 -0.2138  0.0941
 8433SOL     OW36934   2.792   2.696   0.565  0.5845  0.0890 -0.0498
 8433SOL    HW136935   2.829   2.785   0.567  1.2441 -0.1702 -0.4973
 8433SOL    HW236936   2.741   2.698   0.645  1.1370 -1.7187  0.3283
 8434SOL     OW36937   4.290   3.089   7.570 -0.6815  0.2095 -0.5308
 8434SOL    HW136938   4.367   3.056   7.524 -0.5043 -2.5714  1.7272
 8434SOL    HW236939   4.271   3.021   7.635  1.1677 -2.4362 -2.7360
 8435SOL     OW36940   0.593   4.123  17.449  0.5624 -0.0924 -0.5574
 8435SOL    HW136941   0.609   4.035  17.416  1.4173 -1.1286  2.6415
 8435SOL    HW236942   0.536   4.099  17.522  0.6497  0.5985 -0.2674
 8436SOL     OW36943   3.191   4.664   2.444  0.0817  0.6318  0.1408
 8436SOL    HW136944   3.268   4.626   2.485 -0.1944 -0.3331 -0.2202
 8436SOL    HW236945   3.176   0.015   2.476 -0.1333 -0.0021  1.7846
 8437SOL     OW36946   2.443   0.591  15.664 -0.1262  0.5074  0.0722
 8437SOL    HW136947   2.481   0.506  15.641 -1.2889 -0.3113  1.1807
 8437SOL    HW236948   2.503   0.649  15.617 -0.9227 -1.0684 -2.8581
 8438SOL     OW36949   4.022   4.050   1.079 -0.4269  0.3240  0.2219
 8438SOL    HW136950   3.945   4.036   1.023 -0.2904  0.1525  0.0792
 8438SOL    HW236951   4.068   4.128   1.048 -1.3712 -0.4416 -3.1743
 8439SOL     OW36952   3.898   4.628   4.432  0.0171 -0.6706  0.5057
 8439SOL    HW136953   3.864   4.701   4.380  0.2481  0.7215  2.3327
 8439SOL    HW236954   3.906   4.567   4.358 -1.3133  0.2347 -0.3753
 8440SOL     OW36955   4.149   0.973   6.188 -0.0985 -0.4100 -0.0011
 8440SOL    HW136956   4.106   0.968   6.273  1.3373  1.0039  0.7936
 8440SOL    HW236957   4.069   0.998   6.141 -0.8249  0.7701  1.8614
 8441SOL     OW36958   2.798   2.883   5.479 -0.2134 -0.3486  0.0867
 8441SOL    HW136959   2.871   2.922   5.526 -0.7814 -0.9192  1.4621
 8441SOL    HW236960   2.814   2.788   5.477  2.9210  0.2009 -0.6522
 8442SOL     OW36961   1.574   3.527  10.818 -0.7175 -0.4020  0.3493
 8442SOL    HW136962   1.622   3.584  10.878  0.2900 -0.2674 -0.5895
 8442SOL    HW236963   1.616   3.544  10.733 -2.2881 -2.1668 -0.7810
 8443SOL     OW36964   2.829   0.612   4.793  0.3460  0.4343 -0.4400
 8443SOL    HW136965   2.847   0.562   4.713 -0.6075  0.9693 -0.9925
 8443SOL    HW236966   2.786   0.690   4.757  1.1195  0.9941 -0.1554
 8444SOL     OW36967   1.075   1.828   1.962  0.1666  0.3992 -0.0430
 8444SOL    HW136968   1.150   1.875   1.925  1.7300 -0.7597  1.6260
 8444SOL    HW236969   1.094   1.744   1.920 -0.2188 -0.8700  2.2678
 8445SOL     OW36970   3.417   4.391   5.133  0.1221 -0.1477  0.7008
 8445SOL    HW136971   3.400   4.365   5.224 -1.1684  1.6814  0.9878
 8445SOL    HW236972   3.509   4.416   5.136 -0.0054  0.2974  0.9299
 8446SOL     OW36973   0.240   2.344   8.088  0.0255 -0.1480  0.4876
 8446SOL    HW136974   0.158   2.295   8.095  0.5905 -1.0015  1.0843
 8446SOL    HW236975   0.222   2.415   8.149  1.3334 -1.2021  2.0872
 8447SOL     OW36976   2.268   1.778   8.860 -0.1923 -0.2927  0.3473
 8447SOL    HW136977   2.235   1.736   8.940 -1.9927  0.2034 -0.1357
 8447SOL    HW236978   2.325   1.707   8.830 -0.8741  0.5080 -2.8188
 8448SOL     OW36979   0.556   2.811   9.485 -0.5294  0.1503 -0.3552
 8448SOL    HW136980   0.608   2.891   9.494 -0.9163  0.5441 -1.5434
 8448SOL    HW236981   0.529   2.811   9.393  0.9405  2.5837 -0.7916
 8449SOL     OW36982   2.836   0.909   6.733  0.3962 -0.0060  0.4086
 8449SOL    HW136983   2.909   0.849   6.723  0.0033  0.2597 -4.0401
 8449SOL    HW236984   2.825   0.941   6.643 -2.5115  1.3928  1.2388
 8450SOL     OW36985   3.436   0.423   7.397 -0.5450  0.8728  0.9867
 8450SOL    HW136986   3.476   0.505   7.368 -2.2337  1.6299  0.7623
 8450SOL    HW236987   3.471   0.417   7.486  0.1824 -0.6725  0.5977
 8451SOL     OW36988   0.966   0.447  16.583 -0.0586 -0.4715 -0.1369
 8451SOL    HW136989   1.011   0.370  16.547 -0.8210 -0.2300 -1.6205
 8451SOL    HW236990   0.952   0.504  16.508 -1.3010  0.8561  1.1117
 8452SOL     OW36991   2.702   1.461   2.840  0.5529  0.3793  0.0514
 8452SOL    HW136992   2.616   1.434   2.874  1.0584 -1.7883 -0.4204
 8452SOL    HW236993   2.688   1.463   2.746 -1.1643 -0.8973  0.2809
 8453SOL     OW36994   1.989   2.108   8.927 -0.0823  0.0501  0.6108
 8453SOL    HW136995   1.997   2.203   8.925 -0.0502  0.0848  2.4488
 8453SOL    HW236996   2.026   2.077   9.009 -0.2082 -0.2627  0.5519
 8454SOL     OW36997   4.734   3.807   5.292  0.5893  0.0095  0.3807
 8454SOL    HW136998   4.705   3.876   5.233 -2.9425  0.2016  2.3541
 8454SOL    HW236999   4.719   3.732   5.235 -2.5644 -0.4751  1.8248
 8455SOL     OW37000   1.413   3.529   5.083  0.3926  0.4890 -0.3405
 8455SOL    HW137001   1.371   3.611   5.057  2.3067  2.2373  2.0448
 8455SOL    HW237002   1.475   3.564   5.148 -0.3639 -3.3375  2.4340
 8456SOL     OW37003   3.905   3.714  17.423  0.5496 -0.2917  0.0058
 8456SOL    HW137004   3.871   3.678  17.341 -0.7251  0.3503  0.2544
 8456SOL    HW237005   3.990   3.670  17.434  1.0952  2.1725  5.8624
 8457SOL     OW37006   2.111   1.085   2.785 -0.3012 -0.3221  0.6332
 8457SOL    HW137007   2.184   1.024   2.792  0.5069  0.5045 -0.5500
 8457SOL    HW237008   2.130   1.147   2.714 -0.0138 -0.3664  0.6732
 8458SOL     OW37009   0.656   2.327  13.184  0.2841 -0.1407  0.0222
 8458SOL    HW137010   0.721   2.346  13.252  1.5018 -2.0868 -0.5983
 8458SOL    HW237011   0.685   2.380  13.109 -0.9643 -0.8878 -0.9976
 8459SOL     OW37012   2.080   4.088   7.885  0.0191  0.2299 -0.0551
 8459SOL    HW137013   2.016   4.130   7.827 -0.2524  1.2517  0.9960
 8459SOL    HW237014   2.030   4.053   7.959 -0.8655  0.9063 -0.3268
 8460SOL     OW37015   3.177   3.296   6.521  0.1839 -0.2026  0.2792
 8460SOL    HW137016   3.241   3.245   6.472  1.5494  0.9957  0.7775
 8460SOL    HW237017   3.230   3.376   6.528 -0.6016  0.2092  1.4797
 8461SOL     OW37018   0.029   0.496   1.280 -0.0497 -0.0012 -0.4925
 8461SOL    HW137019   0.111   0.543   1.270 -0.1733  0.6241  1.4564
 8461SOL    HW237020   0.056   0.408   1.304  1.8732  0.2836 -1.6517
 8462SOL     OW37021   0.792   2.085   7.324  0.7791 -0.2812 -0.0634
 8462SOL    HW137022   0.809   2.157   7.263 -0.5001 -0.9252 -1.1829
 8462SOL    HW237023   0.708   2.113   7.358  1.7848  2.2487  0.3007
 8463SOL     OW37024   0.996   2.986   6.392  0.3319  0.0050 -0.4080
 8463SOL    HW137025   1.082   2.981   6.434  0.0987  0.5613  0.1394
 8463SOL    HW237026   1.024   2.946   6.310 -0.9865 -1.6958 -0.0331
 8464SOL     OW37027   4.102   1.871  17.117  0.3889  0.2997 -0.2883
 8464SOL    HW137028   4.083   1.964  17.117 -1.6588 -0.1094  0.1113
 8464SOL    HW237029   4.020   1.831  17.145  2.0066 -2.1962  0.8772
 8465SOL     OW37030   4.335   1.615   3.969 -0.4322  0.4872  0.0692
 8465SOL    HW137031   4.378   1.577   3.893  0.2864  3.0057 -0.7801
 8465SOL    HW237032   4.296   1.695   3.932  0.7193  0.2004 -1.7457
 8466SOL     OW37033   3.352   0.755   7.143  0.4676  0.1156  0.8423
 8466SOL    HW137034   3.372   0.762   7.236 -1.1364 -1.2189  1.2867
 8466SOL    HW237035   3.428   0.801   7.107  0.0188 -0.2419 -0.5761
 8467SOL     OW37036   2.831   4.594   0.218  0.5181  0.0717  0.0091
 8467SOL    HW137037   2.898   4.591   0.286 -0.5027  2.5875  1.1337
 8467SOL    HW237038   2.876   4.543   0.151  2.4036 -0.0464  1.3833
 8468SOL     OW37039   1.054   4.392   9.022 -0.1988  0.0941 -0.2121
 8468SOL    HW137040   1.142   4.367   8.993 -1.0634 -1.6275 -1.3874
 8468SOL    HW237041   1.001   4.342   8.959 -1.9916 -3.3651  4.0124
 8469SOL     OW37042   0.764   2.220   6.741  0.9613  0.1347  0.2444
 8469SOL    HW137043   0.676   2.216   6.776  1.3432  3.4670  1.5878
 8469SOL    HW237044   0.748   2.230   6.647 -0.3032  1.5316  0.6061
 8470SOL     OW37045   3.510   0.877  17.053  0.4914  0.1085 -0.8478
 8470SOL    HW137046   3.516   0.967  17.083  0.8203  0.1391 -0.9995
 8470SOL    HW237047   3.450   0.902  16.982 -1.2584 -4.0551 -0.8388
 8471SOL     OW37048   2.159   1.351   4.282  0.1127  0.1158 -0.4707
 8471SOL    HW137049   2.249   1.354   4.249 -0.5692  0.8860 -2.2648
 8471SOL    HW237050   2.149   1.278   4.344  0.2159  0.7753  0.3139
 8472SOL     OW37051   3.948   4.087  12.785  0.4357 -0.3423  0.7737
 8472SOL    HW137052   4.018   4.026  12.763 -0.5827 -1.4843  0.6956
 8472SOL    HW237053   3.872   4.049  12.740 -0.4336  1.2993  0.8422
 8473SOL     OW37054   2.288   4.714   6.603  0.2757  0.4324  0.1501
 8473SOL    HW137055   2.221   4.654   6.571  0.0176  0.6507  0.2797
 8473SOL    HW237056   2.317   0.021   6.523  2.0757 -1.5166 -0.2723
 8474SOL     OW37057   2.384   3.347   7.355 -0.1236  0.0612 -0.6126
 8474SOL    HW137058   2.394   3.252   7.358 -0.4298  0.0315 -0.5206
 8474SOL    HW237059   2.426   3.364   7.439  0.9118  1.5027 -1.4321
 8475SOL     OW37060   0.482   2.036   7.075  0.2823 -0.6865 -0.3069
 8475SOL    HW137061   0.556   1.997   7.029 -0.2474  1.2678 -2.8377
 8475SOL    HW237062   0.413   1.970   7.075 -0.5947  0.2224 -1.4202
 8476SOL     OW37063   3.777   3.094   8.644 -0.2806 -0.3399  0.4850
 8476SOL    HW137064   3.852   3.127   8.595  0.3667  0.4919  2.0154
 8476SOL    HW237065   3.785   3.001   8.622  0.9936 -0.4111  1.1917
 8477SOL     OW37066   2.670   4.627  15.758  0.3840  0.5637 -0.0715
 8477SOL    HW137067   2.699   4.581  15.836  0.7877  0.0610 -0.5166
 8477SOL    HW237068   2.699   4.558  15.698 -0.6599  0.6400 -0.6703
 8478SOL     OW37069   1.934   1.872  12.502 -0.3370  0.0513 -0.0722
 8478SOL    HW137070   2.025   1.901  12.501 -0.5130  0.4808 -3.6051
 8478SOL    HW237071   1.952   1.793  12.553  3.3075 -0.0260 -1.4829
 8479SOL     OW37072   0.021   0.217   5.270  0.3645  0.3522 -0.0256
 8479SOL    HW137073   0.081   0.199   5.197  0.1826  1.5594 -0.4736
 8479SOL    HW237074   4.675   0.207   5.224  1.0695  4.7174 -2.2752
 8480SOL     OW37075   3.725   4.214  12.902  0.3558  0.2903  0.5995
 8480SOL    HW137076   3.799   4.160  12.876 -0.5444 -0.6481 -0.0188
 8480SOL    HW237077   3.672   4.151  12.951 -3.3191  1.2226 -2.1813
 8481SOL     OW37078   2.133   4.466   2.929 -0.0588  0.1497  0.6427
 8481SOL    HW137079   2.173   4.417   3.000  0.5893 -0.4317 -0.1302
 8481SOL    HW237080   2.196   4.538   2.923 -2.5880  2.4499  1.6319
 8482SOL     OW37081   3.554   0.059   8.969 -0.0396  0.4176  0.0236
 8482SOL    HW137082   3.506   0.045   9.051  0.1494 -1.7112 -0.2381
 8482SOL    HW237083   3.491   0.044   8.898  0.4873  2.7834 -0.9414
 8483SOL     OW37084   3.686   2.992   3.157  0.1708  0.0370 -0.2708
 8483SOL    HW137085   3.683   3.014   3.251 -0.7243 -0.1165 -0.2621
 8483SOL    HW237086   3.752   2.923   3.152  0.5252  0.2275  1.5604
 8484SOL     OW37087   3.508   3.998   0.413 -0.1461  0.2915  0.1089
 8484SOL    HW137088   3.555   3.966   0.336 -0.4288 -2.2941  1.0295
 8484SOL    HW237089   3.422   3.992   0.371  0.0024  0.5910 -0.2397
 8485SOL     OW37090   3.845   1.598   3.194  0.2286 -0.5865 -0.2978
 8485SOL    HW137091   3.837   1.516   3.145  2.4448 -1.5881  1.0260
 8485SOL    HW237092   3.928   1.580   3.238 -0.1725  0.7803  0.9898
 8486SOL     OW37093   0.573   0.991  13.127 -0.0460  0.9481 -0.0953
 8486SOL    HW137094   0.491   0.965  13.084  0.0268  2.6162 -1.2231
 8486SOL    HW237095   0.601   0.900  13.139 -0.1134  0.7583 -1.3496
 8487SOL     OW37096   3.626   3.865   5.719 -0.3951  0.2471  0.4904
 8487SOL    HW137097   3.595   3.780   5.688  0.7599  0.5532 -1.4641
 8487SOL    HW237098   3.638   3.843   5.811  0.9962  2.0994  0.7494
 8488SOL     OW37099   4.640   3.102   9.621  0.6757 -0.3143  0.2057
 8488SOL    HW137100   4.732   3.127   9.624  0.3334  0.7786  1.6787
 8488SOL    HW237101   4.601   3.149   9.695  3.1116  0.8874  0.7168
 8489SOL     OW37102   1.120   0.261   7.032 -0.0251 -0.0858  0.4450
 8489SOL    HW137103   1.039   0.241   6.984 -0.8499 -0.8739  2.1603
 8489SOL    HW237104   1.096   0.345   7.072 -1.5416 -0.9351  1.3315
 8490SOL     OW37105   0.273   3.038  15.409  0.7054 -0.3009 -0.9498
 8490SOL    HW137106   0.357   2.991  15.412  1.2525  0.6607 -1.3116
 8490SOL    HW237107   0.257   3.012  15.318  0.5023 -0.2898 -0.9156
 8491SOL     OW37108   1.341   1.823   5.646 -0.0682 -0.7039 -0.5391
 8491SOL    HW137109   1.380   1.885   5.584 -0.8585  0.5776  0.2454
 8491SOL    HW237110   1.313   1.878   5.719 -0.1844  0.5795 -1.5436
 8492SOL     OW37111   3.793   1.847   8.841 -0.0485  0.2565 -0.0579
 8492SOL    HW137112   3.702   1.879   8.842  0.4500  1.6339  0.8288
 8492SOL    HW237113   3.820   1.879   8.927  1.7323 -0.4058 -0.3699
 8493SOL     OW37114   3.519   1.145   3.640  0.1017  0.1741  0.5222
 8493SOL    HW137115   3.520   1.066   3.695  1.8568  0.1421  0.4215
 8493SOL    HW237116   3.505   1.102   3.556 -1.2025 -0.5267  1.0968
 8494SOL     OW37117   4.265   1.607  10.341  0.6254  0.3941  0.3686
 8494SOL    HW137118   4.244   1.552  10.417 -2.2022  0.1264 -0.5888
 8494SOL    HW237119   4.355   1.637  10.354  1.2512 -0.4875 -2.0822
 8495SOL     OW37120   3.791   2.431  13.220  0.0412 -0.5454 -0.1611
 8495SOL    HW137121   3.775   2.474  13.304  0.5197  0.3879 -0.5385
 8495SOL    HW237122   3.878   2.392  13.232  0.8418  0.7431 -1.6665
 8496SOL     OW37123   2.205   3.401   9.153 -0.4965  0.6666  0.0894
 8496SOL    HW137124   2.117   3.414   9.188 -0.3019  2.2341 -0.0103
 8496SOL    HW237125   2.251   3.436   9.230  1.0238  0.2323 -0.6178
 8497SOL     OW37126   3.153   3.950   4.546  0.2925 -0.0193 -0.5240
 8497SOL    HW137127   3.187   3.872   4.502 -1.4115 -1.3180  0.4666
 8497SOL    HW237128   3.223   3.981   4.603 -0.3573 -2.6103  1.6548
 8498SOL     OW37129   0.590   4.429   3.516 -0.0523 -0.1623  0.2851
 8498SOL    HW137130   0.562   4.458   3.429  3.7070  1.8697 -0.2437
 8498SOL    HW237131   0.615   4.342   3.486 -2.0231 -0.3984 -0.6366
 8499SOL     OW37132   4.112   3.683  14.475  0.0548  0.0521 -0.0160
 8499SOL    HW137133   4.072   3.722  14.553  0.4051 -1.4677  0.9372
 8499SOL    HW237134   4.193   3.732  14.465  0.9537 -1.2747  0.7966
 8500SOL     OW37135   2.925   2.136   9.061 -0.1426 -0.5870  0.4525
 8500SOL    HW137136   2.898   2.111   9.150  0.8084  0.6490  1.0954
 8500SOL    HW237137   2.900   2.054   9.019 -1.1217  0.3157 -0.7306
 8501SOL     OW37138   0.428   2.579   5.632  0.0004 -0.4067  0.2241
 8501SOL    HW137139   0.495   2.621   5.685  1.5512 -1.6299 -0.7538
 8501SOL    HW237140   0.418   2.501   5.687 -0.4694 -1.2916 -1.1056
 8502SOL     OW37141   0.551   1.229  12.970  0.1801  0.1246 -0.0908
 8502SOL    HW137142   0.574   1.146  13.011 -0.7054 -0.3435 -0.5414
 8502SOL    HW237143   0.617   1.284  13.011 -0.5124  0.1643  0.9694
 8503SOL     OW37144   3.274   2.052   6.898 -0.4880  0.2994  0.5542
 8503SOL    HW137145   3.188   2.053   6.940 -0.3099  0.3954  0.9164
 8503SOL    HW237146   3.267   2.125   6.836 -3.8150 -1.5756 -1.2540
 8504SOL     OW37147   0.449   0.562   8.099 -0.0204 -0.2659  0.1806
 8504SOL    HW137148   0.407   0.524   8.176  0.1290  0.7576  0.7826
 8504SOL    HW237149   0.509   0.496   8.065 -0.8498  0.1449 -2.0968
 8505SOL     OW37150   0.852   1.523  16.304 -0.2116 -0.0035 -0.3571
 8505SOL    HW137151   0.809   1.598  16.343  0.3928 -0.0222  0.3374
 8505SOL    HW237152   0.818   1.442  16.341  0.8740  0.0757  0.8271
 8506SOL     OW37153   3.964   0.704  10.609  0.1571 -0.1906 -0.3026
 8506SOL    HW137154   3.898   0.639  10.584 -0.5557  0.3799  0.0773
 8506SOL    HW237155   3.925   0.788  10.585  1.4949  0.2286 -0.9973
 8507SOL     OW37156   1.359   0.816   5.831  0.3310 -0.3590  0.2227
 8507SOL    HW137157   1.334   0.886   5.771  1.1956  0.1222  0.4268
 8507SOL    HW237158   1.397   0.874   5.898 -0.9879  0.0861  0.5763
 8508SOL     OW37159   3.218   0.051   8.555  0.7256  0.1667 -0.6611
 8508SOL    HW137160   3.233   4.694   8.557  2.2022  0.4072 -0.4978
 8508SOL    HW237161   3.123   0.059   8.543  1.1118  2.3730 -2.3204
 8509SOL     OW37162   4.104   1.957   2.733  0.1682  0.3664 -0.5308
 8509SOL    HW137163   4.077   2.024   2.795 -1.6174 -0.1417 -0.7604
 8509SOL    HW237164   4.044   1.975   2.661 -4.3056 -0.6007  2.9807
 8510SOL     OW37165   3.748   1.300   8.905 -0.6864  0.2918 -0.4111
 8510SOL    HW137166   3.657   1.290   8.933  0.2006 -2.1720  1.5564
 8510SOL    HW237167   3.743   1.377   8.848  1.6082  1.5586  1.0943
 8511SOL     OW37168   2.767   2.708  13.805  0.3531 -0.2404  0.3864
 8511SOL    HW137169   2.740   2.795  13.775  0.3640 -0.5237 -0.4692
 8511SOL    HW237170   2.859   2.717  13.782 -0.0204  2.3818 -0.0676
 8512SOL     OW37171   0.630   2.548   5.413 -0.1094  0.5810 -0.1337
 8512SOL    HW137172   0.659   2.515   5.328 -0.5291 -0.6157  0.2013
 8512SOL    HW237173   0.566   2.481   5.435  0.1987  0.3821  0.1466
 8513SOL     OW37174   1.238   2.270   8.455 -0.1204 -0.2447 -0.3500
 8513SOL    HW137175   1.259   2.288   8.363 -2.2034  2.0352 -0.3870
 8513SOL    HW237176   1.239   2.175   8.447 -3.2896 -0.5887  3.0975
 8514SOL     OW37177   3.323   1.342   7.412 -0.4793  0.7288  0.5003
 8514SOL    HW137178   3.268   1.418   7.394  0.5435  1.1866 -0.7139
 8514SOL    HW237179   3.302   1.292   7.333 -3.0214 -0.9860  2.2858
 8515SOL     OW37180   4.496   0.897   4.627 -0.5056  0.3525  0.3166
 8515SOL    HW137181   4.522   0.986   4.606 -0.5486  0.1601 -0.5275
 8515SOL    HW237182   4.580   0.853   4.616  0.0548  1.8771 -1.2917
 8516SOL     OW37183   2.588   3.001   9.068  0.2355 -0.4108  0.4252
 8516SOL    HW137184   2.518   2.936   9.077 -1.1828  0.9950 -0.4030
 8516SOL    HW237185   2.544   3.086   9.078  1.8097  0.3391  0.9350
 8517SOL     OW37186   0.556   4.479   1.897  0.2605 -0.2081  0.1584
 8517SOL    HW137187   0.626   4.415   1.906 -0.2908 -0.6150  1.5276
 8517SOL    HW237188   0.478   4.427   1.916 -0.1820  0.9330  1.4346
 8518SOL     OW37189   1.305   2.746   6.255  0.4074  0.2414 -0.3910
 8518SOL    HW137190   1.285   2.694   6.332  0.5207 -0.7163 -1.0072
 8518SOL    HW237191   1.395   2.777   6.264  0.2284  1.4631 -2.5717
 8519SOL     OW37192   3.021   1.310   6.943  0.5243  0.4373 -0.8951
 8519SOL    HW137193   3.042   1.392   6.897  0.7639 -0.4059 -2.2819
 8519SOL    HW237194   3.111   1.281   6.959  0.4758  0.2471 -0.9716
 8520SOL     OW37195   4.158   3.451  13.179  0.1286  0.5638  0.4840
 8520SOL    HW137196   4.232   3.419  13.126  0.1583 -0.2122  0.9884
 8520SOL    HW237197   4.129   3.534  13.142 -0.1637  1.2591  2.2549
 8521SOL     OW37198   3.672   2.073   7.133 -0.3729 -0.0855  0.3710
 8521SOL    HW137199   3.631   2.137   7.076 -0.8215 -0.7157 -0.0199
 8521SOL    HW237200   3.668   2.116   7.218  0.4841  0.2934  0.2216
 8522SOL     OW37201   1.230   0.753  16.092  0.4037 -0.2432  0.4663
 8522SOL    HW137202   1.255   0.815  16.025 -0.7870  0.9219  1.0959
 8522SOL    HW237203   1.276   0.677  16.058 -0.3123  0.1436 -1.3902
 8523SOL     OW37204   2.611   4.367  12.721  0.5790  0.0177 -0.3137
 8523SOL    HW137205   2.562   4.285  12.713 -1.5990  1.0949  2.0351
 8523SOL    HW237206   2.687   4.339  12.670  0.6307  1.5893 -1.1039
 8524SOL     OW37207   0.178   4.711   4.712  0.0742 -0.5481  0.3162
 8524SOL    HW137208   0.204   4.621   4.730  2.1151  0.1974  1.0564
 8524SOL    HW237209   0.105   4.719   4.773 -1.0918 -0.1038 -1.1455
 8525SOL     OW37210   3.111   4.721   9.205  0.2168 -0.5015 -0.4630
 8525SOL    HW137211   3.097   4.703   9.298 -1.2577 -0.0851 -0.5936
 8525SOL    HW237212   3.052   4.661   9.159  1.6228 -2.3332  0.1353
 8526SOL     OW37213   3.726   0.796   4.999  0.1972  0.2999 -0.0260
 8526SOL    HW137214   3.672   0.733   5.048 -0.1520  1.3167  0.9040
 8526SOL    HW237215   3.751   0.753   4.917  1.5199 -0.0736  0.5769
 8527SOL     OW37216   0.999   0.079   3.230  0.2997  0.7637  0.0464
 8527SOL    HW137217   1.070   0.016   3.242 -0.9300 -0.6249  0.1383
 8527SOL    HW237218   0.926   0.018   3.215  1.4403 -0.4557 -0.4867
 8528SOL     OW37219   2.316   1.393   8.554 -0.2004 -0.2046 -0.7415
 8528SOL    HW137220   2.245   1.355   8.503  0.1580 -2.5971  0.5455
 8528SOL    HW237221   2.364   1.455   8.499  1.3234 -1.8088 -1.2043
 8529SOL     OW37222   0.998   4.387   2.973 -0.1130 -0.3428 -0.1246
 8529SOL    HW137223   1.071   4.444   2.997 -0.3426 -1.2023  2.5651
 8529SOL    HW237224   1.043   4.328   2.913 -0.7487 -0.5373 -0.4140
 8530SOL     OW37225   1.517   0.459   7.420  0.3687 -0.0275  0.3587
 8530SOL    HW137226   1.462   0.520   7.371 -1.7156 -1.3882  0.9900
 8530SOL    HW237227   1.537   0.386   7.361  0.8660  0.9800 -0.7041
 8531SOL     OW37228   2.523   2.660   9.364  0.1028 -0.4030 -0.2016
 8531SOL    HW137229   2.524   2.637   9.457  1.1121 -1.2388 -0.4089
 8531SOL    HW237230   2.591   2.601   9.331 -0.1883 -1.0531  0.3635
 8532SOL     OW37231   0.438   1.685   4.625  0.3662  0.6025  0.4629
 8532SOL    HW137232   0.344   1.676   4.640  0.2790 -0.0165 -0.4326
 8532SOL    HW237233   0.448   1.776   4.598 -0.6908  0.5672 -0.0509
 8533SOL     OW37234   1.592   4.208   2.917  0.7390 -0.3533 -0.3557
 8533SOL    HW137235   1.520   4.152   2.888 -1.1778  1.3083  1.2450
 8533SOL    HW237236   1.663   4.163   2.870  2.0886  1.4451 -0.0530
 8534SOL     OW37237   2.641   2.728  14.050 -0.0570  0.3748  0.8717
 8534SOL    HW137238   2.661   2.819  14.031  1.3769  0.1846  1.4899
 8534SOL    HW237239   2.691   2.692  13.977 -1.7690 -0.8846  0.3005
 8535SOL     OW37240   3.888   3.582   7.251 -0.1410  0.3885  0.1316
 8535SOL    HW137241   3.819   3.523   7.281  2.0691 -0.7821  2.7758
 8535SOL    HW237242   3.954   3.520   7.221  0.0328  0.5107  0.2636
 8536SOL     OW37243   0.779   4.619   1.815 -0.0554 -0.0250 -0.4583
 8536SOL    HW137244   0.791   4.695   1.872 -0.1281 -1.0487  0.9083
 8536SOL    HW237245   0.684   4.624   1.802  0.0274 -0.6626 -1.3369
 8537SOL     OW37246   3.829   2.170  14.976 -0.4121 -0.3349  0.4180
 8537SOL    HW137247   3.871   2.165  15.062  3.3382  1.3026 -1.3108
 8537SOL    HW237248   3.835   2.078  14.952 -0.8783 -0.0095 -0.9350
 8538SOL     OW37249   1.016   4.301   5.350  0.4056  0.3248 -0.5603
 8538SOL    HW137250   1.059   4.324   5.432 -2.4750 -0.7644  1.2383
 8538SOL    HW237251   0.926   4.333   5.350  0.1466 -0.3937  1.1658
 8539SOL     OW37252   4.574   3.404   4.898  0.2363 -0.0558 -0.0782
 8539SOL    HW137253   4.627   3.338   4.942  2.2674  0.1944 -2.1833
 8539SOL    HW237254   4.631   3.481   4.905 -2.6966  2.2498 -1.5208
 8540SOL     OW37255   1.392   1.581   3.452  0.2008 -0.0609 -0.3493
 8540SOL    HW137256   1.442   1.624   3.382  1.3102 -1.5499 -0.4772
 8540SOL    HW237257   1.456   1.521   3.490 -0.3045 -0.0170  0.5532
 8541SOL     OW37258   0.485   0.660   7.861 -0.4277  0.1103  0.2052
 8541SOL    HW137259   0.532   0.742   7.875 -5.3218  3.4262 -2.5787
 8541SOL    HW237260   0.494   0.622   7.948 -1.2541 -2.7300 -0.9442
 8542SOL     OW37261   1.463   0.233   6.224  0.1295 -0.3769  0.3449
 8542SOL    HW137262   1.551   0.217   6.259  0.1978  0.5705  0.5949
 8542SOL    HW237263   1.480   0.324   6.198  0.1619 -0.5953 -0.4253
 8543SOL     OW37264   4.427   0.135   9.488  0.1804 -0.1272  0.3344
 8543SOL    HW137265   4.496   0.165   9.429  1.7322  0.1608  2.3045
 8543SOL    HW237266   4.464   0.050   9.509 -0.4612 -0.1772  1.2609
 8544SOL     OW37267   3.025   4.502   5.834 -0.3808 -0.8044 -0.7133
 8544SOL    HW137268   3.069   4.574   5.879  1.4964 -1.9441 -0.7355
 8544SOL    HW237269   3.053   4.425   5.884  0.2604 -0.1757 -0.0906
 8545SOL     OW37270   2.749   1.280   2.294 -0.0600  0.5055  0.0089
 8545SOL    HW137271   2.806   1.277   2.370  0.4206  1.7353 -0.3070
 8545SOL    HW237272   2.787   1.357   2.253 -0.7379 -0.5260 -2.6200
 8546SOL     OW37273   0.929   4.483   8.227  0.0828 -0.3893 -0.0838
 8546SOL    HW137274   0.845   4.443   8.202 -0.9567  1.0277  1.1536
 8546SOL    HW237275   0.918   4.567   8.183 -0.7381 -0.8124 -0.6964
 8547SOL     OW37276   0.992   0.218   0.828  0.0020  0.2699 -0.3284
 8547SOL    HW137277   1.015   0.311   0.833  1.1177 -0.0401  0.2948
 8547SOL    HW237278   0.897   0.214   0.823  0.0329 -1.8431  0.7449
 8548SOL     OW37279   3.784   3.761  10.679 -0.1695  0.1135 -0.3834
 8548SOL    HW137280   3.788   3.856  10.670  0.6547  0.0983 -0.1781
 8548SOL    HW237281   3.869   3.738  10.642  0.1097  1.6420 -0.6838
 8549SOL     OW37282   1.186   0.377   5.578  0.6618 -0.3416  0.5281
 8549SOL    HW137283   1.145   0.396   5.663  0.9639 -0.6043  0.7318
 8549SOL    HW237284   1.109   0.368   5.522  0.2057 -0.0553  1.0996
 8550SOL     OW37285   1.648   3.643   0.098  0.0052  0.7669 -0.2496
 8550SOL    HW137286   1.706   3.667   0.025 -0.9755 -1.5191 -1.7621
 8550SOL    HW237287   1.695   3.570   0.137 -0.4962  1.0170  0.8229
 8551SOL     OW37288   1.850   3.252   6.404 -0.3841 -0.0400  0.6754
 8551SOL    HW137289   1.880   3.339   6.378 -0.7451  1.2312  4.4881
 8551SOL    HW237290   1.760   3.246   6.372 -0.5832 -1.3825  1.4628
 8552SOL     OW37291   3.525   0.046   8.558  0.6140 -0.2679 -0.3147
 8552SOL    HW137292   3.442   0.063   8.602  1.4938  0.8502  0.8851
 8552SOL    HW237293   3.484   4.706   8.518 -1.7481  0.8139 -0.0355
 8553SOL     OW37294   0.729   1.784   4.413  0.1740  1.2334 -0.4390
 8553SOL    HW137295   0.738   1.701   4.366 -1.4088 -0.6186  2.5420
 8553SOL    HW237296   0.682   1.837   4.348 -0.2508  0.0043 -1.1208
 8554SOL     OW37297   0.785   3.744   2.307  0.0021  0.7749  0.0619
 8554SOL    HW137298   0.741   3.707   2.231 -0.9311  1.5030  0.2472
 8554SOL    HW237299   0.806   3.667   2.360 -2.0935  1.4272  1.8640
 8555SOL     OW37300   4.593   1.236   0.165 -0.1278  0.5267  0.4022
 8555SOL    HW137301   4.613   1.171   0.232  0.9164  1.3858  0.9233
 8555SOL    HW237302   4.679   1.274   0.147  0.2471 -0.9269 -0.8678
 8556SOL     OW37303   2.980   2.515   7.490 -0.0069  0.0709  0.0972
 8556SOL    HW137304   2.893   2.554   7.494  0.0815  0.3147 -0.3312
 8556SOL    HW237305   2.978   2.431   7.537 -2.1915  0.1170  0.0688
 8557SOL     OW37306   3.324   1.142   5.676  0.0578 -0.4390 -0.0669
 8557SOL    HW137307   3.300   1.076   5.611 -0.9587  1.1654 -1.3275
 8557SOL    HW237308   3.242   1.153   5.723  0.5518  1.0570  0.4485
 8558SOL     OW37309   2.002   1.251   7.520 -0.0636  0.1717 -0.1836
 8558SOL    HW137310   2.036   1.246   7.430  0.4970 -0.2665  0.0551
 8558SOL    HW237311   2.070   1.207   7.571  0.7446  1.6170 -0.0069
 8559SOL     OW37312   3.628   0.267  16.840 -0.3239 -0.1061  0.3848
 8559SOL    HW137313   3.560   0.203  16.820 -1.2478  2.1186 -3.4516
 8559SOL    HW237314   3.574   0.342  16.864  1.8618  2.2756 -2.2059
 8560SOL     OW37315   0.191   0.037  10.451 -0.0803 -0.1430  0.5161
 8560SOL    HW137316   0.279   0.013  10.483  0.5642  2.0039  0.3821
 8560SOL    HW237317   0.173   4.693  10.405  0.2749  0.8252 -1.3159
 8561SOL     OW37318   0.242   3.819   5.963  0.2089 -0.2570 -0.4397
 8561SOL    HW137319   0.318   3.872   5.940  0.7966 -0.4510  1.0973
 8561SOL    HW237320   0.210   3.805   5.873  1.8366 -2.0995 -0.7255
 8562SOL     OW37321   1.138   3.703   8.691 -0.3857 -0.1857  0.1685
 8562SOL    HW137322   1.107   3.765   8.625  0.7296  1.4415  1.1802
 8562SOL    HW237323   1.101   3.620   8.660 -0.0993 -0.6562  1.0863
 8563SOL     OW37324   1.205   1.342   9.431  0.2599  0.2728  0.6262
 8563SOL    HW137325   1.142   1.411   9.447 -0.9538 -1.1069  1.8367
 8563SOL    HW237326   1.275   1.373   9.489  0.6711  0.4841  0.0211
 8564SOL     OW37327   2.600   2.645   8.553 -0.5772  0.1698 -0.4470
 8564SOL    HW137328   2.527   2.631   8.492 -1.9370  0.7597  1.0571
 8564SOL    HW237329   2.674   2.618   8.497  0.4690  1.5564  0.2735
 8565SOL     OW37330   3.996   3.203   7.641 -0.4105 -0.2605  0.4703
 8565SOL    HW137331   4.065   3.152   7.599  0.8523  1.2787  0.6876
 8565SOL    HW237332   3.932   3.133   7.653  1.0644 -1.4438  1.3589
 8566SOL     OW37333   4.599   2.119   2.473 -0.0170 -0.3238 -0.2922
 8566SOL    HW137334   4.682   2.082   2.503  0.3329 -0.8949 -1.9247
 8566SOL    HW237335   4.622   2.212   2.470 -0.8875 -0.1838 -2.7390
 8567SOL     OW37336   3.638   4.664   3.430 -0.3995 -0.3972 -0.5750
 8567SOL    HW137337   3.606   4.633   3.515  0.3854  3.8204  1.2245
 8567SOL    HW237338   3.699   4.592   3.412 -0.9087 -0.4223 -2.1564
 8568SOL     OW37339   2.709   1.038  13.955  0.0103 -0.3186 -0.1450
 8568SOL    HW137340   2.675   0.964  14.006 -0.9042  0.8238  0.9101
 8568SOL    HW237341   2.688   1.002  13.869 -1.7318  0.4827 -0.0679
 8569SOL     OW37342   3.513   4.646  12.604 -0.0365 -0.1345  0.2555
 8569SOL    HW137343   3.518   4.592  12.683  0.1507  1.2006  1.1634
 8569SOL    HW237344   3.566   4.719  12.637  2.4326 -1.5540 -0.5487
 8570SOL     OW37345   1.634   2.186   7.413 -0.1047  0.1684 -0.2324
 8570SOL    HW137346   1.597   2.268   7.380  0.5566  0.4744 -0.2109
 8570SOL    HW237347   1.626   2.189   7.508 -1.3733  0.1857 -0.3334
 8571SOL     OW37348   1.418   4.494   6.722 -0.4128  0.1475  0.4374
 8571SOL    HW137349   1.490   4.454   6.770  0.2620 -0.3743 -0.9948
 8571SOL    HW237350   1.372   4.547   6.788  1.5669  0.7700  1.3262
 8572SOL     OW37351   4.610   2.344  10.402  0.1486  0.1424 -0.4144
 8572SOL    HW137352   4.553   2.403  10.353 -0.2320 -0.5195 -0.7666
 8572SOL    HW237353   4.695   2.361  10.361 -0.1957  0.5505 -0.9408
 8573SOL     OW37354   1.545   2.577   5.043 -0.2364 -0.0286 -0.7273
 8573SOL    HW137355   1.459   2.604   5.010 -0.2232  1.2000  0.2197
 8573SOL    HW237356   1.602   2.623   4.981 -0.0870  0.7553 -0.0087
 8574SOL     OW37357   4.545   3.239  17.695 -0.1016  0.5686  0.3691
 8574SOL    HW137358   4.594   3.321  17.706 -1.8053  1.6813 -0.3613
 8574SOL    HW237359   4.457   3.274  17.682 -1.1371 -2.8036 -1.7200
 8575SOL     OW37360   4.586   3.689   6.886  0.4971 -0.0826  0.4233
 8575SOL    HW137361   4.507   3.677   6.833  0.6095 -0.4697  0.3418
 8575SOL    HW237362   4.649   3.643   6.830  1.4562  0.4793  1.0420
 8576SOL     OW37363   3.310   1.887   5.928 -0.1600  0.2401  0.0885
 8576SOL    HW137364   3.352   1.971   5.912 -0.6063  0.7689  1.6750
 8576SOL    HW237365   3.382   1.863   5.987  1.4911  3.7729 -0.5348
 8577SOL     OW37366   0.449   4.736  10.578 -0.0002 -0.7916 -0.5161
 8577SOL    HW137367   0.529   0.028  10.534 -0.3969  1.8391  0.5749
 8577SOL    HW237368   0.476   0.005  10.670  1.0662 -0.3034 -0.8596
 8578SOL     OW37369   1.079   3.701   1.993 -0.2101  0.5158 -0.0394
 8578SOL    HW137370   0.987   3.710   1.971 -0.7218 -2.1426  0.9596
 8578SOL    HW237371   1.094   3.772   2.055 -1.9232  1.3504 -0.5905
 8579SOL     OW37372   1.714   0.384   4.975  0.2281 -0.2650  0.1105
 8579SOL    HW137373   1.702   0.323   4.902  2.2245 -0.7994  0.2418
 8579SOL    HW237374   1.793   0.353   5.021 -0.5559 -2.2920  0.1209
 8580SOL     OW37375   0.402   2.987  14.774 -0.6992  0.4676 -0.1701
 8580SOL    HW137376   0.335   3.052  14.794  0.2360  0.8772  1.5585
 8580SOL    HW237377   0.364   2.949  14.694  1.5648  2.2728 -2.1001
 8581SOL     OW37378   1.875   3.209   1.600 -0.3964 -0.0497  0.3634
 8581SOL    HW137379   1.918   3.166   1.674 -1.9644  0.4797  1.5838
 8581SOL    HW237380   1.946   3.251   1.553 -1.4680 -0.5117 -1.6682
 8582SOL     OW37381   0.424   1.272  15.431 -0.2302 -0.5755  0.1290
 8582SOL    HW137382   0.358   1.234  15.374  0.2264  1.7177 -1.8942
 8582SOL    HW237383   0.395   1.363  15.434 -0.3148 -0.5774 -0.6660
 8583SOL     OW37384   2.408   2.771   3.585 -0.4059  0.3953 -0.1431
 8583SOL    HW137385   2.349   2.829   3.633 -0.8823  1.1509 -1.6137
 8583SOL    HW237386   2.465   2.841   3.553  0.3942  0.6941  1.9464
 8584SOL     OW37387   4.417   0.586   3.447  0.1025  0.2970  0.1168
 8584SOL    HW137388   4.482   0.525   3.482  0.2276 -0.1096 -0.8389
 8584SOL    HW237389   4.351   0.523   3.417  0.3748 -0.8687  1.9219
 8585SOL     OW37390   2.466   3.920   9.605 -0.4123  0.2345 -0.1771
 8585SOL    HW137391   2.483   3.929   9.699 -2.6001  4.9939 -0.2267
 8585SOL    HW237392   2.380   3.879   9.602 -0.0599 -0.4746 -0.4270
 8586SOL     OW37393   2.894   4.238  11.933 -0.3660  0.0330  0.7478
 8586SOL    HW137394   2.803   4.268  11.922 -0.2789  0.1905  0.4431
 8586SOL    HW237395   2.911   4.291  12.010  1.7854  0.1209  0.2127
 8587SOL     OW37396   2.122   2.655  17.551  0.3056  0.1415  0.4140
 8587SOL    HW137397   2.113   2.561  17.565  0.2167 -0.1215 -1.5013
 8587SOL    HW237398   2.210   2.656  17.514  0.3290  0.9183  0.4800
 8588SOL     OW37399   3.844   1.313   6.207  0.1868 -0.0218  0.3933
 8588SOL    HW137400   3.893   1.243   6.163  0.2328 -0.3210  0.9175
 8588SOL    HW237401   3.796   1.264   6.274  0.5084 -2.4974 -1.1767
 8589SOL     OW37402   1.397   2.441   0.764  0.0017 -0.0058  0.0034
 8589SOL    HW137403   1.332   2.453   0.695  0.9970  1.5809 -0.6534
 8589SOL    HW237404   1.458   2.512   0.745 -1.3411  0.9351 -0.7780
 8590SOL     OW37405   2.642   1.904  17.293  0.5359  0.0489  0.4134
 8590SOL    HW137406   2.671   1.856  17.215  1.2959  0.3251  0.5247
 8590SOL    HW237407   2.571   1.847  17.321 -0.1325  0.8657  0.4087
 8591SOL     OW37408   1.786   4.517   3.032 -0.2650 -0.3568  0.2896
 8591SOL    HW137409   1.872   4.554   3.051 -0.0138 -1.8291  2.0065
 8591SOL    HW237410   1.792   4.491   2.940 -1.2220 -0.1928  0.1778
 8592SOL     OW37411   2.016   3.096   1.801 -0.0801 -0.3700  0.2280
 8592SOL    HW137412   2.021   3.017   1.855  0.4786 -1.1837 -1.0097
 8592SOL    HW237413   2.032   3.159   1.872  0.8029  1.5095 -1.6222
 8593SOL     OW37414   0.421   0.808   4.829  0.2801 -0.3652 -0.7661
 8593SOL    HW137415   0.377   0.725   4.848  0.5242 -0.6524 -1.4539
 8593SOL    HW237416   0.510   0.785   4.854 -0.6290 -1.5672  1.3795
 8594SOL     OW37417   1.878   2.897   5.331 -0.3732 -0.5561  0.1042
 8594SOL    HW137418   1.877   2.822   5.392  0.7184 -1.3729 -0.8879
 8594SOL    HW237419   1.794   2.885   5.286  0.7310  1.4267 -2.3905
 8595SOL     OW37420   2.500   2.194   6.479  0.1210 -0.1561  0.4568
 8595SOL    HW137421   2.582   2.162   6.443 -0.1837 -0.6181  0.1781
 8595SOL    HW237422   2.443   2.127   6.442 -0.4957  0.2587  0.6484
 8596SOL     OW37423   4.593   2.820   6.806  0.1681  0.1396 -0.0066
 8596SOL    HW137424   4.621   2.880   6.737 -0.6148 -2.7092 -2.8126
 8596SOL    HW237425   4.498   2.817   6.794  0.0468 -1.1010  1.3386
 8597SOL     OW37426   1.490   3.188   1.810 -0.0250  0.3538 -0.9260
 8597SOL    HW137427   1.493   3.219   1.901 -0.2975 -1.4526 -0.3126
 8597SOL    HW237428   1.555   3.249   1.776  0.9998 -0.6532 -0.7719
 8598SOL     OW37429   0.908   3.062   3.028  0.3765 -0.8662 -0.4412
 8598SOL    HW137430   0.818   3.032   3.042 -0.5488  1.7798 -0.6928
 8598SOL    HW237431   0.925   3.027   2.940 -0.8013  1.8042 -1.7170
 8599SOL     OW37432   0.813   2.352  17.206 -0.2994 -0.1897 -0.5001
 8599SOL    HW137433   0.733   2.334  17.256 -1.1924  0.9009 -1.5344
 8599SOL    HW237434   0.851   2.266  17.192  1.5606  0.6109 -0.4037
 8600SOL     OW37435   1.286   4.337   3.909 -0.5120 -0.2724 -0.4457
 8600SOL    HW137436   1.333   4.279   3.849 -1.2123 -0.6988 -0.5821
 8600SOL    HW237437   1.334   4.417   3.886 -2.5339  1.2883  0.7658
 8601SOL     OW37438   4.326   3.530   9.549  0.0352 -0.1728  0.1504
 8601SOL    HW137439   4.242   3.574   9.563 -0.7100 -1.1069 -1.3907
 8601SOL    HW237440   4.358   3.531   9.639 -0.3513 -0.6279  0.2906
 8602SOL     OW37441   3.386   0.729   4.272  0.1512  0.1141  0.6615
 8602SOL    HW137442   3.401   0.689   4.187  1.3613 -0.6401  1.2299
 8602SOL    HW237443   3.410   0.655   4.328 -3.6429  0.6959  3.0142
 8603SOL     OW37444   2.982   0.605   1.926 -0.0190  0.0052  0.3736
 8603SOL    HW137445   3.019   0.517   1.937 -2.3897 -1.0623 -0.0463
 8603SOL    HW237446   3.034   0.639   1.853  4.2969 -0.7992  3.1335
 8604SOL     OW37447   0.731   0.925  15.513 -0.3110  0.3654 -0.0208
 8604SOL    HW137448   0.651   0.915  15.565  0.7387  4.3453  2.3751
 8604SOL    HW237449   0.771   1.004  15.548  0.3069  1.3440 -2.9063
 8605SOL     OW37450   2.812   3.345  13.873 -0.4120  0.3167 -0.3710
 8605SOL    HW137451   2.780   3.306  13.955 -0.9260  0.0692 -0.6881
 8605SOL    HW237452   2.905   3.360  13.886 -0.7201  1.2877  0.7658
 8606SOL     OW37453   1.018   2.486   5.701  0.4344 -0.7013  0.6767
 8606SOL    HW137454   1.071   2.497   5.779 -0.8252  0.0987  1.4200
 8606SOL    HW237455   1.057   2.552   5.643 -3.2387 -0.1317 -1.1373
 8607SOL     OW37456   0.644   0.215   3.158  0.4020 -0.3982  0.5158
 8607SOL    HW137457   0.646   0.222   3.253  2.6251  0.0850  0.4462
 8607SOL    HW237458   0.573   0.154   3.137 -0.5109  0.7801  0.1658
 8608SOL     OW37459   4.616   2.090   1.668 -0.0518  0.1524  0.0994
 8608SOL    HW137460   4.711   2.081   1.657 -0.1995 -1.3879  0.0127
 8608SOL    HW237461   4.622   2.140   1.748 -0.1881  0.9459 -0.3880
 8609SOL     OW37462   2.478   2.515  13.303 -0.1555 -0.0378 -0.1212
 8609SOL    HW137463   2.498   2.608  13.288  4.1666 -0.8721  0.4954
 8609SOL    HW237464   2.555   2.500  13.357 -1.1510  2.1587  1.9407
 8610SOL     OW37465   1.001   2.146   1.950  0.3266 -0.2207  0.0030
 8610SOL    HW137466   0.962   2.058   1.945 -0.3874  0.0425  1.0842
 8610SOL    HW237467   0.981   2.180   2.037  0.0977  1.7248 -0.8140
 8611SOL     OW37468   2.055   0.464   2.902 -0.4511 -0.3052 -0.3092
 8611SOL    HW137469   1.984   0.433   2.958  0.6564 -1.6677  0.3356
 8611SOL    HW237470   2.039   0.558   2.896 -1.3337 -0.4092  0.5259
 8612SOL     OW37471   1.833   4.516   9.577 -0.1644 -0.4708  0.1483
 8612SOL    HW137472   1.794   4.586   9.629  0.0508 -0.0864 -0.2041
 8612SOL    HW237473   1.860   4.555   9.493 -1.6229  1.9984  0.8060
 8613SOL     OW37474   1.657   2.003   3.582  0.0428 -0.1272 -0.0692
 8613SOL    HW137475   1.751   2.013   3.596 -0.2635  0.4593  1.5065
 8613SOL    HW237476   1.642   1.911   3.606  1.1272 -0.0578  0.8712
 8614SOL     OW37477   2.736   0.470  15.719 -0.1877  0.4053  0.1704
 8614SOL    HW137478   2.673   0.412  15.676 -0.4725  1.0217 -0.2398
 8614SOL    HW237479   2.690   0.526  15.780 -1.2333 -0.6135  0.3154
 8615SOL     OW37480   2.702   2.965  12.433  0.2347 -0.7271 -0.4646
 8615SOL    HW137481   2.773   2.944  12.493 -1.5837  0.5407  2.1769
 8615SOL    HW237482   2.647   3.018  12.491  1.4246  1.3751 -1.2412
 8616SOL     OW37483   0.558   1.141  15.635  0.6005  0.8148 -0.1947
 8616SOL    HW137484   0.516   1.185  15.561  0.4238  1.6585  0.4058
 8616SOL    HW237485   0.507   1.060  15.644 -1.4540  2.0275 -0.9049
 8617SOL     OW37486   3.737   3.276  10.536  0.3397  0.2255 -0.0676
 8617SOL    HW137487   3.747   3.231  10.620 -2.2069 -0.6717 -0.2601
 8617SOL    HW237488   3.642   3.278  10.531  0.3714 -0.2656 -0.8507
 8618SOL     OW37489   1.878   0.730  17.131 -0.3310  0.0589  0.1058
 8618SOL    HW137490   1.820   0.806  17.145 -1.4289 -1.0276  1.3555
 8618SOL    HW237491   1.944   0.777  17.079 -0.9677 -1.1968 -1.8459
 8619SOL     OW37492   0.313   0.609   1.257  0.3333 -0.1180 -0.3141
 8619SOL    HW137493   0.276   0.656   1.182  2.6384 -1.3397 -2.2006
 8619SOL    HW237494   0.402   0.601   1.224 -0.0676  0.0934 -1.4500
 8620SOL     OW37495   0.336   3.324   7.825 -0.6817  0.2631  0.5460
 8620SOL    HW137496   0.358   3.274   7.904 -0.2790  0.8563  0.8065
 8620SOL    HW237497   0.395   3.399   7.821  0.2648 -0.5283 -0.1994
 8621SOL     OW37498   2.273   0.681   1.845  0.6790 -0.4952  0.0223
 8621SOL    HW137499   2.264   0.766   1.887  2.3747 -0.6125  0.6294
 8621SOL    HW237500   2.344   0.641   1.896  0.5868 -0.0970  0.4557
 8622SOL     OW37501   3.920   1.158  14.351 -0.0149  0.5348 -0.2294
 8622SOL    HW137502   3.995   1.210  14.381 -1.1945  1.4794  1.0917
 8622SOL    HW237503   3.842   1.214  14.349 -0.8957 -0.7683 -2.1331
 8623SOL     OW37504   3.220   0.590   7.593  0.2982 -0.0424  0.4102
 8623SOL    HW137505   3.210   0.649   7.518 -0.2799 -0.0948  0.4448
 8623SOL    HW237506   3.315   0.598   7.600  0.0893  3.1168 -0.2148
 8624SOL     OW37507   4.159   2.750   6.536 -0.3601  0.1936  0.4238
 8624SOL    HW137508   4.085   2.802   6.565 -0.6494 -0.1081  0.2280
 8624SOL    HW237509   4.129   2.717   6.451 -0.0048 -1.3676  0.9079
 8625SOL     OW37510   2.135   0.993   0.956 -0.2569 -0.1635  0.1050
 8625SOL    HW137511   2.195   1.053   1.000  1.2664 -2.8413  1.6566
 8625SOL    HW237512   2.076   1.059   0.921  1.4422  0.3788 -1.7017
 8626SOL     OW37513   0.090   1.751  14.992  0.2612  0.7161 -0.1075
 8626SOL    HW137514   0.109   1.824  15.050  0.1306  0.3800  0.3511
 8626SOL    HW237515   0.060   1.695  15.063 -1.2059 -0.4423 -1.6501
 8627SOL     OW37516   4.038   4.515  13.063  0.2812 -0.1263 -0.3091
 8627SOL    HW137517   3.984   4.591  13.041 -1.3747 -1.5814 -1.2279
 8627SOL    HW237518   4.012   4.448  13.000  1.6185 -0.4417 -0.5425
 8628SOL     OW37519   2.096   4.044   5.016  0.7304 -0.1667  0.4699
 8628SOL    HW137520   2.162   4.026   5.083 -0.5071 -0.5531  1.5817
 8628SOL    HW237521   2.056   3.958   5.007 -0.7540  0.4419  1.1922
 8629SOL     OW37522   3.656   0.637   4.200  0.5613  0.5027 -0.6222
 8629SOL    HW137523   3.585   0.625   4.138 -0.7904  0.4764  0.9363
 8629SOL    HW237524   3.650   0.559   4.255  0.9993 -0.0077 -1.2931
 8630SOL     OW37525   3.749   3.577   9.793  0.5095 -0.1928 -0.6588
 8630SOL    HW137526   3.800   3.654   9.767  0.0348  0.1701 -0.4948
 8630SOL    HW237527   3.679   3.621   9.841  0.1967 -1.3119 -0.0863
 8631SOL     OW37528   0.712   0.417  10.778  0.4063 -0.2758  0.3440
 8631SOL    HW137529   0.637   0.443  10.725  1.0420 -1.6214 -1.2045
 8631SOL    HW237530   0.704   0.470  10.858 -0.2225 -2.4237  1.7050
 8632SOL     OW37531   2.041   4.529   1.238 -0.0113 -0.9854 -0.1850
 8632SOL    HW137532   2.082   4.505   1.321 -0.4876  0.5152  0.4724
 8632SOL    HW237533   2.012   4.618   1.255  3.3811 -0.4030  2.6608
 8633SOL     OW37534   3.112   3.146   9.838 -0.7111 -0.5328  0.1132
 8633SOL    HW137535   3.177   3.216   9.838 -0.8522 -0.4182 -1.2357
 8633SOL    HW237536   3.056   3.185   9.771  1.1364  2.1393  0.1100
 8634SOL     OW37537   2.822   1.534   6.627  0.2438 -0.5784  0.5035
 8634SOL    HW137538   2.839   1.628   6.619 -1.3584 -0.5369 -2.5252
 8634SOL    HW237539   2.842   1.500   6.540  1.3414 -2.0018  1.3111
 8635SOL     OW37540   0.093   1.332   4.211  0.4924 -1.1784  0.6893
 8635SOL    HW137541   0.146   1.301   4.138  0.8984  0.4237  0.3086
 8635SOL    HW237542   0.088   1.250   4.261 -0.8067 -2.6152 -1.8333
 8636SOL     OW37543   0.603   0.839   6.127  0.0288  0.1453  0.1120
 8636SOL    HW137544   0.612   0.744   6.117  0.4641  0.1370  0.5600
 8636SOL    HW237545   0.692   0.874   6.117  0.4969 -0.7220  1.2002
 8637SOL     OW37546   0.926   2.404  17.607  0.0907  0.9600 -0.6946
 8637SOL    HW137547   0.892   2.476  17.660  2.0289 -0.2775  2.1923
 8637SOL    HW237548   0.940   2.453  17.526 -0.1860  1.0938 -0.6613
 8638SOL     OW37549   2.048   2.143   3.331  0.6554 -0.0853 -0.0975
 8638SOL    HW137550   2.015   2.204   3.265  1.5576 -1.0156 -1.4102
 8638SOL    HW237551   2.137   2.131   3.297  0.9099  1.2200  0.0880
 8639SOL     OW37552   3.182   3.982   5.163  0.0496 -0.2066 -0.2079
 8639SOL    HW137553   3.193   3.894   5.128  3.2001 -0.9367  2.5989
 8639SOL    HW237554   3.211   4.038   5.091  0.6337 -0.2559 -0.0059
 8640SOL     OW37555   0.568   0.155   9.423 -0.3314  0.1710  0.4620
 8640SOL    HW137556   0.646   0.108   9.453 -0.3506 -0.6930 -0.8488
 8640SOL    HW237557   0.573   0.233   9.477  0.3099 -0.5137  1.3994
 8641SOL     OW37558   4.312   1.002   1.051  0.7643  0.6658  0.3653
 8641SOL    HW137559   4.231   1.000   1.102  1.5371  0.7893  1.6142
 8641SOL    HW237560   4.302   1.089   1.013 -1.2118 -0.5271 -1.8405
 8642SOL     OW37561   0.640   2.832   6.775 -0.1563  0.2311 -0.3291
 8642SOL    HW137562   0.652   2.927   6.773 -0.8881  0.3180 -0.4175
 8642SOL    HW237563   0.676   2.803   6.691 -0.1132  1.4017 -0.7225
 8643SOL     OW37564   2.433   0.857   3.461 -0.6181  0.3826  0.0245
 8643SOL    HW137565   2.458   0.791   3.397  1.1525  2.1147 -1.0443
 8643SOL    HW237566   2.339   0.840   3.471 -1.0363  3.1867  0.9463
 8644SOL     OW37567   1.757   0.310   6.172  0.2270  0.5092 -0.3211
 8644SOL    HW137568   1.725   0.393   6.137  1.0209 -0.1306 -2.6007
 8644SOL    HW237569   1.824   0.281   6.109 -0.1416  1.2155 -1.0456
 8645SOL     OW37570   2.843   1.237   3.425  0.4353 -0.3630  0.0519
 8645SOL    HW137571   2.784   1.165   3.447 -0.8183  1.0100  1.2289
 8645SOL    HW237572   2.928   1.197   3.444  0.5868  0.5475  1.3028
 8646SOL     OW37573   0.961   2.898   0.851  0.2792 -0.3430 -0.4728
 8646SOL    HW137574   1.031   2.872   0.910  0.4791  2.3293  0.4557
 8646SOL    HW237575   1.002   2.895   0.764 -1.6696 -0.7369 -1.3823
 8647SOL     OW37576   2.269   3.359  17.692  0.1172 -0.3938 -1.0661
 8647SOL    HW137577   2.177   3.332  17.700 -0.0649  0.9827  1.6029
 8647SOL    HW237578   2.302   3.303  17.622 -0.6795 -2.4537  0.1901
 8648SOL     OW37579   1.645   4.199   4.423 -0.3852  0.0970  0.5305
 8648SOL    HW137580   1.688   4.125   4.381 -0.3842 -0.4512  1.5092
 8648SOL    HW237581   1.700   4.193   4.502  0.5976  0.2917 -0.1373
 8649SOL     OW37582   3.665   0.851  11.767  0.4884  0.1310  0.2775
 8649SOL    HW137583   3.605   0.786  11.730  0.2235  0.2050  0.5751
 8649SOL    HW237584   3.704   0.813  11.845  1.2555  0.2361 -0.0598
 8650SOL     OW37585   4.111   2.613   5.587 -0.3685 -0.1570  0.5691
 8650SOL    HW137586   4.186   2.625   5.645  0.1807 -2.4094  0.3034
 8650SOL    HW237587   4.053   2.561   5.642 -1.5510  0.7889  0.2001
 8651SOL     OW37588   1.657   0.572   5.604  0.1593 -0.7627  0.3158
 8651SOL    HW137589   1.729   0.513   5.629  0.0853 -1.4129 -1.0354
 8651SOL    HW237590   1.598   0.552   5.677 -0.4006 -2.5009 -0.6380
 8652SOL     OW37591   1.897   2.652   7.880  0.0021  0.2426 -0.1773
 8652SOL    HW137592   1.824   2.692   7.834 -0.3233 -1.2630 -0.9522
 8652SOL    HW237593   1.967   2.668   7.817 -0.6968  0.4387 -0.8990
 8653SOL     OW37594   4.217   3.097   5.191 -0.3219 -0.2738  0.2761
 8653SOL    HW137595   4.249   3.139   5.270  1.4997  1.3097 -1.2959
 8653SOL    HW237596   4.122   3.093   5.201 -0.4120 -1.1386 -0.8484
 8654SOL     OW37597   4.268   2.217   8.881  0.0153  0.2834  0.4773
 8654SOL    HW137598   4.315   2.174   8.952  0.3619 -2.0510 -1.1610
 8654SOL    HW237599   4.324   2.294   8.872 -0.2275  0.4098  0.0436
 8655SOL     OW37600   4.670   3.490   9.673 -0.0263 -0.0563 -0.0524
 8655SOL    HW137601   4.717   3.413   9.706  0.9400  1.0397  1.1036
 8655SOL    HW237602   4.588   3.489   9.723  0.8743  1.9750  1.4662
 8656SOL     OW37603   1.092   3.463   9.857 -0.0065 -0.3040 -0.3037
 8656SOL    HW137604   1.003   3.427   9.854 -0.3981  0.7445 -1.5117
 8656SOL    HW237605   1.121   3.431   9.942 -2.2594 -0.1153  0.5449
 8657SOL     OW37606   2.071   4.248  14.709 -0.3099  0.2602  0.4287
 8657SOL    HW137607   2.078   4.325  14.653 -0.2196  0.0189  0.1116
 8657SOL    HW237608   1.981   4.249  14.741 -0.4054 -0.6911  0.1803
 8658SOL     OW37609   4.308   1.282   8.495  0.4538 -0.5256 -0.0245
 8658SOL    HW137610   4.311   1.222   8.421  0.2582 -0.8993  0.2701
 8658SOL    HW237611   4.232   1.333   8.467 -0.3032 -2.5392 -1.6576
 8659SOL     OW37612   0.218   2.433  11.474  0.0830 -0.6120  0.4741
 8659SOL    HW137613   0.137   2.466  11.435  0.5064 -0.0839  0.0352
 8659SOL    HW237614   0.262   2.393  11.399 -1.1453 -1.2800  0.1054
 8660SOL     OW37615   2.641   4.634  11.932  0.6048 -0.1869 -0.4197
 8660SOL    HW137616   2.589   4.671  11.860  1.6197  1.5589 -0.2595
 8660SOL    HW237617   2.629   4.713  11.986 -0.2773 -0.5449 -0.0938
 8661SOL     OW37618   0.642   0.906   0.427  0.6745  0.0454 -0.3266
 8661SOL    HW137619   0.615   0.843   0.493  1.4362 -1.9861 -1.9365
 8661SOL    HW237620   0.614   0.849   0.355 -2.2840  1.5613 -0.3721
 8662SOL     OW37621   1.077   1.582  11.059 -0.0228 -0.1137 -0.2331
 8662SOL    HW137622   1.079   1.596  10.964  1.0890  0.9988 -0.0536
 8662SOL    HW237623   1.091   1.488  11.068  0.5204 -0.1532 -1.5344
 8663SOL     OW37624   2.623   1.483   9.564  0.6316  0.6453 -0.2530
 8663SOL    HW137625   2.562   1.502   9.493  1.4826 -1.0738 -1.4443
 8663SOL    HW237626   2.687   1.426   9.521  1.3222  1.6310 -0.5214
 8664SOL     OW37627   4.343   2.252   3.917  0.3701  0.5930 -0.0481
 8664SOL    HW137628   4.261   2.296   3.937  0.5938  1.9185 -2.0079
 8664SOL    HW237629   4.319   2.208   3.835 -3.1461  0.8050  0.8906
 8665SOL     OW37630   1.786   1.701   4.743 -0.2073 -0.4470  0.8293
 8665SOL    HW137631   1.776   1.606   4.735 -2.0579 -0.3278  1.6388
 8665SOL    HW237632   1.823   1.701   4.831  3.0087  2.0981 -0.5654
 8666SOL     OW37633   3.029   2.009   3.956 -0.1225  0.0735 -0.3401
 8666SOL    HW137634   2.981   2.092   3.943  1.4834  0.7699 -1.8900
 8666SOL    HW237635   2.979   1.951   3.899  0.7163 -1.1827  0.2175
 8667SOL     OW37636   2.709   2.330  15.622 -0.6343  0.6326  0.3077
 8667SOL    HW137637   2.674   2.260  15.566 -0.7985  2.4871 -1.9031
 8667SOL    HW237638   2.638   2.337  15.687 -1.1101 -0.2899 -0.1143
 8668SOL     OW37639   0.799   3.832   2.631 -0.1288 -0.7886  0.0327
 8668SOL    HW137640   0.797   3.835   2.535  1.0373 -1.3605 -0.0051
 8668SOL    HW237641   0.711   3.866   2.651 -0.3802 -0.2476 -1.9426
 8669SOL     OW37642   1.496   1.717  15.757  0.2037 -0.5980  0.0337
 8669SOL    HW137643   1.471   1.778  15.688  1.5954  1.7424  1.5829
 8669SOL    HW237644   1.580   1.690  15.720  0.3476 -2.5248  1.8099
 8670SOL     OW37645   1.868   2.951  14.512  0.1103  0.1243 -0.4998
 8670SOL    HW137646   1.901   3.037  14.536  2.0919 -0.4566 -1.1523
 8670SOL    HW237647   1.825   2.920  14.592  0.5187  1.4243  0.2095
 8671SOL     OW37648   0.689   3.942   1.571 -0.0138  0.0563  0.3169
 8671SOL    HW137649   0.648   3.862   1.602 -2.1104  0.5968 -1.0960
 8671SOL    HW237650   0.728   3.979   1.651  0.8840 -2.0298  0.8265
 8672SOL     OW37651   0.477   4.556   3.317  0.1073  0.1879 -0.3099
 8672SOL    HW137652   0.470   4.632   3.375  0.3575 -0.4075  0.5057
 8672SOL    HW237653   0.513   4.591   3.236 -1.6588  0.2992 -1.0283
 8673SOL     OW37654   0.059   0.113   2.486 -0.0757 -0.2991  0.7732
 8673SOL    HW137655   0.092   0.179   2.546  0.1748  0.3673 -0.0881
 8673SOL    HW237656   4.710   0.091   2.520 -0.5861 -0.1099 -0.4061
 8674SOL     OW37657   2.674   2.510   4.574  0.1123  0.2217  0.1407
 8674SOL    HW137658   2.660   2.604   4.564 -0.2340  0.0416 -1.0598
 8674SOL    HW237659   2.659   2.513   4.668 -1.8610  1.1314 -0.2050
 8675SOL     OW37660   3.140   3.193  17.282  0.0539  0.2146  0.3768
 8675SOL    HW137661   3.206   3.260  17.301 -1.3188  1.0829  2.0070
 8675SOL    HW237662   3.062   3.244  17.260 -0.3335  0.6804  2.9182
 8676SOL     OW37663   3.592   4.153   3.479 -0.5316 -0.1720  0.3525
 8676SOL    HW137664   3.544   4.173   3.559  0.8940 -2.3300  1.7344
 8676SOL    HW237665   3.530   4.170   3.408 -0.5138 -0.3129  0.3040
 8677SOL     OW37666   0.160   4.012  14.328  0.2153 -0.0580 -0.1880
 8677SOL    HW137667   0.195   4.084  14.380  0.3387  0.1630 -0.5797
 8677SOL    HW237668   0.216   3.943  14.365 -2.6100 -1.5111  1.3970
 8678SOL     OW37669   1.822   0.330   3.553  0.3900 -0.3690  0.1116
 8678SOL    HW137670   1.812   0.238   3.576  0.0087 -0.3167  0.1589
 8678SOL    HW237671   1.736   0.360   3.523  0.4078  1.5507  1.9404
 8679SOL     OW37672   3.854   1.692   5.742  0.4388  0.3950 -0.1379
 8679SOL    HW137673   3.835   1.693   5.648  0.9005  0.5288 -0.2294
 8679SOL    HW237674   3.843   1.785   5.760  0.2806  0.6092 -1.3531
 8680SOL     OW37675   4.516   1.696  17.380 -0.5323  0.1918  0.0736
 8680SOL    HW137676   4.528   1.659  17.468  0.7603 -1.8253 -0.9543
 8680SOL    HW237677   4.557   1.782  17.385  0.3103 -0.1643 -0.7533
 8681SOL     OW37678   0.044   1.656  10.236  0.2368 -0.2671  0.3899
 8681SOL    HW137679   0.138   1.648  10.218  0.4417  3.5768 -0.2828
 8681SOL    HW237680   0.025   1.578  10.288  0.3392 -0.0403  0.7686
 8682SOL     OW37681   2.602   3.500  17.585  0.3648  0.2528 -0.4701
 8682SOL    HW137682   2.542   3.428  17.603  1.0377 -0.0093  0.7959
 8682SOL    HW237683   2.684   3.455  17.567  1.6736  1.9498  1.1763
 8683SOL     OW37684   1.750   3.050   3.900 -0.1307  0.1336  0.3128
 8683SOL    HW137685   1.733   3.125   3.842  1.3383 -0.9941 -1.5941
 8683SOL    HW237686   1.803   2.994   3.843  0.0360 -0.5079  1.0980
 8684SOL     OW37687   1.535   3.304  13.261  0.0788  0.2483 -0.7876
 8684SOL    HW137688   1.605   3.315  13.196 -0.4366 -0.6408 -1.4906
 8684SOL    HW237689   1.528   3.388  13.307  1.0660 -0.7071  1.0397
 8685SOL     OW37690   3.671   2.556   7.076  1.1219 -0.1214 -0.0465
 8685SOL    HW137691   3.636   2.645   7.083 -1.9674 -1.2796 -0.6192
 8685SOL    HW237692   3.693   2.535   7.167 -0.4240  3.5312  1.1495
 8686SOL     OW37693   2.244   3.248   2.852 -0.3787  0.1614 -0.2354
 8686SOL    HW137694   2.219   3.254   2.944 -0.8226  0.9466 -0.4086
 8686SOL    HW237695   2.248   3.338   2.818  0.9492  1.2378  2.7980
 8687SOL     OW37696   0.259   3.872   1.420  0.0793  0.4774  0.2771
 8687SOL    HW137697   0.261   3.801   1.483 -2.4384 -1.5506 -1.9487
 8687SOL    HW237698   0.293   3.817   1.349 -0.6789  2.1892 -1.4115
 8688SOL     OW37699   4.357   2.440   7.345 -0.3997  0.3597  0.2748
 8688SOL    HW137700   4.452   2.442   7.337 -0.1302 -0.3545  3.1187
 8688SOL    HW237701   4.345   2.364   7.401  0.9557 -0.5167 -0.6520
 8689SOL     OW37702   0.771   1.588   7.713  0.2247  0.0297 -0.7354
 8689SOL    HW137703   0.687   1.587   7.760 -0.5359 -0.6253 -2.0963
 8689SOL    HW237704   0.785   1.495   7.730 -2.0110  0.0171  0.9642
 8690SOL     OW37705   3.538   0.891  16.175  0.2858  0.2453 -0.0209
 8690SOL    HW137706   3.528   0.863  16.084  1.4021  0.6093 -0.2630
 8690SOL    HW237707   3.629   0.920  16.175  0.6858 -1.0058  3.6166
 8691SOL     OW37708   3.441   3.711  13.139  0.2421 -0.5030  0.0743
 8691SOL    HW137709   3.488   3.747  13.214  0.9445 -1.8398  0.2766
 8691SOL    HW237710   3.520   3.680  13.095  2.0767  1.1586  2.1965
 8692SOL     OW37711   2.508   4.448   6.926 -0.2020  0.3107  0.5278
 8692SOL    HW137712   2.530   4.523   6.980  0.8462  0.2453  0.1803
 8692SOL    HW237713   2.525   4.492   6.842 -1.1254 -1.2216 -0.4782
 8693SOL     OW37714   0.434   4.214   8.280 -0.1263 -0.2117  0.5522
 8693SOL    HW137715   0.341   4.225   8.259  0.1941  0.1458 -0.6912
 8693SOL    HW237716   0.439   4.253   8.367 -2.2126 -0.7909  0.9494
 8694SOL     OW37717   2.717   1.930   9.017 -0.0222  0.6495  0.1170
 8694SOL    HW137718   2.758   1.844   9.024  1.7335  1.2680 -2.7919
 8694SOL    HW237719   2.654   1.913   8.947 -0.9207  0.1782  1.0334
 8695SOL     OW37720   3.394   3.787   9.107  0.2940  0.4183  0.3631
 8695SOL    HW137721   3.354   3.766   9.023 -0.6764  1.0471  0.6782
 8695SOL    HW237722   3.397   3.704   9.156  1.5083 -0.1989 -0.7543
 8696SOL     OW37723   1.068   2.543   1.436 -0.4951  0.2911 -0.0340
 8696SOL    HW137724   1.073   2.637   1.453  0.7834  0.0797  0.7727
 8696SOL    HW237725   0.996   2.525   1.495 -0.4012 -0.5185 -0.1685
 8697SOL     OW37726   1.500   3.404   0.884  0.1379 -0.6490 -0.3737
 8697SOL    HW137727   1.464   3.458   0.813 -0.6872 -2.2641 -1.2027
 8697SOL    HW237728   1.479   3.318   0.847 -0.1711 -0.3805 -0.8195
 8698SOL     OW37729   4.594   4.303   1.367 -0.0683 -1.2808 -0.4396
 8698SOL    HW137730   4.646   4.365   1.417  0.5617 -3.1233  1.1952
 8698SOL    HW237731   4.661   4.243   1.335 -0.0006 -0.8684 -1.0680
 8699SOL     OW37732   1.944   0.904   8.986 -0.3343 -0.2809  0.5603
 8699SOL    HW137733   1.911   0.899   9.076  0.2618  1.9313  0.9006
 8699SOL    HW237734   1.872   0.859   8.942  0.6845 -1.6484  0.2833
 8700SOL     OW37735   2.052   4.394  11.142  0.1258  0.5867 -0.0711
 8700SOL    HW137736   2.094   4.371  11.225  3.4216 -2.6432 -2.6242
 8700SOL    HW237737   1.994   4.465  11.168  0.1140  0.8590 -0.8564
 8701SOL     OW37738   3.090   2.541  17.660  0.4816 -0.1502  0.1649
 8701SOL    HW137739   3.098   2.582  17.746 -0.3432 -1.4766  0.8717
 8701SOL    HW237740   3.048   2.614  17.615 -0.1764 -1.2806 -1.0623
 8702SOL     OW37741   3.185   0.987   5.920  0.2184 -0.4543 -0.1970
 8702SOL    HW137742   3.101   0.992   5.874  0.8438 -1.7653 -1.5062
 8702SOL    HW237743   3.190   1.068   5.970 -0.6006  0.7718 -2.0958
 8703SOL     OW37744   1.042   3.849   8.488  0.0810 -0.0488  0.3192
 8703SOL    HW137745   0.997   3.927   8.454  0.3857  0.0919  0.2411
 8703SOL    HW237746   0.973   3.783   8.479 -0.2251  0.2859  0.2060
 8704SOL     OW37747   2.590   3.875   4.344  1.0652  0.5689  0.1593
 8704SOL    HW137748   2.495   3.892   4.344  1.1466  1.0693 -3.3320
 8704SOL    HW237749   2.629   3.952   4.386  1.1423  0.1651  0.8186
 8705SOL     OW37750   0.309   0.328   4.212 -0.2098 -0.5424 -0.2531
 8705SOL    HW137751   0.302   0.329   4.307 -0.0580 -1.7320 -0.2333
 8705SOL    HW237752   0.393   0.371   4.195 -0.3941  0.1503  0.5401
 8706SOL     OW37753   3.083   4.535   1.552 -0.1330  0.6489 -0.2193
 8706SOL    HW137754   3.151   4.536   1.485 -0.2687 -2.3921 -0.3909
 8706SOL    HW237755   3.050   4.448   1.529 -0.9905  1.2519 -1.3065
 8707SOL     OW37756   2.238   0.596  11.194 -0.2552  0.3418 -0.4177
 8707SOL    HW137757   2.321   0.555  11.217 -1.0403 -2.0286 -1.8829
 8707SOL    HW237758   2.250   0.682  11.235  1.7232  0.1527 -0.6292
 8708SOL     OW37759   3.137   1.674   5.926  0.2550 -0.3016 -0.1003
 8708SOL    HW137760   3.199   1.607   5.954  0.4811 -0.2884 -0.5739
 8708SOL    HW237761   3.193   1.751   5.915  0.8252 -0.3653  2.3853
 8709SOL     OW37762   1.816   4.703  15.128 -0.2400  0.4822 -0.2466
 8709SOL    HW137763   1.900   0.009  15.141  1.4518 -2.5202 -1.0009
 8709SOL    HW237764   1.755   0.025  15.084  1.2278  1.6458 -0.7148
 8710SOL     OW37765   3.175   3.206   9.566  0.4866 -0.0447 -0.1725
 8710SOL    HW137766   3.177   3.155   9.484  0.9423 -0.3050 -0.0035
 8710SOL    HW237767   3.251   3.263   9.559 -0.8738  1.9642  1.5649
 8711SOL     OW37768   0.756   1.824   7.146 -0.2159 -0.3454 -0.1754
 8711SOL    HW137769   0.805   1.896   7.186  0.5177 -1.0539  0.1762
 8711SOL    HW237770   0.686   1.800   7.206 -0.5311  1.3240  0.1224
 8712SOL     OW37771   1.930   1.175   4.918 -0.7351  0.8183 -0.1151
 8712SOL    HW137772   1.927   1.269   4.932  1.4779  0.8446  0.1845
 8712SOL    HW237773   1.843   1.162   4.881 -1.7841  1.0733  2.2313
 8713SOL     OW37774   3.431   4.436  14.982 -0.1838 -0.4246 -0.2951
 8713SOL    HW137775   3.495   4.500  15.013  2.3523 -1.9903 -2.2554
 8713SOL    HW237776   3.480   4.398  14.909 -0.5086 -1.9965  0.2990
 8714SOL     OW37777   3.933   0.031   2.349  0.2330 -0.0062  0.0562
 8714SOL    HW137778   4.000   0.071   2.292  2.0764 -2.4881  0.4780
 8714SOL    HW237779   3.874   4.722   2.290 -1.2937 -0.1127  1.6609
 8715SOL     OW37780   2.172   0.280  14.889 -0.0376 -0.4106 -0.0885
 8715SOL    HW137781   2.084   0.313  14.905  0.4735  0.3288  1.2464
 8715SOL    HW237782   2.161   0.257  14.797  0.8296 -0.4092 -0.1980
 8716SOL     OW37783   0.352   1.552   3.899  0.2723  0.1435  0.2765
 8716SOL    HW137784   0.413   1.537   3.827 -2.8828  0.6896 -2.4881
 8716SOL    HW237785   0.366   1.646   3.915  1.7326 -0.1131  0.4674
 8717SOL     OW37786   1.032   0.127  11.506  0.2511  0.2404 -0.2379
 8717SOL    HW137787   1.020   0.139  11.412 -1.2516 -1.0555 -0.2113
 8717SOL    HW237788   1.095   0.054  11.502  0.2328  0.1980  0.3226
 8718SOL     OW37789   4.285   3.559   7.974  0.5769 -0.0415 -0.1424
 8718SOL    HW137790   4.247   3.494   7.916  0.7140 -0.7765  0.5916
 8718SOL    HW237791   4.344   3.516   8.036  2.0665  0.7172 -1.0204
 8719SOL     OW37792   0.469   1.764   3.491 -0.2697 -0.0130 -0.3012
 8719SOL    HW137793   0.375   1.769   3.509 -0.2037  1.2700 -0.2711
 8719SOL    HW237794   0.494   1.749   3.582 -1.0929 -3.0673 -0.5743
 8720SOL     OW37795   0.402   4.419   6.213 -0.6037 -0.3322  0.3347
 8720SOL    HW137796   0.410   4.418   6.308  0.7695  2.2469  0.2621
 8720SOL    HW237797   0.491   4.392   6.189 -1.2457 -1.1921 -1.0928
 8721SOL     OW37798   3.160   2.937   8.330 -0.4121  0.0170 -0.2265
 8721SOL    HW137799   3.172   2.985   8.412  3.4797 -0.7468 -0.3657
 8721SOL    HW237800   3.132   2.853   8.367  0.1459  0.5369  1.3926
 8722SOL     OW37801   4.028   2.433  15.976 -0.5791 -0.0201 -0.5366
 8722SOL    HW137802   3.981   2.478  15.905  0.1926  1.1725 -0.3020
 8722SOL    HW237803   4.115   2.471  15.963 -0.4680  0.0371  0.3646
 8723SOL     OW37804   0.717   1.906   4.820  0.6058 -0.7108 -0.1843
 8723SOL    HW137805   0.647   1.911   4.884  1.0690  2.9052  0.0333
 8723SOL    HW237806   0.737   1.815   4.840 -1.0469 -0.5149  2.3096
 8724SOL     OW37807   0.298   2.172   7.830  0.3569 -0.1822 -0.9161
 8724SOL    HW137808   0.314   2.217   7.747  1.6015 -0.0615 -0.6143
 8724SOL    HW237809   0.242   2.231   7.880  1.3360 -1.0091  1.1496
 8725SOL     OW37810   1.889   2.490   6.064 -0.0069  0.0891  0.1511
 8725SOL    HW137811   1.932   2.443   6.135  1.1301 -1.1443 -1.3704
 8725SOL    HW237812   1.797   2.495   6.090  0.4567  2.1575  1.4390
 8726SOL     OW37813   1.944   0.123   1.553 -0.1816 -0.5352 -0.2452
 8726SOL    HW137814   1.872   0.180   1.579  2.3373  1.2681  2.6979
 8726SOL    HW237815   2.013   0.169   1.600  0.3991 -0.6558 -0.9929
 8727SOL     OW37816   3.830   3.777   7.056  0.5526  0.2365 -0.1762
 8727SOL    HW137817   3.823   3.831   7.135 -1.3481 -0.6459  0.2682
 8727SOL    HW237818   3.888   3.711   7.092  1.1834  1.1754  0.5312
 8728SOL     OW37819   2.540   3.548  14.052 -0.1009  0.3570 -0.4273
 8728SOL    HW137820   2.607   3.606  14.016 -0.0513 -0.8656 -2.3341
 8728SOL    HW237821   2.604   3.482  14.077  0.7994  1.5083  0.2893
 8729SOL     OW37822   2.991   1.586   3.750  0.3921 -0.5666  0.6246
 8729SOL    HW137823   3.001   1.609   3.658 -1.3464 -0.7143  0.3957
 8729SOL    HW237824   3.013   1.666   3.798 -0.5100 -0.8057  1.4426
 8730SOL     OW37825   3.865   2.238   8.703 -0.4042 -0.4307  0.6489
 8730SOL    HW137826   3.829   2.287   8.776 -0.2467 -2.4273  2.0629
 8730SOL    HW237827   3.887   2.319   8.656 -1.6715 -0.0810  0.6640
 8731SOL     OW37828   1.138   2.624  17.051 -0.0569 -0.7839 -0.2413
 8731SOL    HW137829   1.050   2.605  17.084  0.4773  1.1491  2.2784
 8731SOL    HW237830   1.130   2.719  17.048  1.1536 -0.7035 -0.9139
 8732SOL     OW37831   2.897   3.116   2.763  0.2295  0.0519 -0.1476
 8732SOL    HW137832   2.913   3.106   2.669  1.7176  1.4594 -0.0330
 8732SOL    HW237833   2.987   3.113   2.795  0.1639  2.2565  0.2165
 8733SOL     OW37834   4.180   4.428   1.232  0.3064 -0.6771 -0.3621
 8733SOL    HW137835   4.148   4.472   1.310  1.7613  1.2527 -0.8370
 8733SOL    HW237836   4.271   4.458   1.224  0.1226 -0.1701 -0.5655
 8734SOL     OW37837   0.038   3.446  11.251 -0.5903  0.3902 -0.4338
 8734SOL    HW137838   0.096   3.474  11.322  0.2514 -1.1234 -0.5353
 8734SOL    HW237839   0.107   3.418  11.192 -0.3440 -0.4785  0.2712
 8735SOL     OW37840   1.247   3.160   4.805 -0.4561 -0.8792  0.5732
 8735SOL    HW137841   1.234   3.254   4.800 -1.0681 -0.8650  2.6199
 8735SOL    HW237842   1.253   3.146   4.900  0.9472 -1.7866  0.3652
 8736SOL     OW37843   4.361   1.909   4.037  0.4106  0.1205 -0.2543
 8736SOL    HW137844   4.329   1.881   3.951 -2.1033  1.1980  0.3425
 8736SOL    HW237845   4.275   1.935   4.070 -0.5405  0.2025 -2.7331
 8737SOL     OW37846   4.231   3.256   0.562  0.1454  0.0918  0.1194
 8737SOL    HW137847   4.247   3.337   0.514 -0.0290  0.9694  1.5300
 8737SOL    HW237848   4.138   3.241   0.544 -0.3436  0.6494  2.1365
 8738SOL     OW37849   0.078   1.877  10.423  0.3143  0.5833  0.0581
 8738SOL    HW137850   0.072   1.958  10.372 -1.3822 -0.6434 -1.7226
 8738SOL    HW237851   0.076   1.807  10.358 -0.8037  2.0047 -1.4658
 8739SOL     OW37852   1.884   4.060   7.056 -0.0588 -0.1617  0.2336
 8739SOL    HW137853   1.895   4.026   7.145 -0.9648  1.0953  0.8249
 8739SOL    HW237854   1.960   4.116   7.043  1.7520 -2.9650 -1.2097
 8740SOL     OW37855   2.480   0.822   6.556 -0.3863 -0.1849  0.0265
 8740SOL    HW137856   2.532   0.747   6.528  2.6044  1.6874  0.6005
 8740SOL    HW237857   2.515   0.837   6.643  0.3668  1.5511 -0.5688
 8741SOL     OW37858   0.170   1.884  12.002 -0.0073  0.0035  0.1733
 8741SOL    HW137859   0.113   1.954  12.035 -1.1763 -0.6147 -0.5238
 8741SOL    HW237860   0.254   1.927  12.018  0.2169  0.2180 -1.5764
 8742SOL     OW37861   1.137   2.219   4.544  0.2223  0.2037  0.2059
 8742SOL    HW137862   1.049   2.216   4.581  0.1117 -0.0721 -0.0773
 8742SOL    HW237863   1.153   2.128   4.520  2.6711  0.7558 -0.3243
 8743SOL     OW37864   1.500   3.510   2.218 -0.4626 -0.1424  0.0555
 8743SOL    HW137865   1.477   3.550   2.135  0.0811  0.3206  0.1266
 8743SOL    HW237866   1.427   3.549   2.265  0.7287 -1.1368  2.7396
 8744SOL     OW37867   3.996   2.565   6.714 -0.2096 -0.0764 -0.2949
 8744SOL    HW137868   4.034   2.478   6.704  0.0403 -0.1598  1.3887
 8744SOL    HW237869   4.063   2.622   6.677  0.9476 -0.9131  0.5398
 8745SOL     OW37870   2.756   0.149   2.468  0.0507  0.0845 -0.7362
 8745SOL    HW137871   2.708   0.068   2.479  0.0723  0.3523  1.2003
 8745SOL    HW237872   2.761   0.152   2.372  1.9328 -1.5166 -0.6895
 8746SOL     OW37873   1.905   4.669  12.705  0.0769  0.1964  0.0159
 8746SOL    HW137874   1.862   4.609  12.767  0.4668  0.5614  0.6340
 8746SOL    HW237875   1.815   4.692  12.680 -1.6065 -2.5006  3.4552
 8747SOL     OW37876   4.478   2.512   8.257  0.3607  0.1129  0.0709
 8747SOL    HW137877   4.432   2.429   8.243  0.8600 -0.2168  0.4039
 8747SOL    HW237878   4.545   2.484   8.318 -1.9855 -0.5562  2.3107
 8748SOL     OW37879   1.867   0.570   7.201 -0.0849 -0.0433  0.5114
 8748SOL    HW137880   1.888   0.597   7.291  1.1352  0.2884  0.1233
 8748SOL    HW237881   1.935   0.508   7.178  0.5536  1.3374 -1.3252
 8749SOL     OW37882   3.377   0.235   9.414  0.1294  0.5944  0.7391
 8749SOL    HW137883   3.412   0.280   9.337  1.8373 -2.6231 -0.3905
 8749SOL    HW237884   3.300   0.191   9.376 -0.9730  2.6486  0.6183
 8750SOL     OW37885   3.761   0.705  17.226  0.2344  0.1413 -0.4856
 8750SOL    HW137886   3.827   0.772  17.208 -0.2316  0.4766 -0.9534
 8750SOL    HW237887   3.695   0.702  17.157 -0.3556  0.8448  0.0635
 8751SOL     OW37888   1.525   1.034   9.333 -0.1164  0.2571  0.2141
 8751SOL    HW137889   1.495   0.945   9.346 -2.4599  1.1385  0.8356
 8751SOL    HW237890   1.463   1.075   9.273  2.3725  3.5364 -0.1594
 8752SOL     OW37891   1.421   0.960  13.526  0.4721  0.7839 -0.3663
 8752SOL    HW137892   1.362   0.930  13.457 -1.3243  0.8820  1.1406
 8752SOL    HW237893   1.390   1.050  13.538  0.4310  0.7669 -0.3447
 8753SOL     OW37894   4.024   3.090   6.041 -0.8028 -0.0623  0.3266
 8753SOL    HW137895   3.992   3.069   6.128 -0.8731 -0.6889  0.1514
 8753SOL    HW237896   4.104   3.039   6.027 -0.1851  1.4481 -1.7202
 8754SOL     OW37897   4.534   3.036   7.505 -0.2005 -0.1824  0.2808
 8754SOL    HW137898   4.615   3.088   7.501  0.9117 -1.7617  2.5535
 8754SOL    HW237899   4.543   2.987   7.586 -0.7366 -0.3249  0.2557
 8755SOL     OW37900   2.523   4.305   7.908 -0.5210 -0.0930  0.1791
 8755SOL    HW137901   2.507   4.361   7.832  0.1531  2.5810  2.0222
 8755SOL    HW237902   2.437   4.308   7.950  0.9630  1.9182  3.0477
 8756SOL     OW37903   1.961   0.249   8.916 -0.3275 -0.3665  0.2404
 8756SOL    HW137904   2.009   0.326   8.945 -1.0745  0.5163 -0.8331
 8756SOL    HW237905   1.886   0.241   8.975 -0.9638  0.1661 -0.4873
 8757SOL     OW37906   3.796   0.810   5.764 -0.1852 -0.2904  0.3618
 8757SOL    HW137907   3.701   0.815   5.756  0.0852  1.0496 -1.9807
 8757SOL    HW237908   3.816   0.902   5.782 -0.7587 -0.2578  0.8372
 8758SOL     OW37909   2.262   3.753  16.405 -0.2767  0.0265 -0.2676
 8758SOL    HW137910   2.244   3.733  16.312 -0.9803  2.0154 -0.5622
 8758SOL    HW237911   2.238   3.845  16.416 -2.6939 -0.8973  2.0745
 8759SOL     OW37912   0.661   3.780   3.761  0.2054  0.3643  0.3422
 8759SOL    HW137913   0.652   3.685   3.753 -2.2329  0.4091  2.6991
 8759SOL    HW237914   0.650   3.793   3.855 -0.0427  1.0336  0.2241
 8760SOL     OW37915   2.235   4.196   5.994  0.1082 -0.2458 -0.2634
 8760SOL    HW137916   2.196   4.190   5.907  1.0756  1.4865 -0.8090
 8760SOL    HW237917   2.330   4.195   5.987  0.1931  3.0381  0.5719
 8761SOL     OW37918   3.057   4.438   6.592 -0.7379  0.0101 -0.2926
 8761SOL    HW137919   2.978   4.385   6.605  0.5792 -1.9073 -0.1022
 8761SOL    HW237920   3.126   4.375   6.613 -2.4268 -1.9361 -0.5399
 8762SOL     OW37921   2.855   0.166   4.688  0.2810  0.1473  0.1036
 8762SOL    HW137922   2.898   0.233   4.636  0.2258  1.4473  1.7244
 8762SOL    HW237923   2.831   0.205   4.772 -0.1809 -3.6465  1.7614
 8763SOL     OW37924   3.575   2.913   1.822 -0.1177  0.0263  0.5665
 8763SOL    HW137925   3.643   2.847   1.811 -1.6357 -1.2849 -0.7419
 8763SOL    HW237926   3.528   2.859   1.885  1.0199  1.0708  2.3252
 8764SOL     OW37927   4.016   1.798   5.490  0.2129  0.2919 -0.2800
 8764SOL    HW137928   3.992   1.869   5.430 -1.3630 -0.7647 -0.8976
 8764SOL    HW237929   3.936   1.748   5.476  0.1615  0.3882 -0.3273
 8765SOL     OW37930   2.789   3.037   7.042 -0.5127  0.0253  0.2027
 8765SOL    HW137931   2.723   3.050   6.974 -0.2567 -0.1425 -0.0748
 8765SOL    HW237932   2.874   3.029   6.998 -0.2920  1.0094  0.4605
 8766SOL     OW37933   2.660   1.561   8.591 -0.4175 -0.1348 -0.0901
 8766SOL    HW137934   2.700   1.474   8.593 -3.4628 -1.5343 -0.8937
 8766SOL    HW237935   2.734   1.620   8.604  0.3307 -0.4246 -3.0385
 8767SOL     OW37936   1.012   0.667   0.458  0.7732  0.2991 -0.0694
 8767SOL    HW137937   0.940   0.605   0.474  2.7304 -1.5438  1.7136
 8767SOL    HW237938   1.065   0.615   0.398 -0.5249  0.8929 -1.7241
 8768SOL     OW37939   1.911   3.558   5.206  0.6831  0.2669  0.4861
 8768SOL    HW137940   1.921   3.468   5.237 -2.4210 -1.4515 -3.5796
 8768SOL    HW237941   1.906   3.613   5.285  0.7055 -1.5474  1.7494
 8769SOL     OW37942   2.931   1.960  15.034  0.1840 -0.2833  0.3842
 8769SOL    HW137943   2.983   1.886  15.004  1.6362  0.1034  1.9361
 8769SOL    HW237944   2.864   1.912  15.081 -1.4235  0.7753 -0.8333
 8770SOL     OW37945   3.353   3.153   7.088  0.8239  0.2933 -0.8245
 8770SOL    HW137946   3.263   3.152   7.054 -0.7609  0.9301  3.3229
 8770SOL    HW237947   3.393   3.234   7.058  0.0456  0.8403 -0.4121
 8771SOL     OW37948   0.781   0.173  12.717 -0.2580  0.1891  0.4356
 8771SOL    HW137949   0.724   0.122  12.660  1.1057 -0.8240 -0.0294
 8771SOL    HW237950   0.819   0.098  12.762  1.6664  0.8337 -0.1219
 8772SOL     OW37951   0.356   1.964   8.062 -0.1378 -0.0207  0.1849
 8772SOL    HW137952   0.289   2.021   8.099 -1.0094 -1.4963  0.8991
 8772SOL    HW237953   0.376   2.007   7.979 -0.3006 -0.4922 -0.1020
 8773SOL     OW37954   0.773   0.471  14.951 -0.0955  0.2590 -0.2016
 8773SOL    HW137955   0.826   0.549  14.960 -0.0137  0.1892 -0.0820
 8773SOL    HW237956   0.838   0.403  14.934 -1.2239 -1.1867  1.2487
 8774SOL     OW37957   0.461   0.073   3.490 -0.1735 -0.3013  0.1220
 8774SOL    HW137958   0.547   0.112   3.477  0.1322 -0.7030  0.9418
 8774SOL    HW237959   0.427   0.135   3.555 -0.4486 -3.1484  2.6841
 8775SOL     OW37960   2.983   0.033   5.384  0.1385 -0.6841 -0.0792
 8775SOL    HW137961   2.950   0.119   5.360 -0.6720 -1.3377 -1.3084
 8775SOL    HW237962   3.009   0.057   5.473  1.3187 -0.5780 -0.4602
 8776SOL     OW37963   4.070   0.498  11.156 -0.1382  0.4442  0.1537
 8776SOL    HW137964   4.011   0.515  11.083 -0.3582  1.6374  0.6044
 8776SOL    HW237965   4.030   0.431  11.212 -2.5393  1.6725 -0.1144
 8777SOL     OW37966   3.153   2.312  10.366  0.2126 -0.5372 -0.0380
 8777SOL    HW137967   3.111   2.233  10.333 -1.0457 -0.4781  1.4694
 8777SOL    HW237968   3.071   2.352  10.392  0.4788  0.4960 -0.7743
 8778SOL     OW37969   0.258   3.069   7.361  0.2338  0.2217  0.0151
 8778SOL    HW137970   0.320   3.119   7.415 -1.5779  1.9261  0.5206
 8778SOL    HW237971   0.312   3.009   7.310  1.6132  0.4628  1.1907
 8779SOL     OW37972   0.168   1.612   7.169  0.3325  0.3556 -0.2663
 8779SOL    HW137973   0.090   1.624   7.223  1.6245  0.2342  1.6287
 8779SOL    HW237974   0.194   1.521   7.182  1.5444  0.9129  1.2305
 8780SOL     OW37975   3.619   2.890   7.304  0.0797  0.2771 -0.5106
 8780SOL    HW137976   3.670   2.837   7.366  0.3257  2.5731  1.2693
 8780SOL    HW237977   3.657   2.878   7.217 -2.0405 -3.3172 -0.9626
 8781SOL     OW37978   2.615   2.948   7.558  0.3797 -0.1376  0.2517
 8781SOL    HW137979   2.664   2.870   7.533  0.5976 -0.2003  0.8938
 8781SOL    HW237980   2.622   2.940   7.653  0.6539  0.3552  0.2753
 8782SOL     OW37981   2.322   2.540   4.290 -0.4677 -0.1740 -0.0630
 8782SOL    HW137982   2.240   2.517   4.246 -0.4218  0.3792 -0.4474
 8782SOL    HW237983   2.331   2.458   4.338  0.1100 -0.1226 -0.0793
 8783SOL     OW37984   1.774   2.069  13.002 -0.0951  0.5368 -0.0637
 8783SOL    HW137985   1.854   2.032  13.039 -0.1206  0.1658 -0.3782
 8783SOL    HW237986   1.706   2.016  13.044 -0.2542  2.3660  2.0123
 8784SOL     OW37987   3.280   0.368   6.611 -0.1415 -0.2138  0.0580
 8784SOL    HW137988   3.371   0.373   6.640 -0.4284  0.2001  0.8819
 8784SOL    HW237989   3.284   0.389   6.517 -1.6154  0.1064  0.0783
 8785SOL     OW37990   3.045   1.182   3.823  0.5956  0.1539  0.5921
 8785SOL    HW137991   3.071   1.207   3.734  0.9027 -1.6854  0.1659
 8785SOL    HW237992   3.104   1.110   3.843  1.2348  0.5127 -0.0012
 8786SOL     OW37993   2.660   3.003  17.075 -0.6525 -0.2061  0.9924
 8786SOL    HW137994   2.639   2.930  17.132  0.7155 -0.2209  1.4800
 8786SOL    HW237995   2.672   2.956  16.993  1.3358 -2.0401  2.3465
 8787SOL     OW37996   2.297   1.570   7.901 -0.1584  0.1890  1.3024
 8787SOL    HW137997   2.376   1.516   7.901 -0.4223 -0.1894 -0.0321
 8787SOL    HW237998   2.306   1.606   7.989  3.8984 -2.4192  1.9548
 8788SOL     OW37999   2.629   3.003   2.275  0.8061  0.2005 -0.6246
 8788SOL    HW138000   2.608   2.909   2.280  0.4136  0.1914 -2.6840
 8788SOL    HW238001   2.607   3.033   2.187 -1.1077  2.2328  0.5527
 8789SOL     OW38002   1.626   0.896  14.824 -0.0797 -0.1576  1.1080
 8789SOL    HW138003   1.639   0.801  14.820  2.0950  0.2815 -2.5914
 8789SOL    HW238004   1.531   0.907  14.826 -0.2171 -0.9283 -1.0217
 8790SOL     OW38005   0.775   3.160   2.144 -0.5155  0.0505  0.3235
 8790SOL    HW138006   0.732   3.078   2.166  1.5934 -1.4513 -1.1976
 8790SOL    HW238007   0.750   3.175   2.052  0.4559 -0.5349 -0.0302
 8791SOL     OW38008   3.376   3.456   0.498  0.4197  0.5627 -0.2109
 8791SOL    HW138009   3.399   3.479   0.408 -1.8926 -0.4808 -1.0827
 8791SOL    HW238010   3.413   3.537   0.533  1.1315 -0.1502  0.6830
 8792SOL     OW38011   2.087   0.378   1.384  0.5237  0.4378 -0.3043
 8792SOL    HW138012   2.104   0.457   1.334 -1.6831 -1.6298 -4.2405
 8792SOL    HW238013   1.998   0.369   1.352 -0.0819  4.6588  0.2389
 8793SOL     OW38014   1.501   1.749   3.770 -0.1071  1.2776 -0.3851
 8793SOL    HW138015   1.534   1.805   3.840  0.9932 -1.2019  1.0817
 8793SOL    HW238016   1.582   1.736   3.721 -1.4804  0.3585 -2.4509
 8794SOL     OW38017   3.295   1.908   7.849  0.1314 -0.2805  0.0658
 8794SOL    HW138018   3.270   1.816   7.855 -1.4379  0.1955  1.0396
 8794SOL    HW238019   3.379   1.911   7.893 -0.5888 -0.4561  1.4415
 8795SOL     OW38020   4.271   3.072   8.349  0.7981  0.3699  0.4144
 8795SOL    HW138021   4.332   3.146   8.358  2.1465 -0.7316  0.4021
 8795SOL    HW238022   4.306   3.013   8.416 -1.2423 -1.2429  0.0401
 8796SOL     OW38023   4.177   2.722   4.477  0.0750 -0.1225  0.3284
 8796SOL    HW138024   4.261   2.705   4.435  0.0669 -2.1087  1.1274
 8796SOL    HW238025   4.168   2.817   4.488  0.3314  0.1067 -1.4884
 8797SOL     OW38026   0.872   3.830   6.819 -0.1092 -0.0321  0.3735
 8797SOL    HW138027   0.791   3.880   6.809  0.0542 -0.3164 -2.5251
 8797SOL    HW238028   0.938   3.894   6.843 -1.3598  0.5223  2.3464
 8798SOL     OW38029   4.442   1.987  14.648 -0.0641 -0.2089  0.6845
 8798SOL    HW138030   4.487   2.071  14.655 -0.1161 -0.1190 -0.1331
 8798SOL    HW238031   4.474   1.946  14.568 -2.6680  0.9288 -0.9649
 8799SOL     OW38032   3.376   1.064   7.724  0.2872  0.1499 -0.7959
 8799SOL    HW138033   3.290   1.023   7.727  0.3494  0.0240 -0.7514
 8799SOL    HW238034   3.350   1.148   7.761 -1.7334  0.0855 -2.0709
 8800SOL     OW38035   2.284   0.577   2.658  0.4074  0.7438 -0.5788
 8800SOL    HW138036   2.329   0.535   2.731  1.4591 -0.9348 -2.1974
 8800SOL    HW238037   2.280   0.669   2.686  1.8254  0.6638 -0.0990
 8801SOL     OW38038   3.381   0.732   6.746 -0.0086  0.0179 -0.3265
 8801SOL    HW138039   3.468   0.735   6.784 -0.6084  0.9568  0.9789
 8801SOL    HW238040   3.402   0.700   6.659  2.5688 -0.9487  0.6526
 8802SOL     OW38041   4.157   2.037   8.278 -0.3174 -0.0291 -0.1859
 8802SOL    HW138042   4.185   1.953   8.314 -0.3006 -0.0511 -0.2501
 8802SOL    HW238043   4.066   2.022   8.253 -0.5121  0.5990  0.1399
 8803SOL     OW38044   2.424   2.600   4.838  0.1340 -0.3102 -0.3365
 8803SOL    HW138045   2.341   2.649   4.839  0.9081  1.0117 -1.2335
 8803SOL    HW238046   2.472   2.645   4.769 -1.6032 -0.4358 -1.6369
 8804SOL     OW38047   1.584   2.572   5.970  0.1553  0.0214  0.0575
 8804SOL    HW138048   1.509   2.625   5.998 -1.0494 -2.9260  2.5028
 8804SOL    HW238049   1.651   2.639   5.982  0.2134 -0.7690  4.3655
 8805SOL     OW38050   0.834   2.616   1.538  0.0382 -0.1720 -0.1700
 8805SOL    HW138051   0.765   2.594   1.475  0.4663 -1.1447 -0.3028
 8805SOL    HW238052   0.790   2.624   1.622 -1.9195  1.5735 -1.3562
 8806SOL     OW38053   0.260   2.227   6.276 -0.7572  0.6326 -0.4292
 8806SOL    HW138054   0.224   2.307   6.315  0.5736  1.3811 -0.7603
 8806SOL    HW238055   0.210   2.158   6.319  0.1756 -0.6043 -1.3494
 8807SOL     OW38056   0.178   1.272   3.277 -0.1569  0.1020  0.7192
 8807SOL    HW138057   0.271   1.294   3.278 -0.1980  0.2941 -0.1405
 8807SOL    HW238058   0.168   1.203   3.343  1.5582  0.6176  1.5195
 8808SOL     OW38059   2.535   2.450  13.997  0.3062 -0.3246  0.0735
 8808SOL    HW138060   2.559   2.531  14.042  4.6992 -1.5562 -0.0024
 8808SOL    HW238061   2.453   2.425  14.039  1.1390 -1.0834  1.2765
 8809SOL     OW38062   3.584   4.067   3.049  0.0119 -0.2394  0.3004
 8809SOL    HW138063   3.560   4.159   3.041 -2.3681 -1.0069 -1.4144
 8809SOL    HW238064   3.504   4.023   3.078 -1.4538  1.5248 -1.0883
 8810SOL     OW38065   3.258   3.900   3.491 -0.4118  0.4783 -1.1926
 8810SOL    HW138066   3.324   3.904   3.560 -1.6913 -1.9177  0.1821
 8810SOL    HW238067   3.297   3.838   3.429  3.2548  2.9073 -1.3137
 8811SOL     OW38068   2.554   2.814  17.232 -0.6556  0.0541  0.3512
 8811SOL    HW138069   2.486   2.833  17.167  1.0613 -1.5270 -1.9302
 8811SOL    HW238070   2.502   2.763  17.294 -0.8298  1.4034  1.3066
 8812SOL     OW38071   2.976   0.956  14.005 -0.2633  0.2207  0.3346
 8812SOL    HW138072   2.892   1.001  14.007 -0.4431 -0.0637 -1.0425
 8812SOL    HW238073   2.984   0.927  14.096  2.6166 -1.5926 -0.4850
 8813SOL     OW38074   1.325   3.279   5.347 -0.3937 -0.5365 -0.4287
 8813SOL    HW138075   1.408   3.237   5.371 -0.0034  1.0380  1.0059
 8813SOL    HW238076   1.292   3.311   5.431 -1.6118  1.9434 -1.8489
 8814SOL     OW38077   2.241   1.338   4.719 -0.6550 -0.0203  0.2812
 8814SOL    HW138078   2.224   1.295   4.636  0.7918  0.3610 -0.2004
 8814SOL    HW238079   2.314   1.284   4.750  0.2745  0.4415 -1.1255
 8815SOL     OW38080   0.566   1.344   7.163  0.3506 -0.4429 -0.0199
 8815SOL    HW138081   0.647   1.393   7.170 -0.2517  0.6409 -0.6309
 8815SOL    HW238082   0.572   1.315   7.072  1.6470  0.4175 -0.2074
 8816SOL     OW38083   3.273   3.520   4.443  0.1501  0.6935 -0.4619
 8816SOL    HW138084   3.200   3.463   4.467 -0.8507  2.3377  0.3779
 8816SOL    HW238085   3.339   3.465   4.400  0.8896  1.8528 -0.8072
 8817SOL     OW38086   0.417   1.369   3.114  0.1362  0.5062 -0.4470
 8817SOL    HW138087   0.498   1.420   3.116  0.9945 -0.9426  1.3168
 8817SOL    HW238088   0.355   1.442   3.124  0.1337  0.5275 -0.6086
 8818SOL     OW38089   0.257   1.310   0.368 -0.0791 -0.3428 -0.0201
 8818SOL    HW138090   0.327   1.246   0.376 -0.0147  0.1666  3.2701
 8818SOL    HW238091   0.206   1.264   0.434 -1.5465 -0.8318 -1.5115
 8819SOL     OW38092   1.370   1.112   9.090 -0.4660 -0.2029 -0.5791
 8819SOL    HW138093   1.346   1.024   9.063  0.1569  0.0152 -1.8248
 8819SOL    HW238094   1.426   1.133   9.016  0.3985  0.3048  0.2156
 8820SOL     OW38095   0.127   4.142  15.908 -0.1947 -0.3441  0.2268
 8820SOL    HW138096   0.046   4.188  15.932 -0.9191  0.0301 -2.8308
 8820SOL    HW238097   0.177   4.223  15.916  2.3108 -1.5208 -3.4222
 8821SOL     OW38098   3.831   0.745   6.510  0.0072 -0.4542  0.6035
 8821SOL    HW138099   3.902   0.722   6.450 -0.2471 -0.1203  0.1726
 8821SOL    HW238100   3.768   0.682   6.475  1.0748 -0.8858 -0.5169
 8822SOL     OW38101   1.806   1.906   9.483  0.2845 -0.5312 -0.2058
 8822SOL    HW138102   1.792   2.001   9.483 -2.6586 -0.9589 -0.3172
 8822SOL    HW238103   1.723   1.879   9.445  1.0319  0.4326 -2.5288
 8823SOL     OW38104   2.055   3.946   5.327  0.2812  0.2488  0.4230
 8823SOL    HW138105   1.984   3.888   5.301  2.8943 -2.6200 -0.2998
 8823SOL    HW238106   1.990   3.994   5.379 -1.1557 -1.9054  0.6188
 8824SOL     OW38107   0.866   1.065   2.785 -0.2719  0.1205 -0.1159
 8824SOL    HW138108   0.787   1.090   2.833  0.2014  0.0122  0.7192
 8824SOL    HW238109   0.912   1.006   2.845  0.8399  0.9670 -0.1175
 8825SOL     OW38110   3.395   4.088   8.843 -0.5601  0.1331 -0.5306
 8825SOL    HW138111   3.455   4.013   8.845 -0.0978  0.4902 -0.9136
 8825SOL    HW238112   3.472   4.143   8.859 -0.5184 -0.3565  0.9514
 8826SOL     OW38113   3.097   2.596   2.904 -0.3434  0.4960  0.2198
 8826SOL    HW138114   3.010   2.566   2.933 -1.6754  2.2976 -1.9075
 8826SOL    HW238115   3.080   2.661   2.835  0.4985 -2.9439 -3.2518
 8827SOL     OW38116   0.729   2.607   4.397  0.4703  0.4665  0.0276
 8827SOL    HW138117   0.769   2.563   4.472  1.0916 -0.9064 -1.1176
 8827SOL    HW238118   0.638   2.580   4.404  1.1293 -1.4110  1.3658
 8828SOL     OW38119   2.941   3.391  14.465 -0.0064 -0.0878 -0.6836
 8828SOL    HW138120   2.879   3.439  14.519  1.4094  1.1305 -0.1444
 8828SOL    HW238121   2.943   3.304  14.505  4.0174 -0.3330 -1.3875
 8829SOL     OW38122   1.518   1.629   8.690  0.2117  0.3306  0.3828
 8829SOL    HW138123   1.481   1.628   8.779 -0.2554 -3.4704  0.1462
 8829SOL    HW238124   1.609   1.635   8.718 -0.3740  2.5979  1.8655
 8830SOL     OW38125   2.770   0.993   4.264 -0.0311 -0.1554  0.3338
 8830SOL    HW138126   2.721   0.983   4.346  0.5201 -3.5258  0.2454
 8830SOL    HW238127   2.702   0.999   4.196  1.6182  0.0244 -1.3071
 8831SOL     OW38128   2.351   1.286  13.920  0.2559 -0.8045  0.4543
 8831SOL    HW138129   2.272   1.337  13.937 -0.7777 -1.9680 -0.8852
 8831SOL    HW238130   2.321   1.210  13.870  1.0275 -1.6447  1.2751
 8832SOL     OW38131   4.548   0.281   3.751  0.8539  0.1026 -0.3754
 8832SOL    HW138132   4.623   0.310   3.700 -1.5230  4.0842 -1.6983
 8832SOL    HW238133   4.525   0.370   3.780 -0.2881  0.4274 -2.2179
 8833SOL     OW38134   1.132   4.626  13.397 -0.1230 -0.6624 -0.2673
 8833SOL    HW138135   1.042   4.654  13.383  0.6667  0.8823 -2.2512
 8833SOL    HW238136   1.168   4.609  13.310  1.6893 -0.5891  0.4638
 8834SOL     OW38137   0.880   3.862   1.082 -0.8485  0.0421  0.3511
 8834SOL    HW138138   0.858   3.909   1.162  3.6074 -0.6654  2.0339
 8834SOL    HW238139   0.921   3.924   1.022 -1.7937  1.1951  0.8905
 8835SOL     OW38140   2.588   2.771  14.523  0.0373  0.2915  0.2134
 8835SOL    HW138141   2.516   2.812  14.476 -0.4511  1.0455  1.6348
 8835SOL    HW238142   2.667   2.795  14.474  0.3252  0.3386  0.7027
 8836SOL     OW38143   4.526   0.793  10.156  0.1785  0.1600 -0.2076
 8836SOL    HW138144   4.526   0.782  10.061 -2.4601 -0.0336 -0.1844
 8836SOL    HW238145   4.621   0.799  10.170  0.2980  2.7939 -2.1475
 8837SOL     OW38146   3.834   4.074   3.319  0.2307 -0.4684 -0.4270
 8837SOL    HW138147   3.787   4.009   3.266 -0.3296 -0.3540 -0.0682
 8837SOL    HW238148   3.769   4.106   3.380 -0.3380 -1.0775 -0.7148
 8838SOL     OW38149   2.317   2.098   2.806  0.6247 -0.6244  0.3013
 8838SOL    HW138150   2.388   2.132   2.861  1.9948 -1.3264 -1.0135
 8838SOL    HW238151   2.262   2.050   2.867  1.2058 -0.2648  1.1057
 8839SOL     OW38152   1.725   1.614   9.119  0.0490 -0.4132  0.1256
 8839SOL    HW138153   1.680   1.546   9.170 -1.5101 -0.0332 -0.7395
 8839SOL    HW238154   1.680   1.611   9.035  1.3347 -1.0077 -0.5369
 8840SOL     OW38155   3.049   3.387   0.134  0.2651  0.4372 -0.0374
 8840SOL    HW138156   3.111   3.453   0.162 -1.9534  2.5553 -0.1129
 8840SOL    HW238157   3.068   3.393   0.041  0.5474 -2.3757 -0.1824
 8841SOL     OW38158   0.687   1.352  15.771 -0.3017 -0.4340  0.0634
 8841SOL    HW138159   0.704   1.345  15.677  2.0495  0.6112  0.4181
 8841SOL    HW238160   0.649   1.265  15.785  0.0304 -0.4386  0.9574
 8842SOL     OW38161   3.318   2.852  10.681  0.1607 -0.0410  0.0150
 8842SOL    HW138162   3.267   2.811  10.750 -1.1607 -1.3757 -1.7287
 8842SOL    HW238163   3.380   2.779  10.679 -0.0049 -0.1565 -1.1385
 8843SOL     OW38164   3.162   1.669   7.879  0.4477  0.3320  0.1616
 8843SOL    HW138165   3.084   1.696   7.831 -0.0835 -2.3057 -0.4194
 8843SOL    HW238166   3.114   1.643   7.957 -0.1999 -1.4622 -0.8290
 8844SOL     OW38167   1.785   0.169   1.855  0.4556 -0.2932 -0.3875
 8844SOL    HW138168   1.852   0.161   1.923 -0.9652  1.4681  1.2009
 8844SOL    HW238169   1.799   0.255   1.816  1.9203  0.7308  2.4167
 8845SOL     OW38170   3.186   2.756   7.518  0.1370  0.8308  1.0394
 8845SOL    HW138171   3.155   2.758   7.608  1.4885 -0.2064  1.5172
 8845SOL    HW238172   3.159   2.667   7.494 -1.7188  1.5394  0.4583
 8846SOL     OW38173   4.470   1.451   7.131 -0.2301  0.5398  0.0751
 8846SOL    HW138174   4.419   1.528   7.106 -0.9751  0.2260  0.6032
 8846SOL    HW238175   4.398   1.406   7.176  0.4086 -0.0095  0.5438
 8847SOL     OW38176   1.802   3.940   0.925 -0.5340 -0.2094  0.2623
 8847SOL    HW138177   1.830   3.882   0.854 -1.8887  2.5240 -2.4568
 8847SOL    HW238178   1.727   3.896   0.965 -2.3295  0.6129 -2.2212
 8848SOL     OW38179   3.534   0.380   3.010 -0.5720 -0.3864  0.0865
 8848SOL    HW138180   3.614   0.386   2.958 -0.3183 -0.5085  0.4618
 8848SOL    HW238181   3.537   0.285   3.022  1.6296 -0.2645  0.4761
 8849SOL     OW38182   0.026   4.334   7.788 -0.1227 -0.0192 -0.2535
 8849SOL    HW138183   0.038   4.404   7.851 -3.6089  1.1833 -0.9489
 8849SOL    HW238184   4.673   4.339   7.759  0.1319 -1.1459 -1.2691
 8850SOL     OW38185   2.801   2.849   9.422 -0.3111  0.2993  0.3833
 8850SOL    HW138186   2.893   2.840   9.399 -0.5194  1.3654 -0.8341
 8850SOL    HW238187   2.784   2.758   9.448  0.6613  0.6150  2.1455
 8851SOL     OW38188   3.809   1.785   6.050  0.1902 -0.4523 -0.3985
 8851SOL    HW138189   3.810   1.794   6.145 -0.1812  0.3027 -0.4634
 8851SOL    HW238190   3.791   1.691   6.049  2.3126 -0.8956  2.2736
 8852SOL     OW38191   1.011   4.023   1.367 -0.2423  0.0112  0.5848
 8852SOL    HW138192   1.024   4.114   1.395  0.6503  0.3424 -0.8434
 8852SOL    HW238193   1.043   3.969   1.439 -0.2487 -0.8326 -0.0421
 8853SOL     OW38194   1.495   1.989   5.482  0.7068 -0.7463  1.0943
 8853SOL    HW138195   1.503   1.956   5.393  1.0842 -1.4187  1.3755
 8853SOL    HW238196   1.559   2.059   5.476  0.2036 -0.3394  0.5365
 8854SOL     OW38197   0.331   4.124   3.516 -0.3445  0.2363  0.4348
 8854SOL    HW138198   0.365   4.064   3.582  1.4229 -0.0870 -0.7702
 8854SOL    HW238199   0.410   4.138   3.464  0.1956  0.0204  1.2142
 8855SOL     OW38200   0.548   2.948   7.850  0.0911 -0.8596  0.4204
 8855SOL    HW138201   0.634   2.965   7.812  0.2458  2.0539  2.1277
 8855SOL    HW238202   0.551   2.864   7.895  0.5291  0.1275  2.2353
 8856SOL     OW38203   2.861   3.497   6.233 -0.6661  0.4498 -0.4444
 8856SOL    HW138204   2.773   3.468   6.259  0.1940 -1.3601  0.4566
 8856SOL    HW238205   2.912   3.418   6.250  1.1011  1.6316 -0.2703
 8857SOL     OW38206   4.450   3.397   4.658  0.0306 -0.0716  0.1321
 8857SOL    HW138207   4.413   3.308   4.659 -0.3942  0.1185  0.8970
 8857SOL    HW238208   4.500   3.380   4.738  0.6263  1.5925  0.1002
 8858SOL     OW38209   2.002   1.935  13.073 -0.5817 -0.5570  0.4406
 8858SOL    HW138210   2.049   1.875  13.014  1.1606  2.4969 -1.2671
 8858SOL    HW238211   2.069   2.002  13.085 -0.1388 -0.1669 -4.1505
 8859SOL     OW38212   0.814   2.205   1.562  0.6161 -0.4519  0.9497
 8859SOL    HW138213   0.882   2.272   1.552 -1.6597  1.5815 -1.0099
 8859SOL    HW238214   0.747   2.260   1.603  0.2261 -1.4036  1.5884
 8860SOL     OW38215   1.457   3.051   7.851 -0.3095 -0.0242  0.3652
 8860SOL    HW138216   1.370   3.076   7.883 -0.2993  1.2747 -0.6465
 8860SOL    HW238217   1.441   3.048   7.757  0.5069 -0.4695  0.2382
 8861SOL     OW38218   0.221   4.256   7.295 -0.5407  0.1014  0.2361
 8861SOL    HW138219   0.192   4.203   7.369  1.2936 -1.4931 -0.1794
 8861SOL    HW238220   0.316   4.242   7.293 -0.0447  3.4636  0.6417
 8862SOL     OW38221   4.234   3.667  16.564 -0.1700  0.3325  0.0424
 8862SOL    HW138222   4.266   3.594  16.510 -0.1408  0.0624  0.4262
 8862SOL    HW238223   4.264   3.746  16.520  0.1581  0.0734 -0.1994
 8863SOL     OW38224   3.347   0.978   9.785  0.2668 -0.5144 -0.4536
 8863SOL    HW138225   3.438   0.950   9.798  0.0904 -0.5545  0.6526
 8863SOL    HW238226   3.355   1.068   9.752  0.6994 -0.2649  0.3207
 8864SOL     OW38227   2.912   0.297   2.662  0.1690  0.3223  0.0466
 8864SOL    HW138228   2.865   0.254   2.590  0.3585 -1.7736  1.2019
 8864SOL    HW238229   2.832   0.339   2.693 -1.0887 -1.6358 -0.5548
 8865SOL     OW38230   0.286   1.278   5.354 -0.0381 -0.0123 -0.0755
 8865SOL    HW138231   0.364   1.224   5.350 -0.8025 -0.9888 -1.7725
 8865SOL    HW238232   0.265   1.267   5.447  1.0539  0.2974  0.2072
 8866SOL     OW38233   0.329   0.935   4.619  0.0988 -0.3681  0.4947
 8866SOL    HW138234   0.367   0.887   4.692  0.3012 -1.0048 -0.0382
 8866SOL    HW238235   0.405   0.979   4.581 -0.2990 -1.2500 -1.3153
 8867SOL     OW38236   1.325   0.253   1.923  0.5341  0.2000  0.0957
 8867SOL    HW138237   1.240   0.209   1.917  1.3186 -1.5088  1.8244
 8867SOL    HW238238   1.294   0.344   1.918  0.6860  0.2395 -0.1724
 8868SOL     OW38239   0.837   2.139   4.504 -0.1439  0.1758 -0.2382
 8868SOL    HW138240   0.862   2.135   4.412 -1.5943  1.3339 -0.6727
 8868SOL    HW238241   0.765   2.202   4.500 -0.4602 -0.0953  1.2800
 8869SOL     OW38242   3.682   3.567   1.440  0.6244  0.6182 -0.1084
 8869SOL    HW138243   3.713   3.547   1.352  0.9541  0.5527  0.0209
 8869SOL    HW238244   3.590   3.563   1.416 -0.0790  0.4794  2.6012
 8870SOL     OW38245   0.669   2.050   3.908 -0.0626  0.1578  0.0730
 8870SOL    HW138246   0.747   1.995   3.907 -0.5661 -0.5377 -0.3860
 8870SOL    HW238247   0.674   2.104   3.988 -0.0548  0.1453  0.0809
 8871SOL     OW38248   3.001   3.575   7.058  0.4467  0.4605  0.4534
 8871SOL    HW138249   3.003   3.537   6.970  1.6265  2.1324 -0.2246
 8871SOL    HW238250   2.953   3.502   7.098 -0.2815  1.6265  1.7152
 8872SOL     OW38251   0.159   0.382   6.336  0.2445  0.2296 -0.3296
 8872SOL    HW138252   0.141   0.352   6.247  0.1732 -0.3679 -0.1133
 8872SOL    HW238253   0.078   0.424   6.363  0.6958  2.1165 -1.8616
 8873SOL     OW38254   0.594   2.519   4.885 -0.1894  1.0189  0.5661
 8873SOL    HW138255   0.649   2.447   4.917 -1.0162  0.2936  0.3833
 8873SOL    HW238256   0.580   2.496   4.793  0.6491  1.2965  0.3671
 8874SOL     OW38257   2.621   0.063  12.142  0.0148 -0.1098 -0.0922
 8874SOL    HW138258   2.537   0.041  12.182  1.4807 -3.4387  1.1729
 8874SOL    HW238259   2.622   0.157  12.156 -0.6378 -0.3712  1.7546
 8875SOL     OW38260   2.686   1.010   8.329  0.4529 -0.3450  1.0042
 8875SOL    HW138261   2.759   0.983   8.274 -1.3051 -2.5471 -0.2458
 8875SOL    HW238262   2.622   0.939   8.340  1.0485 -1.2415 -1.3717
 8876SOL     OW38263   2.783   2.544   1.825  0.3580 -0.2456  0.1358
 8876SOL    HW138264   2.697   2.579   1.845  0.3748  1.1350 -2.1421
 8876SOL    HW238265   2.785   2.459   1.870 -0.1400 -0.6561 -0.6132
 8877SOL     OW38266   4.275   4.291   7.629  0.5178  0.0192  0.0254
 8877SOL    HW138267   4.253   4.337   7.710 -0.3307  0.1988 -0.3047
 8877SOL    HW238268   4.195   4.302   7.578 -0.9325  0.2463  2.3652
 8878SOL     OW38269   0.910   4.011   5.992 -0.2297 -0.4491 -0.1476
 8878SOL    HW138270   0.962   4.055   6.059  1.0853 -0.9709 -0.8369
 8878SOL    HW238271   0.835   3.979   6.043  0.8705  0.7080  2.1910
 8879SOL     OW38272   2.951   1.260   7.981  0.3454 -0.6300  0.1571
 8879SOL    HW138273   2.860   1.234   7.997 -0.3141  0.8551 -1.0833
 8879SOL    HW238274   2.948   1.281   7.887 -0.9293 -0.4575  0.2318
 8880SOL     OW38275   0.632   0.518   9.211  0.2860 -0.4621  0.3756
 8880SOL    HW138276   0.696   0.586   9.235  2.1584 -1.5749 -1.5190
 8880SOL    HW238277   0.566   0.526   9.280  1.3902 -1.0281  1.4959
 8881SOL     OW38278   1.337   3.380   8.773  0.4833 -0.5873  0.4556
 8881SOL    HW138279   1.361   3.289   8.755 -1.8713 -1.5948  2.3813
 8881SOL    HW238280   1.268   3.362   8.838 -1.0513 -0.2725 -1.0750
 8882SOL     OW38281   2.625   1.610  15.050 -0.1654 -0.5715  0.1239
 8882SOL    HW138282   2.677   1.656  15.116 -3.4786  1.8338  1.0559
 8882SOL    HW238283   2.629   1.520  15.082 -1.7027 -0.9891 -0.8821
 8883SOL     OW38284   3.422   1.996   6.311  0.5277  0.4905  0.6345
 8883SOL    HW138285   3.481   2.069   6.330  0.0324  0.9706  0.3276
 8883SOL    HW238286   3.361   2.037   6.250  0.7763 -0.3214 -0.1512
 8884SOL     OW38287   4.291   1.192   4.253  0.1025 -0.3426 -0.3707
 8884SOL    HW138288   4.197   1.206   4.250  0.2486  0.2479 -1.9996
 8884SOL    HW238289   4.339   1.255   4.199 -1.6445  2.3888  1.2930
 8885SOL     OW38290   2.897   0.370   2.261 -0.1594 -0.1910 -0.0528
 8885SOL    HW138291   2.816   0.328   2.232  0.4305 -1.1500 -0.3119
 8885SOL    HW238292   2.952   0.354   2.184 -1.3140 -0.7618 -0.7454
 8886SOL     OW38293   1.926   3.152   2.179 -0.4982 -0.1416  0.4117
 8886SOL    HW138294   1.960   3.063   2.169  0.2006  0.1144  0.5059
 8886SOL    HW238295   1.836   3.131   2.157 -0.9238 -0.6730  2.6768
 8887SOL     OW38296   4.485   4.170   7.029 -0.3296 -0.4079 -0.4062
 8887SOL    HW138297   4.545   4.197   7.099 -2.0169 -1.0767  1.2982
 8887SOL    HW238298   4.465   4.080   7.053  0.0061 -1.0149 -2.4013
 8888SOL     OW38299   1.130   2.228   9.079  0.2344 -0.4256 -0.6126
 8888SOL    HW138300   1.100   2.185   9.159  1.9302  2.1230  1.3955
 8888SOL    HW238301   1.216   2.257   9.112 -0.4435  1.3080 -0.4116
 8889SOL     OW38302   4.516   1.416   0.371 -0.0268  0.6609  0.6028
 8889SOL    HW138303   4.532   1.362   0.294  2.0006 -0.8068  2.0611
 8889SOL    HW238304   4.483   1.346   0.428  0.7075 -1.1839 -1.2266
 8890SOL     OW38305   1.704   0.844   8.872  0.1918 -0.5374 -0.2002
 8890SOL    HW138306   1.713   0.755   8.837 -1.7252 -0.5696 -0.6269
 8890SOL    HW238307   1.652   0.884   8.803  0.6132 -2.0818 -1.4067
 8891SOL     OW38308   2.267   0.342   6.362 -0.2265  0.0058 -0.1580
 8891SOL    HW138309   2.188   0.304   6.401  0.9474 -0.9393  1.2839
 8891SOL    HW238310   2.235   0.358   6.273  0.9158 -1.2262 -0.7933
 8892SOL     OW38311   3.635   1.872  15.543 -0.0862 -0.0403  0.1339
 8892SOL    HW138312   3.633   1.833  15.631 -3.0879  0.3642  0.2613
 8892SOL    HW238313   3.729   1.859  15.532 -0.2982 -1.9793  0.6404
 8893SOL     OW38314   1.163   4.020   2.987  0.2522 -0.3634 -0.1590
 8893SOL    HW138315   1.236   4.060   2.939  0.3907  0.6147  0.8548
 8893SOL    HW238316   1.086   4.039   2.933 -0.4160  1.8935  1.5607
 8894SOL     OW38317   0.263   3.601   8.080 -0.5596  0.3730  0.4608
 8894SOL    HW138318   0.226   3.518   8.111 -1.5968  0.9626  0.7958
 8894SOL    HW238319   0.181   3.638   8.047 -0.2911 -1.8222 -2.6709
 8895SOL     OW38320   0.686   0.617   5.949 -0.2025  0.1465  0.3940
 8895SOL    HW138321   0.773   0.655   5.962 -0.7384  1.2426  0.7550
 8895SOL    HW238322   0.658   0.650   5.863  0.2515  1.5524  0.7834
 8896SOL     OW38323   4.348   2.201   5.967 -0.0241  0.4589 -0.1679
 8896SOL    HW138324   4.419   2.138   5.981 -0.9448 -0.2574  1.2608
 8896SOL    HW238325   4.402   2.278   5.948  0.6777  0.1810  0.7143
 8897SOL     OW38326   4.238   0.895   4.387  0.0550 -0.1658  1.0058
 8897SOL    HW138327   4.313   0.937   4.429  0.4484  0.5944 -0.4667
 8897SOL    HW238328   4.266   0.804   4.397 -0.0827 -0.1998  1.0831
 8898SOL     OW38329   4.323   4.102   1.856  0.2299  0.0681 -0.1546
 8898SOL    HW138330   4.406   4.131   1.818  1.1755 -2.8501 -0.3002
 8898SOL    HW238331   4.355   4.081   1.943 -3.6123  2.0451  1.7486
 8899SOL     OW38332   1.473   1.770   9.758  0.2818  0.3628  0.1261
 8899SOL    HW138333   1.536   1.842   9.748 -0.3115  0.2558 -4.6852
 8899SOL    HW238334   1.392   1.789   9.711 -0.7682  1.6185  2.4592
 8900SOL     OW38335   1.955   2.898   2.949 -0.7471  0.3997 -0.1567
 8900SOL    HW138336   2.044   2.866   2.968 -0.9219  0.3945  0.6540
 8900SOL    HW238337   1.947   2.960   3.022  1.5097  1.6833 -0.9872
 8901SOL     OW38338   4.090   0.048   9.316 -0.0046  0.4832  0.4057
 8901SOL    HW138339   4.157   0.074   9.253  1.3070  0.3287  1.7420
 8901SOL    HW238340   4.059   0.138   9.328  1.0674  1.2023 -2.2152
 8902SOL     OW38341   3.007   1.223   5.470  0.6481  0.1688  0.0392
 8902SOL    HW138342   2.997   1.303   5.418 -3.9698  0.8023  1.8607
 8902SOL    HW238343   2.983   1.160   5.402  0.3526 -0.8614  1.1030
 8903SOL     OW38344   1.090   0.435   7.326  0.4116 -0.2092 -0.3716
 8903SOL    HW138345   1.147   0.364   7.354  0.0838  0.1766  1.2488
 8903SOL    HW238346   1.129   0.512   7.368 -0.7433 -0.2821  0.8269
 8904SOL     OW38347   4.597   0.194  11.642  0.5377  0.2085  0.7526
 8904SOL    HW138348   4.586   0.240  11.725  0.8995 -0.8718  1.4101
 8904SOL    HW238349   4.636   0.264  11.589  0.8970 -0.2970  0.3464
 8905SOL     OW38350   4.596   3.297   3.356  0.0571 -0.1269  0.1883
 8905SOL    HW138351   4.637   3.355   3.419  2.0040 -2.0507  0.6982
 8905SOL    HW238352   4.507   3.295   3.391 -0.1665  2.0421 -0.2713
 8906SOL     OW38353   1.783   4.129  12.410  0.1140 -0.2449 -0.7107
 8906SOL    HW138354   1.815   4.214  12.441 -1.5232 -0.0434  0.4720
 8906SOL    HW238355   1.770   4.074  12.487 -0.7429 -1.2183 -1.5478
 8907SOL     OW38356   4.051   3.896   6.896  0.4819  1.0744 -0.5489
 8907SOL    HW138357   3.963   3.889   6.933  0.2196  1.8203 -1.0184
 8907SOL    HW238358   4.110   3.864   6.964 -0.5126 -0.5184 -0.4337
 8908SOL     OW38359   4.203   2.231  14.788  0.3124 -0.1297 -0.0316
 8908SOL    HW138360   4.296   2.225  14.809  0.3027  1.3363  0.4894
 8908SOL    HW238361   4.170   2.271  14.869  0.6817 -4.1989  2.1426
 8909SOL     OW38362   2.280   2.537   6.117 -0.2295 -0.1114  0.0498
 8909SOL    HW138363   2.228   2.577   6.047 -0.0495  1.3545  0.7585
 8909SOL    HW238364   2.318   2.611   6.164  0.1970 -0.5011  0.3128
 8910SOL     OW38365   4.441   0.111  13.805  0.0015  0.2319  0.0833
 8910SOL    HW138366   4.427   0.124  13.899  0.6302 -0.0079  0.2152
 8910SOL    HW238367   4.418   0.199  13.773 -1.6899 -0.3978 -0.4157
 8911SOL     OW38368   4.452   1.825  13.400  0.4193  0.2529  0.6247
 8911SOL    HW138369   4.420   1.881  13.330  0.0878  0.1238  0.6755
 8911SOL    HW238370   4.543   1.855  13.407  0.4548 -0.2852  2.5539
 8912SOL     OW38371   3.498   3.309   2.219  0.7025 -0.2777 -0.4880
 8912SOL    HW138372   3.449   3.373   2.271 -1.6647 -1.7554 -0.9048
 8912SOL    HW238373   3.545   3.361   2.153 -0.4936  0.9236 -0.4020
 8913SOL     OW38374   1.120   2.443   7.004 -0.9148 -0.4757 -0.4200
 8913SOL    HW138375   1.030   2.442   6.973 -1.6677  2.5792  1.7420
 8913SOL    HW238376   1.149   2.351   6.999 -0.1017 -0.2254 -0.2689
 8914SOL     OW38377   0.568   1.737   9.182 -0.1506 -0.6817 -0.2821
 8914SOL    HW138378   0.585   1.763   9.272 -1.1308 -2.3785  0.4027
 8914SOL    HW238379   0.554   1.642   9.187 -1.7962 -0.3961  0.5312
 8915SOL     OW38380   2.627   2.116   3.244  0.2928  0.1663  0.0883
 8915SOL    HW138381   2.590   2.088   3.160  1.2753 -2.2589  0.4788
 8915SOL    HW238382   2.668   2.033   3.265  0.4079  0.0590 -0.5719
 8916SOL     OW38383   1.297   0.017   6.341  0.1858 -0.0483  0.4146
 8916SOL    HW138384   1.331   0.080   6.277 -0.9697 -0.8353 -0.9542
 8916SOL    HW238385   1.251   4.708   6.272  1.6051 -1.0843  0.1760
 8917SOL     OW38386   4.534   3.568   1.877  0.1520 -0.3164  0.2335
 8917SOL    HW138387   4.516   3.577   1.970 -1.7894  1.0507 -0.2847
 8917SOL    HW238388   4.534   3.472   1.873  0.5906 -0.3101 -0.0253
 8918SOL     OW38389   0.030   1.779  17.299 -0.1681 -0.0234 -0.3280
 8918SOL    HW138390   0.064   1.865  17.322 -1.8107 -0.3062  3.1918
 8918SOL    HW238391   0.039   1.736  17.384 -0.7347 -0.2476 -0.3772
 8919SOL     OW38392   0.467   1.465   8.857  0.1886 -0.2381  0.7392
 8919SOL    HW138393   0.473   1.373   8.830  0.2665 -0.4109  1.3546
 8919SOL    HW238394   0.388   1.462   8.910 -0.3965  1.0413 -0.0392
 8920SOL     OW38395   0.844   2.445   6.911  0.5353  0.1916 -0.0469
 8920SOL    HW138396   0.833   2.370   6.852 -1.4659 -0.5560  1.2936
 8920SOL    HW238397   0.799   2.513   6.861 -1.0211 -0.2318  0.8025
 8921SOL     OW38398   4.715   0.385   2.687  0.1309 -0.2490 -0.7048
 8921SOL    HW138399   4.731   0.452   2.754  2.4465  0.0706 -1.5796
 8921SOL    HW238400   0.069   0.370   2.662 -0.3268 -2.3196 -1.0980
 8922SOL     OW38401   0.792   4.165  13.671  0.4643 -0.3038 -0.0652
 8922SOL    HW138402   0.753   4.244  13.633 -0.4305 -0.6443  0.1416
 8922SOL    HW238403   0.778   4.173  13.765 -1.1050  1.0449 -0.4001
 8923SOL     OW38404   3.473   2.980   0.672  0.2385  0.3853  0.2177
 8923SOL    HW138405   3.521   3.062   0.684  0.8366 -0.1503  1.4914
 8923SOL    HW238406   3.484   2.938   0.758 -2.0733 -0.3167  0.1761
 8924SOL     OW38407   3.686   1.793   4.919 -0.2407 -0.0915  0.4157
 8924SOL    HW138408   3.676   1.877   4.874 -0.1598 -0.8080 -0.9203
 8924SOL    HW238409   3.777   1.763   4.909 -0.3361 -0.7555  1.5889
 8925SOL     OW38410   2.959   1.732   5.324  0.2160 -0.7380  0.1330
 8925SOL    HW138411   2.868   1.731   5.295  0.4488  0.0234 -0.6330
 8925SOL    HW238412   3.015   1.757   5.250 -1.4919  2.1457 -0.1470
 8926SOL     OW38413   2.641   4.288   4.887 -0.2664 -0.0962 -0.0493
 8926SOL    HW138414   2.551   4.276   4.859 -0.7429  1.6440  0.7565
 8926SOL    HW238415   2.644   4.218   4.952  0.3689  0.1333  0.1720
 8927SOL     OW38416   1.971   0.593   9.088 -0.4697  0.1235  0.2300
 8927SOL    HW138417   1.892   0.595   9.141 -1.8990 -1.0687 -1.8074
 8927SOL    HW238418   2.020   0.529   9.139 -0.3104 -0.5874 -0.8012
 8928SOL     OW38419   3.135   0.223   2.230 -0.2921 -0.0218 -0.1176
 8928SOL    HW138420   3.116   0.145   2.177  0.2648 -0.0434 -0.2843
 8928SOL    HW238421   3.107   0.194   2.317  2.2810  0.5356  0.8948
 8929SOL     OW38422   4.336   4.246   3.402  0.0875 -0.0460 -0.3403
 8929SOL    HW138423   4.314   4.162   3.361 -0.9279 -0.1289  0.3697
 8929SOL    HW238424   4.411   4.209   3.450  0.4776 -0.3046 -1.1539
 8930SOL     OW38425   3.386   3.853   5.018 -0.2710  0.1601 -0.1513
 8930SOL    HW138426   3.418   3.867   4.929  0.5005 -1.7929 -0.1735
 8930SOL    HW238427   3.463   3.814   5.058 -1.0346  0.0073  1.1666
 8931SOL     OW38428   2.183   4.697   2.660  0.0646  0.1226  0.0196
 8931SOL    HW138429   2.243   4.660   2.724 -0.0858  3.2055  1.9493
 8931SOL    HW238430   2.190   0.053   2.682 -0.0497 -0.0692  0.8589
 8932SOL     OW38431   0.561   0.906   7.903  0.6381 -0.2644  0.0373
 8932SOL    HW138432   0.598   0.905   7.991  0.9190  0.0936 -0.0747
 8932SOL    HW238433   0.516   0.991   7.906 -1.5643 -1.4739  1.2530
 8933SOL     OW38434   3.268   0.622  17.481  0.9671 -1.1250  0.1490
 8933SOL    HW138435   3.225   0.689  17.534 -1.0888 -1.5603 -0.9592
 8933SOL    HW238436   3.301   0.674  17.407 -0.4362 -2.3881 -1.3577
 8934SOL     OW38437   1.431   0.203  15.177  0.1253 -0.3729 -0.0937
 8934SOL    HW138438   1.486   0.233  15.249  2.3213 -0.3059 -1.7939
 8934SOL    HW238439   1.493   0.159  15.118  1.1571 -0.5278  1.1002
 8935SOL     OW38440   1.557   2.470   1.104 -0.4108  0.7637  0.1548
 8935SOL    HW138441   1.533   2.386   1.064 -0.3214  1.5131 -1.4699
 8935SOL    HW238442   1.612   2.511   1.038  0.6072 -1.1974 -0.2275
 8936SOL     OW38443   3.520   2.677   6.526  0.5483 -0.4684  0.3082
 8936SOL    HW138444   3.428   2.688   6.502  0.5022  0.0613  0.7216
 8936SOL    HW238445   3.564   2.647   6.446  0.0935 -2.1617  0.7028
 8937SOL     OW38446   3.784   4.391   9.157  0.2022  0.2257 -0.2187
 8937SOL    HW138447   3.813   4.472   9.116  0.0825 -0.0998 -0.9339
 8937SOL    HW238448   3.829   4.325   9.104 -0.3879 -0.1010 -0.3138
 8938SOL     OW38449   0.340   1.084   0.958 -0.8563 -0.3416 -0.3447
 8938SOL    HW138450   0.419   1.135   0.979 -1.1311  0.2219 -0.6892
 8938SOL    HW238451   0.315   1.058   1.047 -0.7574 -1.4878 -0.6477
 8939SOL     OW38452   0.133   1.888   3.273 -0.0707  0.1420 -0.0030
 8939SOL    HW138453   0.148   1.851   3.359  0.9372  1.7555  0.5133
 8939SOL    HW238454   0.046   1.928   3.282  0.7288  2.0899 -0.8956
 8940SOL     OW38455   1.420   2.612   4.346  0.3284  0.5247  0.4237
 8940SOL    HW138456   1.391   2.527   4.377 -1.6385  0.9513 -0.2599
 8940SOL    HW238457   1.509   2.618   4.382  0.6134 -1.9332  0.0876
 8941SOL     OW38458   3.804   2.568   7.346  0.6635 -0.1104 -0.2854
 8941SOL    HW138459   3.726   2.522   7.376  2.0036 -0.9692  1.9338
 8941SOL    HW238460   3.860   2.568   7.424 -0.1864  1.0829  0.3222
 8942SOL     OW38461   1.716   4.058   5.012 -0.3249 -0.4490  0.1874
 8942SOL    HW138462   1.735   3.999   4.939 -0.6988 -0.2310 -0.0871
 8942SOL    HW238463   1.675   4.137   4.976  1.1878  0.3717  0.2318
 8943SOL     OW38464   0.484   2.656  16.634  0.1514  0.2893  0.7066
 8943SOL    HW138465   0.425   2.700  16.572  1.6884  0.2282 -0.8160
 8943SOL    HW238466   0.429   2.653  16.712  1.0698 -1.4252  1.2833
 8944SOL     OW38467   2.402   4.287   4.773 -0.8808 -0.0276  0.3330
 8944SOL    HW138468   2.318   4.285   4.818 -1.5451  1.7778 -0.8220
 8944SOL    HW238469   2.389   4.352   4.704  1.2362 -0.5907 -0.6110
 8945SOL     OW38470   3.426   2.946   3.085 -0.0443 -0.5782 -0.0891
 8945SOL    HW138471   3.454   2.926   2.996 -1.0115 -0.2330 -0.4685
 8945SOL    HW238472   3.511   2.944   3.129 -0.4790 -0.5311  0.7674
 8946SOL     OW38473   0.003   4.511   2.983  0.5271 -0.1354  0.7518
 8946SOL    HW138474   4.659   4.479   2.944  0.5507 -0.4822  0.9848
 8946SOL    HW238475   4.710   4.602   2.985  0.3225 -0.2108  1.2557
 8947SOL     OW38476   1.236   2.863   0.147 -0.7230 -0.3272 -0.2588
 8947SOL    HW138477   1.232   2.913   0.065 -1.6739 -0.8088 -0.5068
 8947SOL    HW238478   1.220   2.940   0.202  1.0919 -0.2701  0.1852
 8948SOL     OW38479   2.915   1.532   0.807  0.0637  0.2983  0.3754
 8948SOL    HW138480   2.862   1.484   0.871 -0.4581  2.4733  1.5803
 8948SOL    HW238481   2.966   1.467   0.760 -1.0330 -0.2882 -0.0156
 8949SOL     OW38482   0.058   4.604   6.302  1.1775  0.0307  0.2612
 8949SOL    HW138483   0.022   4.594   6.390  1.3559 -0.6376  0.2620
 8949SOL    HW238484   4.726   4.562   6.250  0.6288 -0.9552  1.8053
 8950SOL     OW38485   2.139   1.282   5.297 -0.0416  0.2547  0.5057
 8950SOL    HW138486   2.086   1.202   5.294 -1.1790  1.0742 -1.5137
 8950SOL    HW238487   2.212   1.239   5.342 -1.0004 -0.8147  1.0505
 8951SOL     OW38488   0.714   1.569  16.645 -0.0530  0.5798  0.3102
 8951SOL    HW138489   0.669   1.520  16.714 -1.4033 -0.3695 -1.2588
 8951SOL    HW238490   0.680   1.659  16.647  1.8059  1.2997 -0.5327
 8952SOL     OW38491   0.976   2.483   2.201  0.4780 -0.0646 -0.4091
 8952SOL    HW138492   0.983   2.389   2.220  1.6087  0.3045  0.9768
 8952SOL    HW238493   1.061   2.507   2.163 -0.4922  1.3597 -1.6973
 8953SOL     OW38494   2.191   0.546   9.729 -0.2546 -0.3160  0.0378
 8953SOL    HW138495   2.209   0.462   9.688 -1.4254 -0.2994 -0.5221
 8953SOL    HW238496   2.183   0.606   9.654  3.6587  0.3097  0.1133
 8954SOL     OW38497   2.175   1.121   3.681  0.3057  0.7535  0.4016
 8954SOL    HW138498   2.147   1.078   3.762 -2.3006  1.5058 -0.1174
 8954SOL    HW238499   2.128   1.067   3.618  1.8864 -0.3747  0.1828
 8955SOL     OW38500   0.336   2.266   6.018 -0.4209  0.0352 -0.2252
 8955SOL    HW138501   0.400   2.198   5.998 -0.9474 -0.6829  0.5685
 8955SOL    HW238502   0.322   2.255   6.112 -1.0912  0.1869 -0.3100
 8956SOL     OW38503   4.251   1.218   6.362  0.3057  0.2956  0.0006
 8956SOL    HW138504   4.162   1.185   6.373 -0.6643  2.6178 -0.7935
 8956SOL    HW238505   4.233   1.295   6.308  1.2539  0.3091 -0.3045
 8957SOL     OW38506   0.943   4.122  16.750 -0.3388 -0.2119 -0.1972
 8957SOL    HW138507   0.909   4.125  16.660 -1.1895  0.1687  0.1442
 8957SOL    HW238508   0.870   4.158  16.800  0.7455 -2.3457  2.9025
 8958SOL     OW38509   4.599   1.197   3.883  0.7920 -0.5030 -0.7566
 8958SOL    HW138510   4.636   1.114   3.853  1.4210  0.4249 -2.5582
 8958SOL    HW238511   4.506   1.178   3.868  1.1494 -2.1122 -0.9157
 8959SOL     OW38512   1.362   2.899   4.771 -0.1936 -0.1561 -0.2405
 8959SOL    HW138513   1.339   2.992   4.777 -2.2273 -0.6544 -0.0876
 8959SOL    HW238514   1.441   2.891   4.718  0.6780  1.6845  0.7904
 8960SOL     OW38515   0.603   3.875   8.808 -0.2975  0.4767 -0.2860
 8960SOL    HW138516   0.554   3.944   8.854  3.2182  3.0125 -0.3762
 8960SOL    HW238517   0.528   3.832   8.768  0.4962 -0.4772 -0.7327
 8961SOL     OW38518   3.118   1.025   3.390  0.5677  0.2656 -0.3594
 8961SOL    HW138519   3.153   1.114   3.379  1.2479  0.0298 -0.0596
 8961SOL    HW238520   3.100   0.995   3.301 -0.4416  1.5373 -0.5951
 8962SOL     OW38521   3.154   2.476  10.725 -0.2573  0.2320 -0.6176
 8962SOL    HW138522   3.088   2.409  10.743  0.5104 -0.7389 -1.4189
 8962SOL    HW238523   3.146   2.474  10.630 -1.9510  2.3528 -0.5145
 8963SOL     OW38524   2.901   1.943  11.532  0.2838 -0.3480  0.1138
 8963SOL    HW138525   2.838   1.873  11.547  0.9688 -1.3785 -1.8248
 8963SOL    HW238526   2.966   1.899  11.477  1.6244  0.1105  1.3386
 8964SOL     OW38527   2.076   3.375   3.816  0.1313  0.2153  0.2798
 8964SOL    HW138528   2.085   3.327   3.898  0.6414 -0.1721 -0.0035
 8964SOL    HW238529   2.102   3.306   3.756 -0.5689 -0.2076  0.4563
 8965SOL     OW38530   0.181   0.576  12.038 -0.0974 -0.4339  0.4663
 8965SOL    HW138531   0.149   0.657  11.997  2.5101  0.3843  0.0454
 8965SOL    HW238532   0.275   0.588  12.029 -0.1946 -0.0918 -0.1413
 8966SOL     OW38533   3.627   1.173   0.345 -0.3926  0.0807 -0.5411
 8966SOL    HW138534   3.605   1.124   0.266  3.2571  0.6448 -1.9002
 8966SOL    HW238535   3.683   1.105   0.382 -2.0028 -0.8720  0.1416
 8967SOL     OW38536   1.118   2.901   3.426  0.6232  0.1626  0.2731
 8967SOL    HW138537   1.175   2.825   3.412  1.1122  0.9405 -2.0167
 8967SOL    HW238538   1.027   2.876   3.413  0.8332 -0.0934 -0.6589
 8968SOL     OW38539   3.119   0.184   2.491  0.2850  0.0221 -0.1284
 8968SOL    HW138540   3.064   0.251   2.531  0.1916 -0.5847  0.7588
 8968SOL    HW238541   3.204   0.198   2.535  0.3353 -0.8793  0.0641
 8969SOL     OW38542   4.013   1.248   8.677  0.0952 -0.2941 -0.2669
 8969SOL    HW138543   4.070   1.191   8.729  0.7654  1.6811  1.1835
 8969SOL    HW238544   3.922   1.221   8.688  0.1257 -0.2608  0.0579
 8970SOL     OW38545   0.718   0.604   6.359  0.1101 -0.1138 -0.3747
 8970SOL    HW138546   0.772   0.683   6.358  0.7420 -0.5513 -0.1528
 8970SOL    HW238547   0.744   0.559   6.439  3.4068  0.4455 -1.1648
 8971SOL     OW38548   0.419   0.332  15.759  0.8413  0.4686 -0.0789
 8971SOL    HW138549   0.361   0.256  15.760  1.3418  0.0907  0.2788
 8971SOL    HW238550   0.428   0.340  15.854  1.5411  0.6903 -0.1659
 8972SOL     OW38551   0.204   0.336   2.999  0.0268  0.2640 -0.7748
 8972SOL    HW138552   0.275   0.302   2.945  0.1651 -0.9767  0.1842
 8972SOL    HW238553   0.165   0.258   3.039  1.9368 -1.4653 -2.3237
 8973SOL     OW38554   3.570   1.573   3.259 -0.4499 -0.3531 -0.1739
 8973SOL    HW138555   3.578   1.478   3.260  2.1007 -0.1321 -0.1681
 8973SOL    HW238556   3.664   1.590   3.265 -0.3718 -1.4656  1.5930
 8974SOL     OW38557   1.358   0.231   6.869  0.0656 -0.8448  0.2200
 8974SOL    HW138558   1.275   0.221   6.915 -0.4963 -2.3247 -1.1032
 8974SOL    HW238559   1.369   0.144   6.831  0.0577 -1.1190  0.8415
 8975SOL     OW38560   2.130   2.834  14.400  0.1525  0.2594 -0.1895
 8975SOL    HW138561   2.047   2.880  14.413 -1.2819 -2.0658 -1.1120
 8975SOL    HW238562   2.094   2.746  14.390  0.6080  0.1200 -0.6147
 8976SOL     OW38563   1.591   1.445  11.678 -0.2505 -0.5736  0.2108
 8976SOL    HW138564   1.641   1.455  11.597  1.3385 -0.2968  1.2225
 8976SOL    HW238565   1.503   1.478  11.660 -0.1766 -0.8696 -0.6771
 8977SOL     OW38566   1.410   4.173   0.866 -0.0544 -0.5191 -0.5653
 8977SOL    HW138567   1.433   4.141   0.953  1.1580  1.5244 -0.1393
 8977SOL    HW238568   1.360   4.101   0.827  1.0202 -1.1329 -0.7956
 8978SOL     OW38569   2.233   2.188   1.989 -0.5643 -0.4873  0.1532
 8978SOL    HW138570   2.222   2.280   1.967  1.8944 -0.1914  0.1730
 8978SOL    HW238571   2.159   2.169   2.047  1.1465  0.7043  2.7171
 8979SOL     OW38572   1.485   3.137   0.770  0.8439 -0.2093 -0.0696
 8979SOL    HW138573   1.423   3.107   0.836  0.0750  2.7551  0.5665
 8979SOL    HW238574   1.564   3.111   0.817  0.7262 -0.5889 -0.0835
 8980SOL     OW38575   2.786   3.344   3.178  0.1569  0.0655  0.4066
 8980SOL    HW138576   2.806   3.323   3.086  1.0483  0.8075  0.4307
 8980SOL    HW238577   2.819   3.433   3.186 -1.0547  0.6754 -1.3580
 8981SOL     OW38578   4.442   0.189   4.193 -0.3662 -0.6166 -0.0573
 8981SOL    HW138579   4.496   0.113   4.216 -1.8192 -1.5349  0.4000
 8981SOL    HW238580   4.436   0.160   4.102 -0.2986 -1.0249  0.0650
 8982SOL     OW38581   1.286   4.477  15.853  0.2276  0.2056  0.0408
 8982SOL    HW138582   1.237   4.518  15.781 -1.1684 -0.5359  0.5627
 8982SOL    HW238583   1.357   4.538  15.868 -0.2458  0.2594  1.9975
 8983SOL     OW38584   1.654   2.161   4.069 -0.4265  0.2895 -0.2767
 8983SOL    HW138585   1.584   2.224   4.053 -0.0362  0.8085  0.0322
 8983SOL    HW238586   1.712   2.211   4.126 -1.6863  0.7439  0.6010
 8984SOL     OW38587   3.689   0.287   0.525 -0.1057  0.4457 -0.0514
 8984SOL    HW138588   3.737   0.229   0.466 -0.7899  0.2364 -0.4067
 8984SOL    HW238589   3.602   0.291   0.486 -0.8314  0.0227  1.5116
 8985SOL     OW38590   2.103   3.226   1.009 -0.4904  0.2884 -0.6942
 8985SOL    HW138591   2.015   3.259   1.028 -0.4657 -1.6978  2.8252
 8985SOL    HW238592   2.081   3.174   0.931 -2.2294 -0.9533  0.6259
 8986SOL     OW38593   3.965   4.148   4.086 -0.7920 -0.0669 -0.6434
 8986SOL    HW138594   3.899   4.097   4.039 -0.2319 -1.1064 -0.3032
 8986SOL    HW238595   4.027   4.181   4.020 -1.1548 -0.7973 -1.3448
 8987SOL     OW38596   3.775   0.982   5.452 -0.1557 -0.1085  0.0778
 8987SOL    HW138597   3.683   0.958   5.461  0.1038 -1.2425 -0.3707
 8987SOL    HW238598   3.782   0.972   5.357  0.6646  0.8034  0.0455
 8988SOL     OW38599   0.197   0.776   1.084 -0.3889 -0.2442  0.4679
 8988SOL    HW138600   0.102   0.784   1.091 -0.3276 -0.6632  1.8911
 8988SOL    HW238601   0.239   0.862   1.082  0.4372 -0.6975 -1.6019
 8989SOL     OW38602   2.594   2.514   9.578 -0.5019 -0.0821  0.2434
 8989SOL    HW138603   2.616   2.426   9.607 -1.0816 -0.5516 -0.7708
 8989SOL    HW238604   2.573   2.569   9.654  0.4904  0.8724 -0.1614
 8990SOL     OW38605   4.268   1.231   3.427 -0.4907  0.0768  0.4280
 8990SOL    HW138606   4.330   1.212   3.357 -0.0903  0.4933  0.6693
 8990SOL    HW238607   4.300   1.178   3.500  0.8070 -1.3522 -1.1760
 8991SOL     OW38608   2.318   2.030   8.851 -0.0476  0.0843 -0.1323
 8991SOL    HW138609   2.287   1.942   8.871  1.5623 -0.4433  0.0366
 8991SOL    HW238610   2.275   2.075   8.923 -1.0705  0.4046 -0.9539
 8992SOL     OW38611   3.166   3.920  10.700  0.4416  0.3128 -0.2314
 8992SOL    HW138612   3.074   3.903  10.720  0.6985  1.0959  1.6569
 8992SOL    HW238613   3.165   4.009  10.665 -0.8999  0.1721 -0.5488
 8993SOL     OW38614   1.459   2.567   2.219  0.1392 -0.3032  0.5411
 8993SOL    HW138615   1.489   2.516   2.144  0.4132  0.0654  0.4035
 8993SOL    HW238616   1.537   2.619   2.236  0.2785  0.3567 -2.2331
 8994SOL     OW38617   4.572   4.619   3.264 -0.2994  0.4369 -0.6495
 8994SOL    HW138618   4.550   4.653   3.351 -1.6449 -2.5641  0.1813
 8994SOL    HW238619   4.613   4.533   3.266 -0.5898  0.3054 -0.3939
 8995SOL     OW38620   2.195   0.635   4.809  0.1509  0.3234  0.2436
 8995SOL    HW138621   2.248   0.561   4.780 -0.5875 -1.4674  3.4341
 8995SOL    HW238622   2.107   0.599   4.817 -0.4512  1.7968  0.3152
 8996SOL     OW38623   1.034   2.568   4.904 -0.3941  0.2522 -0.1511
 8996SOL    HW138624   1.058   2.589   4.994 -1.2154  0.9200 -0.0832
 8996SOL    HW238625   1.114   2.524   4.876  0.8545  2.5321 -0.2176
 8997SOL     OW38626   2.818   4.469   4.415 -0.2141 -0.3768  0.4352
 8997SOL    HW138627   2.914   4.470   4.422 -0.1234 -0.1524 -0.7466
 8997SOL    HW238628   2.796   4.439   4.503 -2.1550  1.2883  0.5029
 8998SOL     OW38629   3.977   0.017   7.222  0.8855  0.7499  0.2710
 8998SOL    HW138630   3.950   0.055   7.139  2.2942 -2.8095 -1.7848
 8998SOL    HW238631   3.961   4.662   7.209 -0.5009  0.9481  0.5620
 8999SOL     OW38632   3.728   3.409   7.457  0.7551  0.3371 -0.6428
 8999SOL    HW138633   3.707   3.318   7.436 -2.0798  0.8921 -0.1891
 8999SOL    HW238634   3.760   3.408   7.547 -0.9637  0.3149 -0.0355
 9000SOL     OW38635   2.624   3.156  15.530  0.0994 -0.5221  0.4011
 9000SOL    HW138636   2.697   3.106  15.565  0.9390 -0.0364 -0.6717
 9000SOL    HW238637   2.617   3.110  15.446 -1.8848 -3.3558  2.1075
 9001SOL     OW38638   3.482   3.702   0.552  0.0635  0.2871  0.2092
 9001SOL    HW138639   3.426   3.780   0.543  0.1452  0.2808 -0.3910
 9001SOL    HW238640   3.549   3.738   0.610 -0.9762  3.3287 -0.4269
 9002SOL     OW38641   2.934   3.653   6.785  0.3760 -0.4109  0.2352
 9002SOL    HW138642   2.937   3.728   6.844  1.5435 -0.4205  0.1802
 9002SOL    HW238643   2.979   3.685   6.706 -1.3529  1.0891 -0.1376
 9003SOL     OW38644   1.372   2.867   2.745 -0.7162  0.0194  0.3086
 9003SOL    HW138645   1.351   2.830   2.660 -0.3156  0.2011  0.1317
 9003SOL    HW238646   1.461   2.897   2.728 -0.0769 -0.4272  2.8128
 9004SOL     OW38647   1.233   0.469   3.151  0.3595  0.2888  0.0757
 9004SOL    HW138648   1.200   0.408   3.217 -2.2957 -0.8270 -2.2438
 9004SOL    HW238649   1.223   0.554   3.194 -1.5468 -0.1313  0.4782
 9005SOL     OW38650   1.471   2.805   6.859 -0.4883  0.5825  0.1751
 9005SOL    HW138651   1.420   2.728   6.884 -0.2386  0.6640  0.9348
 9005SOL    HW238652   1.518   2.816   6.941  1.9780  0.6595 -1.2405
 9006SOL     OW38653   0.732   0.240   3.753  0.0537  0.3238  0.1107
 9006SOL    HW138654   0.734   0.145   3.746 -1.2317  0.2147  1.2606
 9006SOL    HW238655   0.640   0.252   3.774 -0.0962 -0.9194  0.1225
 9007SOL     OW38656   2.871   2.666   7.771 -0.3975  0.0899 -0.3165
 9007SOL    HW138657   2.858   2.616   7.851 -1.0329  0.6257 -0.0813
 9007SOL    HW238658   2.966   2.656   7.761 -0.3256  0.3409  0.1301
 9008SOL     OW38659   3.601   2.254   5.221  0.1367  0.1523 -0.2938
 9008SOL    HW138660   3.687   2.217   5.200 -0.2647 -0.0087 -1.6818
 9008SOL    HW238661   3.547   2.201   5.163 -2.3382  3.2930 -0.8704
 9009SOL     OW38662   2.222   4.295  12.246  0.8510 -0.5781 -0.2745
 9009SOL    HW138663   2.255   4.259  12.329 -1.3116 -0.2868  0.7026
 9009SOL    HW238664   2.135   4.256  12.238  1.1372 -0.9433 -1.5850
 9010SOL     OW38665   3.325   1.291  11.195  0.2288 -0.0405  0.1851
 9010SOL    HW138666   3.242   1.251  11.221 -0.7678  2.1976  0.5415
 9010SOL    HW238667   3.365   1.293  11.282  0.3933 -1.3962  0.1358
 9011SOL     OW38668   3.841   0.101   4.250  0.2905  0.1034  0.2118
 9011SOL    HW138669   3.901   0.169   4.280  0.7517 -0.6513  0.9719
 9011SOL    HW238670   3.761   0.151   4.232  1.1254  0.5669 -2.1729
 9012SOL     OW38671   0.833   2.370   0.818  0.1162 -0.1053 -0.6289
 9012SOL    HW138672   0.791   2.378   0.904 -0.9305 -0.8409 -1.0688
 9012SOL    HW238673   0.834   2.461   0.788  1.0443  0.2867  0.5814
 9013SOL     OW38674   0.556   3.620   2.700 -0.0203  0.1508 -0.3842
 9013SOL    HW138675   0.545   3.703   2.745 -1.3150  0.2364 -0.8708
 9013SOL    HW238676   0.639   3.598   2.742 -0.9203  0.5258  1.6059
 9014SOL     OW38677   3.450   1.072   6.648 -0.1111  0.6522 -0.4795
 9014SOL    HW138678   3.483   1.021   6.721  0.4377  0.0429 -1.1566
 9014SOL    HW238679   3.371   1.020   6.633 -1.7207  2.2031  2.6105
 9015SOL     OW38680   1.795   3.019   9.680 -0.1406  0.4145  0.1082
 9015SOL    HW138681   1.756   3.009   9.766  1.2358  2.0434  0.9163
 9015SOL    HW238682   1.714   2.986   9.640  0.9835 -0.1451 -1.7131
 9016SOL     OW38683   0.833   2.327   4.936 -0.2877  0.0930 -0.1348
 9016SOL    HW138684   0.927   2.326   4.918 -0.3812  1.9536 -0.6970
 9016SOL    HW238685   0.812   2.266   4.865 -1.5210  0.2586  0.0902
 9017SOL     OW38686   1.358   3.064   6.781  0.5700  0.3868 -0.6716
 9017SOL    HW138687   1.406   3.011   6.845 -0.0878 -0.2974 -0.7426
 9017SOL    HW238688   1.283   3.096   6.830 -0.2638 -0.1695 -1.5893
 9018SOL     OW38689   4.381   3.246   9.109  0.4968 -0.1013  0.5073
 9018SOL    HW138690   4.306   3.187   9.109  1.5989 -1.5095 -1.2014
 9018SOL    HW238691   4.384   3.265   9.202  1.6968 -0.5229  0.5627
 9019SOL     OW38692   2.709   3.240  12.248 -0.2195  0.0682  0.1880
 9019SOL    HW138693   2.773   3.234  12.319  0.3177 -0.5509 -0.3490
 9019SOL    HW238694   2.645   3.174  12.274 -2.5490  2.7527  1.2961
 9020SOL     OW38695   4.098   0.600  10.859 -0.4308  0.4412 -0.0326
 9020SOL    HW138696   4.109   0.686  10.900 -0.9617 -0.3626  1.7704
 9020SOL    HW238697   4.066   0.626  10.773  1.0660  1.6938 -0.2207
 9021SOL     OW38698   1.160   1.138   7.202  0.1111  0.2187 -0.1095
 9021SOL    HW138699   1.229   1.202   7.222 -2.1996  2.4227  0.7273
 9021SOL    HW238700   1.102   1.152   7.276  0.1224  0.0206 -0.0628
 9022SOL     OW38701   0.213   4.034   4.597  0.5251  0.0793  0.0783
 9022SOL    HW138702   0.154   3.999   4.530  0.5665  0.7770 -0.3213
 9022SOL    HW238703   0.299   4.027   4.556  0.2582 -3.5786  0.1457
 9023SOL     OW38704   3.886   0.397   5.458 -0.3937 -0.1084 -0.5537
 9023SOL    HW138705   3.796   0.419   5.437 -0.4011 -1.3843 -1.8607
 9023SOL    HW238706   3.908   0.464   5.523 -0.6733  0.0496 -0.6282
 9024SOL     OW38707   3.126   3.821   3.789  0.2352  0.0994  0.0806
 9024SOL    HW138708   3.058   3.756   3.772 -2.1717  2.4246  0.7817
 9024SOL    HW238709   3.155   3.837   3.699 -2.0705 -1.9685 -1.0274
 9025SOL     OW38710   4.591   3.530  13.762 -0.1157  0.5388  0.6587
 9025SOL    HW138711   4.595   3.483  13.679 -2.1829  0.3456  0.6638
 9025SOL    HW238712   4.681   3.563  13.771  1.6129 -3.2673 -2.9831
 9026SOL     OW38713   4.257   2.575   1.553  0.1765 -0.0720  0.3916
 9026SOL    HW138714   4.316   2.634   1.506 -1.0369  1.2515  0.5480
 9026SOL    HW238715   4.203   2.647   1.586  1.6309  1.6772 -1.0286
 9027SOL     OW38716   4.419   1.639  10.017 -0.0887 -0.1478  0.4665
 9027SOL    HW138717   4.341   1.585  10.031 -0.5119  1.1251  3.0168
 9027SOL    HW238718   4.484   1.584  10.060 -0.8546  0.7092  2.7153
 9028SOL     OW38719   3.676   1.643   9.488  0.4092 -0.6653 -0.4597
 9028SOL    HW138720   3.702   1.715   9.546  1.2689 -3.0843  2.1640
 9028SOL    HW238721   3.650   1.696   9.413  0.2653 -0.2012 -0.0817
 9029SOL     OW38722   4.341   2.873   8.550  0.3528  0.2232 -0.2114
 9029SOL    HW138723   4.265   2.872   8.609  0.2443  1.7080 -0.3380
 9029SOL    HW238724   4.326   2.797   8.494  0.2230 -1.5776  2.2415
 9030SOL     OW38725   4.037   0.071   5.235  0.5658  0.2085  0.1916
 9030SOL    HW138726   4.037   0.045   5.327  1.5364 -0.5921 -0.0375
 9030SOL    HW238727   4.124   0.041   5.209  0.6270 -0.2468  0.9144
 9031SOL     OW38728   1.067   4.074   1.860  0.3516 -0.1124  0.2551
 9031SOL    HW138729   1.062   4.034   1.947 -0.7351 -1.4233 -0.4163
 9031SOL    HW238730   1.109   4.004   1.810 -0.1887 -0.4390  0.2589
 9032SOL     OW38731   2.689   1.898   3.821 -0.3669  0.2102 -0.2984
 9032SOL    HW138732   2.687   1.897   3.916 -1.1684  0.2590 -0.3166
 9032SOL    HW238733   2.785   1.904   3.814 -0.3641 -0.0442 -0.4548
 9033SOL     OW38734   3.839   0.222   8.051  0.1442  0.1587  0.5338
 9033SOL    HW138735   3.785   0.274   8.111  0.9124  0.8562  0.6242
 9033SOL    HW238736   3.797   0.139   8.075 -0.0555  0.5203  1.4558
 9034SOL     OW38737   4.132   0.295   3.917 -0.0649  0.6510 -0.3922
 9034SOL    HW138738   4.087   0.255   3.843  0.3535 -1.5985  0.5748
 9034SOL    HW238739   4.064   0.348   3.959 -1.0166 -0.4823 -0.4967
 9035SOL     OW38740   3.204   4.367  10.357 -0.2997 -0.1803 -0.4527
 9035SOL    HW138741   3.228   4.405  10.272  0.9143  0.2906  0.1180
 9035SOL    HW238742   3.222   4.274  10.340  1.3542  0.0123  0.2562
 9036SOL     OW38743   4.410   1.985   9.871 -0.2601 -0.1280  0.1493
 9036SOL    HW138744   4.373   1.911   9.823  0.3365  0.1546 -0.7563
 9036SOL    HW238745   4.334   2.003   9.926 -0.9673 -1.4600 -0.3981
 9037SOL     OW38746   1.637   0.790  13.590 -0.2420  0.1350 -0.3269
 9037SOL    HW138747   1.595   0.750  13.667 -1.8797  0.6472 -0.9528
 9037SOL    HW238748   1.572   0.843  13.545 -0.6299  0.4370  0.5881
 9038SOL     OW38749   1.157   3.722   2.991 -0.5375  0.7867  0.1532
 9038SOL    HW138750   1.162   3.817   2.979 -1.1714  0.4926 -2.4130
 9038SOL    HW238751   1.237   3.688   2.951 -1.9553 -0.3567 -1.6831
 9039SOL     OW38752   2.979   2.194  12.165 -0.1432 -0.8909  0.0302
 9039SOL    HW138753   3.031   2.167  12.089 -0.8689  2.1218 -1.5116
 9039SOL    HW238754   2.897   2.211  12.119  0.7647  1.6227 -0.6213
 9040SOL     OW38755   1.011   0.491  10.417 -0.3399  0.8606 -0.1740
 9040SOL    HW138756   1.057   0.491  10.501 -2.3520 -1.6404  0.9340
 9040SOL    HW238757   1.076   0.432  10.378 -0.3883  0.9206 -0.3494
 9041SOL     OW38758   3.781   1.432   6.634 -0.4210  0.5102  0.4937
 9041SOL    HW138759   3.708   1.485   6.666  0.6736  0.7205  2.6169
 9041SOL    HW238760   3.790   1.369   6.705  2.0230 -0.9081 -1.0662
 9042SOL     OW38761   3.780   1.401   9.494 -0.7826  0.4738  0.7146
 9042SOL    HW138762   3.868   1.419   9.527 -0.6124  2.0818 -0.6352
 9042SOL    HW238763   3.732   1.481   9.513 -1.2421  0.4210 -0.2398
 9043SOL     OW38764   1.689   3.914   7.771 -0.0210 -0.2936 -0.5350
 9043SOL    HW138765   1.740   3.871   7.702  1.7642  1.4839 -0.3067
 9043SOL    HW238766   1.599   3.887   7.752 -0.7515  0.5790  1.5801
 9044SOL     OW38767   2.081   2.279  14.112  0.3834  0.3287 -0.4798
 9044SOL    HW138768   2.019   2.334  14.159  0.3310 -0.5575  0.4936
 9044SOL    HW238769   2.026   2.203  14.092 -0.2322  0.2429  1.5742
 9045SOL     OW38770   2.977   4.209  15.964 -0.2772 -0.0856  0.5375
 9045SOL    HW138771   2.987   4.304  15.955 -0.2136 -0.2249 -0.9292
 9045SOL    HW238772   2.896   4.198  15.914 -0.8365  1.2005  1.1493
 9046SOL     OW38773   0.074   2.807  13.698  0.7401 -0.3778 -0.1560
 9046SOL    HW138774   0.022   2.879  13.736 -0.6057 -1.3948 -0.0883
 9046SOL    HW238775   0.043   2.814  13.608  1.2518 -1.4223 -0.4113
 9047SOL     OW38776   2.652   3.600   1.391 -0.6237 -0.0483  0.5943
 9047SOL    HW138777   2.742   3.592   1.361  0.1771 -0.1681  3.0696
 9047SOL    HW238778   2.616   3.642   1.313 -0.2756  2.7747  1.9538
 9048SOL     OW38779   2.690   3.791   5.395 -0.0576 -0.3709  0.1171
 9048SOL    HW138780   2.608   3.806   5.348  0.4693 -2.5948 -1.5230
 9048SOL    HW238781   2.759   3.839   5.349  0.2840  0.2713  1.2910
 9049SOL     OW38782   1.016   2.731   0.161 -0.6451  0.5007 -0.0458
 9049SOL    HW138783   0.984   2.805   0.110 -1.3760 -0.1641 -0.5440
 9049SOL    HW238784   1.109   2.754   0.164 -0.9956  2.0839 -1.2624
 9050SOL     OW38785   2.882   3.918   1.099  0.3866 -0.5630  0.5334
 9050SOL    HW138786   2.796   3.959   1.105  1.3069  1.2037  1.5991
 9050SOL    HW238787   2.915   3.933   1.188  0.5336  0.8840  0.2262
 9051SOL     OW38788   0.920   1.628   8.268  0.0676  0.0761  0.6254
 9051SOL    HW138789   0.933   1.625   8.363 -0.2326  1.9714  0.7280
 9051SOL    HW238790   0.882   1.715   8.261  1.1568  0.4116 -1.2048
 9052SOL     OW38791   1.598   2.469   2.524  0.2781 -0.3119  0.5493
 9052SOL    HW138792   1.537   2.528   2.481 -0.6975  0.0144  2.3915
 9052SOL    HW238793   1.579   2.384   2.484  0.6210  0.2713 -0.8513
 9053SOL     OW38794   3.158   3.833   7.642 -0.6076  0.6660 -0.0366
 9053SOL    HW138795   3.175   3.900   7.708  1.0479  1.4360 -1.2283
 9053SOL    HW238796   3.147   3.895   7.569  0.0973 -0.1089 -0.8037
 9054SOL     OW38797   0.893   3.441  10.773 -0.0722  0.1384 -0.4942
 9054SOL    HW138798   0.845   3.368  10.734  0.1076 -0.2212 -0.0376
 9054SOL    HW238799   0.832   3.510  10.748  0.1366  0.6061  0.2822
 9055SOL     OW38800   1.022   1.422  12.011  0.0355 -0.4499  0.3013
 9055SOL    HW138801   1.000   1.506  12.050  1.2902  0.3986 -0.8477
 9055SOL    HW238802   1.095   1.440  11.952  0.1648  0.4071  0.7231
 9056SOL     OW38803   1.606   2.136  14.409 -0.1448  0.0410 -0.1904
 9056SOL    HW138804   1.656   2.069  14.364  1.5959  0.6583  0.8304
 9056SOL    HW238805   1.672   2.182  14.461  0.8439 -0.1761 -1.2537
 9057SOL     OW38806   3.486   0.562   4.888 -0.2744  0.8526 -0.3677
 9057SOL    HW138807   3.513   0.509   4.962 -0.7856  1.5962  0.3454
 9057SOL    HW238808   3.529   0.514   4.817  0.8671 -2.3602  2.4797
 9058SOL     OW38809   3.078   2.357   4.143  0.2414 -0.4680 -0.4939
 9058SOL    HW138810   3.159   2.307   4.148  0.5549 -0.2425 -3.3508
 9058SOL    HW238811   3.032   2.323   4.219 -0.7775 -0.0711 -0.9292
 9059SOL     OW38812   1.426   1.665   9.440  0.7787  0.1393  0.1239
 9059SOL    HW138813   1.399   1.616   9.362 -2.9400  0.4201  1.2507
 9059SOL    HW238814   1.439   1.590   9.498  1.4602  0.0469 -0.1478
 9060SOL     OW38815   0.132   1.708   2.480  0.4004 -0.1125  0.5040
 9060SOL    HW138816   0.197   1.693   2.411 -1.8072  0.0104 -1.5829
 9060SOL    HW238817   0.194   1.704   2.553  1.5520  1.9928 -0.3728
 9061SOL     OW38818   0.905   2.698   9.002  0.4086 -0.7141  0.1958
 9061SOL    HW138819   0.978   2.637   9.009  0.3804 -0.8834 -0.9913
 9061SOL    HW238820   0.881   2.695   8.909 -1.7461  1.6841  0.6689
 9062SOL     OW38821   1.078   3.959   6.386  0.1434  0.1653 -0.2969
 9062SOL    HW138822   1.117   3.898   6.323 -1.0518  0.5597 -1.4277
 9062SOL    HW238823   1.123   4.042   6.371 -2.7875  1.4732 -1.8330
 9063SOL     OW38824   0.358   2.880  12.789 -0.6940 -0.1559 -0.2493
 9063SOL    HW138825   0.414   2.810  12.756 -0.6742 -0.1396 -0.2502
 9063SOL    HW238826   0.388   2.955  12.739  1.2143 -1.1834 -0.6396
 9064SOL     OW38827   2.567   0.890   6.809 -0.0173 -0.5543 -0.4298
 9064SOL    HW138828   2.660   0.909   6.797  0.0677 -0.3325  0.5820
 9064SOL    HW238829   2.529   0.972   6.841  0.0127 -0.8380  0.3129
 9065SOL     OW38830   0.024   0.787   8.333 -0.2121 -0.3313  0.4178
 9065SOL    HW138831   4.698   0.848   8.372 -1.5786 -0.1480 -2.1379
 9065SOL    HW238832   0.054   0.843   8.262 -0.2951  1.4843  1.8084
 9066SOL     OW38833   3.781   2.179   6.230 -0.4875 -0.1412 -0.3891
 9066SOL    HW138834   3.800   2.187   6.137  0.2159  0.0769 -0.2287
 9066SOL    HW238835   3.863   2.144   6.268 -0.4475 -0.7532 -1.0358
 9067SOL     OW38836   1.323   3.170   5.098  0.4425 -0.0301  0.4854
 9067SOL    HW138837   1.376   3.249   5.109 -1.6120  1.3373  0.6777
 9067SOL    HW238838   1.280   3.169   5.183 -1.2730  0.8311 -0.3620
 9068SOL     OW38839   0.144   0.433  16.986  0.8945 -0.2065  0.3177
 9068SOL    HW138840   0.240   0.423  16.983  1.0958  2.4004 -2.1106
 9068SOL    HW238841   0.115   0.342  16.977  0.5732  0.1328 -2.0553
 9069SOL     OW38842   2.493   0.168   2.869 -0.1400  0.0340 -0.1232
 9069SOL    HW138843   2.463   0.258   2.881 -2.9437 -0.8946 -0.2802
 9069SOL    HW238844   2.428   0.139   2.806  0.2979 -0.2103 -0.4666
 9070SOL     OW38845   3.618   4.564  16.070 -0.2490 -0.1024  0.0105
 9070SOL    HW138846   3.624   4.659  16.069  2.2366 -0.2598  0.2845
 9070SOL    HW238847   3.689   4.545  16.132  1.5797  0.8001 -1.8316
 9071SOL     OW38848   1.860   0.344   4.033 -0.5934 -0.2338 -0.6123
 9071SOL    HW138849   1.844   0.271   4.093 -1.3118  1.2079  0.9374
 9071SOL    HW238850   1.774   0.344   3.989 -2.1528  3.1408  2.4627
 9072SOL     OW38851   4.355   2.743   0.593  0.4738  0.0495 -0.1472
 9072SOL    HW138852   4.319   2.829   0.617  1.6547  0.8001 -1.1101
 9072SOL    HW238853   4.424   2.769   0.532  0.8140 -1.3229 -0.3559
 9073SOL     OW38854   3.535   3.135   6.588 -0.5889  0.3683  0.0884
 9073SOL    HW138855   3.523   3.201   6.519 -0.0065  2.8020  2.3332
 9073SOL    HW238856   3.461   3.077   6.573 -1.0776  1.3319 -1.3151
 9074SOL     OW38857   3.110   4.603   9.777  0.0829 -0.1023  0.0893
 9074SOL    HW138858   3.198   4.568   9.764  0.7390  1.5534  0.1129
 9074SOL    HW238859   3.056   4.524   9.780 -0.3756  0.1719 -1.3276
 9075SOL     OW38860   2.636   0.612   5.176 -0.0884  0.5921 -0.4258
 9075SOL    HW138861   2.595   0.695   5.152 -2.6336  0.0018  1.9061
 9075SOL    HW238862   2.629   0.557   5.097  1.8864 -0.6651  0.2906
 9076SOL     OW38863   0.586   0.817   5.752  0.7856  0.0858  0.2408
 9076SOL    HW138864   0.564   0.908   5.772 -0.8990 -0.8593  2.6856
 9076SOL    HW238865   0.649   0.829   5.680  0.6504  1.3725  0.3253
 9077SOL     OW38866   2.656   1.074  15.959  0.1685  0.6462 -0.2265
 9077SOL    HW138867   2.576   1.090  15.909  2.1350  1.0166 -3.2060
 9077SOL    HW238868   2.738   1.108  15.924  0.0967 -0.0589 -1.0905
 9078SOL     OW38869   1.872   2.242   5.104 -0.1079 -0.3096  0.2431
 9078SOL    HW138870   1.785   2.261   5.067  1.1797  1.4002 -1.8715
 9078SOL    HW238871   1.913   2.177   5.048 -1.4757 -1.0254  0.0701
 9079SOL     OW38872   3.789   1.496   9.226 -0.4345 -0.0749  0.6174
 9079SOL    HW138873   3.827   1.409   9.216 -0.5461 -0.0310 -0.1904
 9079SOL    HW238874   3.748   1.481   9.311 -1.3893 -0.4763  0.0786
 9080SOL     OW38875   3.977   2.415   5.754  0.3582 -0.6652  0.1806
 9080SOL    HW138876   4.033   2.338   5.756 -0.4994 -1.2552  1.6318
 9080SOL    HW238877   3.985   2.439   5.847 -2.5666  0.0379  0.2656
 9081SOL     OW38878   1.353   1.552   8.924  0.4170  0.5830  0.1920
 9081SOL    HW138879   1.297   1.486   8.965  0.2604  1.0748  0.7806
 9081SOL    HW238880   1.296   1.629   8.926  1.8887  1.6794 -0.2137
 9082SOL     OW38881   1.705   1.717   6.593 -0.4987  0.0272  0.2714
 9082SOL    HW138882   1.692   1.685   6.682  1.2791 -1.9904 -0.2294
 9082SOL    HW238883   1.720   1.639   6.541 -2.3674  0.9765 -1.6972
 9083SOL     OW38884   1.875   4.328   9.774  0.0913  0.5446 -0.3940
 9083SOL    HW138885   1.855   4.399   9.713  0.0377  0.0734 -0.9187
 9083SOL    HW238886   1.949   4.284   9.732  0.8015  0.5478  0.8269
 9084SOL     OW38887   4.441   3.964   6.549  0.0577 -0.2120  0.0987
 9084SOL    HW138888   4.361   3.984   6.501 -0.3468  0.7576  1.1578
 9084SOL    HW238889   4.403   3.961   6.637 -0.4637  1.0196 -0.0813
 9085SOL     OW38890   2.833   3.384  16.004 -0.0304  0.5906 -0.4303
 9085SOL    HW138891   2.782   3.452  16.047 -0.7170  1.1452 -2.1009
 9085SOL    HW238892   2.847   3.429  15.920 -0.2947 -0.6284 -1.1425
 9086SOL     OW38893   4.433   3.518   5.501  0.1912 -0.1543  0.1796
 9086SOL    HW138894   4.463   3.603   5.469 -1.1263  0.3229  0.2089
 9086SOL    HW238895   4.413   3.548   5.590 -1.7414 -0.2368 -0.2148
 9087SOL     OW38896   2.922   0.654  12.047  0.2985 -0.0879 -0.2591
 9087SOL    HW138897   2.948   0.588  11.982  1.3295  1.5809 -1.5436
 9087SOL    HW238898   2.981   0.633  12.120 -4.4600 -1.0415  3.2662
 9088SOL     OW38899   2.988   0.468   3.978  0.3309  0.3075 -0.3953
 9088SOL    HW138900   2.934   0.440   4.052  1.3809 -1.0997 -0.1718
 9088SOL    HW238901   3.024   0.553   4.005  0.8337 -0.1990  0.5327
 9089SOL     OW38902   4.528   0.494  15.851 -0.0785 -0.2153  0.1342
 9089SOL    HW138903   4.454   0.554  15.853  0.3885  0.3815 -1.3075
 9089SOL    HW238904   4.540   0.485  15.946  0.9984  0.4212  0.0626
 9090SOL     OW38905   2.937   3.087  17.713  0.0029  0.3423 -0.3303
 9090SOL    HW138906   2.869   3.154  17.726 -0.6644 -0.7261  1.6626
 9090SOL    HW238907   2.937   3.055   0.055  0.8181  0.8568 -0.1505
 9091SOL     OW38908   1.967   3.146   0.053  0.4939 -0.2290 -0.2123
 9091SOL    HW138909   1.987   3.113  17.714 -0.6857 -0.4785 -0.3861
 9091SOL    HW238910   1.877   3.121   0.070  0.4518 -0.0025 -0.1055
 9092SOL     OW38911   1.817   4.574   6.260  0.2271  0.4101  0.0318
 9092SOL    HW138912   1.776   4.622   6.333 -0.5777 -0.8996  0.4350
 9092SOL    HW238913   1.739   4.548   6.212  0.2300  2.1247 -0.9058
 9093SOL     OW38914   0.100   3.377   4.390  0.2417  0.1621 -0.1534
 9093SOL    HW138915   0.005   3.382   4.401 -0.0248 -4.0233 -0.5481
 9093SOL    HW238916   0.130   3.367   4.480  0.4044  1.4050 -0.0661
 9094SOL     OW38917   3.644   0.911   8.378  0.0620 -0.7064  0.3504
 9094SOL    HW138918   3.564   0.946   8.417 -1.4832 -3.8248 -0.0239
 9094SOL    HW238919   3.665   0.840   8.440  1.7773 -1.9140 -1.6212
 9095SOL     OW38920   1.200   0.707  10.255 -0.1230 -0.0709 -0.2726
 9095SOL    HW138921   1.130   0.647  10.283  1.2702  0.7859  5.0844
 9095SOL    HW238922   1.235   0.681  10.170 -0.0710  2.1723 -0.9124
 9096SOL     OW38923   1.534   3.197  16.992  0.3677 -0.4303  0.6554
 9096SOL    HW138924   1.566   3.286  17.009 -2.1201  0.3935  1.0752
 9096SOL    HW238925   1.608   3.140  17.012 -0.0858 -0.5073  2.1243
 9097SOL     OW38926   3.469   4.679   4.836 -0.2284 -0.1387  0.3962
 9097SOL    HW138927   3.480   4.683   4.741 -1.2139 -0.7972  0.2509
 9097SOL    HW238928   3.533   0.010   4.856  1.1720 -1.0802 -0.8525
 9098SOL     OW38929   2.729   0.880  10.118 -0.3790 -0.4968 -0.1845
 9098SOL    HW138930   2.747   0.795  10.157 -1.1173  0.5963  2.5524
 9098SOL    HW238931   2.794   0.874  10.048 -0.8303 -1.0041 -0.5615
 9099SOL     OW38932   0.411   3.290   7.460  0.6359 -1.0603 -0.4804
 9099SOL    HW138933   0.388   3.383   7.473  0.0249 -1.1184 -1.0908
 9099SOL    HW238934   0.418   3.263   7.551  1.1879  1.2560  0.1732
 9100SOL     OW38935   0.868   3.655   3.956  0.3057  0.1128  0.2510
 9100SOL    HW138936   0.923   3.661   4.034 -0.8110  0.1857  1.0332
 9100SOL    HW238937   0.905   3.723   3.899 -0.4361  0.6821  0.4438
 9101SOL     OW38938   3.400   3.509   0.229  0.1338  0.3698  0.2133
 9101SOL    HW138939   3.456   3.576   0.190 -0.7782  1.5742  0.9900
 9101SOL    HW238940   3.449   3.431   0.201  0.9120  0.8254  0.3036
 9102SOL     OW38941   0.021   4.102  15.202  0.0526 -0.2710 -0.2025
 9102SOL    HW138942   0.051   4.020  15.164 -1.0810 -0.6955 -0.1959
 9102SOL    HW238943   0.052   4.157  15.130  0.1538 -1.2497 -0.9041
 9103SOL     OW38944   3.765   0.116   7.036  0.1767 -0.1787  0.0512
 9103SOL    HW138945   3.718   0.132   7.118  0.3397  1.7474 -0.2220
 9103SOL    HW238946   3.715   0.044   6.997  0.4354 -0.7178  0.7081
 9104SOL     OW38947   4.448   0.825   2.600 -0.2721 -0.2765  0.1904
 9104SOL    HW138948   4.424   0.874   2.679 -2.5648 -2.5283  0.8918
 9104SOL    HW238949   4.498   0.886   2.546 -0.3606  0.7561  1.2582
 9105SOL     OW38950   4.507   2.139   2.135  0.5486  0.0066  0.4865
 9105SOL    HW138951   4.480   2.221   2.094  0.0703 -1.8800 -2.9735
 9105SOL    HW238952   4.541   2.089   2.061 -0.1609  0.0977  0.0984
 9106SOL     OW38953   3.124   0.582   4.389  0.0934 -0.0161  0.0469
 9106SOL    HW138954   3.146   0.660   4.440 -0.5769 -0.0401  0.3799
 9106SOL    HW238955   3.065   0.623   4.325 -1.1331  2.1727  2.5602
 9107SOL     OW38956   0.411   4.016  11.277  0.3996  0.1080 -0.4419
 9107SOL    HW138957   0.432   4.068  11.200  1.8774  1.2637  0.7366
 9107SOL    HW238958   0.486   3.957  11.283  0.6674  0.5991  1.2682
 9108SOL     OW38959   3.339   3.093   3.289  0.6433 -0.5844 -0.0506
 9108SOL    HW138960   3.359   3.021   3.229 -1.1522 -1.4394  0.3791
 9108SOL    HW238961   3.416   3.149   3.294  0.2254 -0.1961  1.9347
 9109SOL     OW38962   2.572   0.530  16.266  0.6284  0.1559  0.3546
 9109SOL    HW138963   2.599   0.526  16.174  0.8219  3.1448  0.2535
 9109SOL    HW238964   2.657   0.549  16.306  0.1080  1.4317  0.8444
 9110SOL     OW38965   2.117   0.439   7.346  0.1070  0.1114 -0.5805
 9110SOL    HW138966   2.186   0.408   7.405  0.6478  0.6087 -0.9496
 9110SOL    HW238967   2.098   0.355   7.306 -0.4897  0.1628 -0.3953
 9111SOL     OW38968   3.754   0.199   6.371 -0.3716 -0.1529 -0.1790
 9111SOL    HW138969   3.712   0.123   6.332  1.3576 -0.8802 -0.6076
 9111SOL    HW238970   3.808   0.214   6.294  1.3717  0.4724  1.1507
 9112SOL     OW38971   0.986   2.374  12.165 -0.2786  0.0517  0.5062
 9112SOL    HW138972   0.896   2.401  12.183 -0.4575 -1.1992  1.4162
 9112SOL    HW238973   1.005   2.313  12.236  0.5948  0.0612  0.2783
 9113SOL     OW38974   0.978   1.512   4.986  0.1380  0.5642 -0.3642
 9113SOL    HW138975   1.026   1.439   4.948  2.0032  1.0715  1.0010
 9113SOL    HW238976   0.949   1.473   5.069 -1.4952 -0.7841 -1.5649
 9114SOL     OW38977   2.814   1.246   8.940  0.4635 -0.2117  0.7888
 9114SOL    HW138978   2.765   1.315   8.983  0.6631  0.4900 -0.0995
 9114SOL    HW238979   2.747   1.178   8.934  2.3128 -2.0396  0.4977
 9115SOL     OW38980   2.259   3.255   6.413  0.2013 -0.5046  0.2519
 9115SOL    HW138981   2.314   3.204   6.353  0.0054  1.0267 -1.2634
 9115SOL    HW238982   2.257   3.337   6.362  0.3729 -1.5171 -1.3846
 9116SOL     OW38983   2.818   1.374   4.849  0.5265 -0.0260 -0.1030
 9116SOL    HW138984   2.829   1.279   4.859 -2.3466 -0.2169  1.2255
 9116SOL    HW238985   2.819   1.406   4.939  1.8359 -0.5831  0.0832
 9117SOL     OW38986   1.807   2.660   8.384 -0.5707 -0.0800  0.1970
 9117SOL    HW138987   1.850   2.704   8.458 -0.4532  1.4364 -0.7648
 9117SOL    HW238988   1.851   2.702   8.310 -0.6658 -0.5872 -0.1422
 9118SOL     OW38989   3.338   1.515   6.024  0.5866  0.1556  0.1240
 9118SOL    HW138990   3.397   1.554   6.089 -1.4750  1.4359  1.2351
 9118SOL    HW238991   3.401   1.486   5.958 -0.3873  2.8872 -2.0377
 9119SOL     OW38992   2.930   2.983   6.015 -0.0551  0.1100  0.6476
 9119SOL    HW138993   2.851   2.930   6.027 -0.7372  0.5256 -2.0794
 9119SOL    HW238994   2.991   2.910   6.025  0.2688  0.3816  0.6562
 9120SOL     OW38995   3.919   2.063   5.372  0.6026 -0.2766 -1.0685
 9120SOL    HW138996   3.912   2.090   5.464  0.2502  0.6610 -1.3771
 9120SOL    HW238997   3.968   2.133   5.330 -0.7693  0.1922 -1.8656
 9121SOL     OW38998   0.601   1.049   2.045 -0.1024  0.0254  0.3034
 9121SOL    HW138999   0.602   1.092   2.130  0.1947 -0.5557  0.5953
 9121SOL    HW239000   0.555   0.966   2.056  1.0288 -0.5354  0.7695
 9122SOL     OW39001   2.898   3.944   4.660  0.1203  0.2304 -0.5348
 9122SOL    HW139002   2.991   3.938   4.638 -0.2278  0.8205 -2.1223
 9122SOL    HW239003   2.861   3.983   4.581 -2.9551 -0.4154  0.5720
 9123SOL     OW39004   3.983   0.191   6.178  0.6521  0.3214  0.6578
 9123SOL    HW139005   4.066   0.197   6.131 -0.4487  0.6334 -1.2435
 9123SOL    HW239006   3.919   0.199   6.107  1.1860 -0.0541  0.1373
 9124SOL     OW39007   0.078   2.757   9.585  0.5819  0.0022  0.4791
 9124SOL    HW139008   0.170   2.748   9.608  1.3321  0.3178 -2.3532
 9124SOL    HW239009   0.033   2.745   9.669  1.7281  0.4369  1.1516
 9125SOL     OW39010   1.873   1.022   3.542  0.3527 -0.5540 -0.8283
 9125SOL    HW139011   1.828   1.046   3.623 -1.0535  0.5578 -1.9320
 9125SOL    HW239012   1.813   0.959   3.502 -0.7490 -0.6566  0.9621
 9126SOL     OW39013   2.070   2.643  12.453 -0.0937  0.5673 -0.1798
 9126SOL    HW139014   2.071   2.549  12.471  2.5693  0.1051 -2.6038
 9126SOL    HW239015   2.033   2.670  12.537  0.3731  0.6652 -0.0096
 9127SOL     OW39016   3.774   4.109   3.710  0.2346  0.3553 -0.1220
 9127SOL    HW139017   3.728   4.146   3.634 -0.3779  0.6384  0.3853
 9127SOL    HW239018   3.787   4.183   3.768 -1.4923  1.4699 -1.1176
 9128SOL     OW39019   3.303   2.926   1.116 -0.7171 -0.5298  0.3452
 9128SOL    HW139020   3.211   2.947   1.129 -0.9473 -1.8448  0.8531
 9128SOL    HW239021   3.342   3.013   1.109 -2.9784  0.2319 -2.7688
 9129SOL     OW39022   0.628   3.613   2.088  0.1945  0.4556 -0.2138
 9129SOL    HW139023   0.543   3.593   2.049  0.6999 -0.9384 -0.6035
 9129SOL    HW239024   0.645   3.526   2.122  0.1901  1.3285  2.0007
 9130SOL     OW39025   3.578   4.333   8.541 -0.0113  0.5070 -0.0836
 9130SOL    HW139026   3.522   4.257   8.554 -0.6118  1.3312  2.1670
 9130SOL    HW239027   3.648   4.321   8.606 -0.6810 -0.0950  0.5349
 9131SOL     OW39028   3.718   3.018   8.969 -0.0889  0.0311 -0.2789
 9131SOL    HW139029   3.742   3.080   9.039 -2.1777  1.5696 -0.9167
 9131SOL    HW239030   3.763   3.064   8.898  1.5667 -0.1680  0.6419
 9132SOL     OW39031   0.114   2.687   3.592 -0.5226 -0.6423 -0.1675
 9132SOL    HW139032   0.088   2.633   3.667  0.1692  2.5009  2.3565
 9132SOL    HW239033   0.182   2.631   3.555  0.7907  2.0046 -1.7194
 9133SOL     OW39034   3.591   4.668   6.956  0.2744  0.0214 -0.1676
 9133SOL    HW139035   3.561   4.675   7.047  1.9108 -0.1854  0.3920
 9133SOL    HW239036   3.542   4.592   6.924  2.9123 -0.5202 -2.9334
 9134SOL     OW39037   2.473   4.721   8.011  0.0335 -0.2019 -0.0294
 9134SOL    HW139038   2.485   0.037   8.089 -0.8324 -1.0915  0.7290
 9134SOL    HW239039   2.517   4.640   8.036 -0.3348 -0.7227 -1.0751
 9135SOL     OW39040   0.493   3.087  13.115  0.0001 -0.4438 -0.1836
 9135SOL    HW139041   0.426   3.024  13.088 -1.3029  1.4394 -1.3667
 9135SOL    HW239042   0.440   3.165  13.095  0.4696  0.2313  1.2161
 9136SOL     OW39043   2.012   2.875   1.973  0.0350 -0.7393 -0.0580
 9136SOL    HW139044   1.987   2.862   2.065  0.6197  0.5530  0.3027
 9136SOL    HW239045   1.925   2.850   1.943 -1.0703  1.0635  1.6139
 9137SOL     OW39046   3.143   0.914   7.814 -0.0567  0.1561 -0.2656
 9137SOL    HW139047   3.060   0.956   7.835 -1.4646 -2.8291  0.0634
 9137SOL    HW239048   3.123   0.821   7.804 -1.1428  0.3452  0.1269
 9138SOL     OW39049   3.461   2.959   8.859  0.1852 -0.1669  0.2712
 9138SOL    HW139050   3.554   2.967   8.883  1.0774 -0.7037 -3.1084
 9138SOL    HW239051   3.421   2.927   8.940  0.5537 -0.8051  0.1978
 9139SOL     OW39052   0.300   4.583   9.762 -0.1580 -0.2906 -0.0445
 9139SOL    HW139053   0.330   4.672   9.741  0.0687 -0.0299  1.3787
 9139SOL    HW239054   0.219   4.593   9.811 -0.6434 -3.1189 -0.2508
 9140SOL     OW39055   2.141   0.490   1.075  0.3968  0.1814  0.6160
 9140SOL    HW139056   2.099   0.536   1.003 -0.0631 -0.2780  0.5959
 9140SOL    HW239057   2.217   0.547   1.090  1.0037 -0.9619  1.9093
 9141SOL     OW39058   3.283   4.681   5.693 -0.4293  0.0781  0.0847
 9141SOL    HW139059   3.378   4.675   5.684 -0.3563  1.7066 -0.1784
 9141SOL    HW239060   3.269   4.675   5.788 -3.3638 -2.6662 -0.5049
 9142SOL     OW39061   1.806   0.846   1.450  0.1169 -0.2097 -0.2578
 9142SOL    HW139062   1.766   0.789   1.385  0.1783 -1.1248  0.4945
 9142SOL    HW239063   1.747   0.921   1.446 -0.0708 -0.3649 -0.3484
 9143SOL     OW39064   1.549   0.785   4.113 -0.0304  0.5080 -0.7218
 9143SOL    HW139065   1.486   0.762   4.181 -1.5618  0.3070 -2.2374
 9143SOL    HW239066   1.517   0.732   4.040  0.9403  0.3361 -1.0224
 9144SOL     OW39067   0.697   1.911  10.272  0.4357 -0.0245  0.4358
 9144SOL    HW139068   0.705   1.986  10.330  0.8141 -0.1186  0.5005
 9144SOL    HW239069   0.764   1.923  10.205  1.2332  0.0118  1.2452
 9145SOL     OW39070   3.860   0.229   9.825  0.2714  0.2186 -0.2188
 9145SOL    HW139071   3.809   0.225   9.744 -0.6102 -1.1221  0.4007
 9145SOL    HW239072   3.942   0.189   9.796 -1.1170 -2.5784 -0.2795
 9146SOL     OW39073   2.452   4.055   6.831  0.0438 -0.2530  0.9160
 9146SOL    HW139074   2.398   4.125   6.794 -0.3352 -1.2556 -0.4528
 9146SOL    HW239075   2.498   4.032   6.750 -1.5599 -0.8024  0.1510
 9147SOL     OW39076   4.577   0.236   8.254 -0.3203 -0.5556 -0.0577
 9147SOL    HW139077   4.570   0.276   8.341  3.0570  0.5428 -0.2846
 9147SOL    HW239078   4.637   0.300   8.215 -2.1882  0.2920 -1.5738
 9148SOL     OW39079   3.839   3.760   7.505  0.1049 -0.1782  0.0650
 9148SOL    HW139080   3.845   3.681   7.559 -2.3432 -0.9210 -0.7869
 9148SOL    HW239081   3.842   3.718   7.419  1.3513 -2.2326  1.1048
 9149SOL     OW39082   3.077   0.653   7.294 -0.3286 -0.4162  0.3888
 9149SOL    HW139083   3.090   0.616   7.206 -0.1800  0.2904  0.1149
 9149SOL    HW239084   3.035   0.577   7.335 -0.3565 -0.3592  0.4650
 9150SOL     OW39085   4.236   4.601   9.448 -0.0456 -0.1790  0.4891
 9150SOL    HW139086   4.164   4.657   9.419  0.8795  1.3775  1.1753
 9150SOL    HW239087   4.288   4.600   9.368  1.9509  3.3462  1.7509
 9151SOL     OW39088   2.165   2.625  10.663 -0.0274 -0.1322  0.6401
 9151SOL    HW139089   2.224   2.597  10.733  2.2298 -1.4751 -1.8084
 9151SOL    HW239090   2.230   2.645  10.596 -0.1164  1.9844  1.1804
 9152SOL     OW39091   1.030   4.723   6.744  0.3710 -0.6472 -0.1084
 9152SOL    HW139092   1.074   0.035   6.675 -0.3816 -0.3070 -0.3500
 9152SOL    HW239093   0.941   0.017   6.728  0.7595  0.9497  0.8772
 9153SOL     OW39094   2.777   3.228   2.259  0.0149  0.0834  0.0493
 9153SOL    HW139095   2.747   3.300   2.202  0.0769 -0.6435 -0.9060
 9153SOL    HW239096   2.731   3.153   2.222 -0.8747  0.5170  0.2801
 9154SOL     OW39097   0.326   2.800   6.576 -0.1777 -0.1059  0.2371
 9154SOL    HW139098   0.332   2.895   6.579 -1.2702 -0.0375  0.4622
 9154SOL    HW239099   0.379   2.775   6.501 -0.5875  0.0429 -0.1038
 9155SOL     OW39100   4.405   1.541   9.185 -0.2320  0.5679 -0.5283
 9155SOL    HW139101   4.462   1.606   9.227 -0.4215 -0.3202  1.1069
 9155SOL    HW239102   4.409   1.572   9.095 -1.8060  0.1445 -0.7391
 9156SOL     OW39103   0.028   3.579   6.704  0.1025  0.0811 -0.2942
 9156SOL    HW139104   4.711   3.501   6.707  0.0175  0.1015 -1.3251
 9156SOL    HW239105   0.047   3.575   6.610 -0.1746  0.4514 -0.3643
 9157SOL     OW39106   3.031   4.527   2.657 -0.4513 -0.3456  0.0258
 9157SOL    HW139107   3.042   4.542   2.563 -0.7737  0.8876  0.1803
 9157SOL    HW239108   2.936   4.544   2.656 -0.6412 -1.4720 -0.7651
 9158SOL     OW39109   1.060   1.837   5.596 -0.1815 -0.1146 -0.1959
 9158SOL    HW139110   1.103   1.891   5.662  0.0259  0.5666 -0.8863
 9158SOL    HW239111   1.135   1.778   5.590  0.2431  0.4730 -0.7555
 9159SOL     OW39112   3.079   3.838   2.607  0.1973 -0.1278  0.1634
 9159SOL    HW139113   3.135   3.784   2.661  1.4613 -0.6003 -1.6098
 9159SOL    HW239114   3.057   3.774   2.539  0.7602 -0.5332  0.3677
 9160SOL     OW39115   0.975   2.988  10.470  0.0081  0.0599 -0.4633
 9160SOL    HW139116   0.984   3.078  10.502 -0.0005  0.7811 -2.4860
 9160SOL    HW239117   0.937   2.951  10.550  0.7253  0.3015 -0.0101
 9161SOL     OW39118   3.357   1.450   2.348  0.1146 -0.1360  0.2328
 9161SOL    HW139119   3.374   1.401   2.268 -1.4230  0.7516 -0.6414
 9161SOL    HW239120   3.376   1.535   2.309  0.6938  0.2909  1.4399
 9162SOL     OW39121   4.491   0.062   1.507 -0.7971  0.3225  0.5745
 9162SOL    HW139122   4.471   0.080   1.599  0.8250  1.2098  0.7337
 9162SOL    HW239123   4.467   4.707   1.512 -0.1861  0.1079 -0.5097
 9163SOL     OW39124   3.907   3.432   5.959  0.8721 -0.1764  0.1701
 9163SOL    HW139125   3.848   3.507   5.945 -0.0129 -0.9518 -0.2919
 9163SOL    HW239126   3.907   3.424   6.055  0.2642  0.0820  0.1957
 9164SOL     OW39127   2.829   0.039   9.037  0.0771 -0.2808  0.3021
 9164SOL    HW139128   2.866   4.689   9.033 -2.7617 -1.4211 -1.2287
 9164SOL    HW239129   2.832   0.053   9.132 -2.3284  0.3603  0.3030
 9165SOL     OW39130   1.307   1.492   0.922 -0.0238  0.4548 -0.0631
 9165SOL    HW139131   1.342   1.579   0.943  0.8991  0.1719 -0.4618
 9165SOL    HW239132   1.297   1.503   0.828  0.3357  1.4410  0.0163
 9166SOL     OW39133   2.330   3.537   6.613  0.1366  0.1570  0.0624
 9166SOL    HW139134   2.271   3.594   6.662 -1.1401 -2.2547  1.3218
 9166SOL    HW239135   2.291   3.453   6.637 -0.7653  0.2953 -0.9200
 9167SOL     OW39136   0.613   2.062  11.371  0.6793  0.0537 -0.3723
 9167SOL    HW139137   0.572   2.057  11.458 -0.0300  1.4227 -0.6344
 9167SOL    HW239138   0.704   2.081  11.393  0.7537 -1.7945  0.9149
 9168SOL     OW39139   0.175   4.393   0.611 -0.1838  0.0353 -0.1125
 9168SOL    HW139140   0.238   4.427   0.675 -0.4686 -2.5132  1.5430
 9168SOL    HW239141   0.100   4.437   0.652  1.2062  2.0455  0.2563
 9169SOL     OW39142   1.035   4.107   7.185 -0.3506 -0.4607  0.1256
 9169SOL    HW139143   1.127   4.103   7.160 -0.7283  3.0830 -1.8473
 9169SOL    HW239144   1.050   4.074   7.273 -1.1703 -1.0597  0.0426
 9170SOL     OW39145   4.034   0.287  17.227  0.0723  0.3348 -0.5996
 9170SOL    HW139146   3.961   0.242  17.183  0.2359 -2.4014  2.0221
 9170SOL    HW239147   4.018   0.376  17.193  1.5523  0.3753 -1.1694
 9171SOL     OW39148   0.366   2.871   9.138 -0.3764 -0.0337  0.0513
 9171SOL    HW139149   0.323   2.785   9.128 -0.2857 -0.0743  0.0105
 9171SOL    HW239150   0.299   2.907   9.196 -1.9559 -1.3391 -0.9592
 9172SOL     OW39151   1.796   0.444   6.518  1.0597  0.3688  0.4637
 9172SOL    HW139152   1.811   0.523   6.467 -0.7216  0.0397 -0.5742
 9172SOL    HW239153   1.861   0.384   6.480 -1.0951 -0.7791 -1.3712
 9173SOL     OW39154   2.761   1.280   6.868 -0.2683 -0.1811 -0.4712
 9173SOL    HW139155   2.768   1.340   6.794  2.8022 -0.1721 -0.1945
 9173SOL    HW239156   2.851   1.277   6.902 -0.4598 -0.0372  0.0481
 9174SOL     OW39157   4.723   2.193   6.657 -0.3795  0.5164  0.1330
 9174SOL    HW139158   4.654   2.140   6.696  1.7003 -2.3800 -0.2049
 9174SOL    HW239159   4.733   2.267   6.717 -1.1913  0.5307  0.2557
 9175SOL     OW39160   4.069   0.944  16.099  0.4549 -0.3497  0.1935
 9175SOL    HW139161   4.140   0.907  16.152  0.7536  0.5243  0.4015
 9175SOL    HW239162   4.111   0.933  16.014  2.2460 -0.3618  1.0678
 9176SOL     OW39163   3.220   1.511   3.873  0.3122  0.4320  0.5732
 9176SOL    HW139164   3.147   1.505   3.812 -0.0334 -1.5437  1.1813
 9176SOL    HW239165   3.276   1.437   3.850  1.0396  0.6645  1.5954
 9177SOL     OW39166   3.800   2.589   8.127 -0.4426 -0.2558 -0.1114
 9177SOL    HW139167   3.888   2.625   8.119 -0.3292 -0.5065  0.0235
 9177SOL    HW239168   3.757   2.649   8.066 -3.6520 -3.4224 -0.9902
 9178SOL     OW39169   0.279   0.865   8.135 -0.0996  0.0254  0.0940
 9178SOL    HW139170   0.278   0.903   8.047 -1.0441 -2.5196 -0.9985
 9178SOL    HW239171   0.269   0.771   8.121  1.7314 -0.6173  3.1160
 9179SOL     OW39172   1.750   1.421   8.460 -0.0196  0.5988 -0.2156
 9179SOL    HW139173   1.834   1.458   8.433  0.3474 -0.3593 -0.3654
 9179SOL    HW239174   1.749   1.460   8.548 -1.6691  1.8494 -0.7848
 9180SOL     OW39175   4.069   3.743   0.168 -0.0230  0.4580  0.4832
 9180SOL    HW139176   4.035   3.788   0.090  0.8500 -1.3262 -0.9196
 9180SOL    HW239177   3.986   3.708   0.201  0.2494  0.6455  1.3781
 9181SOL     OW39178   2.298   2.376   7.766 -0.4500  0.3477 -0.0662
 9181SOL    HW139179   2.334   2.369   7.677  3.0831 -0.1736  1.4366
 9181SOL    HW239180   2.207   2.395   7.741 -0.7165 -0.9122 -0.0727
 9182SOL     OW39181   0.983   1.758   2.909  0.6102  0.0338  0.1358
 9182SOL    HW139182   0.954   1.792   2.993 -2.0314  0.2660 -0.8843
 9182SOL    HW239183   0.972   1.663   2.919  1.1842 -0.1213 -0.6874
 9183SOL     OW39184   0.868   0.214   6.474  0.1275  0.5548  0.4163
 9183SOL    HW139185   0.961   0.231   6.487  0.4954 -0.3857 -0.9669
 9183SOL    HW239186   0.862   0.183   6.383 -2.2415  2.0377  0.0611
 9184SOL     OW39187   0.565   4.290   9.440 -0.1202  0.3425 -0.4160
 9184SOL    HW139188   0.522   4.229   9.381  1.4412 -0.6083 -0.5888
 9184SOL    HW239189   0.630   4.232   9.480  0.4580  0.8213 -0.6434
 9185SOL     OW39190   3.766   4.466   3.062 -0.2775  0.4855  0.5194
 9185SOL    HW139191   3.841   4.421   3.022  1.3549  0.3019  3.7892
 9185SOL    HW239192   3.799   4.555   3.053 -0.0792  0.2510 -1.1807
 9186SOL     OW39193   0.746   3.596  15.898 -0.1012  0.5177 -0.5397
 9186SOL    HW139194   0.795   3.598  15.816  1.9316 -2.9117  0.6303
 9186SOL    HW239195   0.806   3.566  15.967  1.4719 -1.5543 -2.8315
 9187SOL     OW39196   2.782   3.959   4.910 -0.3378  0.5896 -0.0117
 9187SOL    HW139197   2.854   3.912   4.952  0.7338  2.1240 -0.1307
 9187SOL    HW239198   2.829   3.979   4.829  0.5892  2.1339  0.9142
 9188SOL     OW39199   2.733   0.739  14.311  0.2069  0.0217 -0.7748
 9188SOL    HW139200   2.648   0.772  14.281  0.4647  1.2599 -0.1611
 9188SOL    HW239201   2.746   0.646  14.293 -0.0089  0.0177 -0.9174
 9189SOL     OW39202   4.628   4.283  12.437  0.2917  0.1979 -0.4444
 9189SOL    HW139203   4.575   4.295  12.516  0.3099 -1.1822 -0.2355
 9189SOL    HW239204   4.637   4.374  12.407  1.3191  1.0067  2.2590
 9190SOL     OW39205   2.490   1.789   1.775  0.8127 -0.3471  0.6973
 9190SOL    HW139206   2.466   1.881   1.789  1.8537 -0.2636  2.0194
 9190SOL    HW239207   2.430   1.769   1.704  1.5817  2.3077 -0.6708
 9191SOL     OW39208   0.325   2.802  14.529 -0.0534  0.1372 -0.0419
 9191SOL    HW139209   0.363   2.774  14.446  1.1626 -1.8984  1.1987
 9191SOL    HW239210   0.230   2.789  14.523 -0.1930  0.4269  1.5207
 9192SOL     OW39211   4.708   4.034   5.100 -0.0129  0.2164  0.3719
 9192SOL    HW139212   4.692   3.987   5.018 -1.7265 -0.8564  1.3106
 9192SOL    HW239213   4.648   4.108   5.095  1.8488  1.8825  2.5701
 9193SOL     OW39214   3.754   4.263   8.750 -0.1278 -0.1019 -0.1251
 9193SOL    HW139215   3.682   4.270   8.813 -0.0887 -0.1031 -0.0799
 9193SOL    HW239216   3.817   4.216   8.805 -1.6724  0.2146  1.9246
 9194SOL     OW39217   3.950   1.790   4.181  0.0323 -0.2982  0.2360
 9194SOL    HW139218   4.023   1.728   4.179 -0.1931 -0.5466 -0.7322
 9194SOL    HW239219   3.873   1.732   4.175  0.0323 -0.2562 -0.2165
 9195SOL     OW39220   1.873   2.963   0.352 -0.1592  0.0151 -0.0158
 9195SOL    HW139221   1.956   2.924   0.325 -1.6004 -3.6724  0.8473
 9195SOL    HW239222   1.837   3.002   0.272 -2.7616  0.8603  1.5655
 9196SOL     OW39223   0.222   2.514  13.869 -0.1206  0.1403 -0.5073
 9196SOL    HW139224   0.261   2.598  13.895 -0.4093 -0.1722  0.9588
 9196SOL    HW239225   0.200   2.535  13.779  1.7733  0.6936 -0.8395
 9197SOL     OW39226   0.443   3.761  13.484 -0.3040  0.3399 -0.1820
 9197SOL    HW139227   0.385   3.780  13.410  0.6175  1.8720 -0.5226
 9197SOL    HW239228   0.407   3.677  13.511  0.9399  0.4336  1.7627
 9198SOL     OW39229   0.296   0.891   0.437 -0.2864 -0.3532  0.2128
 9198SOL    HW139230   0.348   0.909   0.359  0.2351 -0.1876  0.5973
 9198SOL    HW239231   0.353   0.897   0.514  0.6458 -0.2950 -0.4818
 9199SOL     OW39232   1.337   4.555   2.009  0.3917 -0.5260  0.5229
 9199SOL    HW139233   1.403   4.604   1.960  0.5939 -0.7420  0.5792
 9199SOL    HW239234   1.260   4.560   1.953  0.3701 -1.5987  0.4638
 9200SOL     OW39235   2.833   1.262  13.866 -0.2321  0.1566  0.0772
 9200SOL    HW139236   2.786   1.182  13.889 -0.1980  0.3801  0.9361
 9200SOL    HW239237   2.799   1.268  13.777  0.2990 -0.0284 -0.1364
 9201SOL     OW39238   0.429   1.819  13.992 -0.6620 -0.6631 -0.5142
 9201SOL    HW139239   0.399   1.908  13.973  2.4344  0.1065 -1.8384
 9201SOL    HW239240   0.353   1.784  14.038  0.9820 -1.4581  1.5795
 9202SOL     OW39241   1.740   1.877   2.626  0.6004  0.6151  0.0081
 9202SOL    HW139242   1.777   1.959   2.594  0.2529 -0.1023 -2.1870
 9202SOL    HW239243   1.796   1.820   2.573 -1.9218 -2.9776  1.2571
 9203SOL     OW39244   0.759   3.874   9.392  0.1487  0.2202  0.3887
 9203SOL    HW139245   0.677   3.827   9.410  0.2694  1.1459  3.4711
 9203SOL    HW239246   0.747   3.948   9.452  0.9975  0.6864 -0.0222
 9204SOL     OW39247   1.863   1.785   6.839 -0.3532 -0.6543 -0.1071
 9204SOL    HW139248   1.900   1.767   6.926  2.1280  3.1197 -0.3839
 9204SOL    HW239249   1.854   1.697   6.802  0.3067 -0.9944  0.5412
 9205SOL     OW39250   0.697   4.423   5.962  0.6817  0.3168  0.0679
 9205SOL    HW139251   0.716   4.517   5.964 -1.6750  0.7722  1.7155
 9205SOL    HW239252   0.717   4.401   6.053 -3.1196  0.9719  1.0800
 9206SOL     OW39253   0.617   4.109   8.077 -0.5982  0.2034  0.2875
 9206SOL    HW139254   0.622   4.016   8.058 -0.4999  0.4321 -0.7931
 9206SOL    HW239255   0.540   4.121   8.133  1.2523  2.2899  2.3955
 9207SOL     OW39256   3.437   4.108   8.546 -0.1117 -0.1692  0.3496
 9207SOL    HW139257   3.395   4.097   8.631  0.2704  1.8405  0.7866
 9207SOL    HW239258   3.479   4.023   8.531 -1.0510 -0.7217  0.7938
 9208SOL     OW39259   0.718   1.168   9.657 -0.2533  0.1885 -0.2956
 9208SOL    HW139260   0.715   1.243   9.598 -0.2465  0.8073  0.4948
 9208SOL    HW239261   0.683   1.204   9.738 -0.4157  0.3841 -0.4539
 9209SOL     OW39262   1.627   2.866   6.645  0.0124  0.1841  0.0852
 9209SOL    HW139263   1.611   2.780   6.607 -1.9146  0.1175  1.0585
 9209SOL    HW239264   1.562   2.869   6.714  1.0789  0.2438  1.0922
 9210SOL     OW39265   0.602   1.693   8.082  0.1378  0.3473 -0.1732
 9210SOL    HW139266   0.648   1.776   8.091  0.7798 -0.0472  0.1829
 9210SOL    HW239267   0.547   1.691   8.160  0.3436 -3.0903 -0.0984
 9211SOL     OW39268   2.614   0.197   5.540 -0.4869 -0.0488  0.5868
 9211SOL    HW139269   2.550   0.137   5.502  1.8512 -1.5269 -1.0575
 9211SOL    HW239270   2.605   0.277   5.488 -4.3499 -1.1273 -0.4054
 9212SOL     OW39271   2.580   1.097   2.384  0.4318 -0.2102 -0.1306
 9212SOL    HW139272   2.646   1.163   2.364  0.0277 -0.1434 -1.2194
 9212SOL    HW239273   2.639   1.022   2.378  0.0307 -0.4869 -0.6339
 9213SOL     OW39274   2.930   3.239   3.535 -0.6866 -0.4368  0.1316
 9213SOL    HW139275   2.973   3.241   3.449  2.0429 -1.7439  1.4651
 9213SOL    HW239276   3.006   3.227   3.592  0.0863  0.0316 -0.7906
 9214SOL     OW39277   3.100   0.074   8.891  0.1318  0.4658  0.1062
 9214SOL    HW139278   3.044   0.150   8.873 -2.6960 -1.8389 -0.7639
 9214SOL    HW239279   3.115   0.070   8.985  0.2248  0.3276  0.0845
 9215SOL     OW39280   2.036   0.169   8.420  0.0684  0.3859  0.3442
 9215SOL    HW139281   1.949   0.129   8.419 -0.0118  0.5713 -0.2172
 9215SOL    HW239282   2.014   0.228   8.492  0.5685 -1.1512  1.7493
 9216SOL     OW39283   1.874   0.706   6.488 -0.2053  0.2019  0.0114
 9216SOL    HW139284   1.960   0.700   6.447 -0.1933 -2.7977  0.4697
 9216SOL    HW239285   1.881   0.759   6.568 -1.6750  1.0243 -0.4048
 9217SOL     OW39286   0.068   1.729  13.208 -0.2145  0.4218 -0.0849
 9217SOL    HW139287   0.036   1.698  13.123  2.8228 -1.2085 -0.6073
 9217SOL    HW239288   0.005   1.796  13.234  0.9563  1.0238  1.1467
 9218SOL     OW39289   1.564   4.072   6.991  0.4930 -0.4401  0.2332
 9218SOL    HW139290   1.593   4.007   7.055 -1.9381 -1.2418  0.5113
 9218SOL    HW239291   1.609   4.154   7.012 -0.1381 -0.3009  1.0035
 9219SOL     OW39292   0.327   4.408   1.630  0.1391  0.4013 -0.2725
 9219SOL    HW139293   0.292   4.383   1.716  0.4845 -0.8494 -0.4916
 9219SOL    HW239294   0.341   4.316   1.606 -0.4628  0.2447 -0.0193
 9220SOL     OW39295   2.946   2.887   2.048  0.1509  0.1356  0.2257
 9220SOL    HW139296   2.936   2.845   2.133 -2.6169  1.0930  0.3813
 9220SOL    HW239297   2.950   2.982   2.059  1.7086  0.0575  0.3258
 9221SOL     OW39298   0.964   0.862   1.666 -0.1217 -0.6452  0.8722
 9221SOL    HW139299   0.876   0.883   1.696  0.1009  3.4628 -1.4175
 9221SOL    HW239300   0.971   0.907   1.582  1.6319 -3.3474 -0.4235
 9222SOL     OW39301   1.616   4.383   6.867 -0.0139  0.0560  0.1261
 9222SOL    HW139302   1.628   4.336   6.949  1.3786  1.4009  0.7048
 9222SOL    HW239303   1.708   4.398   6.846  0.1847  1.1659  1.7504
 9223SOL     OW39304   3.307   4.069   4.249  0.8420  0.0418 -0.2020
 9223SOL    HW139305   3.390   4.029   4.221  0.0216 -1.9639  0.2282
 9223SOL    HW239306   3.267   4.001   4.304 -1.6068  1.0476 -0.7498
 9224SOL     OW39307   0.973   4.149   5.061 -0.0590  0.4700 -0.4250
 9224SOL    HW139308   0.923   4.224   5.093 -0.7250 -0.0869 -0.1629
 9224SOL    HW239309   0.966   4.089   5.136  1.2240  1.2160  0.2895
 9225SOL     OW39310   1.343   2.263  13.253  0.2082 -0.1407  0.0364
 9225SOL    HW139311   1.391   2.345  13.250 -0.6055  0.3708  0.9315
 9225SOL    HW239312   1.351   2.214  13.171  0.3008  1.0976 -0.6788
 9226SOL     OW39313   0.022   3.173   7.559 -0.2857 -0.1846  0.2315
 9226SOL    HW139314   0.084   3.167   7.486 -1.0804 -1.9012 -0.3017
 9226SOL    HW239315   0.090   3.177   7.627  0.8435  0.2217 -0.9281
 9227SOL     OW39316   0.812   1.897   1.937 -0.2671 -0.4140 -0.3619
 9227SOL    HW139317   0.767   1.868   1.858  0.9048 -1.0608 -0.8056
 9227SOL    HW239318   0.895   1.848   1.938  0.5001  0.8810 -0.4017
 9228SOL     OW39319   2.646   4.227   8.974  0.0087 -1.0078 -0.2705
 9228SOL    HW139320   2.609   4.309   8.942  1.4340  0.1497  1.0290
 9228SOL    HW239321   2.604   4.215   9.059 -1.2922 -1.9906 -1.0664
 9229SOL     OW39322   1.933   0.597   4.774 -0.4694  0.0111 -0.4006
 9229SOL    HW139323   1.875   0.596   4.851 -1.4430 -1.7800 -1.1508
 9229SOL    HW239324   1.881   0.659   4.722  1.1965  0.6300 -1.3248
 9230SOL     OW39325   2.911   4.411  17.582  0.0658 -0.0572  0.1355
 9230SOL    HW139326   2.928   4.392  17.674 -2.3255  1.2567  0.8593
 9230SOL    HW239327   2.980   4.364  17.535  1.5656  2.3890 -0.0507
 9231SOL     OW39328   3.931   3.857  17.676 -0.2724  0.0689 -0.0172
 9231SOL    HW139329   3.990   3.920  17.633  0.0163 -1.1788 -1.4512
 9231SOL    HW239330   3.868   3.852  17.604  0.4282  1.6229 -0.7377
 9232SOL     OW39331   2.380   3.403   1.231 -0.5291 -0.2408 -0.2474
 9232SOL    HW139332   2.289   3.387   1.254 -0.3329 -0.7386  0.1918
 9232SOL    HW239333   2.382   3.498   1.220 -0.2330 -0.4288 -1.9058
 9233SOL     OW39334   4.232   3.406   2.541 -0.2720 -0.6930  0.0194
 9233SOL    HW139335   4.241   3.502   2.538  0.5138 -0.8338 -2.2138
 9233SOL    HW239336   4.202   3.396   2.631 -0.8772 -0.5623 -0.1716
 9234SOL     OW39337   4.631   3.278   8.275  0.0470 -0.0371 -0.2556
 9234SOL    HW139338   4.675   3.231   8.204  0.8869  0.5637 -0.1285
 9234SOL    HW239339   4.708   3.322   8.311 -1.2817 -0.3231  2.9524
 9235SOL     OW39340   3.487   2.084  15.461  0.0866 -0.3396 -0.7581
 9235SOL    HW139341   3.512   2.061  15.371  0.5250 -0.6355 -0.5629
 9235SOL    HW239342   3.516   2.005  15.507  1.7640  1.8819  2.0127
 9236SOL     OW39343   2.883   0.880   2.625  0.2212 -0.4564  0.3564
 9236SOL    HW139344   2.914   0.802   2.578  0.2206 -1.0932  1.4129
 9236SOL    HW239345   2.827   0.829   2.683  0.0329 -0.5365  0.1016
 9237SOL     OW39346   1.923   4.253  10.471 -0.1583  0.0115  0.2480
 9237SOL    HW139347   1.939   4.343  10.441  1.3942 -0.2166  0.3578
 9237SOL    HW239348   1.964   4.252  10.558 -2.0135  0.8398  1.1256
 9238SOL     OW39349   3.652   1.140   7.229 -0.2127 -0.0297 -0.5429
 9238SOL    HW139350   3.622   1.100   7.311 -2.0301 -0.3419 -1.3610
 9238SOL    HW239351   3.742   1.159   7.256 -0.7514  0.2030  1.1323
 9239SOL     OW39352   3.655   0.641   4.516 -0.0280 -0.1956  0.3572
 9239SOL    HW139353   3.617   0.554   4.528 -0.7641 -0.3136 -2.8165
 9239SOL    HW239354   3.580   0.700   4.525 -0.9727 -1.5826  1.6009
 9240SOL     OW39355   4.689   3.631   2.711  0.6491 -0.3960  0.2904
 9240SOL    HW139356   4.713   3.568   2.643  2.6756  0.4144  0.2348
 9240SOL    HW239357   0.013   3.602   2.779  1.3248  1.4804  0.4966
 9241SOL     OW39358   1.440   3.826   7.711 -0.1551 -0.0293  0.5329
 9241SOL    HW139359   1.423   3.909   7.668  1.4689  0.2737  0.4870
 9241SOL    HW239360   1.390   3.767   7.654  0.2508  2.0838 -2.0204
 9242SOL     OW39361   3.108   2.360   3.222  0.2725  0.4530 -0.2040
 9242SOL    HW139362   3.195   2.350   3.260  0.4656  2.6247 -0.1088
 9242SOL    HW239363   3.113   2.455   3.213  1.2903  0.2723 -1.5487
 9243SOL     OW39364   0.280   1.414  15.119  0.3293 -0.6947  0.2035
 9243SOL    HW139365   0.299   1.322  15.097 -0.7615 -1.0031  0.5224
 9243SOL    HW239366   0.197   1.401  15.165 -1.4788 -0.6641 -2.9721
 9244SOL     OW39367   1.467   4.723   7.125  0.1171  0.3564  0.2760
 9244SOL    HW139368   1.552   4.679   7.124 -0.6779 -1.1504 -1.9997
 9244SOL    HW239369   1.439   4.716   7.034 -2.4860 -2.4820  1.3161
 9245SOL     OW39370   4.020   3.577   9.596  0.2664 -0.1609  0.5795
 9245SOL    HW139371   4.015   3.562   9.502  0.3692 -0.5432  0.6354
 9245SOL    HW239372   4.002   3.671   9.600 -1.2654 -0.4147 -0.2425
 9246SOL     OW39373   3.250   2.482   7.851  0.3986  0.1657  0.8606
 9246SOL    HW139374   3.191   2.425   7.902  1.4462 -0.8973  0.8798
 9246SOL    HW239375   3.333   2.460   7.893  0.5058 -1.6657 -0.3112
 9247SOL     OW39376   1.297   2.814   5.325 -0.2469 -0.0089 -0.2354
 9247SOL    HW139377   1.247   2.894   5.341  2.7662  2.0974 -1.3318
 9247SOL    HW239378   1.311   2.825   5.231 -0.8075 -0.0479 -0.3234
 9248SOL     OW39379   0.323   3.119   3.064 -0.5579 -0.2438 -0.2423
 9248SOL    HW139380   0.352   3.094   3.151  0.4952 -1.8204 -1.0459
 9248SOL    HW239381   0.363   3.056   3.004 -0.9422 -0.2799 -0.4655
 9249SOL     OW39382   3.511   1.267   8.377  0.5728 -0.5039  0.2232
 9249SOL    HW139383   3.545   1.294   8.463  0.2757 -0.1188  0.2206
 9249SOL    HW239384   3.458   1.192   8.401  0.1720 -0.0889  0.6490
 9250SOL     OW39385   1.864   1.327   4.106  0.2289  0.3029 -0.0680
 9250SOL    HW139386   1.935   1.321   4.170  0.1248 -0.1120  0.0116
 9250SOL    HW239387   1.848   1.420   4.096 -1.1263  0.1091  0.3046
 9251SOL     OW39388   0.811   0.119   6.705 -0.0756  0.6066  0.1350
 9251SOL    HW139389   0.841   0.147   6.618 -0.5184 -0.0649 -0.2339
 9251SOL    HW239390   0.716   0.115   6.693 -0.3664  3.4087  1.4528
 9252SOL     OW39391   2.423   3.765   3.569  0.5786  0.5963  0.3951
 9252SOL    HW139392   2.514   3.739   3.559  0.1273 -0.5580 -0.6228
 9252SOL    HW239393   2.419   3.839   3.508  0.5215  0.2826  0.0199
 9253SOL     OW39394   1.307   3.766   5.010 -0.1121 -0.9174  0.2002
 9253SOL    HW139395   1.313   3.827   5.083 -0.5211  0.9317 -1.2813
 9253SOL    HW239396   1.242   3.815   4.958  0.4177 -1.3689 -0.8821
 9254SOL     OW39397   4.132   2.609   3.018 -0.0661 -0.1094 -0.1497
 9254SOL    HW139398   4.093   2.565   2.942 -0.0995 -0.1027 -0.1364
 9254SOL    HW239399   4.172   2.534   3.062 -1.1683  0.3734  1.6800
 9255SOL     OW39400   0.277   1.288   8.130 -0.2792 -0.5245 -0.2585
 9255SOL    HW139401   0.248   1.267   8.218  1.9350 -2.3232  0.0284
 9255SOL    HW239402   0.371   1.283   8.146  0.1643  1.3852 -2.2248
 9256SOL     OW39403   4.548   1.075   7.191 -0.0638  0.1104  0.1122
 9256SOL    HW139404   4.520   1.017   7.120  0.5603 -1.3995  1.0756
 9256SOL    HW239405   4.569   1.159   7.150  2.0092  0.0088  0.9555
 9257SOL     OW39406   0.547   0.429   2.777  0.0550 -0.5820  0.2374
 9257SOL    HW139407   0.638   0.446   2.756 -1.1457  2.4839 -2.3104
 9257SOL    HW239408   0.514   0.440   2.688 -2.7093  0.3162  1.3835
 9258SOL     OW39409   2.942   2.589   5.209  0.9788 -0.1196  0.4877
 9258SOL    HW139410   2.941   2.509   5.261 -1.9741 -1.4790 -1.6546
 9258SOL    HW239411   2.852   2.617   5.226  0.7761 -1.0609  0.9549
 9259SOL     OW39412   2.233   2.606   7.118 -1.0100  0.2140 -0.5089
 9259SOL    HW139413   2.272   2.519   7.120 -0.7083  0.3481 -0.6611
 9259SOL    HW239414   2.250   2.626   7.026  0.5629  0.6594 -0.1131
 9260SOL     OW39415   1.653   4.095   6.279 -0.4050  0.0392  0.0858
 9260SOL    HW139416   1.706   4.135   6.348 -0.0132 -0.5019  0.0940
 9260SOL    HW239417   1.599   4.031   6.324 -1.0211 -0.1454 -0.9107
 9261SOL     OW39418   4.631   4.289   4.477 -0.2654 -0.6103  0.4549
 9261SOL    HW139419   4.594   4.299   4.564 -0.2212 -0.7149  0.4863
 9261SOL    HW239420   4.585   4.210   4.447 -0.6416 -0.7433  1.3845
 9262SOL     OW39421   0.323   2.705   7.607  0.2840  0.6804  0.0581
 9262SOL    HW139422   0.230   2.713   7.584 -0.0498  0.5381  1.3292
 9262SOL    HW239423   0.310   2.650   7.685 -0.8348 -0.1635 -0.7192
 9263SOL     OW39424   3.880   1.782   2.558  0.1189  0.4647 -0.0691
 9263SOL    HW139425   3.836   1.725   2.621 -1.7002  0.0747 -1.6753
 9263SOL    HW239426   3.811   1.848   2.561  1.4043  1.8198 -0.4397
 9264SOL     OW39427   1.020   0.012  10.819 -0.2211 -0.2333  0.3795
 9264SOL    HW139428   0.929   0.042  10.822 -0.5552 -1.0282 -2.3546
 9264SOL    HW239429   1.034   4.734  10.913  1.2464  0.8219  0.3330
 9265SOL     OW39430   2.880   3.210  15.769  0.2744 -0.5062  0.1575
 9265SOL    HW139431   2.917   3.251  15.691 -1.7361 -1.1862 -1.1492
 9265SOL    HW239432   2.913   3.257  15.846 -0.6323 -0.3483  0.4586
 9266SOL     OW39433   4.062   3.815   3.020 -0.5700  0.3243  0.6364
 9266SOL    HW139434   4.125   3.785   3.086 -0.1510  1.5799  0.7986
 9266SOL    HW239435   4.107   3.795   2.938 -1.9691 -0.9561  0.1803
 9267SOL     OW39436   1.992   4.232   2.692  0.0386 -0.2398 -0.5197
 9267SOL    HW139437   2.053   4.245   2.765  2.0018  0.9266 -2.3565
 9267SOL    HW239438   2.033   4.285   2.624 -0.4924 -0.3953 -0.9612
 9268SOL     OW39439   0.813   4.167   6.342  0.0532  0.5280 -0.1231
 9268SOL    HW139440   0.901   4.200   6.326  0.6951 -0.6207  1.0699
 9268SOL    HW239441   0.822   4.080   6.304  0.3589  0.5285 -0.0533
 9269SOL     OW39442   4.554   0.609  10.972 -0.0073  0.0038  0.4018
 9269SOL    HW139443   4.536   0.693  11.014 -1.3235 -0.1205  0.0903
 9269SOL    HW239444   4.464   0.575  10.973  0.9409 -2.5986 -0.7076
 9270SOL     OW39445   3.149   3.343   5.945 -0.3296  0.6312 -0.0728
 9270SOL    HW139446   3.196   3.321   5.864  1.0598 -2.6327  1.6459
 9270SOL    HW239447   3.088   3.272   5.962  0.7425 -0.3755 -0.4954
 9271SOL     OW39448   1.266   2.164  16.504 -0.0692  0.4622 -0.3627
 9271SOL    HW139449   1.316   2.211  16.571  1.4477 -2.1552  0.3517
 9271SOL    HW239450   1.179   2.204  16.507 -0.8352 -1.3127  1.8147
 9272SOL     OW39451   2.755   0.317   3.798  0.0040  0.3148  0.4577
 9272SOL    HW139452   2.803   0.400   3.793  0.9146 -0.0939  2.2614
 9272SOL    HW239453   2.754   0.291   3.706  0.6336  2.9207 -0.2874
 9273SOL     OW39454   3.208   4.427   5.593 -0.4955  0.0301  0.2190
 9273SOL    HW139455   3.221   4.518   5.619  0.6132  0.1950 -0.9053
 9273SOL    HW239456   3.113   4.417   5.591 -0.1627 -3.4918  1.5616
 9274SOL     OW39457   2.936   0.885   2.038 -0.2634  0.0548  0.4788
 9274SOL    HW139458   2.982   0.813   1.994 -0.0189  0.8459 -0.5814
 9274SOL    HW239459   2.983   0.884   2.122 -0.0855  0.9634  0.3947
 9275SOL     OW39460   3.691   3.141   7.438  0.9826 -0.1723 -0.2785
 9275SOL    HW139461   3.705   3.101   7.523  0.4972  2.5549  1.0721
 9275SOL    HW239462   3.670   3.067   7.381 -1.2584  0.2129  0.0418
 9276SOL     OW39463   1.129   2.185   6.918 -0.1500 -0.2169 -0.3850
 9276SOL    HW139464   1.181   2.106   6.936 -1.7404 -1.1370  0.1256
 9276SOL    HW239465   1.045   2.140   6.925 -0.1008 -0.5695 -2.1288
 9277SOL     OW39466   0.884   2.670   0.402  0.1476  0.2105  0.0465
 9277SOL    HW139467   0.894   2.577   0.383  0.8196  0.4486 -0.7888
 9277SOL    HW239468   0.885   2.699   0.310 -0.3295  1.9543  0.5918
 9278SOL     OW39469   2.464   1.277   7.519 -0.1899 -0.1220 -0.1450
 9278SOL    HW139470   2.543   1.223   7.519  1.7824  2.8248 -0.3868
 9278SOL    HW239471   2.409   1.232   7.454  0.3027  0.6826 -1.1112
 9279SOL     OW39472   2.104   1.600   8.149  0.3632  0.1987 -0.4071
 9279SOL    HW139473   2.134   1.559   8.067  1.6001  1.1915 -0.4607
 9279SOL    HW239474   2.146   1.686   8.144 -2.3199  1.4394 -1.1617
 9280SOL     OW39475   0.419   2.488   8.778 -0.4166  0.2480  0.6111
 9280SOL    HW139476   0.471   2.549   8.725  2.0987 -1.5734  0.9751
 9280SOL    HW239477   0.459   2.498   8.864  1.8740 -0.5857 -0.3650
 9281SOL     OW39478   3.209   0.622   3.694  0.5092  0.1774  0.0999
 9281SOL    HW139479   3.270   0.668   3.637  2.0372 -0.4019  1.2692
 9281SOL    HW239480   3.159   0.701   3.715 -1.4506 -0.5537 -1.7158
 9282SOL     OW39481   0.118   4.022   3.334 -0.9552 -0.4982 -0.1461
 9282SOL    HW139482   0.177   4.055   3.266  1.2255 -0.6370  1.6581
 9282SOL    HW239483   0.168   4.024   3.416 -0.4574  0.3367 -0.4759
 9283SOL     OW39484   0.089   1.973   4.765 -0.1865 -0.2006 -0.1387
 9283SOL    HW139485   0.119   1.898   4.816 -0.4987 -1.4119 -1.7077
 9283SOL    HW239486   0.123   1.955   4.677  0.9588  0.6902  0.1311
 9284SOL     OW39487   1.504   3.065   0.253 -0.0342 -0.2100 -0.5984
 9284SOL    HW139488   1.426   3.107   0.218  0.4520  0.2567 -1.1268
 9284SOL    HW239489   1.501   3.093   0.344 -0.7558 -1.8135 -0.1213
 9285SOL     OW39490   0.122   0.986   6.781  0.1559  0.3403 -0.0511
 9285SOL    HW139491   0.057   0.922   6.751 -0.1439  0.8043 -0.4036
 9285SOL    HW239492   0.200   0.934   6.764 -0.4478 -0.1003 -1.4858
 9286SOL     OW39493   3.971   0.550  16.663  0.0733 -0.4772 -0.1868
 9286SOL    HW139494   4.014   0.618  16.715 -1.2685  0.5793 -0.4595
 9286SOL    HW239495   4.008   0.559  16.575 -0.9058 -0.3120 -0.5862
 9287SOL     OW39496   4.401   2.616   7.997 -0.1775  0.4388 -0.0797
 9287SOL    HW139497   4.408   2.595   8.090  3.1820  0.3192 -0.3314
 9287SOL    HW239498   4.369   2.706   7.998 -0.4681  0.3012  1.9679
 9288SOL     OW39499   1.002   2.513   4.412  0.3328 -0.0134 -0.1827
 9288SOL    HW139500   0.991   2.492   4.505  0.4602 -3.4429 -0.9140
 9288SOL    HW239501   0.937   2.580   4.395 -0.3212  0.3748  3.8962
 9289SOL     OW39502   1.858   1.324   0.390 -0.5052 -0.3798  0.4769
 9289SOL    HW139503   1.936   1.302   0.440 -0.2047  0.6299  0.4446
 9289SOL    HW239504   1.808   1.242   0.394 -1.1390 -0.0662 -1.0018
 9290SOL     OW39505   2.252   2.974   7.187 -0.2746  0.7500  0.1406
 9290SOL    HW139506   2.207   2.930   7.116 -0.0915  2.4763 -1.0543
 9290SOL    HW239507   2.287   3.051   7.140  1.8572  0.4489  1.2132
 9291SOL     OW39508   4.476   0.980   4.171  0.2461 -0.1937  0.3308
 9291SOL    HW139509   4.398   1.029   4.199  0.8714  1.4520 -0.7831
 9291SOL    HW239510   4.539   1.032   4.221  0.0400 -1.4115  1.8347
 9292SOL     OW39511   0.706   3.308   3.567 -0.0993  0.4186  0.0580
 9292SOL    HW139512   0.626   3.317   3.618 -1.0532  1.7113 -1.6624
 9292SOL    HW239513   0.757   3.269   3.638  0.8823  2.0539  0.2582
 9293SOL     OW39514   0.811   3.930  14.755  0.4498  0.1333  0.0725
 9293SOL    HW139515   0.749   3.935  14.827 -1.5464  0.1273 -1.6706
 9293SOL    HW239516   0.833   4.018  14.726 -1.4182  1.0436  1.4732
 9294SOL     OW39517   1.793   0.742  16.569  0.1294  0.7785 -0.8027
 9294SOL    HW139518   1.851   0.789  16.629 -1.0110  0.0447  0.8610
 9294SOL    HW239519   1.787   0.802  16.494 -1.3266  1.6309 -0.0071
 9295SOL     OW39520   3.175   1.015   6.272 -0.4418  0.4487  0.2732
 9295SOL    HW139521   3.158   1.094   6.323 -0.3107 -0.4168  1.6321
 9295SOL    HW239522   3.212   1.056   6.193 -0.0357 -1.1526 -0.3703
 9296SOL     OW39523   1.136   0.449   8.967  0.2827 -0.6269 -0.3191
 9296SOL    HW139524   1.130   0.467   8.873  2.8803  1.0474 -0.1668
 9296SOL    HW239525   1.081   0.518   9.004 -0.8311 -1.5611 -0.2432
 9297SOL     OW39526   1.521   0.743  10.029 -0.3792 -0.0196 -0.1098
 9297SOL    HW139527   1.605   0.709  10.001 -0.9840  0.7934 -2.9030
 9297SOL    HW239528   1.542   0.836  10.029 -0.5762  0.0266  0.4713
 9298SOL     OW39529   0.777   0.655  15.520  0.4095 -0.2000 -0.3735
 9298SOL    HW139530   0.736   0.636  15.436 -0.2000  0.4927 -0.2297
 9298SOL    HW239531   0.766   0.750  15.521 -2.2018 -0.4750 -3.0289
 9299SOL     OW39532   4.406   3.916  15.826 -1.1687 -0.5033 -0.4700
 9299SOL    HW139533   4.330   3.972  15.822 -0.6810  0.1018 -1.2264
 9299SOL    HW239534   4.458   3.945  15.750  2.4231 -0.9153  1.8203
 9300SOL     OW39535   2.666   0.262   9.501 -0.4900 -0.5984 -0.5001
 9300SOL    HW139536   2.643   0.335   9.559  1.2387 -0.0531 -0.5274
 9300SOL    HW239537   2.589   0.205   9.497 -0.3046 -0.7883 -1.3138
 9301SOL     OW39538   1.847   4.734   6.953  0.4378  0.3906  0.2713
 9301SOL    HW139539   1.905   0.062   6.992  0.5632  1.3881 -1.5793
 9301SOL    HW239540   1.811   0.039   6.875 -0.3913  0.2756  0.5992
 9302SOL     OW39541   2.904   4.673   4.831  0.3840  0.0283 -0.6518
 9302SOL    HW139542   2.909   0.002   4.762 -0.6770 -1.0875 -1.7949
 9302SOL    HW239543   2.969   4.611   4.798  0.5697  1.2486 -2.6372
 9303SOL     OW39544   3.215   0.552   2.775 -0.2682 -0.1609  0.1974
 9303SOL    HW139545   3.161   0.502   2.837 -0.3327 -1.2455 -0.7266
 9303SOL    HW239546   3.279   0.488   2.745 -0.3257  0.2122 -0.7216
 9304SOL     OW39547   1.493   3.570   4.665  0.1584  0.7443 -0.4322
 9304SOL    HW139548   1.554   3.642   4.678  2.5701 -1.4341  0.3828
 9304SOL    HW239549   1.458   3.602   4.582 -1.4344  1.9835  0.7101
 9305SOL     OW39550   1.716   4.383  12.115 -0.3829  0.6714  0.0348
 9305SOL    HW139551   1.650   4.447  12.090 -0.0055  0.4505 -1.5354
 9305SOL    HW239552   1.732   4.346  12.028  0.4659  1.5635 -0.1912
 9306SOL     OW39553   3.666   1.932  16.651 -0.2385 -0.6579 -0.1129
 9306SOL    HW139554   3.591   1.969  16.605 -0.1553  1.5463  1.5034
 9306SOL    HW239555   3.728   1.903  16.585  2.2875  0.9655  1.5469
 9307SOL     OW39556   2.950   3.790   5.065  0.1253 -0.5915 -0.0629
 9307SOL    HW139557   2.932   3.839   5.145 -0.0915 -1.3639  0.3611
 9307SOL    HW239558   2.909   3.704   5.074 -0.0754 -0.8267 -3.2847
 9308SOL     OW39559   3.201   0.551   4.869  0.2151 -0.1673 -0.0334
 9308SOL    HW139560   3.266   0.591   4.926  1.4293 -0.7113 -1.0412
 9308SOL    HW239561   3.248   0.474   4.837  1.0397  0.5740 -0.6019
 9309SOL     OW39562   2.975   2.068  16.504 -0.0785 -0.3663  0.0324
 9309SOL    HW139563   3.058   2.074  16.551  0.7267  0.1321 -1.4305
 9309SOL    HW239564   2.947   1.978  16.524 -0.4719 -0.7405 -2.1949
 9310SOL     OW39565   1.177   0.340   6.246  0.1976 -0.2986  0.0273
 9310SOL    HW139566   1.206   0.357   6.336  0.3283  0.5407 -0.1758
 9310SOL    HW239567   1.241   0.275   6.216  0.2679 -0.1193 -0.2098
 9311SOL     OW39568   4.294   0.064   1.894  0.2584 -0.1561  0.1052
 9311SOL    HW139569   4.336   0.103   1.971 -1.9264  2.2118  0.1004
 9311SOL    HW239570   4.313   0.123   1.821  1.7260  1.8437  2.0997
 9312SOL     OW39571   4.157   3.071   2.563  0.3967  0.2270 -0.5932
 9312SOL    HW139572   4.170   3.103   2.474 -2.1553  1.6056 -0.4764
 9312SOL    HW239573   4.130   3.152   2.608 -0.1077 -0.8290  1.0036
 9313SOL     OW39574   3.893   3.694   4.061  0.0360  0.2782  0.0859
 9313SOL    HW139575   3.801   3.708   4.082 -0.1426 -1.0003  0.1934
 9313SOL    HW239576   3.920   3.761   3.997 -3.4591  2.1408  0.5898
 9314SOL     OW39577   3.740   1.021   6.523  0.0767  0.9854  0.8040
 9314SOL    HW139578   3.742   0.929   6.549  1.2122  1.2206  1.5374
 9314SOL    HW239579   3.672   1.050   6.584  0.0041 -0.6197  1.4854
 9315SOL     OW39580   3.367   1.841   9.042  0.2626  0.1327  0.5036
 9315SOL    HW139581   3.300   1.909   9.047  0.5260  0.5731 -1.7003
 9315SOL    HW239582   3.313   1.766   9.015 -1.5529  1.1565  1.3238
 9316SOL     OW39583   1.063   3.792   1.537  0.0209  0.0968 -0.0601
 9316SOL    HW139584   1.009   3.733   1.589  2.2943 -0.4406  1.7046
 9316SOL    HW239585   1.134   3.800   1.600 -0.6636 -1.1836  0.8726
 9317SOL     OW39586   0.833   3.329   4.252 -0.1872  1.0333 -0.0780
 9317SOL    HW139587   0.778   3.253   4.273 -0.3684  0.8064 -1.3629
 9317SOL    HW239588   0.793   3.370   4.175  1.3364  0.5521 -1.1253
 9318SOL     OW39589   3.047   0.506   5.472  0.6394  0.1193  0.2387
 9318SOL    HW139590   2.994   0.429   5.493 -0.9140  0.6676 -1.6732
 9318SOL    HW239591   3.056   0.489   5.378 -2.6675 -0.0220 -0.0456
 9319SOL     OW39592   0.644   2.344   9.133 -0.4809  0.3725 -0.0852
 9319SOL    HW139593   0.584   2.280   9.094  0.1233  1.4066 -2.7464
 9319SOL    HW239594   0.641   2.300   9.217  0.4882 -0.9084 -0.7218
 9320SOL     OW39595   3.116   2.614  10.460 -0.8782 -0.0331  0.0565
 9320SOL    HW139596   3.077   2.609  10.373 -0.3776 -2.4162 -0.0086
 9320SOL    HW239597   3.159   2.699  10.450 -0.3291 -0.2281  0.7391
 9321SOL     OW39598   2.684   2.049   5.128 -0.2915 -0.7771  0.2037
 9321SOL    HW139599   2.605   2.018   5.173 -1.0124  2.2135  0.9719
 9321SOL    HW239600   2.719   1.968   5.091  0.6982  0.1885 -0.9403
 9322SOL     OW39601   0.647   1.140  15.971  0.2536 -0.0651 -0.4654
 9322SOL    HW139602   0.551   1.133  15.974  0.2283  1.5968  2.3636
 9322SOL    HW239603   0.659   1.149  16.066 -0.9959 -2.5248 -0.0738
 9323SOL     OW39604   0.149   3.934   7.136 -0.3674 -0.3240 -0.3370
 9323SOL    HW139605   0.192   3.862   7.090 -0.7838 -1.1199  0.5197
 9323SOL    HW239606   0.225   3.967   7.183 -1.4492  0.0947  1.1419
 9324SOL     OW39607   4.666   3.945   5.645 -0.4590  0.3060  0.8270
 9324SOL    HW139608   4.733   4.014   5.645 -1.4376  1.2541  1.2332
 9324SOL    HW239609   4.715   3.881   5.697 -1.0138  0.3850  1.4424
 9325SOL     OW39610   0.424   3.293   8.320 -0.0986  0.6331 -0.0176
 9325SOL    HW139611   0.496   3.312   8.260 -0.9898  0.1803 -1.2260
 9325SOL    HW239612   0.464   3.235   8.385  0.4397  1.6079  0.5348
 9326SOL     OW39613   0.155   0.927   5.436  0.2665  0.2209 -0.0536
 9326SOL    HW139614   0.168   0.887   5.350 -2.1389  0.5298 -0.5632
 9326SOL    HW239615   0.111   1.003   5.398  0.3514 -0.5234 -1.6224
 9327SOL     OW39616   3.869   3.320   2.643 -0.6803 -0.0912  1.3823
 9327SOL    HW139617   3.880   3.255   2.711  0.3963 -1.2172  0.1472
 9327SOL    HW239618   3.943   3.380   2.657 -1.9050  1.8353 -0.3685
 9328SOL     OW39619   2.752   0.863   5.597  0.1441  0.5197  0.2760
 9328SOL    HW139620   2.848   0.873   5.601  0.1964  0.7540 -1.6525
 9328SOL    HW239621   2.721   0.953   5.598 -2.4431 -0.3847 -0.1712
 9329SOL     OW39622   0.062   1.415   3.616  0.1257  0.2315 -0.2997
 9329SOL    HW139623   0.036   1.323   3.621  1.8443 -0.2007  0.6683
 9329SOL    HW239624   0.009   1.457   3.684  0.3819 -1.1895  0.7765
 9330SOL     OW39625   3.959   0.527   8.776  0.0735 -0.7992 -0.2052
 9330SOL    HW139626   4.018   0.521   8.701 -1.0737  0.4842 -1.2033
 9330SOL    HW239627   3.924   0.616   8.769  3.1524  0.3356 -0.9019
 9331SOL     OW39628   1.205   2.986   0.544  0.4457 -0.4380 -0.0554
 9331SOL    HW139629   1.233   3.034   0.466  1.1253  0.9669  1.0506
 9331SOL    HW239630   1.113   2.965   0.529  0.1974  1.7032 -1.4282
 9332SOL     OW39631   0.232   0.831   4.096 -0.0055 -0.0861  0.1513
 9332SOL    HW139632   0.144   0.816   4.063 -0.7713  0.7154  1.8478
 9332SOL    HW239633   0.208   0.868   4.181  0.6496 -0.0432  0.3256
 9333SOL     OW39634   0.608   2.920   0.468 -0.2428 -0.1398 -0.7292
 9333SOL    HW139635   0.522   2.949   0.501  0.3649  3.2548 -2.0922
 9333SOL    HW239636   0.663   2.996   0.489  2.0907 -0.8372 -4.4072
 9334SOL     OW39637   4.703   0.775   6.713 -0.5834  0.2618 -0.1386
 9334SOL    HW139638   4.611   0.779   6.688 -1.4483 -0.3080  3.0320
 9334SOL    HW239639   4.715   0.681   6.729 -2.8303 -0.1786 -1.1033
 9335SOL     OW39640   2.043   3.931  14.606  0.1899 -0.0373 -0.0845
 9335SOL    HW139641   2.138   3.934  14.610  0.1219 -0.5601  2.2781
 9335SOL    HW239642   2.011   4.015  14.638  2.2520  1.2762 -1.5491
 9336SOL     OW39643   2.506   2.090  12.193 -0.1874  0.0576 -0.2246
 9336SOL    HW139644   2.515   2.003  12.155 -2.3136  0.5023 -1.7148
 9336SOL    HW239645   2.415   2.116  12.181 -0.5614 -1.8530 -1.3601
 9337SOL     OW39646   4.384   3.030  11.355  0.0623  0.5101  0.5132
 9337SOL    HW139647   4.436   3.080  11.292  1.0854  1.3533  2.0347
 9337SOL    HW239648   4.377   2.947  11.308  0.2234 -0.7816  2.7789
 9338SOL     OW39649   1.930   0.883   6.693  0.4418 -0.0613 -0.7504
 9338SOL    HW139650   1.986   0.947   6.650 -0.4431  2.4714  1.8522
 9338SOL    HW239651   1.870   0.940   6.741 -0.2340  0.7267 -2.5557
 9339SOL     OW39652   0.650   4.358   7.644  0.1144  0.0998 -0.2042
 9339SOL    HW139653   0.586   4.315   7.700  1.2883 -0.7018  0.5451
 9339SOL    HW239654   0.699   4.400   7.715  2.7577 -2.7177 -0.3168
 9340SOL     OW39655   0.731   2.387   1.070 -0.2531 -0.1397  0.0527
 9340SOL    HW139656   0.805   2.332   1.097 -0.4302  0.3446  1.5365
 9340SOL    HW239657   0.709   2.413   1.159  2.7343  0.1969  0.6714
 9341SOL     OW39658   1.623   0.352   3.920 -0.8297  0.2162  0.3149
 9341SOL    HW139659   1.618   0.429   3.864  3.1787 -0.4420 -1.0052
 9341SOL    HW239660   1.589   0.292   3.853 -0.3680 -0.5349  0.7494
 9342SOL     OW39661   3.088   3.020  17.498 -0.3366 -0.1047  0.2834
 9342SOL    HW139662   3.103   3.090  17.435 -0.3846  0.3828  0.8180
 9342SOL    HW239663   3.051   3.066  17.573  1.7179  0.8237  0.7265
 9343SOL     OW39664   2.990   3.890   6.940  0.0058 -0.4835  0.1989
 9343SOL    HW139665   2.964   3.904   7.031 -0.0729  1.5722 -0.1316
 9343SOL    HW239666   3.082   3.867   6.952  0.0082 -1.1979 -1.2244
 9344SOL     OW39667   3.461   1.052  16.368 -0.2598 -0.1533 -0.3579
 9344SOL    HW139668   3.484   0.993  16.297  0.5837  0.5350 -0.6606
 9344SOL    HW239669   3.535   1.110  16.389 -0.1155  0.0697 -1.4812
 9345SOL     OW39670   1.708   1.382  11.911  0.6750 -0.1869 -0.1053
 9345SOL    HW139671   1.666   1.421  11.834  2.1240  0.8781 -0.3483
 9345SOL    HW239672   1.755   1.305  11.879 -0.5070 -1.3097  0.8782
 9346SOL     OW39673   2.585   0.114   5.186  0.3078 -0.2798  0.1045
 9346SOL    HW139674   2.677   0.091   5.196 -0.0754 -1.2393  1.5159
 9346SOL    HW239675   2.572   0.044   5.122  1.1685 -2.2383  2.0546
 9347SOL     OW39676   3.177   2.010  17.646  0.1540 -0.0291  0.2403
 9347SOL    HW139677   3.124   2.081  17.609  0.1321 -0.3551 -0.3542
 9347SOL    HW239678   3.209   1.954  17.576  2.9964  3.8777 -1.5878
 9348SOL     OW39679   4.114   0.819   3.268  0.3518  0.1323  0.3409
 9348SOL    HW139680   4.096   0.798   3.360  0.4265  2.5140  0.8912
 9348SOL    HW239681   4.206   0.839   3.282  0.3522 -0.6463  1.4647
 9349SOL     OW39682   0.653   2.315   3.509 -0.2663  0.0328  0.0171
 9349SOL    HW139683   0.581   2.278   3.559  1.2523 -1.6054  0.9957
 9349SOL    HW239684   0.696   2.365   3.578 -0.5952  0.1857  0.1090
 9350SOL     OW39685   0.244   1.091   5.935  0.0474  0.5292  0.0783
 9350SOL    HW139686   0.264   1.029   6.005  0.7334  0.5492 -0.0955
 9350SOL    HW239687   0.227   1.031   5.863  0.6837 -0.2931  0.6145
 9351SOL     OW39688   3.910   4.478   8.821 -0.0897  0.2239  0.2541
 9351SOL    HW139689   3.957   4.533   8.758 -1.3795 -2.6574 -3.2262
 9351SOL    HW239690   3.866   4.413   8.767 -1.0914  0.8509  0.3186
 9352SOL     OW39691   0.674   1.801   3.271 -0.3229 -0.2152  0.0881
 9352SOL    HW139692   0.661   1.711   3.302  2.6339 -0.5055  0.5347
 9352SOL    HW239693   0.702   1.855   3.345  1.5161 -0.6776 -0.2607
 9353SOL     OW39694   0.082   0.513   9.185  0.5903  0.5730 -0.1607
 9353SOL    HW139695   0.173   0.540   9.183  1.4015 -2.0265  1.1406
 9353SOL    HW239696   0.080   0.478   9.274  0.3660 -1.1094 -0.8152
 9354SOL     OW39697   3.888   1.029   9.976 -0.2292  0.0432  0.0818
 9354SOL    HW139698   3.835   1.032  10.055 -0.3703  1.4296 -0.0664
 9354SOL    HW239699   3.972   1.050  10.015  0.6065 -0.1065 -1.6457
 9355SOL     OW39700   1.936   2.525   1.779 -0.0007 -0.2370 -0.4183
 9355SOL    HW139701   1.882   2.476   1.717 -2.9448  1.7480  0.5721
 9355SOL    HW239702   1.994   2.572   1.718  0.5422  0.4424  0.6148
 9356SOL     OW39703   1.522   0.406   1.728 -0.0333  0.0818  0.0584
 9356SOL    HW139704   1.472   0.363   1.797  1.0300  1.3748  1.6127
 9356SOL    HW239705   1.554   0.489   1.762 -0.2385  0.6902 -1.2139
 9357SOL     OW39706   4.556   0.566   1.891  0.3104 -0.0213  0.1412
 9357SOL    HW139707   4.493   0.497   1.869  0.1312  0.9011 -2.3006
 9357SOL    HW239708   4.547   0.627   1.817 -1.3273  0.5877  0.8291
 9358SOL     OW39709   0.252   4.148   2.108 -0.5072 -0.1635  0.2597
 9358SOL    HW139710   0.309   4.080   2.071 -1.4611  0.1063 -1.6938
 9358SOL    HW239711   0.204   4.106   2.179 -0.3700 -0.4899  0.1571
 9359SOL     OW39712   3.455   0.374  14.795  0.1054 -0.1423  0.0300
 9359SOL    HW139713   3.538   0.419  14.779  0.4007 -0.1142  1.6919
 9359SOL    HW239714   3.483   0.289  14.761  2.1632  0.3032  0.6178
 9360SOL     OW39715   1.657   0.447   6.757 -0.3914  0.4904  0.0589
 9360SOL    HW139716   1.703   0.460   6.674  1.0189  0.9327  0.9101
 9360SOL    HW239717   1.694   0.364   6.788  1.3277  0.9931 -0.6570
 9361SOL     OW39718   1.145   0.077  15.448  0.7474 -0.1935  0.5825
 9361SOL    HW139719   1.138   0.024  15.369  0.2771 -1.4916  1.5015
 9361SOL    HW239720   1.225   0.125  15.425  2.0471 -1.3335  2.7450
 9362SOL     OW39721   3.645   1.321   8.599 -0.4554  0.2102 -0.0033
 9362SOL    HW139722   3.713   1.254   8.594 -1.4610 -0.7938 -0.2311
 9362SOL    HW239723   3.700   1.390   8.637 -0.8274  2.0907 -2.8961
 9363SOL     OW39724   0.475   3.561  14.270 -0.7498  0.1117  0.1414
 9363SOL    HW139725   0.472   3.502  14.194  2.4191 -1.4538  1.2549
 9363SOL    HW239726   0.416   3.534  14.340 -1.0721  0.3991 -0.0197
 9364SOL     OW39727   3.188   2.355   5.454 -0.1234 -0.3303 -0.6178
 9364SOL    HW139728   3.275   2.358   5.415  0.6168  1.4825  1.2258
 9364SOL    HW239729   3.202   2.391   5.541 -0.6244 -0.2301 -0.5749
 9365SOL     OW39730   3.332   0.497   8.953  0.0904 -0.4073 -0.9161
 9365SOL    HW139731   3.392   0.560   8.995 -1.8117 -1.1120  2.8786
 9365SOL    HW239732   3.245   0.531   8.974 -0.3658 -2.6676  0.7171
 9366SOL     OW39733   4.491   4.437   4.028  0.3504  0.6574 -0.2237
 9366SOL    HW139734   4.488   4.440   3.932 -1.1388  1.4763 -0.1545
 9366SOL    HW239735   4.582   4.423   4.052  0.2821  2.2465  0.9149
 9367SOL     OW39736   0.456   3.960   5.911 -0.2813  0.5300 -0.0508
 9367SOL    HW139737   0.512   3.996   5.843 -0.7561 -0.3311 -0.8990
 9367SOL    HW239738   0.503   3.990   5.988 -2.3294  0.7777  1.1047
 9368SOL     OW39739   1.215   0.474   2.650  0.6551 -0.3051  0.4491
 9368SOL    HW139740   1.276   0.532   2.606  1.8593  0.0631  2.6371
 9368SOL    HW239741   1.158   0.524   2.708  0.0665  0.5096 -0.8297
 9369SOL     OW39742   3.949   0.794   8.766  0.8906  0.3010  0.2141
 9369SOL    HW139743   3.971   0.825   8.678  1.4905  0.8626  0.5587
 9369SOL    HW239744   3.995   0.866   8.809  1.4750 -0.2178  0.4633
 9370SOL     OW39745   0.420   3.180   8.944 -0.1206 -0.2345  0.3002
 9370SOL    HW139746   0.365   3.257   8.958 -1.5650 -0.8545 -2.0282
 9370SOL    HW239747   0.354   3.117   8.917 -0.5428  0.9327 -1.4507
 9371SOL     OW39748   1.024   3.943   9.401  0.0926  0.5856 -0.3746
 9371SOL    HW139749   1.057   3.873   9.457 -1.0266  2.9662  3.3238
 9371SOL    HW239750   0.933   3.915   9.393  0.4139 -0.0845 -1.5333
 9372SOL     OW39751   4.581   2.653   7.319  0.3724 -0.1759 -0.1276
 9372SOL    HW139752   4.544   2.693   7.240  0.1955  1.0789  0.5831
 9372SOL    HW239753   4.673   2.669   7.298  0.3910  0.4801  0.4731
 9373SOL     OW39754   4.026   0.174  15.280  0.2999 -0.1367 -0.0898
 9373SOL    HW139755   3.975   0.188  15.200  0.9293  0.8587 -0.3169
 9373SOL    HW239756   3.972   0.115  15.332  2.6227 -0.9492  1.3667
 9374SOL     OW39757   2.408   1.683   5.118 -0.1406 -0.0043  0.3305
 9374SOL    HW139758   2.371   1.603   5.156 -1.4165  0.5713  0.2978
 9374SOL    HW239759   2.440   1.644   5.037 -0.8075 -1.6583  0.8568
 9375SOL     OW39760   2.032   0.210   6.962  0.2619 -0.6080  0.2154
 9375SOL    HW139761   2.102   0.202   6.897  2.0766  0.3832  2.0145
 9375SOL    HW239762   2.054   0.296   7.000 -0.1769  0.3086 -1.6087
 9376SOL     OW39763   1.422   2.472   1.949  0.2013  0.2155 -0.4793
 9376SOL    HW139764   1.498   2.418   1.931 -0.7823 -0.9105 -1.2620
 9376SOL    HW239765   1.455   2.559   1.925  0.6496 -0.4567 -2.2981
 9377SOL     OW39766   3.821   3.051   7.024  0.1223 -0.5328  0.0357
 9377SOL    HW139767   3.855   2.976   7.074 -1.9017 -2.8488 -2.0107
 9377SOL    HW239768   3.726   3.035   7.020 -0.2201  1.4274  0.2586
 9378SOL     OW39769   4.548   2.984   5.557 -0.1610 -0.3311 -0.2608
 9378SOL    HW139770   4.553   3.067   5.604 -0.3208 -1.8112  2.3423
 9378SOL    HW239771   4.453   2.983   5.547  0.0184  0.3028 -2.0518
 9379SOL     OW39772   2.484   4.701   3.683  0.2825 -0.1874 -0.1361
 9379SOL    HW139773   2.539   4.673   3.609  1.5016  0.4811  0.5128
 9379SOL    HW239774   2.490   0.057   3.664  0.2852 -0.0806  0.4049
 9380SOL     OW39775   2.408   0.266  13.926 -0.4911  0.6120 -0.2320
 9380SOL    HW139776   2.422   0.172  13.931  1.1622  0.9228  1.1218
 9380SOL    HW239777   2.422   0.293  14.017  1.1743 -0.0210 -0.2973
 9381SOL     OW39778   2.148   3.031   6.600 -1.0394  0.2508  0.7287
 9381SOL    HW139779   2.055   3.049   6.586 -0.6864  1.4798 -0.0964
 9381SOL    HW239780   2.190   3.114   6.575 -0.4176  0.3563  2.1181
 9382SOL     OW39781   3.681   3.427   8.710  0.0111 -0.2874 -0.2695
 9382SOL    HW139782   3.626   3.353   8.738 -1.0099  0.5511 -0.0461
 9382SOL    HW239783   3.645   3.440   8.622 -0.6627 -0.1406  0.0235
 9383SOL     OW39784   3.201   3.636   4.146 -0.0307 -0.9192  0.1668
 9383SOL    HW139785   3.131   3.659   4.085 -0.4207 -0.9224  0.6181
 9383SOL    HW239786   3.263   3.592   4.088  0.5526 -0.0833  0.1581
 9384SOL     OW39787   3.402   0.451   8.446 -0.8515 -0.2962 -0.1718
 9384SOL    HW139788   3.383   0.507   8.521  0.6587  1.7152 -1.2938
 9384SOL    HW239789   3.330   0.477   8.388 -0.7768 -1.9045 -1.0018
 9385SOL     OW39790   4.315   2.503   1.813 -0.1122  0.0048  0.3362
 9385SOL    HW139791   4.319   2.587   1.859 -0.2862  1.0008 -1.4573
 9385SOL    HW239792   4.327   2.526   1.721 -2.1187  1.1757  0.3716
 9386SOL     OW39793   0.659   3.912   9.117 -0.6416 -0.1477  0.0929
 9386SOL    HW139794   0.638   4.005   9.110 -1.3096 -0.2011  1.3226
 9386SOL    HW239795   0.692   3.900   9.206 -0.8275  0.0566  0.1903
 9387SOL     OW39796   0.912   0.823   8.779  0.1303 -0.2311 -0.0744
 9387SOL    HW139797   0.834   0.851   8.732 -0.6920  0.9564  2.0118
 9387SOL    HW239798   0.954   0.909   8.775 -3.1154  1.4884  2.7787
 9388SOL     OW39799   0.589   3.353   5.015  0.0179  0.5909 -0.5434
 9388SOL    HW139800   0.652   3.409   5.060  0.3643  0.3101 -0.6729
 9388SOL    HW239801   0.612   3.271   5.060  0.1097  0.9974  0.1451
 9389SOL     OW39802   1.748   3.790   8.510 -0.8731  0.0909 -0.0942
 9389SOL    HW139803   1.821   3.853   8.512  1.0102 -2.0902 -0.0980
 9389SOL    HW239804   1.770   3.744   8.429  0.9021 -1.9828  1.5830
 9390SOL     OW39805   4.343   2.447   3.509  0.1128 -0.1792 -0.2539
 9390SOL    HW139806   4.310   2.364   3.542 -0.0858 -0.5251 -1.3275
 9390SOL    HW239807   4.273   2.465   3.446  1.0465  0.2431 -1.1843
 9391SOL     OW39808   2.849   4.221   5.244 -0.3666 -0.4764 -0.2210
 9391SOL    HW139809   2.917   4.214   5.176 -0.0260  2.7329 -0.2148
 9391SOL    HW239810   2.866   4.307   5.282  2.9893 -1.0140 -0.4359
 9392SOL     OW39811   0.665   2.350  14.452 -0.1557 -0.7187  0.0827
 9392SOL    HW139812   0.719   2.321  14.526 -0.8815  1.5870  1.5231
 9392SOL    HW239813   0.665   2.444  14.474 -0.4960 -0.6184 -0.3497
 9393SOL     OW39814   0.630   0.429   3.574 -0.3151 -0.3812 -0.2854
 9393SOL    HW139815   0.571   0.354   3.580 -1.7727  0.6811 -1.1260
 9393SOL    HW239816   0.675   0.418   3.657  2.4906 -2.1355 -2.0489
 9394SOL     OW39817   0.893   3.463   0.214 -0.3362 -0.2199 -0.5161
 9394SOL    HW139818   0.931   3.491   0.130 -0.4148  0.9549 -0.1486
 9394SOL    HW239819   0.805   3.499   0.219 -0.5908 -1.1866  1.9112
 9395SOL     OW39820   3.810   2.849   8.554  0.1230 -0.1997 -0.3064
 9395SOL    HW139821   3.804   2.775   8.615 -0.5974  1.1473  1.2647
 9395SOL    HW239822   3.901   2.835   8.529 -0.7730 -0.6866 -3.2929
 9396SOL     OW39823   3.905   0.517   7.737  0.1440 -0.4175 -0.8714
 9396SOL    HW139824   3.873   0.543   7.650 -0.8807 -0.0291 -0.3863
 9396SOL    HW239825   3.823   0.507   7.787  3.0799 -0.5965  3.9100
 9397SOL     OW39826   2.075   3.129   8.458 -0.0195  0.1902 -0.0111
 9397SOL    HW139827   2.104   3.219   8.445 -0.1468  0.1386 -0.6519
 9397SOL    HW239828   2.159   3.084   8.467  0.3237  0.8632  0.0830
 9398SOL     OW39829   2.784   2.003   8.289 -0.1741  0.1454  0.8353
 9398SOL    HW139830   2.713   2.054   8.328  0.0950  0.5288  0.8367
 9398SOL    HW239831   2.844   2.071   8.256  0.4554 -1.8727 -2.1158
 9399SOL     OW39832   2.965   2.446   6.298 -0.0595 -0.6515 -0.1343
 9399SOL    HW139833   2.896   2.416   6.239 -0.5585 -2.4832  1.3572
 9399SOL    HW239834   2.944   2.536   6.320  0.7121 -1.3450  3.4673
 9400SOL     OW39835   0.601   0.559   4.511  0.0710 -0.0054 -0.2772
 9400SOL    HW139836   0.547   0.482   4.524  0.2650 -0.0370  0.3293
 9400SOL    HW239837   0.629   0.571   4.602  0.3194  1.0545 -0.4866
 9401SOL     OW39838   0.843   2.829   4.294 -0.0748  0.2461 -0.1704
 9401SOL    HW139839   0.787   2.898   4.257 -1.9433 -2.5295 -2.5056
 9401SOL    HW239840   0.783   2.755   4.300 -0.0094  0.2782  0.9793
 9402SOL     OW39841   2.941   1.708   6.461  0.0431  0.2405 -0.0389
 9402SOL    HW139842   2.916   1.796   6.490 -0.6244 -0.1366  0.5279
 9402SOL    HW239843   2.974   1.727   6.373  0.9309  0.2045  0.2884
 9403SOL     OW39844   1.351   2.069  14.134  0.0150 -0.0036  0.0072
 9403SOL    HW139845   1.356   2.162  14.155 -0.8794 -0.0072  0.2018
 9403SOL    HW239846   1.427   2.042  14.082 -1.1218 -1.0458 -1.1134
 9404SOL     OW39847   3.456   4.034   6.883  0.3466  0.4062 -0.6571
 9404SOL    HW139848   3.533   4.017   6.828 -1.0531  1.2088 -2.8319
 9404SOL    HW239849   3.484   4.044   6.974  0.7309 -2.2816 -0.4829
 9405SOL     OW39850   0.122   0.509  15.832  0.1143 -0.6493 -0.1397
 9405SOL    HW139851   0.123   0.441  15.899  0.1375  1.0658  1.6302
 9405SOL    HW239852   0.065   0.467  15.768 -1.4358  2.6393 -0.9065
 9406SOL     OW39853   2.625   0.500   7.098 -0.1199 -0.1622  0.2706
 9406SOL    HW139854   2.618   0.406   7.112  0.9222 -0.3685 -0.5659
 9406SOL    HW239855   2.556   0.518   7.036  0.3005 -0.9837 -0.4340
 9407SOL     OW39856   2.571   3.847  15.706  0.4243  0.6231  0.6469
 9407SOL    HW139857   2.529   3.766  15.677 -1.3848  2.2547 -1.2402
 9407SOL    HW239858   2.611   3.812  15.786 -0.6896 -2.0704  0.0380
 9408SOL     OW39859   0.865   2.304   8.454  0.1616  0.0015 -0.1347
 9408SOL    HW139860   0.785   2.291   8.504 -0.0459  3.4364  0.4123
 9408SOL    HW239861   0.870   2.222   8.405 -0.5553 -0.5559  0.7344
 9409SOL     OW39862   3.244   0.374   2.007 -0.2484 -0.0827 -0.5012
 9409SOL    HW139863   3.203   0.328   2.081 -1.4084  3.5443  1.0782
 9409SOL    HW239864   3.208   0.321   1.935 -0.6371 -0.9405  0.3182
 9410SOL     OW39865   1.509   1.740   3.269  0.4757 -0.3516 -0.6064
 9410SOL    HW139866   1.600   1.769   3.272  0.5184 -0.6205  1.0882
 9410SOL    HW239867   1.460   1.821   3.266 -1.5646 -1.6078 -1.1869
 9411SOL     OW39868   0.085   1.034   0.786  0.8641 -0.6051  0.1208
 9411SOL    HW139869   0.020   1.096   0.819  2.1728  1.0502 -0.4294
 9411SOL    HW239870   0.162   1.054   0.838  0.7551 -1.1716  0.4886
 9412SOL     OW39871   4.346   3.272   0.180 -0.3964  0.6418 -0.1990
 9412SOL    HW139872   4.251   3.284   0.179 -0.5407 -0.5332 -1.1993
 9412SOL    HW239873   4.370   3.293   0.090  1.7564  2.0440  0.7083
 9413SOL     OW39874   3.596   2.132  14.837 -0.0115 -0.3318 -0.1810
 9413SOL    HW139875   3.661   2.101  14.774  0.1554 -1.3531  0.5028
 9413SOL    HW239876   3.658   2.189  14.884 -0.2195  0.3041 -0.6779
 9414SOL     OW39877   0.074   2.143   3.545 -0.3490  0.0771 -0.4350
 9414SOL    HW139878   0.126   2.214   3.508 -2.9100  2.0528 -0.2894
 9414SOL    HW239879   4.737   2.145   3.484 -1.3553 -0.7473  0.7618
 9415SOL     OW39880   2.426   4.185   3.116  0.1230 -0.1211 -0.4875
 9415SOL    HW139881   2.420   4.200   3.021 -0.0079  0.0758 -0.4478
 9415SOL    HW239882   2.410   4.091   3.122 -1.4231  0.2517  1.0600
 9416SOL     OW39883   0.975   4.204  11.214 -0.1016  0.4962  0.4443
 9416SOL    HW139884   0.912   4.276  11.214  1.5326  1.9395  1.2664
 9416SOL    HW239885   1.046   4.238  11.269  0.8469  0.3475 -0.6890
 9417SOL     OW39886   0.986   1.530   9.485 -0.3720 -0.4137 -0.4028
 9417SOL    HW139887   0.962   1.497   9.572 -0.3153 -1.8407 -0.9279
 9417SOL    HW239888   0.898   1.524   9.447 -0.6578  1.3860 -0.0296
 9418SOL     OW39889   4.455   4.542   1.321  0.0832 -0.0132 -0.4132
 9418SOL    HW139890   4.507   4.462   1.315  2.6854  1.6827 -0.6099
 9418SOL    HW239891   4.439   4.548   1.415  0.0467  4.1740 -0.6855
 9419SOL     OW39892   3.097   0.731   4.693  0.3986 -0.2549  0.5607
 9419SOL    HW139893   3.021   0.684   4.728 -0.6471 -1.4002 -3.2408
 9419SOL    HW239894   3.156   0.689   4.756 -1.3905 -0.2413  2.2779
 9420SOL     OW39895   2.602   4.475   6.684 -0.0959  0.0550 -0.3429
 9420SOL    HW139896   2.664   4.405   6.705 -0.0378 -0.4247 -2.1499
 9420SOL    HW239897   2.660   4.551   6.680  0.1000 -0.1568 -1.3987
 9421SOL     OW39898   4.528   3.150  16.483  0.1943 -0.0672 -0.2052
 9421SOL    HW139899   4.623   3.158  16.489  0.2010 -0.7339  0.7660
 9421SOL    HW239900   4.516   3.128  16.391 -0.6948  0.1563 -0.1406
 9422SOL     OW39901   4.444   1.081  16.901  0.1292  0.8295 -0.0617
 9422SOL    HW139902   4.498   1.088  16.980  0.7803  2.0049 -0.6192
 9422SOL    HW239903   4.512   1.042  16.846 -1.1736 -0.2541 -0.8970
 9423SOL     OW39904   2.510   2.057   9.131  0.2392  0.3320  0.1914
 9423SOL    HW139905   2.593   2.017   9.107 -0.0729  0.3433 -0.9152
 9423SOL    HW239906   2.455   1.989   9.092  2.9835 -1.1164 -1.1487
 9424SOL     OW39907   1.527   2.481  13.241  0.3376 -0.1642  0.5577
 9424SOL    HW139908   1.529   2.501  13.147 -0.8221  0.4058  0.6500
 9424SOL    HW239909   1.618   2.464  13.263  0.7090  2.6700  1.1258
 9425SOL     OW39910   1.408   2.592   9.085 -0.0869 -0.5457  0.2789
 9425SOL    HW139911   1.429   2.505   9.051 -0.0367 -0.2735 -0.4065
 9425SOL    HW239912   1.355   2.570   9.161 -1.2774  0.5492 -0.2300
 9426SOL     OW39913   2.088   1.583  15.040  0.1558  0.1528 -0.3270
 9426SOL    HW139914   2.179   1.610  15.040  0.4106 -0.7094 -1.5576
 9426SOL    HW239915   2.054   1.634  15.113  1.3742 -0.2410  0.5181
 9427SOL     OW39916   4.336   0.069   8.493 -0.3973 -0.5636  0.1350
 9427SOL    HW139917   4.274   0.034   8.429  0.5793  0.7897 -1.5722
 9427SOL    HW239918   4.319   0.163   8.484 -0.3760 -0.2875  2.9317
 9428SOL     OW39919   3.636   1.652   5.254 -0.2584  0.1001 -0.5473
 9428SOL    HW139920   3.686   1.731   5.234  0.2302  0.5568  2.4987
 9428SOL    HW239921   3.553   1.684   5.289  0.7722  1.0481  1.0131
 9429SOL     OW39922   4.093   4.071  17.077 -1.0378  0.1262  0.1947
 9429SOL    HW139923   4.182   4.082  17.110 -1.1674  1.8577 -0.0240
 9429SOL    HW239924   4.036   4.087  17.152 -1.0273  2.2209 -0.2364
 9430SOL     OW39925   0.985   3.857  12.130 -0.5983 -0.3956 -0.7168
 9430SOL    HW139926   1.076   3.869  12.154 -0.9780  0.5807  0.2242
 9430SOL    HW239927   0.969   3.775  12.177  1.9253 -0.7518 -0.4887
 9431SOL     OW39928   2.170   0.816  17.323 -0.2323 -0.2592 -0.4624
 9431SOL    HW139929   2.152   0.869  17.401 -0.5380 -2.0669  0.6997
 9431SOL    HW239930   2.194   0.886  17.262 -2.0503  2.1124  1.5670
 9432SOL     OW39931   0.301   1.172  10.167  0.2453 -0.7735  0.4470
 9432SOL    HW139932   0.363   1.109  10.204  0.5254 -0.4905  0.4651
 9432SOL    HW239933   0.348   1.185  10.085 -1.4729 -3.4699 -0.9563
 9433SOL     OW39934   3.493   0.928   5.961 -0.0074  0.1810  0.3280
 9433SOL    HW139935   3.525   0.928   6.051  2.9261  1.5506 -0.7393
 9433SOL    HW239936   3.400   0.918   5.982 -0.0349 -1.2720 -0.4403
 9434SOL     OW39937   3.368   1.201  10.949 -0.1874  0.1401 -0.3196
 9434SOL    HW139938   3.354   1.263  11.020  3.0448 -0.3303  0.7285
 9434SOL    HW239939   3.459   1.213  10.921 -0.1616  0.5294 -0.0775
 9435SOL     OW39940   2.831   0.539   9.827  0.0868 -0.1777  0.3201
 9435SOL    HW139941   2.818   0.596   9.903 -1.5983 -2.7763  1.9791
 9435SOL    HW239942   2.881   0.465   9.862 -1.7238 -0.9211  1.3600
 9436SOL     OW39943   0.598   1.397   6.195  0.0151  0.5155  0.2905
 9436SOL    HW139944   0.565   1.311   6.221 -0.5332  0.5871 -0.1702
 9436SOL    HW239945   0.604   1.386   6.100  0.8061 -0.8464  0.4948
 9437SOL     OW39946   1.680   0.732   1.773  0.0296 -0.1751  0.3871
 9437SOL    HW139947   1.749   0.797   1.761 -0.8269  0.4009 -1.4175
 9437SOL    HW239948   1.726   0.662   1.819  1.8024  0.9888  0.4163
 9438SOL     OW39949   2.228   1.989   8.481 -0.2557 -0.0588  0.1938
 9438SOL    HW139950   2.134   1.973   8.489 -0.1587 -0.7059  0.0166
 9438SOL    HW239951   2.228   2.085   8.483  2.7919 -0.0880  1.5103
 9439SOL     OW39952   1.198   3.036  14.140 -0.6346 -0.1836  0.0847
 9439SOL    HW139953   1.165   3.004  14.224 -2.1337  0.6145 -0.1965
 9439SOL    HW239954   1.125   3.088  14.105 -2.3189 -1.8075  1.2104
 9440SOL     OW39955   0.538   1.642   5.160  0.1450  0.1936 -0.0519
 9440SOL    HW139956   0.620   1.592   5.164  0.2184  0.3353  0.1767
 9440SOL    HW239957   0.566   1.718   5.210 -0.2856  1.9977 -2.5472
 9441SOL     OW39958   3.181   4.644   6.900  0.3607  0.0223  0.7750
 9441SOL    HW139959   3.266   4.606   6.879  0.5125 -0.0394  1.5044
 9441SOL    HW239960   3.119   4.575   6.877 -1.2778  0.4820  3.7517
 9442SOL     OW39961   3.390   4.401   0.025 -0.3815 -0.5911  0.4203
 9442SOL    HW139962   3.310   4.381   0.073 -1.9067  1.2858 -1.3752
 9442SOL    HW239963   3.461   4.363   0.078 -0.2679  0.5559  1.0819
 9443SOL     OW39964   3.783   3.487  10.761 -0.3676  0.1909 -0.4124
 9443SOL    HW139965   3.756   3.492  10.853  1.3187 -1.2075  0.1655
 9443SOL    HW239966   3.766   3.576  10.732  3.0521  1.5241  1.6948
 9444SOL     OW39967   4.334   2.481   2.327  0.5075  0.4844  0.0896
 9444SOL    HW139968   4.378   2.476   2.412 -0.2412 -0.0577  0.4471
 9444SOL    HW239969   4.249   2.441   2.348 -1.8783  3.8841 -3.1349
 9445SOL     OW39970   0.244   3.184  14.434  0.2763  0.1916 -0.2814
 9445SOL    HW139971   0.333   3.217  14.449 -1.1346  2.9008  2.1276
 9445SOL    HW239972   0.213   3.265  14.393  0.2312  0.9002  1.1386
 9446SOL     OW39973   2.368   0.502  17.598 -0.5092  0.5129  0.1957
 9446SOL    HW139974   2.304   0.467  17.536 -1.3488 -2.7347  2.9195
 9446SOL    HW239975   2.417   0.420  17.610  0.2375  0.5840 -2.3502
 9447SOL     OW39976   2.369   1.121   3.358  0.1144 -0.5628 -0.0548
 9447SOL    HW139977   2.452   1.168   3.363 -0.5233  0.3491  2.1518
 9447SOL    HW239978   2.384   1.041   3.407  0.2986  1.3397  3.0120
 9448SOL     OW39979   4.306   0.603  13.015 -0.1944 -0.3338  0.5354
 9448SOL    HW139980   4.323   0.666  13.085 -1.7098 -1.8277  2.2303
 9448SOL    HW239981   4.246   0.545  13.061  0.5932 -0.3716  1.5225
 9449SOL     OW39982   0.120   2.335  14.056 -0.1814 -0.3958 -0.1775
 9449SOL    HW139983   0.199   2.303  14.098  0.1085  1.5505  0.7057
 9449SOL    HW239984   0.163   2.405  14.007 -1.3955 -1.5628 -2.9696
 9450SOL     OW39985   3.440   3.508   5.195 -0.0860  0.2637 -0.8157
 9450SOL    HW139986   3.397   3.573   5.251  1.2960  0.9827 -0.5723
 9450SOL    HW239987   3.477   3.568   5.130 -1.2419 -1.1374 -2.7469
 9451SOL     OW39988   1.716   4.406   1.122  0.4549  0.4525 -0.0950
 9451SOL    HW139989   1.714   4.328   1.066 -1.2672  0.1083  0.4324
 9451SOL    HW239990   1.676   4.468   1.062  1.2106  2.3059  1.3427
 9452SOL     OW39991   1.043   0.145   4.914  0.5541 -0.2978 -0.0531
 9452SOL    HW139992   0.959   0.190   4.905  0.3184 -0.8006 -0.3470
 9452SOL    HW239993   1.096   0.217   4.949  0.7029 -0.8822  0.9188
 9453SOL     OW39994   4.172   0.898   7.018  0.3442 -0.7878 -0.8237
 9453SOL    HW139995   4.140   0.819   6.974 -1.0814 -0.4392 -0.4055
 9453SOL    HW239996   4.215   0.852   7.090  0.4137 -0.4792 -0.6691
 9454SOL     OW39997   3.604   0.953   4.110 -0.2721  0.1980  0.2911
 9454SOL    HW139998   3.654   0.938   4.190 -0.3750 -1.9034 -0.0339
 9454SOL    HW239999   3.529   0.898   4.133  1.0810 -1.6275  0.3162
 9455SOL     OW40000   2.077   3.971   2.034 -0.4369 -0.1012 -0.6113
 9455SOL    HW140001   1.987   3.958   2.002 -0.7557  0.2217  0.1592
 9455SOL    HW240002   2.105   3.884   2.063 -0.5712  0.0025 -0.1661
 9456SOL     OW40003   1.482   1.692   1.062 -0.0285 -0.2334  0.0095
 9456SOL    HW140004   1.443   1.638   1.130  0.7086 -3.4541 -2.1009
 9456SOL    HW240005   1.449   1.779   1.085 -1.7884 -1.4415  1.9992
 9457SOL     OW40006   2.809   3.608   9.210  0.1125  0.3329  0.1677
 9457SOL    HW140007   2.741   3.550   9.175 -1.0777  0.7153  1.8302
 9457SOL    HW240008   2.849   3.559   9.281 -2.3090  0.8087  1.8867
 9458SOL     OW40009   3.470   4.371  10.791 -0.4068  0.2623 -0.3968
 9458SOL    HW140010   3.474   4.448  10.849 -0.6185  1.6267 -2.2106
 9458SOL    HW240011   3.400   4.394  10.729  0.6945  3.2063 -0.5520
 9459SOL     OW40012   2.371   0.157   3.903 -0.2346 -0.2574  0.3081
 9459SOL    HW140013   2.421   0.081   3.873 -0.3376 -0.2869  0.2095
 9459SOL    HW240014   2.306   0.155   3.833 -1.3160  0.9279  1.2988
 9460SOL     OW40015   4.670   3.975   7.920 -0.5159  0.1886  0.3026
 9460SOL    HW140016   4.594   4.027   7.895  0.8523  0.8150 -2.6435
 9460SOL    HW240017   4.700   3.958   7.830  0.3507  0.8495  0.4631
 9461SOL     OW40018   2.643   0.380   2.578  0.7265  0.1955  0.5342
 9461SOL    HW140019   2.561   0.405   2.535  0.9898 -0.2386 -0.2145
 9461SOL    HW240020   2.662   0.295   2.539  1.9033 -0.0201  1.5942
 9462SOL     OW40021   3.109   1.908   9.285  0.3591 -0.0694  0.7563
 9462SOL    HW140022   3.087   1.903   9.378  0.2916 -1.8352  0.6437
 9462SOL    HW240023   3.037   1.955   9.244  0.5866  1.3703  1.9786
 9463SOL     OW40024   2.849   2.350  10.434 -0.6648 -0.1934  0.3321
 9463SOL    HW140025   2.857   2.315  10.522  3.1058 -1.0389 -0.3253
 9463SOL    HW240026   2.768   2.305  10.409  0.5281 -1.6079 -1.0249
 9464SOL     OW40027   3.493   1.369  10.030 -0.0749  0.1702 -0.2243
 9464SOL    HW140028   3.530   1.457  10.025  0.2764 -0.1097 -2.4647
 9464SOL    HW240029   3.545   1.317   9.970 -0.9316  1.7890 -2.3715
 9465SOL     OW40030   2.039   0.064  16.097  0.1825 -0.6857  0.1067
 9465SOL    HW140031   2.070   0.139  16.148 -1.2578  1.0755 -1.5362
 9465SOL    HW240032   1.977   0.110  16.039  0.5919 -0.0628  0.1581
 9466SOL     OW40033   0.877   1.742   2.619  0.0031  0.2750 -0.1770
 9466SOL    HW140034   0.804   1.680   2.615  0.3387 -0.2109  1.2753
 9466SOL    HW240035   0.908   1.733   2.709 -0.4329 -0.8008 -0.1371
 9467SOL     OW40036   3.122   3.066   6.204  0.0997  0.6240  0.6003
 9467SOL    HW140037   3.083   3.039   6.121 -0.2186  1.8143  0.3670
 9467SOL    HW240038   3.161   2.987   6.241 -2.2110 -0.4632  0.7002
 9468SOL     OW40039   2.565   1.884   8.811  0.0824 -0.1668 -0.3348
 9468SOL    HW140040   2.540   1.842   8.729 -1.6689 -0.2176  0.2320
 9468SOL    HW240041   2.483   1.928   8.832  0.3101  0.7331 -1.3061
 9469SOL     OW40042   2.516   0.995  12.717 -0.5570 -0.1810 -0.2889
 9469SOL    HW140043   2.461   1.010  12.794 -0.3673 -1.9609  0.1922
 9469SOL    HW240044   2.566   0.916  12.735  0.5923  1.0095  1.7263
 9470SOL     OW40045   2.864   2.039   9.309  0.0772 -0.1949  0.2058
 9470SOL    HW140046   2.790   2.033   9.369 -1.0100 -1.1956 -1.2335
 9470SOL    HW240047   2.928   2.067   9.375  1.5036 -3.3137  0.1430
 9471SOL     OW40048   1.976   0.252   5.138 -0.6192 -0.6224 -0.1788
 9471SOL    HW140049   2.003   0.168   5.174 -0.8032 -0.8645 -0.6179
 9471SOL    HW240050   2.051   0.283   5.087  0.3779 -1.2643  0.8963
 9472SOL     OW40051   4.364   3.624   6.777 -0.5172 -0.0375  0.8106
 9472SOL    HW140052   4.300   3.561   6.812 -1.6893  0.8250  0.2184
 9472SOL    HW240053   4.308   3.679   6.721  0.7820 -0.8145 -1.2451
 9473SOL     OW40054   2.350   2.772   6.229 -0.2657 -0.1217 -0.2413
 9473SOL    HW140055   2.429   2.826   6.225  1.3501 -2.3793  1.1115
 9473SOL    HW240056   2.332   2.775   6.323 -0.6171  0.4000 -0.3208
 9474SOL     OW40057   0.543   4.079   5.658 -0.1817 -0.3578 -0.2199
 9474SOL    HW140058   0.609   4.086   5.589 -1.5092  1.6390 -1.2712
 9474SOL    HW240059   0.536   4.168   5.692  0.4698 -0.7413  0.9194
 9475SOL     OW40060   1.929   1.708   8.579  0.0566 -0.4163 -0.0577
 9475SOL    HW140061   1.964   1.747   8.659  0.5791  0.6750 -0.8390
 9475SOL    HW240062   1.838   1.739   8.586  0.5403  0.7601  0.8984
 9476SOL     OW40063   3.817   0.146   3.085  0.6013 -0.3235  0.2387
 9476SOL    HW140064   3.744   0.140   3.145  0.9784  0.9896  0.8246
 9476SOL    HW240065   3.775   0.170   3.002 -1.5281  0.0937  1.4429
 9477SOL     OW40066   1.837   1.323   6.470  0.1226 -0.2276  0.2654
 9477SOL    HW140067   1.846   1.279   6.386 -3.8081  0.1449 -0.3521
 9477SOL    HW240068   1.798   1.408   6.450 -1.4728 -1.4128 -1.5322
 9478SOL     OW40069   2.532   3.636   8.186  0.5684  0.1290  0.2180
 9478SOL    HW140070   2.446   3.660   8.152  0.6883  0.1617 -0.0595
 9478SOL    HW240071   2.527   3.671   8.275 -0.6365 -1.8395  0.9133
 9479SOL     OW40072   2.528   3.571   5.615 -0.3418  0.0158 -0.0525
 9479SOL    HW140073   2.542   3.495   5.672 -3.5449 -2.1611 -2.1692
 9479SOL    HW240074   2.506   3.644   5.674 -3.1629 -0.5344 -0.4029
 9480SOL     OW40075   3.293   4.241  17.176 -0.5890  0.5511 -0.5833
 9480SOL    HW140076   3.265   4.270  17.090  0.6410  0.5976 -0.9726
 9480SOL    HW240077   3.231   4.284  17.235 -5.0395 -2.1012 -3.3845
 9481SOL     OW40078   0.569   1.260   8.463 -0.5348 -0.3435 -0.2730
 9481SOL    HW140079   0.539   1.171   8.481 -3.2027  0.5075 -0.4693
 9481SOL    HW240080   0.626   1.285   8.536 -1.5966  1.5191 -0.0670
 9482SOL     OW40081   4.412   3.116   6.355 -0.0897  0.2531 -0.2107
 9482SOL    HW140082   4.318   3.097   6.348  0.0580 -1.4139  2.5468
 9482SOL    HW240083   4.443   3.037   6.398  3.6346  2.0288  0.3831
 9483SOL     OW40084   0.688   3.241  12.989  0.5785  0.3000 -0.2110
 9483SOL    HW140085   0.622   3.191  13.036  3.2846 -2.5909  0.5528
 9483SOL    HW240086   0.751   3.168  12.990 -1.5941 -1.5849 -1.5048
 9484SOL     OW40087   1.027   2.640   7.420  0.4603 -0.0022  0.5664
 9484SOL    HW140088   1.058   2.558   7.383 -0.4189  0.2833 -0.7823
 9484SOL    HW240089   0.964   2.667   7.354  0.4500  0.9920  0.9709
 9485SOL     OW40090   1.565   3.889   2.011 -0.4200  0.3966  0.3806
 9485SOL    HW140091   1.513   3.931   1.942  1.3924  2.6126  0.3514
 9485SOL    HW240092   1.574   3.954   2.080 -0.2971  0.1566  0.5867
 9486SOL     OW40093   4.705   0.780   9.226  0.1480 -0.0856  0.0574
 9486SOL    HW140094   0.042   0.839   9.235 -0.4632  0.9713 -1.8869
 9486SOL    HW240095   0.008   0.694   9.216 -0.3003 -0.5374  2.0989
 9487SOL     OW40096   1.553   2.940   6.336  0.0689 -0.4456  0.5864
 9487SOL    HW140097   1.613   2.902   6.271 -1.7260  0.4063 -1.5885
 9487SOL    HW240098   1.573   2.885   6.411 -1.0496 -2.5721 -0.6719
 9488SOL     OW40099   4.507   1.770   9.297 -0.2131 -0.1001  0.1579
 9488SOL    HW140100   4.443   1.833   9.329 -1.6038 -1.0411 -0.7944
 9488SOL    HW240101   4.551   1.816   9.225 -1.0426 -0.9644 -0.8927
 9489SOL     OW40102   1.044   4.328   7.715  0.5533 -0.2673  0.0419
 9489SOL    HW140103   0.955   4.363   7.717  0.1643 -1.1849 -1.0505
 9489SOL    HW240104   1.023   4.246   7.762 -2.6105  0.9878  0.8325
 9490SOL     OW40105   2.586   1.257  14.079  0.0997  0.1318  0.1026
 9490SOL    HW140106   2.624   1.189  14.024  1.6972 -0.6253  2.1352
 9490SOL    HW240107   2.521   1.301  14.024 -0.1049 -0.8059 -0.4122
 9491SOL     OW40108   0.614   0.372   8.005  0.1181 -0.0164  0.0063
 9491SOL    HW140109   0.577   0.364   7.917 -0.3047  0.2047  0.1637
 9491SOL    HW240110   0.705   0.362   7.978  0.1953  0.3399  0.1291
 9492SOL     OW40111   1.974   2.856   4.239 -0.1144  0.1251 -0.0911
 9492SOL    HW140112   1.958   2.947   4.215 -0.6316 -0.0611 -0.4542
 9492SOL    HW240113   1.989   2.860   4.334 -2.6248  1.4525  0.2362
 9493SOL     OW40114   3.352   3.699   3.291 -0.0381  0.2069  0.4651
 9493SOL    HW140115   3.349   3.604   3.278  0.4639  0.1840  0.5140
 9493SOL    HW240116   3.440   3.723   3.261  0.2441 -1.9636 -0.4838
 9494SOL     OW40117   1.132   1.355   8.655  0.1787 -0.1397  0.4762
 9494SOL    HW140118   1.193   1.401   8.597 -0.6511  0.3398 -0.0164
 9494SOL    HW240119   1.180   1.278   8.687  1.6609  0.6738  0.2012
 9495SOL     OW40120   3.970   4.721  13.308  0.3305  0.0787  0.2105
 9495SOL    HW140121   3.952   4.646  13.365  0.0771  0.8422  1.1403
 9495SOL    HW240122   4.063   4.725  13.331  0.2299  0.5829  0.5063
 9496SOL     OW40123   4.309   1.682   7.018  0.0059  0.5152  0.4801
 9496SOL    HW140124   4.272   1.621   6.954  0.4222 -0.4723  1.1958
 9496SOL    HW240125   4.257   1.759   6.993 -0.3977 -0.7451 -2.4848
 9497SOL     OW40126   4.399   3.215   2.444 -0.0107 -0.1151 -0.0093
 9497SOL    HW140127   4.407   3.161   2.523 -0.0259 -0.2912 -0.1297
 9497SOL    HW240128   4.329   3.272   2.477 -0.9093 -0.8600 -0.6108
 9498SOL     OW40129   2.850   0.151  13.660 -0.4768  0.0114  0.0671
 9498SOL    HW140130   2.938   0.127  13.690 -0.4403  1.0628  0.8056
 9498SOL    HW240131   2.865   0.182  13.570 -0.7398  0.3938  0.1551
 9499SOL     OW40132   3.708   2.523   5.378 -0.4908 -0.6643 -0.7717
 9499SOL    HW140133   3.708   2.465   5.302  0.3553 -0.2384 -1.0896
 9499SOL    HW240134   3.760   2.477   5.443 -0.1399  0.4614 -0.2547
 9500SOL     OW40135   0.431   2.269  13.334  0.2406 -0.2861 -0.9886
 9500SOL    HW140136   0.504   2.298  13.280  0.0816  0.2865 -0.8989
 9500SOL    HW240137   0.432   2.349  13.387  0.1232 -1.0007  0.0863
 9501SOL     OW40138   4.688   2.612  11.058  0.3772  0.3195  0.6276
 9501SOL    HW140139   4.633   2.563  11.118  0.3252  0.3308  0.5894
 9501SOL    HW240140   0.019   2.643  11.118 -0.4485  1.9333  0.7351
 9502SOL     OW40141   3.404   2.575   3.748 -0.6305 -0.5529  0.2876
 9502SOL    HW140142   3.308   2.579   3.753 -0.5886  1.0918 -0.0801
 9502SOL    HW240143   3.411   2.614   3.661 -1.3319 -0.3246  0.3328
 9503SOL     OW40144   2.946   4.307   1.478 -0.3788 -0.5082 -0.2441
 9503SOL    HW140145   2.953   4.232   1.537 -3.3660 -0.1977  0.5220
 9503SOL    HW240146   2.879   4.361   1.520 -0.3011 -1.3840  1.0095
 9504SOL     OW40147   0.649   2.423   1.320  0.1360  0.3720 -0.2506
 9504SOL    HW140148   0.619   2.514   1.323  3.3607  1.4710 -1.2433
 9504SOL    HW240149   0.570   2.378   1.349 -1.1725  2.5412 -0.4618
 9505SOL     OW40150   1.279   0.713  12.392  0.3806  0.0195  0.7836
 9505SOL    HW140151   1.295   0.772  12.466  1.9471  0.0092  0.4383
 9505SOL    HW240152   1.216   0.760  12.337  1.3470 -0.0636 -0.3780
 9506SOL     OW40153   4.399   3.388   1.166  0.7028  0.4032  0.6485
 9506SOL    HW140154   4.382   3.478   1.138  0.7438  0.8025  1.9062
 9506SOL    HW240155   4.472   3.372   1.107  0.9699  2.1412  0.5226
 9507SOL     OW40156   2.120   1.713  16.713 -0.0913 -0.1364  0.3465
 9507SOL    HW140157   2.086   1.648  16.774 -4.2031 -0.7267 -2.6347
 9507SOL    HW240158   2.046   1.735  16.656  0.4134  1.1956  0.1854
 9508SOL     OW40159   0.326   0.491   2.024  0.5252  0.1119  0.0833
 9508SOL    HW140160   0.279   0.415   1.989 -0.1592  0.3459  0.5010
 9508SOL    HW240161   0.279   0.492   2.108  0.0320  1.4254 -0.2016
 9509SOL     OW40162   2.589   1.273   5.167 -0.3652 -0.4810  0.2111
 9509SOL    HW140163   2.618   1.206   5.229 -2.1658  0.1386  1.7196
 9509SOL    HW240164   2.566   1.209   5.100 -2.2350 -0.9863  1.3361
 9510SOL     OW40165   3.184   2.344  14.644  0.7037  0.3277 -0.6941
 9510SOL    HW140166   3.279   2.331  14.649  0.6837 -0.2817 -1.8323
 9510SOL    HW240167   3.170   2.384  14.730  0.7112  0.1583 -0.6143
 9511SOL     OW40168   2.223   3.821   9.575 -0.1072 -0.3704 -0.1727
 9511SOL    HW140169   2.154   3.834   9.640  1.2812 -3.8800  2.0157
 9511SOL    HW240170   2.175   3.767   9.511  1.0345  0.8694 -2.0659
 9512SOL     OW40171   2.860   3.588   9.711  0.1517 -0.6743  0.0054
 9512SOL    HW140172   2.770   3.581   9.681  0.2823 -1.3128 -0.2550
 9512SOL    HW240173   2.901   3.503   9.692  0.0726 -1.2858  2.5106
 9513SOL     OW40174   2.932   2.380   8.388 -0.3247  0.9570  0.0514
 9513SOL    HW140175   2.992   2.452   8.370 -1.1843  1.7571  0.4351
 9513SOL    HW240176   2.949   2.317   8.318  1.8889  0.6413  0.8478
 9514SOL     OW40177   1.897   0.002   1.316 -0.0737  0.7337 -0.1021
 9514SOL    HW140178   1.912   0.050   1.398 -0.1339  1.9546 -0.8228
 9514SOL    HW240179   1.809   0.029   1.291 -0.7193  1.1708  2.6299
 9515SOL     OW40180   2.606   0.418   6.827  0.4001  0.0701 -0.2301
 9515SOL    HW140181   2.694   0.382   6.818  0.6807  0.0730  2.3995
 9515SOL    HW240182   2.554   0.341   6.805  0.1340 -0.1101  0.9984
 9516SOL     OW40183   0.615   1.187   2.287  0.0156  0.8815  0.6334
 9516SOL    HW140184   0.585   1.223   2.371 -0.5082  0.3431  0.6841
 9516SOL    HW240185   0.704   1.219   2.276 -0.3254  1.1384 -1.3749
 9517SOL     OW40186   1.513   2.618   3.003  0.7251  0.6215 -0.1165
 9517SOL    HW140187   1.492   2.582   2.917  1.2551  0.8061 -0.3239
 9517SOL    HW240188   1.592   2.668   2.981  0.5069  1.4737  1.0451
 9518SOL     OW40189   4.008   2.084   6.716 -0.0124 -0.4404  0.4114
 9518SOL    HW140190   3.951   2.135   6.774  0.6913 -0.8574  1.4673
 9518SOL    HW240191   4.017   2.005   6.769  1.0282  1.2510  2.7617
 9519SOL     OW40192   3.014   2.535   4.497  0.3521  0.0727  0.4576
 9519SOL    HW140193   3.106   2.512   4.489  0.3859  0.6050 -0.6292
 9519SOL    HW240194   2.982   2.570   4.414 -0.0872 -0.2512  0.4898
 9520SOL     OW40195   1.884   0.685   3.766 -0.0579  0.2931 -0.7499
 9520SOL    HW140196   1.945   0.640   3.706 -0.6218 -0.2505 -0.9130
 9520SOL    HW240197   1.921   0.664   3.852 -3.3593 -0.2444  0.5224
 9521SOL     OW40198   3.236   0.644   9.589  0.0592  0.5223  0.1240
 9521SOL    HW140199   3.215   0.645   9.682 -0.2951 -0.4396  0.0595
 9521SOL    HW240200   3.158   0.696   9.570 -1.3621 -1.7926 -0.3649
 9522SOL     OW40201   4.347   3.024   9.324 -0.2111 -0.5292  0.0330
 9522SOL    HW140202   4.295   3.063   9.394  1.6839 -1.5431  1.9987
 9522SOL    HW240203   4.277   3.017   9.259  0.3147 -0.7020 -0.5250
 9523SOL     OW40204   4.040   3.830   9.539 -0.2006  0.7896 -0.1649
 9523SOL    HW140205   4.005   3.828   9.450 -0.4820 -0.3257 -0.0362
 9523SOL    HW240206   4.104   3.901   9.538  1.0717 -0.2464  4.1258
 9524SOL     OW40207   2.610   0.781   7.221  0.2910 -0.5992 -0.4142
 9524SOL    HW140208   2.525   0.750   7.254 -0.2978  0.4648 -0.9408
 9524SOL    HW240209   2.653   0.699   7.198 -0.6565 -0.6499 -1.9621
 9525SOL     OW40210   4.033   0.854   8.126  0.2633  0.1471 -0.7582
 9525SOL    HW140211   4.037   0.821   8.037 -1.1511  1.1633 -1.2042
 9525SOL    HW240212   3.974   0.929   8.122  1.8794  1.4665  0.4329
 9526SOL     OW40213   4.282   3.454   8.962  0.0996  0.2612  0.3499
 9526SOL    HW140214   4.207   3.487   9.013 -2.4630 -1.0394 -2.5744
 9526SOL    HW240215   4.309   3.376   9.009 -1.7499 -0.2882  0.5177
 9527SOL     OW40216   0.631   3.538   6.839 -0.7751  0.1425 -0.0873
 9527SOL    HW140217   0.599   3.605   6.898 -0.5938 -0.1237  0.3124
 9527SOL    HW240218   0.723   3.540   6.863 -1.1428 -0.0016  1.3196
 9528SOL     OW40219   3.507   1.206   4.357  0.1488 -0.3150 -0.1155
 9528SOL    HW140220   3.586   1.190   4.409 -0.3154 -0.3344  0.5756
 9528SOL    HW240221   3.449   1.133   4.382 -0.1848  0.3406  1.0243
 9529SOL     OW40222   2.673   2.888   6.745 -0.4958  0.3881  0.0272
 9529SOL    HW140223   2.636   2.801   6.756  0.0003  0.2676  0.7269
 9529SOL    HW240224   2.600   2.942   6.774 -1.2930 -1.4483  1.3710
 9530SOL     OW40225   0.266   3.287   0.649  0.4919  0.4443 -0.1787
 9530SOL    HW140226   0.285   3.313   0.559  2.0864 -1.6639 -0.4644
 9530SOL    HW240227   0.358   3.286   0.676  0.5508  3.4911 -0.2445
 9531SOL     OW40228   2.804   2.674   5.940 -0.1162 -0.4924  0.2625
 9531SOL    HW140229   2.729   2.666   5.882  1.0825 -0.3818 -1.2996
 9531SOL    HW240230   2.761   2.711   6.017 -2.5479 -0.8192 -0.9363
 9532SOL     OW40231   3.598   0.502  12.801 -0.1275 -0.0161 -0.0025
 9532SOL    HW140232   3.554   0.427  12.762  2.2041 -1.2400 -0.2376
 9532SOL    HW240233   3.521   0.557  12.817  0.7685  1.3595 -0.4208
 9533SOL     OW40234   2.113   3.306  14.418 -0.1291 -0.5213 -0.3443
 9533SOL    HW140235   2.087   3.268  14.502  0.0291 -1.9178 -0.9268
 9533SOL    HW240236   2.206   3.287  14.428  0.2265  1.5472  0.1895
 9534SOL     OW40237   0.121   0.504   3.768 -0.3922 -0.1296 -0.0344
 9534SOL    HW140238   0.211   0.531   3.789 -0.4461  0.5816 -0.7362
 9534SOL    HW240239   0.104   0.453   3.847  0.0698  0.0492  0.1816
 9535SOL     OW40240   2.189   3.341   6.886 -0.9442 -0.4577 -0.8213
 9535SOL    HW140241   2.181   3.433   6.909 -0.7303 -0.4407 -0.8167
 9535SOL    HW240242   2.176   3.339   6.791 -1.0404 -0.3780 -0.8101
 9536SOL     OW40243   3.511   2.807  13.031  0.4338  0.0063 -0.0265
 9536SOL    HW140244   3.477   2.883  13.079  4.4272  0.3284  2.2179
 9536SOL    HW240245   3.592   2.794  13.080 -0.7057  1.9209  2.3815
 9537SOL     OW40246   0.063   0.364   8.150 -0.1026  0.4129  0.0756
 9537SOL    HW140247   0.032   0.430   8.088 -0.9385  1.7306  1.9046
 9537SOL    HW240248   0.142   0.402   8.188 -0.4113 -1.4807  2.5960
 9538SOL     OW40249   2.997   1.182   2.865 -0.6276 -0.7091 -0.1423
 9538SOL    HW140250   2.993   1.145   2.953 -1.3293 -0.8945 -0.2531
 9538SOL    HW240251   2.977   1.275   2.877  1.0541 -0.1040 -1.9251
 9539SOL     OW40252   3.350   1.927   3.038  0.3610  0.2203  0.0346
 9539SOL    HW140253   3.271   1.982   3.046  0.0514 -0.1490 -0.4696
 9539SOL    HW240254   3.387   1.948   3.123 -0.2352  1.9974 -0.1467
 9540SOL     OW40255   0.913   1.703   9.904 -0.5174  0.0303 -0.5390
 9540SOL    HW140256   0.900   1.665   9.991  2.9519 -0.8405 -0.3939
 9540SOL    HW240257   0.995   1.753   9.907 -1.3629  1.3880  0.0396
 9541SOL     OW40258   1.253   2.240  17.521 -0.6714 -0.2454  0.2787
 9541SOL    HW140259   1.272   2.325  17.481  0.5035 -0.6528 -0.0266
 9541SOL    HW240260   1.343   2.214  17.544  0.2817  2.7647 -0.1011
 9542SOL     OW40261   1.555   1.624   2.392  0.3095 -0.3773 -0.3012
 9542SOL    HW140262   1.517   1.699   2.345  0.8740 -1.5741 -2.6706
 9542SOL    HW240263   1.629   1.604   2.334  0.0575 -2.3535  0.0849
 9543SOL     OW40264   0.599   1.713   7.341 -0.2381  0.3872  0.4798
 9543SOL    HW140265   0.681   1.700   7.390 -0.4086 -1.2397  0.3142
 9543SOL    HW240266   0.538   1.712   7.415 -1.0953  1.5104 -0.2098
 9544SOL     OW40267   3.517   3.559   7.372  0.0556  0.0427  0.6819
 9544SOL    HW140268   3.499   3.525   7.285  2.6368 -0.2184  0.2598
 9544SOL    HW240269   3.593   3.508   7.399  1.2789  1.3418 -0.3172
 9545SOL     OW40270   4.605   2.624  12.759 -0.3675  0.5091  0.1732
 9545SOL    HW140271   4.576   2.647  12.848  0.6845  0.7903  0.4411
 9545SOL    HW240272   4.682   2.680  12.746 -0.3627  0.0726 -1.6192
 9546SOL     OW40273   3.171   2.572   6.172 -0.2635 -0.0502 -0.5320
 9546SOL    HW140274   3.095   2.518   6.193 -0.7532  1.4109  1.4810
 9546SOL    HW240275   3.243   2.540   6.227 -3.2936  0.1810  3.5565
 9547SOL     OW40276   1.928   4.440  16.481  0.1374 -0.1075  0.5425
 9547SOL    HW140277   1.982   4.514  16.452 -0.2162 -0.1372 -0.1884
 9547SOL    HW240278   1.844   4.458  16.440 -0.7942  2.3804  3.6097
 9548SOL     OW40279   0.642   3.341   8.769 -0.2266 -0.0393  0.3024
 9548SOL    HW140280   0.583   3.285   8.820  2.9214 -2.5633  1.1912
 9548SOL    HW240281   0.585   3.417   8.762 -1.8616 -1.2326  0.5056
 9549SOL     OW40282   1.746   4.580   7.138  0.1842  0.7567  0.1875
 9549SOL    HW140283   1.828   4.572   7.187  0.1862  1.7451  0.3493
 9549SOL    HW240284   1.765   4.624   7.055 -0.0465  0.6864  0.0996
 9550SOL     OW40285   1.659   4.216   1.745 -0.4050  0.0792 -0.5128
 9550SOL    HW140286   1.746   4.243   1.715  1.1339 -2.0798  2.0346
 9550SOL    HW240287   1.647   4.258   1.831  1.6990  1.7316 -1.0440
 9551SOL     OW40288   3.796   1.096   8.226 -0.7535  0.0675 -0.7006
 9551SOL    HW140289   3.724   1.135   8.178 -0.8732  1.3078  0.4860
 9551SOL    HW240290   3.751   1.061   8.303 -1.5133 -1.0845 -1.6762
 9552SOL     OW40291   3.110   2.204   4.417 -0.0095  0.4938 -0.2142
 9552SOL    HW140292   3.145   2.213   4.506 -1.9181 -1.2886  0.7124
 9552SOL    HW240293   3.193   2.228   4.376 -0.3347 -0.1416 -1.2358
 9553SOL     OW40294   0.887   3.094   2.458 -0.2849 -0.2032  0.3281
 9553SOL    HW140295   0.947   3.139   2.400 -1.3316 -1.4154 -1.6886
 9553SOL    HW240296   0.945   3.072   2.531  0.7778  1.1210 -0.1243
 9554SOL     OW40297   1.769   2.406  16.799  0.1644 -0.8733 -0.6169
 9554SOL    HW140298   1.810   2.369  16.721 -1.1384 -1.4853 -1.0038
 9554SOL    HW240299   1.811   2.491  16.814 -0.9442 -0.5386  0.6297
 9555SOL     OW40300   3.700   4.523   5.746 -0.4471  0.3061 -0.5800
 9555SOL    HW140301   3.677   4.488   5.660 -0.9498 -0.2665 -0.2060
 9555SOL    HW240302   3.735   4.610   5.724 -1.0167  0.8973  0.8715
 9556SOL     OW40303   0.191   2.589   4.475 -0.0509  0.1221 -0.2695
 9556SOL    HW140304   0.121   2.532   4.507 -0.9068  0.3215 -1.7817
 9556SOL    HW240305   0.149   2.667   4.511  1.2143 -0.0316  1.4913
 9557SOL     OW40306   3.677   1.210   9.845 -0.4966  0.1308  0.0615
 9557SOL    HW140307   3.747   1.269   9.874 -0.2404 -1.4486  2.6147
 9557SOL    HW240308   3.726   1.144   9.797 -2.8451 -1.1116 -0.6035
 9558SOL     OW40309   4.307   3.280  16.248 -0.8213 -0.7029  0.0506
 9558SOL    HW140310   4.362   3.358  16.244  1.5090 -2.3752 -0.0537
 9558SOL    HW240311   4.300   3.281  16.344  1.1968  1.7529  0.1611
 9559SOL     OW40312   3.558   2.154   4.320  0.4251  0.0310 -0.2429
 9559SOL    HW140313   3.609   2.127   4.243 -0.5410 -1.0355 -0.5184
 9559SOL    HW240314   3.625   2.201   4.370  2.9164 -1.1853 -2.4315
 9560SOL     OW40315   2.718   3.919   2.321 -0.3619 -0.5485  0.2845
 9560SOL    HW140316   2.628   3.890   2.329 -0.6297  0.3581  0.5381
 9560SOL    HW240317   2.723   3.922   2.225  1.7317 -1.2491  0.3796
 9561SOL     OW40318   3.228   3.909   1.468  0.2289  0.2325 -0.5098
 9561SOL    HW140319   3.209   3.853   1.543  1.4006  0.9607  0.3249
 9561SOL    HW240320   3.247   3.996   1.504 -0.2386 -0.1685  0.6831
 9562SOL     OW40321   2.674   2.436   2.634  0.0329  0.2097  0.1328
 9562SOL    HW140322   2.620   2.458   2.557  0.0274 -0.4006 -0.0363
 9562SOL    HW240323   2.668   2.341   2.639 -1.2031  0.2807  0.1982
 9563SOL     OW40324   4.252   4.183  13.412 -0.3667  0.2106 -0.1407
 9563SOL    HW140325   4.198   4.186  13.333  0.6902  2.2781 -0.7998
 9563SOL    HW240326   4.276   4.276  13.410 -3.1067  0.8994 -0.2639
 9564SOL     OW40327   4.098   0.071  11.588  0.0476 -0.2499 -0.2981
 9564SOL    HW140328   4.091   4.728  11.536 -0.3881 -0.7998  0.6038
 9564SOL    HW240329   4.191   0.072  11.611 -0.1641 -1.3846  0.6445
 9565SOL     OW40330   0.890   0.698   3.200 -0.0408 -0.0674  0.1750
 9565SOL    HW140331   0.981   0.683   3.228 -0.1408 -1.4699 -0.2858
 9565SOL    HW240332   0.850   0.617   3.232  1.4334 -0.8937 -0.0973
 9566SOL     OW40333   3.074   3.009   5.291  0.2468 -0.5337  0.3841
 9566SOL    HW140334   3.149   3.011   5.231 -0.4788  0.7998 -0.4632
 9566SOL    HW240335   3.003   3.012   5.227  1.1877 -1.8976 -0.7428
 9567SOL     OW40336   1.300   3.035  11.234  0.0117 -0.2895  0.7081
 9567SOL    HW140337   1.219   3.082  11.216  0.8908  1.2680  0.8549
 9567SOL    HW240338   1.361   3.104  11.211  0.2234 -0.8972 -0.5815
 9568SOL     OW40339   0.955   1.349   8.216  0.2628 -0.0793 -0.2926
 9568SOL    HW140340   0.975   1.421   8.275 -0.5072 -0.1578  0.0598
 9568SOL    HW240341   0.885   1.382   8.160  0.4424 -1.6077 -1.4290
 9569SOL     OW40342   2.006   4.029  14.947 -0.2576  0.2023  0.0224
 9569SOL    HW140343   2.063   3.998  14.876  0.4566 -1.6484  1.3901
 9569SOL    HW240344   2.062   4.086  15.000 -1.1126 -0.5766  1.7561
   4.73768   4.73768  17.74889
