Membrane in water
40344
    1TMC1    C1    1   1.344   0.732  11.038  0.0513 -0.0442  0.2686
    1TMC1    C2    2   1.244   0.809  10.981 -0.2065 -0.2710 -0.0645
    1TMC1    C3    3   1.277   0.883  10.878 -0.4844 -0.7309  0.5436
    1TMC1    C4    4   1.473   0.729  11.005  0.1054  0.1038 -0.3302
    1TMC1    C5    5   1.504   0.821  10.911  0.4713  0.0724  0.1858
    1TMC1    C6    6   1.411   0.896  10.837  0.6575 -0.3459 -0.0743
    1TMC1     C    7   1.305   0.639  11.138  0.6547  1.2743  0.7568
    1TMC1     O    8   1.195   0.654  11.193  0.2006  0.0020  0.2933
    1TMC1     H    9   1.139   0.785  10.994 -0.0473 -1.2930 -0.7144
    1TMC1    H1   10   1.547   0.674  11.062  0.9322  0.9518 -0.5899
    1TMC1    H2   11   1.424   0.960  10.750 -2.0254  0.4449  0.0939
    1TMC1    C7   12   1.642   0.808  10.860 -0.9229 -0.3848 -0.0243
    1TMC1    C8   13   1.177   0.890  10.777  0.0021 -0.3641 -0.7641
    1TMC1    O1   14   1.707   0.705  10.869  0.5087  0.2304  0.2656
    1TMC1    O2   15   1.093   0.798  10.756 -0.1223 -0.1501  0.1516
    1TMC1    O3   16   1.651   0.895  10.762  0.3690 -0.0073  0.1564
    1TMC1    H3   17   1.596   0.974  10.780  1.4836  0.4298  1.5939
    1TMC1    O5   18   1.195   1.004  10.701  0.4130 -0.1044  0.5200
    1TMC1    H5   19   1.253   1.069  10.747 -0.5863  0.5674  0.8295
    2MPD2     C   20   1.406   0.248  11.450 -0.0291 -0.9890 -0.2555
    2MPD2    C1   21   1.349   0.368  11.474  0.2245 -0.5681 -0.5018
    2MPD2    C2   22   1.328   0.456  11.371  0.2390  0.3537 -0.2720
    2MPD2    C3   23   1.361   0.422  11.240  0.0837 -0.3102  0.8869
    2MPD2    C4   24   1.420   0.306  11.219 -0.0653 -0.3160 -0.1700
    2MPD2    C5   25   1.442   0.218  11.321  0.4074 -0.2981 -0.2485
    2MPD2     H   26   1.271   0.545  11.395  1.0974  0.5351  1.1170
    2MPD2    H1   27   1.447   0.279  11.117 -0.7412 -1.2470 -0.1053
    2MPD2    H2   28   1.426   0.172  11.525  2.1780 -1.2979 -1.1559
    2MPD2    H3   29   1.502   0.130  11.299  0.7898 -0.1174  0.0771
    2MPD2     N   30   1.362   0.516  11.134  0.2399 -0.1181  0.4385
    2MPD2    H5   31   1.423   0.494  11.056 -0.2168 -0.2077  0.1129
    2MPD2    N1   32   1.313   0.412  11.608  0.1479 -0.1330 -0.1686
    2MPD2    H7   33   1.278   0.507  11.608  1.0898  0.2272  0.8527
    3TMC1    C1   34   0.708   1.758  11.222 -0.4398  0.0328  0.4280
    3TMC1    C2   35   0.694   1.624  11.197  0.7343  0.3715  0.5479
    3TMC1    C3   36   0.741   1.585  11.077  0.1386 -0.5504  1.1481
    3TMC1    C4   37   0.769   1.854  11.145  0.7021 -0.0824 -0.3002
    3TMC1    C5   38   0.828   1.799  11.034 -0.1044  0.1934 -0.8882
    3TMC1    C6   39   0.811   1.669  10.995  0.1486 -0.4103 -0.1705
    3TMC1     C   40   0.627   1.792  11.336 -0.1280 -0.0904 -0.2214
    3TMC1     O   41   0.575   1.701  11.400  0.4104  0.0660  0.4497
    3TMC1     H   42   0.637   1.554  11.257 -1.2698  0.8571 -0.7566
    3TMC1    H1   43   0.775   1.959  11.168 -0.3258  0.2675 -1.6555
    3TMC1    H2   44   0.829   1.639  10.892 -0.0149  0.6288 -0.4963
    3TMC1    C7   45   0.870   1.887  10.927  0.6222 -0.2110 -0.4668
    3TMC1    C8   46   0.697   1.456  11.027 -0.6144  0.6239 -0.1498
    3TMC1    O1   47   0.791   1.954  10.861 -0.1808  0.7369 -0.5418
    3TMC1    O2   48   0.609   1.393  11.083  0.0465  0.1320 -0.1464
    3TMC1    O3   49   0.980   1.824  10.883 -0.2975  0.2516  0.1800
    3TMC1    H3   50   1.027   1.781  10.958 -1.8112 -1.3767  0.1991
    3TMC1    O5   51   0.800   1.406  10.955 -0.1843 -0.3918  0.4952
    3TMC1    H5   52   0.878   1.466  10.949 -0.2755 -0.4093 -0.9455
    4MPD2     C   53   0.415   2.111  11.670  0.2380  0.0181  0.0307
    4MPD2    C1   54   0.447   2.190  11.557 -0.0731 -0.1408 -0.5658
    4MPD2    C2   55   0.515   2.120  11.460 -0.7318  0.3865 -0.2034
    4MPD2    C3   56   0.543   1.985  11.467  0.4889  0.2270  0.3765
    4MPD2    C4   57   0.524   1.917  11.580 -0.1077  0.9140  0.3498
    4MPD2    C5   58   0.455   1.983  11.679 -0.4806 -0.2606 -0.7915
    4MPD2     H   59   0.544   2.173  11.370  0.2283  0.0932 -0.0713
    4MPD2    H1   60   0.558   1.818  11.606 -0.6520 -0.2235 -3.3503
    4MPD2    H2   61   0.369   2.157  11.757  0.0199  0.8413 -0.5223
    4MPD2    H3   62   0.430   1.931  11.771  0.1989  0.2891 -0.2941
    4MPD2     N   63   0.600   1.927  11.349  0.9266  0.0138  0.1628
    4MPD2    H5   64   0.618   1.989  11.271  0.1783 -0.9522 -0.7848
    4MPD2    N1   65   0.429   2.329  11.556 -0.6168  0.2804  0.2727
    4MPD2    H7   66   0.446   2.369  11.464 -0.9587  0.6337  0.3635
    5TCq1    O1   67   2.176   3.827  11.661 -0.6771 -0.1868  0.2802
    5TCq1    C1   68   2.118   3.712  11.710 -0.5592  0.1304  0.1297
    5TCq1    O2   69   2.105   3.697  11.829  0.4605 -0.3845  0.7620
    5TCq1    C2   70   1.994   3.711  11.633 -0.3096 -0.4318  0.6680
    5TCq1    C3   71   1.897   3.796  11.689  0.1560 -0.1491 -0.0020
    5TCq1    C4   72   1.799   3.831  11.611  0.4458  0.1774 -0.2615
    5TCq1    C5   73   1.797   3.788  11.482 -0.5496 -0.5741  0.0889
    5TCq1    C6   74   1.889   3.700  11.431 -0.0491  0.0731  0.8098
    5TCq1    C7   75   1.992   3.660  11.508 -0.3819  0.5330 -0.2233
    5TCq1    C8   76   1.889   3.673  11.290 -0.6194  0.0682 -0.8527
    5TCq1    O4   77   1.976   3.600  11.245  0.3182  0.4230 -0.1456
    5TCq1    C9   78   1.694   3.924  11.648 -0.5237 -1.0327 -0.0654
    5TCq1    O5   79   1.604   3.957  11.564  0.6081 -0.4373 -0.3037
    5TCq1    O6   80   1.708   3.983  11.753  0.2940  0.4536  0.4096
    5TCq1    H1   81   2.198   3.839  11.566 -0.4019  0.1557  0.3893
    5TCq1    H2   82   1.914   3.841  11.786 -1.1466 -1.3893  0.7955
    5TCq1    H3   83   1.713   3.814  11.419 -0.2673 -0.5709 -0.2819
    5TCq1    H4   84   2.076   3.611  11.460 -1.9782 -0.9194 -1.5188
    6MPD2     C   85   1.705   3.838  11.004  0.2003  0.2642  0.7305
    6MPD2    C1   86   1.781   3.736  11.071  0.0344 -0.1618  0.2675
    6MPD2    C2   87   1.796   3.614  11.004  0.0397 -0.3371 -0.0893
    6MPD2    C3   88   1.759   3.598  10.870 -0.7150  0.2694 -0.4928
    6MPD2    C4   89   1.692   3.700  10.801  0.1477  0.6216  0.4464
    6MPD2    C5   90   1.665   3.812  10.872  0.3996 -0.7263  0.2886
    6MPD2     H   91   1.829   3.531  11.067  0.0040 -0.1345  0.1969
    6MPD2    H1   92   1.664   3.694  10.697  0.6113 -2.2528  0.4853
    6MPD2    H2   93   1.680   3.935  11.046  0.9013  0.2232  1.2271
    6MPD2    H3   94   1.615   3.892  10.818  0.3369  0.0283  1.4854
    6MPD2     N   95   1.791   3.475  10.809  0.2667  0.0344  0.4103
    6MPD2    H5   96   1.812   3.394  10.866  0.5388  0.0829  0.3798
    6MPD2    N1   97   1.816   3.764  11.207 -0.6168 -0.5563 -0.0318
    6MPD2    H7   98   1.775   3.847  11.249  1.4037  0.1677  0.4918
    7TCq1    O1   99   3.187   3.616  12.902  0.2364 -0.1232  0.0197
    7TCq1    C1  100   3.250   3.530  12.991  0.0906  0.4907 -0.5237
    7TCq1    O2  101   3.312   3.427  12.970  0.0691 -0.2950  0.3709
    7TCq1    C2  102   3.279   3.607  13.114  0.5668  0.0291  0.1562
    7TCq1    C3  103   3.248   3.738  13.128  0.4834  0.2319 -0.5995
    7TCq1    C4  104   3.247   3.788  13.258  0.4700 -0.6610  0.2834
    7TCq1    C5  105   3.268   3.707  13.364 -0.2071 -1.0678 -0.7406
    7TCq1    C6  106   3.291   3.574  13.344  0.0262 -0.2854  0.0041
    7TCq1    C7  107   3.305   3.519  13.220  0.6578  0.7517  0.5614
    7TCq1    C8  108   3.362   3.494  13.443 -0.0859  0.3516  0.5997
    7TCq1    O4  109   3.350   3.374  13.418  0.0365  0.3614  0.8950
    7TCq1    C9  110   3.238   3.927  13.287  0.4220  0.6594  0.3183
    7TCq1    O5  111   3.252   3.959  13.407  0.1882 -0.9482  0.1743
    7TCq1    O6  112   3.256   4.004  13.185 -0.0761 -0.7047  0.2332
    7TCq1    H1  113   3.148   3.689  12.955  2.7169  0.7569  0.6504
    7TCq1    H2  114   3.235   3.803  13.043  1.6505  0.5010 -0.5665
    7TCq1    H3  115   3.273   3.745  13.465  1.8994 -0.9441 -0.8952
    7TCq1    H4  116   3.325   3.413  13.209  1.4232  1.0371 -0.7981
    8MPD2     C  117   3.773   3.429  13.765  0.4584  0.1650 -0.3018
    8MPD2    C1  118   3.691   3.341  13.705 -0.0375  0.3962  0.1179
    8MPD2    C2  119   3.585   3.378  13.619 -0.7212  0.2270  0.3215
    8MPD2    C3  120   3.546   3.517  13.614 -0.1540 -0.2036 -0.4661
    8MPD2    C4  121   3.633   3.605  13.677 -0.6974  0.2076 -0.0282
    8MPD2    C5  122   3.745   3.562  13.748  0.3735 -0.6935  1.3322
    8MPD2     H  123   3.530   3.305  13.561  0.7516 -0.0723 -0.6714
    8MPD2    H1  124   3.609   3.711  13.677 -2.3218 -0.1648  1.1843
    8MPD2    H2  125   3.852   3.397  13.833 -1.2624  0.0073  1.6201
    8MPD2    H3  126   3.816   3.636  13.784 -0.0073  0.8502 -1.1006
    8MPD2     N  127   3.443   3.564  13.528  0.4651 -0.3201  0.3561
    8MPD2    H5  128   3.439   3.666  13.525  0.8105 -0.3045  0.3954
    8MPD2    N1  129   3.726   3.200  13.711 -0.3369 -0.0447  1.0710
    8MPD2    H7  130   3.794   3.178  13.782  0.1759 -2.2821 -0.1053
    9TMC1    C1  131   1.757   1.164  11.124 -0.0986  0.5378 -0.0226
    9TMC1    C2  132   1.786   1.150  10.991  0.0414 -0.1096  0.1246
    9TMC1    C3  133   1.867   1.247  10.939 -0.5678 -0.1897 -0.0681
    9TMC1    C4  134   1.810   1.252  11.213  0.3031 -1.0608 -0.2026
    9TMC1    C5  135   1.886   1.351  11.161  0.1200 -1.1714  0.3571
    9TMC1    C6  136   1.919   1.344  11.027  0.2477 -0.3968 -0.3913
    9TMC1     C  137   1.660   1.076  11.183  0.2828 -0.2820  0.7183
    9TMC1     O  138   1.657   0.965  11.126  0.2181 -0.2093  0.2815
    9TMC1     H  139   1.769   1.058  10.936  0.0499 -0.3736  0.5629
    9TMC1    H1  140   1.792   1.241  11.319  2.8358 -1.2706  0.2029
    9TMC1    H2  141   1.962   1.424  10.969  1.6337 -1.5204 -0.9221
    9TMC1    C7  142   1.929   1.450  11.261 -0.9846  0.1150  0.3636
    9TMC1    C8  143   1.906   1.248  10.801 -0.2508  0.4678 -0.0663
    9TMC1    O1  144   1.888   1.437  11.377  0.3594  0.0046  0.3025
    9TMC1    O2  145   2.008   1.294  10.755 -0.3400  0.4409 -0.7805
    9TMC1    O3  146   1.928   1.568  11.198  0.2628 -0.0540  0.5808
    9TMC1    H3  147   1.911   1.548  11.103  1.0975 -2.1492  0.8653
    9TMC1    O5  148   1.812   1.178  10.732 -0.4173 -0.2712 -0.0879
    9TMC1    H5  149   1.724   1.161  10.772  0.6902 -0.0159  2.4571
   10MPD2     C  150   1.396   0.991  11.295  0.0466 -0.0182 -0.3757
   10MPD2    C1  151   1.462   1.107  11.332  0.6567 -0.5396  1.0925
   10MPD2    C2  152   1.408   1.196  11.429  0.0244 -0.2102 -0.3862
   10MPD2    C3  153   1.275   1.174  11.474 -0.4704  0.3586 -0.1913
   10MPD2    C4  154   1.217   1.061  11.435  0.3896  0.1127  0.0906
   10MPD2    C5  155   1.269   0.972  11.346 -0.4935  0.5143 -0.1963
   10MPD2     H  156   1.456   1.292  11.447  1.4210 -1.2233  1.2553
   10MPD2    H1  157   1.118   1.044  11.475  0.0228  2.3816  0.1830
   10MPD2    H2  158   1.444   0.919  11.230  2.1619  0.6609  0.4526
   10MPD2    H3  159   1.218   0.882  11.316 -0.0500  0.2569 -0.1779
   10MPD2     N  160   1.201   1.266  11.558 -0.9367  0.0076 -0.1158
   10MPD2    H5  161   1.112   1.232  11.593 -0.6988  0.7754  1.2199
   10MPD2    N1  162   1.586   1.145  11.275 -0.3299 -0.0683 -0.8979
   10MPD2    H7  163   1.611   1.241  11.293  1.5327 -1.0808  2.0025
   11TCq1    O1  164   2.752   2.232  13.647 -0.5597 -0.7940 -0.1115
   11TCq1    C1  165   2.633   2.188  13.695  0.3633  0.2911  0.3444
   11TCq1    O2  166   2.516   2.211  13.660 -0.2407 -0.4207 -0.0485
   11TCq1    C2  167   2.671   2.102  13.806  0.9267  0.5457  0.3657
   11TCq1    C3  168   2.750   2.158  13.903  0.8812  0.3351  0.4348
   11TCq1    C4  169   2.721   2.127  14.031 -0.1523  0.2431  0.7552
   11TCq1    C5  170   2.618   2.037  14.064  0.1079  0.0571  0.2151
   11TCq1    C6  171   2.543   1.980  13.959  0.2036 -0.3662 -0.3565
   11TCq1    C7  172   2.572   2.013  13.829 -0.2735  0.2774  0.2453
   11TCq1    C8  173   2.449   1.883  13.999 -0.5964  0.1419  0.7787
   11TCq1    O4  174   2.424   1.871  14.120 -0.2255  0.1387 -0.1319
   11TCq1    C9  175   2.779   2.205  14.140 -0.5119  0.3293 -0.0016
   11TCq1    O5  176   2.855   2.299  14.106  0.0718 -0.4281 -0.5425
   11TCq1    O6  177   2.722   2.197  14.252  0.2462  0.1409 -0.3026
   11TCq1    H1  178   2.831   2.194  13.690  1.2198  0.4652 -2.2969
   11TCq1    H2  179   2.823   2.237  13.885  0.3345  0.7302 -0.0446
   11TCq1    H3  180   2.571   2.048  14.161  0.9062 -3.4239  0.9927
   11TCq1    H4  181   2.504   1.974  13.754 -1.0105  0.4530  0.8207
   12MPD2     C  182   2.196   1.733  14.015 -0.0745  0.1750  0.2838
   12MPD2    C1  183   2.294   1.716  13.916  0.4935 -0.0524  0.6133
   12MPD2    C2  184   2.278   1.610  13.825 -0.0144 -0.3068 -0.1295
   12MPD2    C3  185   2.170   1.520  13.839  0.3917 -0.2518 -0.1764
   12MPD2    C4  186   2.067   1.553  13.924 -0.6863 -0.1584 -0.7750
   12MPD2    C5  187   2.083   1.658  14.011 -0.5488  0.4892  0.7063
   12MPD2     H  188   2.362   1.596  13.757 -1.7096 -1.0684 -2.0378
   12MPD2    H1  189   1.983   1.487  13.941  1.4086 -2.1731  1.6677
   12MPD2    H2  190   2.200   1.816  14.084  2.4545  1.5569 -1.5710
   12MPD2    H3  191   2.001   1.678  14.079 -1.8657 -1.4627 -0.3055
   12MPD2     N  192   2.152   1.403  13.762  0.0379  0.6683 -0.1180
   12MPD2    H5  193   2.066   1.351  13.773 -0.0967  0.5204 -1.8540
   12MPD2    N1  194   2.402   1.806  13.902  0.5398 -0.4855  0.3408
   12MPD2    H7  195   2.448   1.803  13.811  0.7239 -0.3881  0.4320
   13TCq1    O1  196   1.639   1.748  11.015  0.2982  0.4952 -0.2560
   13TCq1    C1  197   1.690   1.632  10.970 -0.3279 -0.4992 -0.6684
   13TCq1    O2  198   1.807   1.601  10.969  0.2390  0.0560 -0.0733
   13TCq1    C2  199   1.583   1.537  10.994 -0.1473  0.2507  0.2310
   13TCq1    C3  200   1.585   1.415  10.919 -0.3954  0.3337 -0.5989
   13TCq1    C4  201   1.480   1.329  10.934  0.1131 -0.3621 -0.0257
   13TCq1    C5  202   1.390   1.354  11.038 -0.1295 -0.0263 -0.2946
   13TCq1    C6  203   1.403   1.468  11.120  1.6203 -0.7460 -0.8446
   13TCq1    C7  204   1.497   1.565  11.098  0.7345 -0.0015 -0.7370
   13TCq1    C8  205   1.290   1.513  11.200 -0.2162 -0.9227  0.5900
   13TCq1    O4  206   1.292   1.627  11.244 -0.1010 -0.1480 -0.3860
   13TCq1    C9  207   1.465   1.220  10.841  0.3173  0.5609 -0.2444
   13TCq1    O5  208   1.347   1.185  10.837 -0.0333  0.7703 -0.0882
   13TCq1    O6  209   1.561   1.148  10.804 -0.3463  0.6295 -0.4664
   13TCq1    H1  210   1.543   1.756  10.994 -0.1037  1.6521  2.0000
   13TCq1    H2  211   1.662   1.409  10.843  0.8240  0.9221  0.5944
   13TCq1    H3  212   1.329   1.265  11.047  1.9470 -1.3781  0.5031
   13TCq1    H4  213   1.500   1.650  11.166 -1.7172 -0.1712 -0.4244
   14MPD2     C  214   0.977   1.333  11.285  0.5671 -1.0347  0.0627
   14MPD2    C1  215   1.070   1.437  11.287  0.2581 -0.1556 -0.3363
   14MPD2    C2  216   1.044   1.552  11.364  0.2837  0.7241 -0.0662
   14MPD2    C3  217   0.927   1.562  11.445 -0.1567  0.0246  0.5785
   14MPD2    C4  218   0.842   1.448  11.447 -0.0568  0.4906 -0.7910
   14MPD2    C5  219   0.868   1.342  11.364  0.2144  0.2483 -0.0857
   14MPD2     H  220   1.102   1.643  11.353  0.4727  0.8630  2.0414
   14MPD2    H1  221   0.746   1.442  11.498 -0.3122 -0.1503 -1.3462
   14MPD2    H2  222   0.997   1.251  11.217  2.7609  0.7772 -1.4823
   14MPD2    H3  223   0.807   1.253  11.363  0.7717 -0.1588  2.4689
   14MPD2     N  224   0.910   1.683  11.518 -1.2580  0.1957  0.1426
   14MPD2    H5  225   0.965   1.763  11.490 -1.6704  0.6935  0.7432
   14MPD2    N1  226   1.184   1.422  11.206 -0.0915 -0.2279 -0.4568
   14MPD2    H7  227   1.202   1.328  11.171 -1.6666  0.0867 -2.1718
   15TCq1    O1  228   0.161   1.937   1.858  0.0098  0.1359 -0.3936
   15TCq1    C1  229   0.093   1.827   1.828  0.0248 -0.4967  0.5290
   15TCq1    O2  230   0.139   1.721   1.792 -0.1847  0.7859  0.1653
   15TCq1    C2  231   4.690   1.851   1.808  0.0913 -0.1773  0.5216
   15TCq1    C3  232   4.610   1.941   1.873 -0.0205  0.4240 -0.2508
   15TCq1    C4  233   4.470   1.926   1.863  0.4951  0.0964 -0.4417
   15TCq1    C5  234   4.413   1.833   1.779  0.9593  1.0753 -0.8218
   15TCq1    C6  235   4.495   1.739   1.721 -0.3500 -0.3156 -0.0401
   15TCq1    C7  236   4.631   1.746   1.741  0.0657 -0.2293  0.3655
   15TCq1    C8  237   4.441   1.617   1.668 -0.5330  0.7416 -1.2758
   15TCq1    O4  238   4.522   1.534   1.634  0.1491 -0.2346  0.6486
   15TCq1    C9  239   4.378   2.004   1.952 -0.1120  0.8080 -0.1666
   15TCq1    O5  240   4.256   1.976   1.951  0.0553 -0.0442 -0.5005
   15TCq1    O6  241   4.430   2.089   2.027  0.4250  0.4772 -0.0157
   15TCq1    H1  242   0.116   1.993   1.924 -0.0061  1.2795 -1.3913
   15TCq1    H2  243   4.648   2.015   1.943  0.9416 -0.3934  0.0870
   15TCq1    H3  244   4.305   1.825   1.784  1.0695 -2.0335 -3.2563
   15TCq1    H4  245   4.693   1.677   1.684  0.3344 -0.6850  1.2087
   16MPD2     C  246   4.098   1.541   1.633  0.5652 -0.1756 -0.4716
   16MPD2    C1  247   4.226   1.530   1.600  0.1704  0.5246  0.4291
   16MPD2    C2  248   4.278   1.434   1.511  0.1450  0.0276 -0.0876
   16MPD2    C3  249   4.190   1.345   1.457 -0.0354  0.5257 -0.2601
   16MPD2    C4  250   4.058   1.361   1.483  0.7528 -0.5946 -0.2754
   16MPD2    C5  251   4.012   1.457   1.572  0.5070 -0.1835 -0.3970
   16MPD2     H  252   4.383   1.410   1.503 -0.4746 -2.4955 -0.5974
   16MPD2    H1  253   3.988   1.292   1.440 -1.1833  0.8414  0.5650
   16MPD2    H2  254   4.066   1.626   1.693 -3.0639  0.0835 -2.7644
   16MPD2    H3  255   3.905   1.460   1.587  1.0923 -0.1470  3.6416
   16MPD2     N  256   4.242   1.236   1.390  0.0918 -0.5551 -0.0893
   16MPD2    H5  257   4.338   1.230   1.358 -1.0215 -2.8955 -3.0692
   16MPD2    N1  258   4.309   1.623   1.667 -0.3916  0.1344  0.7081
   16MPD2    H7  259   4.272   1.703   1.717  0.4824 -0.0026  1.5788
   17TMC1    C1  260   0.982   0.494  10.908  0.2706  0.0826  0.0764
   17TMC1    C2  261   0.985   0.484  11.046  0.1131  0.1621 -0.5684
   17TMC1    C3  262   0.891   0.550  11.118 -0.3510  0.1426 -0.4529
   17TMC1    C4  263   0.891   0.568  10.839  0.0981 -0.1664  0.3181
   17TMC1    C5  264   0.797   0.631  10.914  0.9002  0.5137  0.0305
   17TMC1    C6  265   0.802   0.634  11.051 -0.5881  0.1906 -0.0636
   17TMC1     C  266   1.087   0.424  10.836  0.3547  0.2014  0.7737
   17TMC1     O  267   1.113   0.305  10.850 -0.3854  0.1471  0.5465
   17TMC1     H  268   1.056   0.415  11.090 -1.3987 -1.0376  0.0141
   17TMC1    H1  269   0.887   0.567  10.731  2.4521 -2.0392  0.2524
   17TMC1    H2  270   0.716   0.659  11.112  0.0900  1.1445  0.4993
   17TMC1    C7  271   0.712   0.720  10.835 -0.2719  0.0369 -0.6963
   17TMC1    C8  272   0.882   0.538  11.258 -0.2530  0.1948  1.0008
   17TMC1    O1  273   0.702   0.706  10.715 -0.4291 -0.0686  0.3658
   17TMC1    O2  274   0.771   0.547  11.314  0.2546 -0.3195 -0.0693
   17TMC1    O3  275   0.619   0.785  10.912  0.6565 -0.0497 -0.0703
   17TMC1    H3  276   0.655   0.791  11.003  1.1778  1.8738 -0.4047
   17TMC1    O5  277   1.003   0.521  11.320  0.2244  0.0359  0.0824
   17TMC1    H5  278   1.075   0.557  11.264 -1.0851  2.3869 -0.0958
   18MPD2     C  279   1.292   0.333  10.616 -0.3155  0.5182  0.7900
   18MPD2    C1  280   1.244   0.468  10.645  0.2405  0.0545  0.2769
   18MPD2    C2  281   1.308   0.582  10.596 -0.2365  0.0482  0.1239
   18MPD2    C3  282   1.402   0.568  10.500  0.0541 -0.4917 -0.0745
   18MPD2    C4  283   1.442   0.442  10.472  0.5911 -0.2951 -0.5573
   18MPD2    C5  284   1.390   0.326  10.531 -0.4094  0.3436 -0.6424
   18MPD2     H  285   1.270   0.680  10.624  0.7635 -0.1757  2.2324
   18MPD2    H1  286   1.520   0.414  10.401  1.6253 -2.8944  1.6342
   18MPD2    H2  287   1.249   0.245  10.662  0.2788 -0.8939 -1.3507
   18MPD2    H3  288   1.433   0.229  10.509  1.3705  1.3787 -1.7251
   18MPD2     N  289   1.472   0.673  10.433  0.3763 -0.5034  0.2171
   18MPD2    H5  290   1.541   0.642  10.366  1.6979 -0.8015  1.7156
   18MPD2    N1  291   1.143   0.509  10.744 -0.2315  0.0367  0.5594
   18MPD2    H7  292   1.117   0.606  10.753 -3.2949 -0.6751 -0.6962
   19TMC2    C1  293   2.834   1.807  14.349 -0.1548 -0.4096 -0.7188
   19TMC2    C2  294   2.743   1.909  14.367  0.0102 -0.3983  0.5720
   19TMC2    C3  295   2.614   1.872  14.378 -0.1378 -0.4768 -0.5685
   19TMC2    C4  296   2.808   1.679  14.344  0.3010 -0.0974 -0.4643
   19TMC2    C5  297   2.678   1.648  14.352 -1.1471 -0.3561  0.5170
   19TMC2    C6  298   2.579   1.743  14.366  0.2208  0.2419 -0.1998
   19TMC2     C  299   2.964   1.859  14.366  0.1565  0.2330 -0.0519
   19TMC2     O  300   2.987   1.972  14.321  0.3134  0.0151  0.2875
   19TMC2     H  301   2.762   2.011  14.397 -0.0498 -0.2454  0.0907
   19TMC2    H1  302   2.885   1.607  14.320  0.9224  0.4804 -0.2095
   19TMC2    H2  303   2.473   1.725  14.381  0.1104  1.7323  0.8184
   19TMC2    C7  304   2.635   1.508  14.344 -0.5584  0.0538 -0.0294
   19TMC2    C8  305   2.509   1.965  14.430 -0.7544 -0.4325  0.8118
   19TMC2    O1  306   2.712   1.417  14.379 -0.6047 -0.0947 -0.5275
   19TMC2    O2  307   2.412   1.921  14.490 -0.5219 -0.2299  0.2571
   19TMC2    O5  308   2.534   2.097  14.405  0.5879 -0.6053  0.5364
   19TMC2    H5  309   2.615   2.114  14.352 -0.5975  1.2861 -0.6707
   20MPD2     C  310   3.249   1.897  14.444 -0.4587  0.6711 -0.0614
   20MPD2    C1  311   3.172   1.783  14.469 -0.1643 -0.3550  0.6872
   20MPD2    C2  312   3.236   1.677  14.539 -0.1502 -0.9609  0.0013
   20MPD2    C3  313   3.369   1.677  14.572  0.2758 -0.0661  0.3501
   20MPD2    C4  314   3.436   1.798  14.562 -0.2671  0.3415 -0.0089
   20MPD2    C5  315   3.368   1.907  14.501  1.2519  0.0423  0.0643
   20MPD2     H  316   3.176   1.591  14.567  0.4567 -1.4431 -0.1610
   20MPD2    H1  317   3.539   1.793  14.595 -0.2112 -1.3259 -0.4158
   20MPD2    H2  318   3.200   1.984  14.401  0.7649  1.8618  0.9549
   20MPD2    H3  319   3.423   2.000  14.505  1.3442 -0.0246  0.3602
   20MPD2     N  320   3.432   1.571  14.646 -0.0547  0.0340 -0.6053
   20MPD2    H5  321   3.514   1.599  14.699 -0.2212  1.3266 -1.0322
   20MPD2    N1  322   3.038   1.758  14.433  0.0909  0.4590 -0.7550
   20MPD2    H7  323   3.003   1.663  14.434 -0.0597  0.5531  2.7733
   21TMC2    C1  324   0.668   1.773  14.494  0.2581 -0.5798 -0.2206
   21TMC2    C2  325   0.718   1.651  14.532  0.2412 -0.1042 -0.2011
   21TMC2    C3  326   0.723   1.621  14.667 -0.0775 -0.5040  0.7037
   21TMC2    C4  327   0.604   1.854  14.579  0.1410  0.1910  0.5458
   21TMC2    C5  328   0.600   1.819  14.714 -0.4335  0.4775 -0.1882
   21TMC2    C6  329   0.664   1.704  14.759  0.1151  0.3598 -0.2045
   21TMC2     C  330   0.728   1.837  14.375 -0.4813  0.0254  1.2147
   21TMC2     O  331   0.802   1.762  14.313  0.3826 -0.1012  0.3318
   21TMC2     H  332   0.787   1.597  14.467  1.8732  0.5080  1.0366
   21TMC2    H1  333   0.569   1.951  14.545 -2.7002 -0.0988  2.5607
   21TMC2    H2  334   0.678   1.690  14.866 -0.9398  1.0351  0.0138
   21TMC2    C7  335   0.551   1.916  14.809  0.0388  0.3538  0.1149
   21TMC2    C8  336   0.800   1.511  14.712  0.4249 -0.6126 -0.1285
   21TMC2    O1  337   0.587   1.907  14.928  0.4239  0.0877 -0.0367
   21TMC2    O2  338   0.900   1.463  14.658  0.3461 -0.0585  0.2688
   21TMC2    O5  339   0.745   1.471  14.831 -0.3228  0.1534 -0.0417
   21TMC2    H5  340   0.666   1.525  14.855  2.3883  4.2039 -0.2449
   22MPD2     C  341   0.970   2.265  14.215  0.4894 -0.3195  0.1488
   22MPD2    C1  342   1.012   2.143  14.246  0.4635  0.1598  0.6420
   22MPD2    C2  343   0.926   2.045  14.287 -0.5809 -0.7920  0.2097
   22MPD2    C3  344   0.788   2.065  14.292  0.1471 -0.0678 -0.2334
   22MPD2    C4  345   0.744   2.194  14.262 -0.3321  0.4835  0.0745
   22MPD2    C5  346   0.835   2.291  14.221 -0.3199 -0.4909  0.6793
   22MPD2     H  347   0.957   1.949  14.328  1.3053  0.4480  1.6542
   22MPD2    H1  348   0.639   2.224  14.265 -0.3686  0.2606  0.8927
   22MPD2    H2  349   1.033   2.351  14.194 -0.8913  0.7077  0.1618
   22MPD2    H3  350   0.805   2.389  14.187 -1.3623 -1.1310 -0.2602
   22MPD2     N  351   0.701   1.973  14.350  0.1822  0.1167  0.4130
   22MPD2    H5  352   0.615   2.017  14.380  0.5608  1.6019 -0.6664
   22MPD2    N1  353   1.149   2.108  14.251  0.3429  0.8404  0.0882
   22MPD2    H7  354   1.177   2.021  14.293  3.0605  2.3482  1.3921
   23TMC2    C1  355   1.920   3.078  14.657 -0.1303  0.4222  0.7529
   23TMC2    C2  356   1.932   3.127  14.528 -0.2671  1.0898  0.2828
   23TMC2    C3  357   1.819   3.142  14.454  0.2786  0.3756 -0.2795
   23TMC2    C4  358   1.804   3.028  14.702 -0.1337  0.1728 -0.4424
   23TMC2    C5  359   1.693   3.030  14.624  0.0032 -0.1435 -0.3861
   23TMC2    C6  360   1.700   3.086  14.492  0.0682  0.3168 -1.2081
   23TMC2     C  361   2.038   3.071  14.740 -0.8669  0.7262 -0.1760
   23TMC2     O  362   2.023   3.075  14.864  0.5295  0.3761  0.5994
   23TMC2     H  363   2.024   3.176  14.500 -0.2594  0.5507 -0.6349
   23TMC2    H1  364   1.809   2.959  14.786 -2.7733  0.3756 -0.1152
   23TMC2    H2  365   1.615   3.072  14.426  1.1656  1.2833 -2.8179
   23TMC2    C7  366   1.572   2.966  14.666  0.0232 -1.2420 -0.8999
   23TMC2    C8  367   1.842   3.167  14.309 -0.1675 -1.0617  0.6581
   23TMC2    O1  368   1.584   2.864  14.734  0.0415  0.0329  0.0264
   23TMC2    O2  369   1.952   3.171  14.258  0.5819 -0.6810 -0.4674
   23TMC2    O5  370   1.725   3.198  14.246  0.2615  0.2071  0.4173
   23TMC2    H5  371   1.643   3.197  14.300 -0.2039 -1.4081 -0.3296
   24MPD2     C  372   2.530   2.895  14.828  0.9117  0.1851  0.6034
   24MPD2    C1  373   2.423   2.917  14.915  0.0871  0.3199  0.2462
   24MPD2    C2  374   2.299   2.958  14.873 -0.6362 -0.2350 -0.2508
   24MPD2    C3  375   2.279   2.988  14.736 -0.3869  0.3845  0.8847
   24MPD2    C4  376   2.379   2.950  14.648  0.2046  0.1195 -0.7038
   24MPD2    C5  377   2.499   2.906  14.695  0.1224  0.7024  0.1550
   24MPD2     H  378   2.223   2.975  14.948 -1.6442 -0.0995 -1.3055
   24MPD2    H1  379   2.360   2.961  14.542  1.2153  0.2560 -0.8693
   24MPD2    H2  380   2.632   2.865  14.849  1.4228  1.0410 -0.5842
   24MPD2    H3  381   2.576   2.879  14.623 -0.0604  1.4801 -0.3296
   24MPD2     N  382   2.156   3.034  14.676 -0.0198 -0.2221  0.0324
   24MPD2    H5  383   2.162   3.033  14.575 -0.4091  0.7305  0.0004
   24MPD2    N1  384   2.437   2.895  15.050  0.1815 -0.4122  0.1164
   24MPD2    H7  385   2.364   2.923  15.115  0.6797 -0.9165  0.8882
   25TMC2    C1  386   1.068   0.130  11.344 -0.2098 -0.3698 -0.7900
   25TMC2    C2  387   1.151   0.024  11.354  0.0181 -0.6945 -0.1726
   25TMC2    C3  388   1.178   4.715  11.474  0.1108 -0.4691 -0.1697
   25TMC2    C4  389   1.017   0.184  11.451 -0.1962  0.3448 -0.7055
   25TMC2    C5  390   1.045   0.130  11.567 -0.0357  0.4613  0.3066
   25TMC2    C6  391   1.134   0.030  11.585 -0.3604 -0.2478 -0.6225
   25TMC2     C  392   1.006   0.142  11.217  0.4076  0.1738  0.2657
   25TMC2     O  393   1.075   0.139  11.121 -0.5533 -0.1859  0.3831
   25TMC2     H  394   1.192   4.726  11.262 -0.6359  2.3201 -1.7698
   25TMC2    H1  395   0.943   0.262  11.436 -0.6759  0.2140  0.9549
   25TMC2    H2  396   1.158   4.721  11.677  0.7600 -0.1799 -0.8780
   25TMC2    C7  397   0.986   0.181  11.688 -0.6899  0.8295 -0.3134
   25TMC2    C8  398   1.278   4.606  11.482 -0.0740  0.1581 -0.0094
   25TMC2    O1  399   0.982   0.100  11.780  0.1049 -0.1758 -0.3987
   25TMC2    O2  400   1.305   4.552  11.375  0.0094  0.2610  0.9006
   25TMC2    O5  401   1.359   4.657  11.576  0.1207 -0.1244  0.2478
   25TMC2    H5  402   1.314   4.680  11.660 -1.1722 -1.9624  0.0571
   26MPD2     C  403   0.606   4.731  10.959  0.1742  0.6677  0.0205
   26MPD2    C1  404   0.574   4.719  11.088  0.0094 -0.4061  0.4612
   26MPD2    C2  405   0.665   0.029  11.175  0.6288  0.0251  0.4970
   26MPD2    C3  406   0.786   0.077  11.131  0.0560  0.0716  0.3391
   26MPD2    C4  407   0.819   0.082  10.994 -0.9561  0.5693 -0.2987
   26MPD2    C5  408   0.722   0.039  10.916 -0.0582 -0.0398  0.1427
   26MPD2     H  409   0.656   0.033  11.283  1.2236  1.8153  0.4914
   26MPD2    H1  410   0.908   0.132  10.956 -2.3644  1.5770 -2.2804
   26MPD2    H2  411   0.535   4.688  10.889  0.4960  2.1183 -1.1899
   26MPD2    H3  412   0.732   0.054  10.809  0.0688  1.2186  0.3223
   26MPD2     N  413   0.873   0.122  11.236 -0.5779  0.3991 -0.3074
   26MPD2    H5  414   0.841   0.107  11.331 -1.5453  0.7619 -0.5775
   26MPD2    N1  415   0.460   4.656  11.125 -0.0392  0.3214  0.5758
   26MPD2    H7  416   0.413   4.607  11.050  0.6185  1.1942 -0.4001
   27TMC2    C1  417   0.214   2.999  12.640  0.0394  0.0711 -0.3048
   27TMC2    C2  418   0.271   3.119  12.609 -0.4429  0.5046 -0.3950
   27TMC2    C3  419   0.290   3.201  12.719  0.0766 -0.1015 -0.2837
   27TMC2    C4  420   0.201   2.951  12.765 -0.0147  0.6367 -0.2991
   27TMC2    C5  421   0.226   3.034  12.869  0.3273 -0.6115  0.3749
   27TMC2    C6  422   0.270   3.161  12.844 -0.6806 -0.1245  0.0206
   27TMC2     C  423   0.144   2.939  12.526  0.5429 -0.4564 -0.5332
   27TMC2     O  424   0.189   2.956  12.414  0.0760 -0.0671  0.0472
   27TMC2     H  425   0.278   3.157  12.508  0.0996  3.1823  0.6297
   27TMC2    H1  426   0.148   2.858  12.779 -0.6203  1.0858  0.3706
   27TMC2    H2  427   0.282   3.229  12.927  1.3315  0.5156 -0.7858
   27TMC2    C7  428   0.166   2.994  12.993  0.0807 -0.5452 -0.6298
   27TMC2    C8  429   0.289   3.346  12.700  0.4983 -0.4187 -0.6246
   27TMC2    O1  430   0.087   2.905  12.988  0.3169  0.1051  0.0291
   27TMC2    O2  431   0.236   3.420  12.781 -0.3311 -0.0650 -0.7470
   27TMC2    O5  432   0.361   3.384  12.598 -0.1195 -0.1809 -0.4043
   27TMC2    H5  433   0.410   3.312  12.552  2.4362  0.2633  1.6299
   28MPD2     C  434   4.468   2.722  12.321  0.1876 -0.4161 -0.2275
   28MPD2    C1  435   4.435   2.761  12.445  0.3608  0.5905 -0.2929
   28MPD2    C2  436   4.538   2.819  12.515  0.4151 -0.1056  0.1188
   28MPD2    C3  437   4.663   2.831  12.471  0.3137  0.2173  0.2871
   28MPD2    C4  438   4.695   2.791  12.338  0.3129  0.3191 -1.2233
   28MPD2    C5  439   4.589   2.745  12.261 -0.1566 -0.1067  0.2194
   28MPD2     H  440   4.516   2.870  12.608 -0.0373  2.0775 -1.1828
   28MPD2    H1  441   0.050   2.813  12.295  1.6653 -2.1456  0.6141
   28MPD2    H2  442   4.389   2.674  12.264 -2.0472  3.0342 -0.0341
   28MPD2    H3  443   4.615   2.733  12.157 -0.5074 -0.0665  0.1281
   28MPD2     N  444   0.015   2.897  12.561  0.5461 -0.1366  0.2327
   28MPD2    H5  445   4.724   2.928  12.652  0.5329 -0.2367  0.2619
   28MPD2    N1  446   4.304   2.744  12.494  0.5651 -0.3202  0.6367
   28MPD2    H7  447   4.228   2.730  12.429  1.5345  1.7494 -0.9487
   29TMC2    C1  448   4.073   0.155  14.416  0.1433 -0.0572  0.4737
   29TMC2    C2  449   4.155   0.116  14.522  0.1811 -0.3009  0.0918
   29TMC2    C3  450   4.217   0.216  14.588  0.5485  0.4250 -0.4783
   29TMC2    C4  451   4.082   0.284  14.373  0.0560 -0.7612  0.7303
   29TMC2    C5  452   4.140   0.384  14.447  0.0348  0.6906 -0.4843
   29TMC2    C6  453   4.206   0.350  14.562 -0.2049 -0.0469  0.4110
   29TMC2     C  454   3.983   0.061  14.345  0.5466  0.3438 -0.4028
   29TMC2     O  455   3.992   4.683  14.373  0.5215  0.5130 -0.6939
   29TMC2     H  456   4.156   0.015  14.562  1.3691 -0.5365 -0.5470
   29TMC2    H1  457   4.040   0.304  14.276 -0.1536 -0.5721  0.8604
   29TMC2    H2  458   4.245   0.428  14.626  0.4932  0.3950 -0.5563
   29TMC2    C7  459   4.141   0.527  14.409  0.5309 -0.2082 -0.5365
   29TMC2    C8  460   4.290   0.174  14.701  0.0876 -0.5176  0.0466
   29TMC2    O1  461   4.068   0.547  14.313  0.0791 -0.4957  0.0477
   29TMC2    O2  462   4.273   0.064  14.753  0.5009 -0.1799  0.2835
   29TMC2    O5  463   4.408   0.232  14.681  0.0324 -0.2228  0.2547
   29TMC2    H5  464   4.402   0.312  14.625  0.7738 -1.3604 -1.4321
   30MPD2     C  465   3.615   4.688  14.005  0.1041  0.1353 -0.7720
   30MPD2    C1  466   3.689   4.610  14.095 -0.3943  0.4007 -0.0776
   30MPD2    C2  467   3.787   4.668  14.174 -0.1868  0.6246 -0.3486
   30MPD2    C3  468   3.806   0.062  14.170  0.2988  0.5738  0.7629
   30MPD2    C4  469   3.723   0.136  14.091  0.3197 -0.1742 -0.4046
   30MPD2    C5  470   3.636   0.077  14.012 -0.3549 -0.7265  0.4789
   30MPD2     H  471   3.838   4.597  14.238  0.5936  1.3215 -0.2086
   30MPD2    H1  472   3.724   0.244  14.091 -0.2706 -0.1708 -0.9531
   30MPD2    H2  473   3.530   4.657  13.946  0.3703 -0.1461 -1.0061
   30MPD2    H3  474   3.578   0.140  13.946  0.1296  1.3495  2.0125
   30MPD2     N  475   3.888   0.124  14.264  0.4297  0.3837 -0.5803
   30MPD2    H5  476   3.888   0.225  14.277 -2.8298  0.2520  0.6285
   30MPD2    N1  477   3.680   4.468  14.090 -0.0330  0.6137 -0.1579
   30MPD2    H7  478   3.731   4.411  14.157  1.2577  0.7255 -1.0411
   31TMC2    C1  479   1.644   4.161  15.648 -0.2498 -0.1662  0.3826
   31TMC2    C2  480   1.512   4.175  15.685  0.4375 -0.2126  0.0449
   31TMC2    C3  481   1.466   4.129  15.806 -0.1009 -0.2619 -0.4695
   31TMC2    C4  482   1.741   4.132  15.747 -0.1483  0.0335  0.4524
   31TMC2    C5  483   1.690   4.100  15.869  0.6573 -0.2025  0.2407
   31TMC2    C6  484   1.558   4.091  15.903 -0.5590 -0.4208 -0.4188
   31TMC2     C  485   1.679   4.164  15.508  0.6806 -0.3957  0.6340
   31TMC2     O  486   1.596   4.218  15.441  0.1451  0.3165  0.2976
   31TMC2     H  487   1.443   4.194  15.603 -0.6752 -1.2174  0.7354
   31TMC2    H1  488   1.846   4.145  15.726 -0.4940  0.8430 -0.7425
   31TMC2    H2  489   1.538   4.062  16.005  2.5067  0.8301  0.5524
   31TMC2    C7  490   1.778   4.019  15.951  0.0427  0.5573 -0.1979
   31TMC2    C8  491   1.347   4.173  15.878 -0.5814  0.3631  0.5141
   31TMC2    O1  492   1.738   3.912  16.002  0.6392 -0.8923  0.0963
   31TMC2    O2  493   1.304   4.127  15.985  0.9315 -0.4226 -0.0425
   31TMC2    O5  494   1.293   4.270  15.803  0.2570 -0.1459  0.2890
   31TMC2    H5  495   1.347   4.313  15.733  1.0763  0.4712  1.2923
   32MPD2     C  496   1.921   3.952  15.095 -0.3045  0.4886 -0.1472
   32MPD2    C1  497   1.832   4.055  15.101  0.9931 -0.2236  0.0930
   32MPD2    C2  498   1.775   4.091  15.223 -0.6821 -0.5834  0.0701
   32MPD2    C3  499   1.829   4.047  15.339 -0.0467  0.1698  0.0028
   32MPD2    C4  500   1.922   3.938  15.335 -0.3209  0.0938 -0.1086
   32MPD2    C5  501   1.957   3.894  15.211  0.2721  0.2836 -0.4268
   32MPD2     H  502   1.697   4.166  15.233  1.0055  1.1715 -0.1084
   32MPD2    H1  503   1.946   3.885  15.427 -1.5012  0.5544  0.4666
   32MPD2    H2  504   1.940   3.893  15.006 -1.7918 -0.0481 -0.1107
   32MPD2    H3  505   2.003   3.796  15.208  1.3322  0.8317 -1.7124
   32MPD2     N  506   1.781   4.080  15.472  0.1644  0.6378  0.5419
   32MPD2    H5  507   1.821   4.031  15.552 -0.9208 -0.7511  0.2262
   32MPD2    N1  508   1.794   4.114  14.977  0.2420  0.4117 -0.0419
   32MPD2    H7  509   1.848   4.087  14.896 -1.5268 -2.0155 -0.3942
   33TMC2    C1  510   1.100   1.750  10.589 -0.3540  0.3611  0.5387
   33TMC2    C2  511   0.976   1.693  10.575 -0.2580  0.3094 -0.4613
   33TMC2    C3  512   0.879   1.782  10.548  0.5554 -1.0121  0.1573
   33TMC2    C4  513   1.122   1.887  10.569 -0.2057  0.1284 -0.1591
   33TMC2    C5  514   1.018   1.968  10.535 -0.2021  0.1401 -0.2861
   33TMC2    C6  515   0.895   1.915  10.524  0.3442  0.5173  0.2049
   33TMC2     C  516   1.210   1.666  10.623 -0.2472 -0.0650 -0.7091
   33TMC2     O  517   1.186   1.544  10.652 -0.4190 -0.2620 -0.1171
   33TMC2     H  518   0.956   1.588  10.596  1.8675 -0.0275 -0.1152
   33TMC2    H1  519   1.223   1.925  10.573 -0.2810  0.2443  0.6268
   33TMC2    H2  520   0.804   1.970  10.504  0.6020  1.6585  2.2024
   33TMC2    C7  521   1.057   2.096  10.468  0.0959 -0.8657 -0.3649
   33TMC2    C8  522   0.752   1.734  10.588 -0.1853 -0.0864  0.8330
   33TMC2    O1  523   1.180   2.105  10.456 -0.3746  0.5318  0.0354
   33TMC2    O2  524   0.703   1.632  10.541  0.4694  0.3707  0.4694
   33TMC2    O5  525   0.681   1.830  10.648  0.2676  0.9346 -0.5172
   33TMC2    H5  526   0.740   1.903  10.674  1.2321 -0.3255  0.8482
   34MPD2     C  527   1.714   1.571  10.607  0.3781 -0.3359 -0.0357
   34MPD2    C1  528   1.608   1.483  10.574 -0.1032  0.3197 -0.4686
   34MPD2    C2  529   1.480   1.532  10.588 -0.6127 -0.1429  0.5004
   34MPD2    C3  530   1.457   1.669  10.606 -0.0656 -0.3664 -0.1308
   34MPD2    C4  531   1.568   1.752  10.628 -0.0514  0.2336  0.1289
   34MPD2    C5  532   1.695   1.707  10.633  0.0232 -0.2072  0.7920
   34MPD2     H  533   1.391   1.470  10.593 -0.5456 -0.5863 -3.9798
   34MPD2    H1  534   1.555   1.857  10.653 -0.4904  0.5729 -1.5553
   34MPD2    H2  535   1.817   1.540  10.599  0.4354 -0.0367 -0.4699
   34MPD2    H3  536   1.778   1.768  10.669 -0.4120 -0.2159  1.7969
   34MPD2     N  537   1.328   1.728  10.632 -0.1288 -0.2573  0.1378
   34MPD2    H5  538   1.319   1.828  10.642  0.7104 -0.4537  3.1045
   34MPD2    N1  539   1.634   1.347  10.544  0.6766  0.0667 -0.6247
   34MPD2    H7  540   1.728   1.315  10.564  0.5710 -0.5327 -1.1105
   35TMC2    C1  541   2.573   2.572  11.431  0.4929 -0.0405 -0.1007
   35TMC2    C2  542   2.453   2.628  11.390 -0.4543 -0.5410 -0.2592
   35TMC2    C3  543   2.344   2.540  11.412 -0.4196  0.1973  0.3153
   35TMC2    C4  544   2.583   2.456  11.503  0.3582 -0.4701  0.4595
   35TMC2    C5  545   2.471   2.393  11.538 -0.8693 -0.5110 -0.2873
   35TMC2    C6  546   2.350   2.434  11.497 -0.1925  0.4121 -0.3162
   35TMC2     C  547   2.689   2.637  11.365 -0.0936 -0.1218  0.3124
   35TMC2     O  548   2.666   2.698  11.260  0.4302  1.1701  0.0756
   35TMC2     H  549   2.447   2.720  11.333  3.5289 -0.6137 -0.7763
   35TMC2    H1  550   2.678   2.405  11.511 -0.3820 -1.8070  0.6663
   35TMC2    H2  551   2.261   2.375  11.521 -0.0062  0.7846  1.3007
   35TMC2    C7  552   2.485   2.265  11.606 -0.7408 -0.2927 -0.0354
   35TMC2    C8  553   2.221   2.557  11.344  0.5273  0.4266  0.6523
   35TMC2    O1  554   2.388   2.190  11.597 -0.1770  0.2510 -0.0281
   35TMC2    O2  555   2.110   2.564  11.399  0.2426  0.3730  0.2352
   35TMC2    O5  556   2.248   2.552  11.215  0.3454 -0.5856  0.0183
   35TMC2    H5  557   2.336   2.511  11.200  0.5751 -0.3774  0.8227
   36MPD2     C  558   3.181   2.783  11.331  0.5897  0.2717 -0.5328
   36MPD2    C1  559   3.164   2.696  11.434  0.4588 -0.5601  0.5400
   36MPD2    C2  560   3.035   2.644  11.463  0.3588 -0.3338  0.1262
   36MPD2    C3  561   2.927   2.676  11.394 -0.6885 -0.0886  0.7055
   36MPD2    C4  562   2.947   2.751  11.278  0.3721  0.8083 -0.0736
   36MPD2    C5  563   3.075   2.803  11.251  0.5412 -0.1841  0.3314
   36MPD2     H  564   3.017   2.585  11.552 -1.3402 -1.5203 -0.9904
   36MPD2    H1  565   2.871   2.765  11.202  0.9001  0.0373 -0.7368
   36MPD2    H2  566   3.272   2.835  11.304 -1.3764  3.4296 -1.0939
   36MPD2    H3  567   3.086   2.875  11.171 -3.1366  1.0769  0.9168
   36MPD2     N  568   2.803   2.617  11.436 -1.0200 -0.6198  0.1722
   36MPD2    H5  569   2.803   2.587  11.533  0.6655  0.1922  0.4282
   36MPD2    N1  570   3.278   2.680  11.511 -0.5501 -0.1169 -0.1397
   36MPD2    H7  571   3.362   2.724  11.475 -1.3384  3.4229  2.3823
   37TMC2    C1  572   0.576   2.899  12.294  0.3587 -0.0066 -0.6236
   37TMC2    C2  573   0.445   2.866  12.250  0.1844  0.7750  0.0638
   37TMC2    C3  574   0.426   2.876  12.112 -0.0331 -0.4567  0.3658
   37TMC2    C4  575   0.669   2.963  12.217  0.1391  0.2979  0.1148
   37TMC2    C5  576   0.637   2.971  12.081 -0.2784  0.4934  0.6168
   37TMC2    C6  577   0.523   2.924  12.026 -0.4469 -0.0798  0.2660
   37TMC2     C  578   0.599   2.886  12.436  0.9861 -0.0806 -0.2768
   37TMC2     O  579   0.515   2.826  12.501  0.1856 -0.3489  0.0845
   37TMC2     H  580   0.375   2.824  12.320 -1.0954  1.4299 -0.8301
   37TMC2    H1  581   0.762   3.007  12.248  0.7715  1.1237 -2.9994
   37TMC2    H2  582   0.490   2.933  11.923 -1.1629 -0.5960  0.4434
   37TMC2    C7  583   0.743   2.998  11.983 -0.7311 -0.3719  0.4159
   37TMC2    C8  584   0.297   2.876  12.046  0.2747  0.1387  0.1662
   37TMC2    O1  585   0.847   3.044  12.027  0.2152 -0.4699 -0.3271
   37TMC2    O2  586   0.283   2.865  11.924  0.4474  0.3644  0.1267
   37TMC2    O5  587   0.208   2.925  12.132 -0.1428 -0.1202  0.3494
   37TMC2    H5  588   0.255   2.943  12.216  0.8136  1.9696 -0.6482
   38MPD2     C  589   0.890   2.953  12.846  0.6543  0.0389  0.0891
   38MPD2    C1  590   0.964   2.954  12.733  0.0383  0.2092  0.2037
   38MPD2    C2  591   0.909   2.943  12.611  0.1696  0.0856  0.7322
   38MPD2    C3  592   0.773   2.944  12.601  0.6108  0.5396 -0.4351
   38MPD2    C4  593   0.686   2.943  12.717 -0.6253 -0.5745 -0.1447
   38MPD2    C5  594   0.748   2.956  12.836  0.0234  0.4450 -0.2076
   38MPD2     H  595   0.972   2.934  12.523  1.9717  3.6751  1.6804
   38MPD2    H1  596   0.578   2.946  12.708 -0.5459 -1.4725 -1.3302
   38MPD2    H2  597   0.931   2.965  12.945 -0.1861 -0.2167  0.4638
   38MPD2    H3  598   0.694   2.948  12.930 -0.6251 -2.6098 -0.8314
   38MPD2     N  599   0.727   2.925  12.468 -0.2754  0.0010 -0.3777
   38MPD2    H5  600   0.793   2.947  12.394 -0.5279  0.7867 -0.3766
   38MPD2    N1  601   1.104   2.949  12.734  0.2591 -0.4190  0.4733
   38MPD2    H7  602   1.149   2.939  12.644 -0.6930 -5.3124  0.5529
   39TMC2    C1  603   4.297   1.106   1.780  0.1659 -0.1864  0.3230
   39TMC2    C2  604   4.232   1.222   1.821 -0.1149  0.7172 -0.7670
   39TMC2    C3  605   4.302   1.332   1.862  1.1020  0.3904 -0.2467
   39TMC2    C4  606   4.433   1.100   1.764 -0.6666  0.3926 -0.3539
   39TMC2    C5  607   4.500   1.211   1.815  0.2733 -0.4099  0.2966
   39TMC2    C6  608   4.440   1.322   1.870 -0.2609  0.6525 -0.3904
   39TMC2     C  609   4.208   1.010   1.730  0.1552 -0.1737 -0.6707
   39TMC2     O  610   4.090   1.038   1.726  0.3771  0.6792 -0.0406
   39TMC2     H  611   4.126   1.223   1.845  0.1489  1.8986  0.3023
   39TMC2    H1  612   4.485   1.009   1.737  0.8334  0.9436  0.6440
   39TMC2    H2  613   4.495   1.415   1.882  0.0753  0.3300  0.5774
   39TMC2    C7  614   4.644   1.217   1.809 -0.5946  0.3472 -0.0200
   39TMC2    C8  615   4.239   1.423   1.958  0.5849  0.5047  0.2512
   39TMC2    O1  616   4.696   1.300   1.881 -0.4701  0.1873 -0.7971
   39TMC2    O2  617   4.119   1.407   1.979  0.0549 -0.1577  0.2422
   39TMC2    O5  618   4.333   1.438   2.051  0.1416  0.8197 -0.0325
   39TMC2    H5  619   4.426   1.437   2.020  0.5724 -2.6345  1.4307
   40MPD2     C  620   4.265   0.656   1.655  0.3026  0.3892  0.0487
   40MPD2    C1  621   4.200   0.775   1.640  1.1148 -1.0437 -0.0171
   40MPD2    C2  622   4.086   0.786   1.561 -0.4382  0.1049 -0.7212
   40MPD2    C3  623   4.035   0.672   1.491  0.2510 -0.2090 -0.2857
   40MPD2    C4  624   4.108   0.554   1.503 -0.0214 -0.0314 -0.1165
   40MPD2    C5  625   4.216   0.548   1.585  0.8591  0.2069  0.2356
   40MPD2     H  626   4.052   0.888   1.542  1.4732  0.7021 -0.9322
   40MPD2    H1  627   4.068   0.462   1.460  0.6602 -0.3233 -0.1281
   40MPD2    H2  628   4.361   0.647   1.704  0.2748 -2.7941 -0.4739
   40MPD2    H3  629   4.255   0.451   1.614  0.2942  0.5142  2.0489
   40MPD2     N  630   3.925   0.675   1.397  0.0741 -0.5042  0.2161
   40MPD2    H5  631   3.903   0.591   1.346 -0.5858  0.1776 -0.6152
   40MPD2    N1  632   4.264   0.886   1.709 -0.0342  0.3378  0.0770
   40MPD2    H7  633   4.355   0.868   1.751  0.2107  2.4463  0.4624
   41TMC2    C1  634   2.830   3.456  12.864 -0.5215  0.0744 -0.0373
   41TMC2    C2  635   2.742   3.502  12.772  1.5111 -0.2477  0.0895
   41TMC2    C3  636   2.747   3.441  12.648  0.1709  0.2142 -0.4234
   41TMC2    C4  637   2.918   3.354  12.843 -0.7134  0.0110  0.4456
   41TMC2    C5  638   2.907   3.283  12.724 -0.2029 -0.3140 -0.1679
   41TMC2    C6  639   2.821   3.327  12.625  0.0022  0.3577 -0.1922
   41TMC2     C  640   2.818   3.499  13.002  0.4784  0.0264 -0.0802
   41TMC2     O  641   2.747   3.598  13.015 -0.1580 -0.5400 -0.1575
   41TMC2     H  642   2.682   3.591  12.787  2.5172  0.6449 -1.1148
   41TMC2    H1  643   3.004   3.337  12.907 -2.7380 -0.6378  2.9782
   41TMC2    H2  644   2.799   3.279  12.530 -2.5952 -0.4986  0.8586
   41TMC2    C7  645   3.030   3.211  12.684 -0.3734 -0.2648  0.6222
   41TMC2    C8  646   2.639   3.468  12.550 -0.4713  0.7285 -0.0012
   41TMC2    O1  647   3.127   3.240  12.751 -0.1705 -0.1829  0.1330
   41TMC2    O2  648   2.657   3.534  12.450 -0.2576  0.7828  0.9600
   41TMC2    O5  649   2.537   3.486  12.635  0.5739 -0.1842  0.1104
   41TMC2    H5  650   2.537   3.415  12.703 -0.0125 -0.1052  0.1966
   42MPD2     C  651   2.909   3.598  13.256  0.6102  0.7835 -0.0463
   42MPD2    C1  652   2.905   3.465  13.227  0.1851 -0.6046 -0.1628
   42MPD2    C2  653   2.930   3.358  13.315 -0.3660 -0.3806  0.2782
   42MPD2    C3  654   2.942   3.394  13.450  0.3578 -0.5503 -0.2003
   42MPD2    C4  655   2.946   3.530  13.483  0.6771 -0.6059 -0.4682
   42MPD2    C5  656   2.930   3.626  13.390  0.0953  0.2185 -0.3001
   42MPD2     H  657   2.916   3.253  13.292  1.0304 -0.5526  0.2246
   42MPD2    H1  658   2.961   3.581  13.577  1.3862 -1.2224 -0.2490
   42MPD2    H2  659   2.897   3.680  13.186 -0.9317  1.0198  0.4827
   42MPD2    H3  660   2.944   3.732  13.409 -0.0095  0.3146 -0.7477
   42MPD2     N  661   2.949   3.299  13.553 -0.4510 -0.3056 -0.8180
   42MPD2    H5  662   2.960   3.321  13.652 -1.4386  0.7084 -0.9283
   42MPD2    N1  663   2.880   3.424  13.097 -0.6974  0.0866  0.5056
   42MPD2    H7  664   2.908   3.330  13.070 -1.4495 -0.0679  0.2480
   43TMC2    C1  665   4.400   1.925   0.697  0.0578  0.3695 -0.2357
   43TMC2    C2  666   4.301   2.009   0.652 -1.1701 -0.4556 -0.1007
   43TMC2    C3  667   4.332   2.135   0.618 -0.5129 -0.3947 -0.2764
   43TMC2    C4  668   4.525   1.957   0.728 -0.4336  0.9850 -0.4331
   43TMC2    C5  669   4.556   2.084   0.700  0.7666 -0.1039  0.6531
   43TMC2    C6  670   4.461   2.177   0.640  0.4539  0.4842 -1.0341
   43TMC2     C  671   4.381   1.782   0.691  0.5514  0.8855  0.4034
   43TMC2     O  672   4.477   1.725   0.647  0.2616 -0.4749  0.2792
   43TMC2     H  673   4.202   1.968   0.633 -0.0062 -2.7054 -1.3402
   43TMC2    H1  674   4.597   1.884   0.762 -0.4322  0.6494 -1.1620
   43TMC2    H2  675   4.496   2.275   0.610  0.0100  0.7417 -0.7098
   43TMC2    C7  676   4.693   2.123   0.731  0.0101  0.3251 -0.9102
   43TMC2    C8  677   4.244   2.216   0.543 -0.6056 -0.3208  0.1899
   43TMC2    O1  678   4.725   2.233   0.682 -0.1478  0.3161  0.2161
   43TMC2    O2  679   4.170   2.171   0.461 -0.2988 -0.5205  0.2938
   43TMC2    O5  680   4.206   2.322   0.617  0.3771 -0.6065 -0.0348
   43TMC2    H5  681   4.255   2.334   0.701 -1.1878 -2.6938  1.1785
   44MPD2     C  682   4.149   1.339   0.744  0.0354  1.3429 -0.3135
   44MPD2    C1  683   4.276   1.374   0.701  0.3727  0.2003  0.1007
   44MPD2    C2  684   4.321   1.503   0.713 -0.1285  0.2579 -0.3825
   44MPD2    C3  685   4.227   1.599   0.740  0.1978 -0.0576 -0.1483
   44MPD2    C4  686   4.101   1.566   0.780  0.2864  0.0992 -0.4541
   44MPD2    C5  687   4.064   1.432   0.785  0.2502  0.9703 -0.4503
   44MPD2     H  688   4.424   1.522   0.683 -0.0871  0.7919  0.0993
   44MPD2    H1  689   4.032   1.643   0.813 -0.2009 -1.0881  1.3351
   44MPD2    H2  690   4.102   1.241   0.746 -1.2328  1.9515 -0.4489
   44MPD2    H3  691   3.960   1.402   0.798  0.3803  0.0455 -1.5336
   44MPD2     N  692   4.256   1.738   0.728 -0.5278 -0.5622  0.0543
   44MPD2    H5  693   4.181   1.803   0.747  0.8327  1.0889 -0.2412
   44MPD2    N1  694   4.371   1.284   0.640 -0.1441 -0.5011  0.5955
   44MPD2    H7  695   4.466   1.317   0.628  0.8836 -3.3377  0.9102
   45TMC2    C1  696   0.052   2.851  10.122 -0.2085 -0.3384 -0.6207
   45TMC2    C2  697   0.134   2.864  10.229 -0.1847  0.2572  0.2459
   45TMC2    C3  698   0.254   2.933  10.214 -0.2431  0.4116 -0.9626
   45TMC2    C4  699   0.076   2.923  10.006 -0.1416 -0.5699 -0.4933
   45TMC2    C5  700   0.189   3.002  10.005 -0.1752 -0.0993 -0.4457
   45TMC2    C6  701   0.284   3.000  10.106 -0.2124  0.8901 -0.0161
   45TMC2     C  702   4.692   2.744  10.130 -0.1217 -0.7403  0.1604
   45TMC2     O  703   4.706   2.669  10.223 -0.0858  0.4769  0.1683
   45TMC2     H  704   0.121   2.805  10.319  0.3103  0.0523  0.1863
   45TMC2    H1  705   0.010   2.916   9.921 -0.2172 -0.3524 -0.4521
   45TMC2    H2  706   0.379   3.051  10.100 -0.0910  0.5629 -0.9175
   45TMC2    C7  707   0.160   3.120   9.937  1.0036  0.0690 -0.6630
   45TMC2    C8  708   0.343   2.938  10.317 -0.7834 -1.1174  0.3376
   45TMC2    O1  709   0.086   3.112   9.841 -0.1011 -0.4232  0.2805
   45TMC2    O2  710   0.455   2.990  10.314 -0.2336 -0.3748  0.4136
   45TMC2    O5  711   0.269   2.958  10.429  0.4092 -1.0123  0.0544
   45TMC2    H5  712   0.171   2.953  10.430  0.2747  1.6850 -1.1967
   46MPD2     C  713   4.531   2.509  10.058 -0.4276  0.1331  0.6756
   46MPD2    C1  714   4.539   2.623   9.983  0.5036  0.1817  0.1643
   46MPD2    C2  715   4.459   2.626   9.865  0.4852  0.9733  0.4723
   46MPD2    C3  716   4.373   2.521   9.844 -0.5801 -0.5703 -0.6612
   46MPD2    C4  717   4.380   2.399   9.912  0.8516 -0.6456 -0.0805
   46MPD2    C5  718   4.461   2.397  10.020  0.5838  0.4662 -0.4887
   46MPD2     H  719   4.485   2.703   9.793 -1.3731 -1.0364 -2.3955
   46MPD2    H1  720   4.312   2.314   9.905  0.1755  0.0926 -2.4751
   46MPD2    H2  721   4.578   2.491  10.155 -3.2612 -1.3333  1.7616
   46MPD2    H3  722   4.454   2.314  10.090 -0.4194  0.6240 -0.4141
   46MPD2     N  723   4.285   2.556   9.741  0.8395  0.1625  0.1109
   46MPD2    H5  724   4.290   2.648   9.699 -0.1818  0.5251  0.7899
   46MPD2    N1  725   4.621   2.730  10.014  0.2416  0.8077 -0.3127
   46MPD2    H7  726   4.627   2.803   9.943 -1.1466 -0.5076 -1.7796
   47TMC2    C1  727   1.829   3.607   9.484 -0.1379  0.3940 -0.0167
   47TMC2    C2  728   1.853   3.519   9.382  0.0654  0.9313  0.0861
   47TMC2    C3  729   1.746   3.481   9.307 -0.3924 -0.8281 -0.3450
   47TMC2    C4  730   1.705   3.649   9.508 -0.0626 -0.1051 -0.0001
   47TMC2    C5  731   1.599   3.608   9.428  0.6266 -0.6294 -0.6589
   47TMC2    C6  732   1.619   3.528   9.325 -0.0620  0.2932 -0.3611
   47TMC2     C  733   1.937   3.695   9.538 -0.2580  0.0417 -1.2096
   47TMC2     O  734   1.925   3.816   9.536  0.5671 -0.5082  0.1117
   47TMC2     H  735   1.955   3.483   9.368 -0.9307 -2.2263  0.8775
   47TMC2    H1  736   1.692   3.716   9.592 -0.7784 -0.8276  0.4636
   47TMC2    H2  737   1.543   3.494   9.256 -1.4618  1.8885  0.4125
   47TMC2    C7  738   1.467   3.653   9.461 -0.3193 -0.3182 -0.6257
   47TMC2    C8  739   1.790   3.389   9.195 -0.5694  0.7663  0.2902
   47TMC2    O1  740   1.381   3.622   9.384 -0.3527 -0.1704  0.2007
   47TMC2    O2  741   1.886   3.318   9.194 -0.7338  0.0032 -0.5249
   47TMC2    O5  742   1.698   3.382   9.096  0.1902 -0.0358 -0.0174
   47TMC2    H5  743   1.634   3.456   9.093  1.7430  1.3472  0.8674
   48MPD2     C  744   2.198   3.762   9.690  0.2582  0.1320  1.0398
   48MPD2    C1  745   2.153   3.642   9.662  0.0299  0.4177  0.2786
   48MPD2    C2  746   2.224   3.528   9.703  0.0184 -0.4155  0.8449
   48MPD2    C3  747   2.345   3.543   9.766  0.0392  0.6746  0.3736
   48MPD2    C4  748   2.399   3.666   9.798  0.6775  0.5746 -0.7782
   48MPD2    C5  749   2.318   3.777   9.759  0.7593 -0.4380 -0.4304
   48MPD2     H  750   2.174   3.433   9.687  0.9728 -1.2583  2.8433
   48MPD2    H1  751   2.492   3.681   9.852  1.8246 -1.2752 -2.2210
   48MPD2    H2  752   2.154   3.855   9.659 -1.2387 -0.3092  1.8568
   48MPD2    H3  753   2.360   3.875   9.774  0.9590 -0.7515  1.0703
   48MPD2     N  754   2.403   3.422   9.794 -0.2894  0.0274 -0.0678
   48MPD2    H5  755   2.350   3.340   9.766 -0.8321 -0.1245  1.3693
   48MPD2    N1  756   2.037   3.614   9.586 -0.2103 -0.3285 -0.3340
   48MPD2    H7  757   2.024   3.514   9.571 -1.1002 -0.5767  1.9851
   49TMC2    C1  758   0.262   0.472  11.050 -0.1140 -0.1461 -0.2542
   49TMC2    C2  759   0.361   0.466  10.953  0.2339 -0.0212 -0.3631
   49TMC2    C3  760   0.366   0.350  10.881  0.0404  0.0267 -0.5416
   49TMC2    C4  761   0.182   0.367  11.085  0.7822  0.2589  0.9990
   49TMC2    C5  762   0.199   0.250  11.019 -0.3505  0.0943 -0.3409
   49TMC2    C6  763   0.289   0.240  10.917  0.3891  0.2103 -0.1021
   49TMC2     C  764   0.283   0.586  11.142  0.2449  0.2556  0.5273
   49TMC2     O  765   0.333   0.688  11.090  0.2885  0.6188 -0.4997
   49TMC2     H  766   0.431   0.549  10.943 -0.1633  0.3236 -0.2992
   49TMC2    H1  767   0.087   0.377  11.136 -0.0689  1.1269 -0.7694
   49TMC2    H2  768   0.287   0.151  10.856 -1.5588  0.6080 -0.6053
   49TMC2    C7  769   0.110   0.136  11.035  0.3831 -0.4342 -0.5105
   49TMC2    C8  770   0.480   0.340  10.781  0.0644  0.1282  0.2275
   49TMC2    O1  771   0.104   0.053  10.946 -0.0679 -0.0815 -0.4109
   49TMC2    O2  772   0.475   0.266  10.682  0.0182 -0.3971  0.7980
   49TMC2    O5  773   0.585   0.357  10.863  0.0086 -0.3629  0.1273
   49TMC2    H5  774   0.560   0.384  10.954 -0.2398  0.6664 -0.2445
   50MPD2     C  775   0.245   0.783  11.358  0.0389 -0.0417  0.1253
   50MPD2    C1  776   0.264   0.646  11.372 -0.4951 -0.0690  0.0430
   50MPD2    C2  777   0.272   0.596  11.506  0.8250  0.3660  0.3104
   50MPD2    C3  778   0.272   0.677  11.619 -0.6449 -0.0359 -0.8866
   50MPD2    C4  779   0.253   0.811  11.598  0.8619  0.1561 -0.9178
   50MPD2    C5  780   0.261   0.861  11.465  0.2306 -0.4654 -0.5505
   50MPD2     H  781   0.310   0.495  11.500  0.8178  0.5246 -2.8952
   50MPD2    H1  782   0.253   0.878  11.683 -2.7366 -2.0783  0.8338
   50MPD2    H2  783   0.226   0.825  11.260  2.5298 -2.3744 -1.3555
   50MPD2    H3  784   0.249   0.967  11.446  0.7645 -0.4601 -0.8493
   50MPD2     N  785   0.300   0.633  11.751  0.3384  0.2450 -0.7538
   50MPD2    H5  786   0.327   0.700  11.823  1.8593  1.6649 -2.6483
   50MPD2    N1  787   0.257   0.547  11.268  0.3906 -0.4556 -0.0134
   50MPD2    H7  788   0.252   0.446  11.277 -1.5204 -0.4253 -0.7062
   51TMC2    C1  789   1.347   0.906   1.791 -0.9976 -0.7655 -0.1372
   51TMC2    C2  790   1.372   1.035   1.820  0.0657 -0.1638  0.0595
   51TMC2    C3  791   1.288   1.126   1.753 -0.4391  0.9358 -0.0038
   51TMC2    C4  792   1.240   0.867   1.719  0.1650 -0.6040  0.6908
   51TMC2    C5  793   1.163   0.950   1.654 -0.4563  0.1615  0.7341
   51TMC2    C6  794   1.190   1.081   1.667 -0.2124  0.5834  0.2992
   51TMC2     C  795   1.465   0.828   1.758 -0.3432 -0.2888 -1.0234
   51TMC2     O  796   1.446   0.723   1.707 -0.1152 -0.4017 -0.1323
   51TMC2     H  797   1.449   1.076   1.885  0.5341 -1.7922  0.5212
   51TMC2    H1  798   1.227   0.760   1.706  1.8543 -0.9508  1.7830
   51TMC2    H2  799   1.133   1.155   1.613 -2.1014 -0.7900  0.4199
   51TMC2    C7  800   1.147   0.912   1.512 -0.2473 -0.5873  0.0227
   51TMC2    C8  801   1.271   1.266   1.792 -0.1913  0.3599  0.4454
   51TMC2    O1  802   1.194   0.989   1.434  0.5095  0.1654  0.3767
   51TMC2    O2  803   1.163   1.319   1.778 -0.0347 -0.1818  0.2458
   51TMC2    O5  804   1.388   1.327   1.817 -0.0454  0.1320 -0.1783
   51TMC2    H5  805   1.469   1.278   1.791  0.0143 -0.2199  0.6666
   52MPD2     C  806   1.965   0.760   1.661 -1.1464  0.3934  0.5877
   52MPD2    C1  807   1.860   0.668   1.656 -0.3306 -0.8807  0.3324
   52MPD2    C2  808   1.737   0.709   1.701  0.0471 -0.7765  0.3783
   52MPD2    C3  809   1.720   0.838   1.749 -0.0438 -0.9917 -0.3436
   52MPD2    C4  810   1.825   0.922   1.762 -0.0521  0.0550 -0.1606
   52MPD2    C5  811   1.947   0.882   1.720  0.3703  0.5281  0.3211
   52MPD2     H  812   1.648   0.650   1.685 -1.0508  1.0038  0.0290
   52MPD2    H1  813   1.823   1.021   1.804  0.3184  0.2908 -0.7067
   52MPD2    H2  814   2.069   0.732   1.646 -1.4249 -0.0002 -0.5676
   52MPD2    H3  815   2.029   0.953   1.727  0.5792  0.2882  0.3233
   52MPD2     N  816   1.588   0.885   1.782  0.1315 -0.2412 -0.0642
   52MPD2    H5  817   1.588   0.976   1.827 -2.0096 -0.3881  0.2404
   52MPD2    N1  818   1.875   0.538   1.603  0.0685  0.1839 -0.9094
   52MPD2    H7  819   1.795   0.476   1.598  1.6687 -1.9464 -0.3377
   53TMC2    C1  820   1.365   3.160  11.632  0.6150  0.0078 -0.2169
   53TMC2    C2  821   1.475   3.093  11.594  0.0447 -0.9284 -0.5626
   53TMC2    C3  822   1.572   3.098  11.692 -0.0253 -0.3792  0.1977
   53TMC2    C4  823   1.352   3.225  11.749  0.4835  0.8903  0.1932
   53TMC2    C5  824   1.451   3.211  11.844 -0.3284 -0.8502  0.1128
   53TMC2    C6  825   1.562   3.144  11.817  0.1357 -0.0448 -0.1709
   53TMC2     C  826   1.247   3.099  11.572  0.2638 -0.7232  0.1995
   53TMC2     O  827   1.243   3.077  11.454 -0.0666  0.8802 -0.0366
   53TMC2     H  828   1.476   3.055  11.493 -2.4222  0.0582 -0.9403
   53TMC2    H1  829   1.255   3.268  11.773 -0.2492  0.2547 -1.5871
   53TMC2    H2  830   1.648   3.161  11.882 -0.6011  1.2400  0.4542
   53TMC2    C7  831   1.400   3.226  11.979  0.3002  0.9078 -0.0763
   53TMC2    C8  832   1.707   3.070  11.644  0.9138 -0.6192 -0.1794
   53TMC2    O1  833   1.279   3.222  11.985 -0.2212 -0.3263  0.0261
   53TMC2    O2  834   1.798   3.142  11.681 -0.2680 -0.2055  0.2489
   53TMC2    O5  835   1.716   2.935  11.654 -0.0300 -0.0183  0.1730
   53TMC2    H5  836   1.624   2.905  11.670  0.8173 -0.7976  3.5846
   54MPD2     C  837   0.990   2.950  11.531  0.2816  0.0729  0.1418
   54MPD2    C1  838   1.030   3.008  11.650  0.0356 -0.6771  0.0916
   54MPD2    C2  839   0.945   3.008  11.759 -0.9527  0.9164  0.1990
   54MPD2    C3  840   0.821   2.941  11.753 -0.1075 -0.0311 -0.1356
   54MPD2    C4  841   0.781   2.882  11.631  0.1316  0.3369  0.5925
   54MPD2    C5  842   0.869   2.882  11.525 -0.0182 -0.2415  0.0847
   54MPD2     H  843   0.983   3.041  11.855  1.2361  0.9850 -0.7052
   54MPD2    H1  844   0.697   2.815  11.627 -1.0920  2.0722 -3.1845
   54MPD2    H2  845   1.063   2.944  11.451  0.3725  1.8426  0.0918
   54MPD2    H3  846   0.833   2.835  11.435  1.6199  0.7396 -1.0761
   54MPD2     N  847   0.727   2.938  11.858  0.0919  0.8250  0.5382
   54MPD2    H5  848   0.647   2.878  11.843 -0.9654  1.4749  3.4315
   54MPD2    N1  849   1.153   3.074  11.674 -0.2120  0.2578  0.2273
   54MPD2    H7  850   1.167   3.112  11.767 -3.4992 -0.8903  1.1832
   55TMC2    C1  851   2.057   1.493  17.578  0.3659 -0.6861 -1.0912
   55TMC2    C2  852   2.047   1.488  17.437 -0.0322  0.4029 -0.3163
   55TMC2    C3  853   2.052   1.358  17.377 -0.1422  0.4198 -0.3426
   55TMC2    C4  854   2.080   1.379  17.655 -0.1904 -0.1944 -0.2037
   55TMC2    C5  855   2.083   1.258  17.586  0.0225  0.1573 -0.0692
   55TMC2    C6  856   2.074   1.243  17.450 -0.6123 -0.0810  0.1546
   55TMC2     C  857   2.055   1.617  17.652  0.4108  0.1745  0.7496
   55TMC2     O  858   2.015   1.608  17.765 -0.0476 -0.2708 -0.5633
   55TMC2     H  859   2.025   1.572  17.372 -1.9599 -0.1044 -0.2969
   55TMC2    H1  860   2.095   1.386  17.762  1.7106 -0.5145 -0.4499
   55TMC2    H2  861   2.086   1.150  17.396  2.6208  0.3588  0.0955
   55TMC2    C7  862   2.083   1.128  17.661 -0.7017  0.0596 -0.7124
   55TMC2    C8  863   2.005   1.335  17.240  0.6428  0.0833  0.1558
   55TMC2    O1  864   2.078   1.026  17.591 -0.1196 -0.0700  0.1243
   55TMC2    O2  865   2.010   1.423  17.157 -0.5845 -0.1344 -0.2591
   55TMC2    O5  866   1.907   1.241  17.257  0.3948 -0.7935 -0.0686
   55TMC2    H5  867   1.906   1.199  17.345  1.0648 -1.5559 -0.4231
   56MPD2     C  868   2.116   1.952  17.550  0.3782 -0.2708  0.4686
   56MPD2    C1  869   2.089   1.851  17.638  0.0863 -0.2191 -0.1567
   56MPD2    C2  870   2.070   1.882   0.007 -0.7544 -0.2812  0.2471
   56MPD2    C3  871   2.064   2.008   0.048  0.2733  0.2923  0.1273
   56MPD2    C4  872   2.095   2.110  17.722 -0.6607  0.1772 -0.7374
   56MPD2    C5  873   2.126   2.076  17.593  0.1454 -0.4900  0.9874
   56MPD2     H  874   2.056   1.799   0.076 -2.8913 -0.7386 -0.7675
   56MPD2    H1  875   2.088   2.215  17.750  1.1360 -0.3349  1.5951
   56MPD2    H2  876   2.139   1.936  17.445  1.5294 -2.1299  0.9921
   56MPD2    H3  877   2.152   2.147  17.515 -0.5180 -0.7871  0.4949
   56MPD2     N  878   2.022   2.045   0.179 -0.7334  0.1161 -0.2781
   56MPD2    H5  879   2.019   1.970   0.247 -0.2034 -0.0408 -0.4225
   56MPD2    N1  880   2.080   1.726  17.583  0.0559 -0.1232  0.1098
   56MPD2    H7  881   2.114   1.713  17.489 -2.1663  0.8190 -0.8287
   57TMC2    C1  882   1.439   1.313  13.956 -0.2354 -0.1286  0.9516
   57TMC2    C2  883   1.480   1.262  14.078  0.6278  0.8160  0.0829
   57TMC2    C3  884   1.609   1.216  14.081 -0.5643 -0.9439  0.1867
   57TMC2    C4  885   1.517   1.322  13.844  0.1098  0.5972 -0.4214
   57TMC2    C5  886   1.647   1.285  13.860 -0.1985 -0.3693 -0.2421
   57TMC2    C6  887   1.691   1.225  13.974  0.1784 -0.1160  0.4099
   57TMC2     C  888   1.292   1.317  13.925  0.5568  0.0567 -0.0918
   57TMC2     O  889   1.258   1.363  13.817 -0.4084  0.1426 -0.1690
   57TMC2     H  890   1.426   1.272  14.171  0.1121 -0.5342 -0.0758
   57TMC2    H1  891   1.492   1.395  13.768 -1.3227  1.8036  1.1882
   57TMC2    H2  892   1.795   1.196  13.975  0.9796  2.7365  0.7474
   57TMC2    C7  893   1.752   1.336  13.772  0.4259 -0.4551  0.2317
   57TMC2    C8  894   1.672   1.165  14.199  0.7266 -0.2719  0.3144
   57TMC2    O1  895   1.869   1.321  13.810  0.0972 -0.0454 -0.0551
   57TMC2    O2  896   1.792   1.136  14.195 -0.4514 -0.4155 -0.3410
   57TMC2    O5  897   1.586   1.086  14.265  0.0651  0.1449  0.0392
   57TMC2    H5  898   1.489   1.103  14.263 -0.0730 -0.5326  1.0581
   58MPD2     C  899   0.882   1.446  14.199  0.6225 -0.4274 -0.0921
   58MPD2    C1  900   0.935   1.510  14.087  0.4252 -0.0006  0.0839
   58MPD2    C2  901   1.035   1.435  14.029  0.2722 -0.4273 -0.6385
   58MPD2    C3  902   1.087   1.314  14.070 -0.2197  0.0342 -0.0578
   58MPD2    C4  903   1.043   1.262  14.189  0.2112 -0.4264  0.5497
   58MPD2    C5  904   0.940   1.339  14.249 -0.5925 -0.3354  0.3301
   58MPD2     H  905   1.080   1.474  13.938 -0.9349  0.8837 -0.6707
   58MPD2    H1  906   1.091   1.177  14.236 -0.5739 -0.5312  1.1548
   58MPD2    H2  907   0.795   1.492  14.244  2.2950  0.7150  1.9743
   58MPD2    H3  908   0.906   1.303  14.345 -2.5773 -2.5002 -1.1817
   58MPD2     N  909   1.216   1.265  14.027  0.0735  0.8881 -0.0272
   58MPD2    H5  910   1.265   1.189  14.074  0.0117 -0.0827 -1.5219
   58MPD2    N1  911   0.898   1.641  14.059 -0.2050  0.4608  0.0048
   58MPD2    H7  912   0.829   1.687  14.117 -1.7244 -0.6919 -0.8704
   59TMC2    C1  913   3.708   2.205  12.847 -0.2987 -0.5626 -0.7694
   59TMC2    C2  914   3.838   2.240  12.819  0.3941 -0.7477 -0.0357
   59TMC2    C3  915   3.878   2.250  12.685  0.3114 -0.7543 -0.5212
   59TMC2    C4  916   3.624   2.169  12.745  0.0576 -0.0633 -0.0666
   59TMC2    C5  917   3.671   2.171  12.616  0.1046  0.3568  0.4473
   59TMC2    C6  918   3.796   2.219  12.578 -0.6044  0.3873  0.3628
   59TMC2     C  919   3.676   2.164  12.981  0.1322 -0.0024 -0.9114
   59TMC2     O  920   3.558   2.169  13.016 -0.4243  0.1155  0.2368
   59TMC2     H  921   3.911   2.261  12.896  0.6243 -1.7118  0.0180
   59TMC2    H1  922   3.521   2.139  12.762  0.0255 -0.7145 -1.4053
   59TMC2    H2  923   3.834   2.194  12.479 -0.6985  1.2084  0.1193
   59TMC2    C7  924   3.573   2.138  12.515 -0.0025  0.1311  0.8195
   59TMC2    C8  925   4.014   2.283  12.644 -0.3571  0.0874  0.7480
   59TMC2    O1  926   3.459   2.108  12.547 -0.0536 -0.0977 -0.2380
   59TMC2    O2  927   4.067   2.236  12.546 -0.4383 -0.4460 -0.3286
   59TMC2    O5  928   4.053   2.376  12.728 -0.8279 -0.3087  0.1073
   59TMC2    H5  929   4.141   2.408  12.696 -1.7886 -0.4335 -2.6523
   60MPD2     C  930   3.701   2.153  13.280 -1.1570 -0.7454  0.3959
   60MPD2    C1  931   3.799   2.117  13.191  0.5024 -0.1489  0.5874
   60MPD2    C2  932   3.917   2.060  13.234 -0.2942  0.0580  0.1399
   60MPD2    C3  933   3.952   2.069  13.371 -0.0345  0.2061 -0.0551
   60MPD2    C4  934   3.856   2.122  13.456  0.0930 -0.8095  0.1847
   60MPD2    C5  935   3.729   2.152  13.417 -0.2152 -0.0298 -0.0849
   60MPD2     H  936   3.987   2.028  13.158 -1.0906 -1.9964  0.2659
   60MPD2    H1  937   3.872   2.123  13.563  0.2803  0.8479  0.1538
   60MPD2    H2  938   3.599   2.182  13.256 -0.2884  1.2991 -0.8179
   60MPD2    H3  939   3.654   2.172  13.492 -3.3126  0.6164 -3.3696
   60MPD2     N  940   4.080   2.043  13.434 -0.4033 -0.6490  0.2355
   60MPD2    H5  941   4.103   2.088  13.522  0.2003 -0.2462 -0.1276
   60MPD2    N1  942   3.788   2.123  13.046  0.4744  0.2958 -0.8908
   60MPD2    H7  943   3.873   2.108  12.993  0.8131 -2.9668  0.5012
   61TMC2    C1  944   2.863   3.064  15.760 -0.3855 -0.5692  0.0425
   61TMC2    C2  945   2.845   2.974  15.860  0.3597 -0.4573  0.3655
   61TMC2    C3  946   2.827   3.019  15.984  0.3904 -0.4821  0.0698
   61TMC2    C4  947   2.868   3.199  15.782 -0.4192  0.2554  0.5557
   61TMC2    C5  948   2.859   3.243  15.915  0.0283 -0.1052 -0.5290
   61TMC2    C6  949   2.837   3.155  16.017  0.3330  0.3270 -0.4266
   61TMC2     C  950   2.872   3.013  15.623 -0.0941 -0.0728 -0.6494
   61TMC2     O  951   2.902   2.900  15.610 -0.1099 -0.3108 -0.5738
   61TMC2     H  952   2.852   2.868  15.839  0.1426 -0.8041  2.0735
   61TMC2    H1  953   2.875   3.273  15.702  2.5270 -1.8287 -1.1278
   61TMC2    H2  954   2.798   3.196  16.109  1.7341 -0.1427  0.3797
   61TMC2    C7  955   2.842   3.390  15.931  0.2366  0.1972 -0.2748
   61TMC2    C8  956   2.858   2.919  16.082 -0.4103 -0.2959  0.0902
   61TMC2    O1  957   2.814   3.449  15.833 -0.1518  0.9036  0.2904
   61TMC2    O2  958   2.821   2.798  16.089  0.1243 -0.2138 -0.7958
   61TMC2    O5  959   2.932   2.989  16.174  0.5648 -0.6007  0.1547
   61TMC2    H5  960   2.936   3.084  16.150 -1.5627 -0.4744  0.2446
   62MPD2     C  961   2.862   2.957  15.327 -0.4182 -0.5789  0.0323
   62MPD2    C1  962   2.852   3.082  15.384 -0.3644 -0.2262 -0.7720
   62MPD2    C2  963   2.851   3.192  15.295  0.2755  0.5062  0.1972
   62MPD2    C3  964   2.860   3.174  15.162 -0.0878  0.2243 -0.5858
   62MPD2    C4  965   2.866   3.049  15.108 -0.0289  0.1208  0.2986
   62MPD2    C5  966   2.866   2.946  15.188 -0.6738  0.3925  0.3918
   62MPD2     H  967   2.851   3.289  15.342  1.0488  0.1817  0.8614
   62MPD2    H1  968   2.883   3.035  15.002 -0.9656  2.3514 -0.1466
   62MPD2    H2  969   2.874   2.878  15.401  3.7041 -0.7136 -0.8102
   62MPD2    H3  970   2.875   2.846  15.148  0.2715  0.5007  0.3273
   62MPD2     N  971   2.872   3.290  15.073  0.3386  0.2121 -0.2670
   62MPD2    H5  972   2.913   3.268  14.983 -0.0561  2.7583 -1.0755
   62MPD2    N1  973   2.843   3.106  15.522  0.2842  0.4021 -0.1867
   62MPD2    H7  974   2.815   3.199  15.552  0.4046  0.5539 -0.5488
   63TMC2    C1  975   2.161   3.652  10.553 -0.2567 -0.0231  0.2259
   63TMC2    C2  976   2.227   3.623  10.670  0.2511 -0.9294  0.3868
   63TMC2    C3  977   2.335   3.709  10.706 -0.1586  0.7389 -0.4623
   63TMC2    C4  978   2.197   3.756  10.472  0.1432 -1.3465 -0.1693
   63TMC2    C5  979   2.316   3.822  10.499  0.6615  0.0018  0.0473
   63TMC2    C6  980   2.387   3.794  10.612  0.0580  0.1432 -0.6751
   63TMC2     C  981   2.090   3.535  10.496 -0.2715  0.3199 -0.3643
   63TMC2     O  982   2.028   3.559  10.395  0.1282 -0.5767 -0.4480
   63TMC2     H  983   2.189   3.552  10.742  0.0724 -0.2611  0.9467
   63TMC2    H1  984   2.126   3.770  10.391  0.2792 -0.0732 -0.0772
   63TMC2    H2  985   2.473   3.853  10.640  0.2826  0.3122 -1.7103
   63TMC2    C7  986   2.367   3.882  10.375 -0.0784  0.0453 -0.8338
   63TMC2    C8  987   2.432   3.656  10.798 -0.2412  0.0145  0.1302
   63TMC2    O1  988   2.282   3.913  10.290  0.1106 -0.4092 -0.0942
   63TMC2    O2  989   2.470   3.538  10.805  0.0782 -0.2634 -0.1789
   63TMC2    O5  990   2.474   3.754  10.880 -0.2232 -0.4471 -0.6516
   63TMC2    H5  991   2.438   3.844  10.866 -0.6886 -0.5915 -0.3786
   64MPD2     C  992   1.976   3.035  10.431 -0.9911  0.3759  0.8053
   64MPD2    C1  993   2.076   3.045  10.522  0.9006 -0.8686 -0.3110
   64MPD2    C2  994   2.139   3.171  10.546 -0.3640 -1.4412  0.0730
   64MPD2    C3  995   2.085   3.292  10.498  0.2053 -0.3281  0.2408
   64MPD2    C4  996   1.981   3.275  10.407 -0.3128  0.7770 -0.2004
   64MPD2    C5  997   1.939   3.150  10.372  0.4476  0.2998 -0.3076
   64MPD2     H  998   2.215   3.176  10.623  0.2044  1.2271 -0.6792
   64MPD2    H1  999   1.914   3.353  10.373  0.1609  0.8414 -0.9726
   64MPD2    H2 1000   1.934   2.943  10.392  1.3850  0.0113 -0.9171
   64MPD2    H3 1001   1.852   3.148  10.308  0.5086 -2.0322 -0.3367
   64MPD2     N 1002   2.136   3.419  10.546  0.4798 -0.1055 -0.2579
   64MPD2    H5 1003   2.210   3.421  10.615 -0.9318  3.2566  1.1450
   64MPD2    N1 1004   2.124   2.932  10.595  0.1070  0.6652  0.3910
   64MPD2    H7 1005   2.206   2.948  10.653 -0.7346 -0.1991  1.8040
   65TMC2    C1 1006   3.585   3.264  15.630 -0.5062  0.3981 -0.3779
   65TMC2    C2 1007   3.581   3.191  15.512 -0.3114 -0.1335 -0.7131
   65TMC2    C3 1008   3.522   3.245  15.399 -1.0832 -0.0494  0.6460
   65TMC2    C4 1009   3.550   3.394  15.632 -0.1183  1.2013 -0.8736
   65TMC2    C5 1010   3.506   3.448  15.513 -0.5828  0.2242  0.0671
   65TMC2    C6 1011   3.494   3.380  15.399 -0.3718 -0.2330  0.3558
   65TMC2     C 1012   3.612   3.212  15.762  0.5506  0.7381 -0.6305
   65TMC2     O 1013   3.598   3.283  15.861 -0.0113 -0.6656  0.1188
   65TMC2     H 1014   3.615   3.088  15.510 -1.4199 -0.4996 -0.2664
   65TMC2    H1 1015   3.603   3.451  15.707  0.3691  0.2625 -0.4987
   65TMC2    H2 1016   3.465   3.432  15.308  0.7823 -0.1833  0.0134
   65TMC2    C7 1017   3.547   3.586  15.498  0.3461  0.0854  0.6921
   65TMC2    C8 1018   3.588   3.191  15.284  0.3905 -0.1132 -0.5207
   65TMC2    O1 1019   3.579   3.611  15.380  0.1972 -0.1818  0.1241
   65TMC2    O2 1020   3.709   3.189  15.271  0.1673  0.1259 -0.0972
   65TMC2    O5 1021   3.501   3.218  15.185  0.0777 -0.0207 -0.5970
   65TMC2    H5 1022   3.407   3.214  15.214  0.3135  0.1995  0.2070
   66MPD2     C 1023   3.687   3.038  16.000  1.1359 -0.2442 -0.8308
   66MPD2    C1 1024   3.646   2.996  15.880 -0.5418 -0.3847  0.4526
   66MPD2    C2 1025   3.606   2.866  15.860 -0.3012  0.3041 -0.2919
   66MPD2    C3 1026   3.612   2.772  15.961  0.0625  0.0971  0.0467
   66MPD2    C4 1027   3.647   2.821  16.086 -0.1263  0.6966  0.0677
   66MPD2    C5 1028   3.675   2.955  16.115  0.5854  0.3751 -0.1484
   66MPD2     H 1029   3.583   2.835  15.759  2.5348 -0.5459 -0.6730
   66MPD2    H1 1030   3.626   2.755  16.170 -0.3446  0.0644 -0.4826
   66MPD2    H2 1031   3.717   3.141  16.010  1.4189 -0.3601 -0.4700
   66MPD2    H3 1032   3.704   2.992  16.213 -1.6750 -1.1510  1.1041
   66MPD2     N 1033   3.586   2.637  15.942 -0.1795  0.8648 -0.0878
   66MPD2    H5 1034   3.582   2.580  16.025  1.1525  1.9450  0.7248
   66MPD2    N1 1035   3.630   3.078  15.761  0.0405 -0.4676  0.9968
   66MPD2    H7 1036   3.623   3.019  15.679  2.8377 -1.3014  1.3499
   67TMC2    C1 1037   3.928   2.662  14.465 -0.0344  0.2803 -0.1229
   67TMC2    C2 1038   3.896   2.796  14.490  0.1954  0.3299  0.1477
   67TMC2    C3 1039   3.934   2.845  14.615 -0.4694 -0.6650  0.4918
   67TMC2    C4 1040   3.962   2.584  14.572 -0.0385 -0.7416  0.2600
   67TMC2    C5 1041   4.004   2.641  14.691  0.2036  0.2007 -0.5640
   67TMC2    C6 1042   3.997   2.774  14.712  0.5654  0.0472 -0.1083
   67TMC2     C 1043   3.863   2.589  14.355  0.2666 -0.7851 -0.2851
   67TMC2     O 1044   3.875   2.473  14.353  0.4444  0.5924  0.5347
   67TMC2     H 1045   3.871   2.857  14.403 -2.2119  0.4500  0.9190
   67TMC2    H1 1046   3.968   2.477  14.555  0.8822 -0.8696  1.3518
   67TMC2    H2 1047   4.037   2.825  14.799  2.1802 -0.3035 -0.6360
   67TMC2    C7 1048   4.081   2.562  14.782  0.7712 -0.2155 -0.1290
   67TMC2    C8 1049   3.934   2.991  14.625  0.0653  0.1177  0.3308
   67TMC2    O1 1050   4.152   2.475  14.738 -0.3581  0.8060  0.6555
   67TMC2    O2 1051   4.007   3.057  14.694  0.0726  0.1108 -0.0786
   67TMC2    O5 1052   3.833   3.038  14.555  0.6748  0.2793 -0.3905
   67TMC2    H5 1053   3.760   2.972  14.545 -1.6983  2.9374 -0.4732
   68MPD2     C 1054   3.745   2.518  14.094  0.2938  0.1937 -0.1563
   68MPD2    C1 1055   3.722   2.636  14.155  0.0187  0.4513 -0.2287
   68MPD2    C2 1056   3.624   2.716  14.101 -0.3985 -0.4857  0.0013
   68MPD2    C3 1057   3.547   2.686  13.989 -0.2014 -0.2346  0.1850
   68MPD2    C4 1058   3.573   2.566  13.923  0.1806  0.2741 -0.0319
   68MPD2    C5 1059   3.673   2.490  13.982  0.0660 -0.0540  0.6420
   68MPD2     H 1060   3.603   2.810  14.151 -1.9185 -1.7675  1.7937
   68MPD2    H1 1061   3.529   2.539  13.828 -2.3511 -0.8531  1.4721
   68MPD2    H2 1062   3.813   2.442  14.132 -0.9955 -1.3779 -0.9702
   68MPD2    H3 1063   3.690   2.394  13.934 -1.0705  0.0785 -0.0218
   68MPD2     N 1064   3.461   2.778  13.924 -0.4164 -0.6138  0.2535
   68MPD2    H5 1065   3.398   2.728  13.861  1.7116 -1.1259 -1.4707
   68MPD2    N1 1066   3.786   2.670  14.279  0.1023  0.0751 -0.5369
   68MPD2    H7 1067   3.763   2.762  14.316  1.3708  0.4853 -0.7755
   69TMC2    C1 1068   1.471   3.590  12.608 -1.1455  0.2987  0.0569
   69TMC2    C2 1069   1.341   3.627  12.614  0.4515 -0.0186  0.6229
   69TMC2    C3 1070   1.276   3.640  12.492 -0.5313 -0.2934  0.5210
   69TMC2    C4 1071   1.539   3.576  12.491 -0.2292 -0.0783 -0.8080
   69TMC2    C5 1072   1.475   3.572  12.371 -0.3390  0.6723  0.2152
   69TMC2    C6 1073   1.338   3.601  12.372  0.6638  0.1151 -0.2940
   69TMC2     C 1074   1.522   3.519  12.721 -0.1278  0.0622  0.5442
   69TMC2     O 1075   1.451   3.525  12.824  0.7106  0.3864  0.4073
   69TMC2     H 1076   1.286   3.619  12.708 -1.9711  0.4310 -0.7490
   69TMC2    H1 1077   1.645   3.558  12.499  0.0745  1.8603 -0.2602
   69TMC2    H2 1078   1.280   3.586  12.281 -1.6422 -1.5153  1.4443
   69TMC2    C7 1079   1.556   3.539  12.252  0.3441  0.0507  0.2084
   69TMC2    C8 1080   1.146   3.674  12.490  0.2908 -0.8077  0.4308
   69TMC2    O1 1081   1.676   3.522  12.268 -0.1769 -0.2792  0.2917
   69TMC2    O2 1082   1.072   3.647  12.394 -0.5039 -0.2388 -0.3067
   69TMC2    O5 1083   1.117   3.744  12.601  0.3784 -0.1446 -0.4270
   69TMC2    H5 1084   1.189   3.790  12.649 -0.5815 -0.1858  1.0951
   70MPD2     C 1085   1.801   3.280  12.747 -0.4140  0.7502  0.2010
   70MPD2    C1 1086   1.674   3.330  12.775 -0.1209  0.4110 -0.3396
   70MPD2    C2 1087   1.594   3.266  12.870  0.3150 -0.1412  0.1044
   70MPD2    C3 1088   1.644   3.155  12.934 -0.1415 -0.1914 -0.0808
   70MPD2    C4 1089   1.770   3.109  12.905  0.5452  0.5531  0.5421
   70MPD2    C5 1090   1.843   3.169  12.809 -0.2331  0.5964 -0.7080
   70MPD2     H 1091   1.493   3.304  12.884  0.6038 -0.1298  2.1888
   70MPD2    H1 1092   1.813   3.029  12.965 -0.3856 -0.6824 -0.4469
   70MPD2    H2 1093   1.860   3.321  12.666  0.0536  0.1269  0.2234
   70MPD2    H3 1094   1.937   3.125  12.776  0.9333  1.6313  1.2431
   70MPD2     N 1095   1.583   3.091  13.049 -0.9970  0.1770  0.3947
   70MPD2    H5 1096   1.645   3.020  13.088  1.9325  1.2408 -2.3019
   70MPD2    N1 1097   1.627   3.431  12.692  0.0736  0.5689 -0.3980
   70MPD2    H7 1098   1.678   3.450  12.607 -0.6981  1.8751 -0.5778
   71TMC2    C1 1099   4.046   0.620   2.019  0.3184 -0.0914  0.6489
   71TMC2    C2 1100   4.069   0.622   2.153  0.7142  0.2929 -0.1679
   71TMC2    C3 1101   4.059   0.737   2.217 -0.1925 -0.0836 -0.6083
   71TMC2    C4 1102   4.018   0.734   1.943 -0.1072  0.2265 -0.2558
   71TMC2    C5 1103   3.999   0.855   2.011  0.1333  0.6725 -0.1690
   71TMC2    C6 1104   4.034   0.856   2.149  0.0118 -0.0641  0.6001
   71TMC2     C 1105   4.021   0.493   1.946  0.5935  0.1301  0.3832
   71TMC2     O 1106   4.035   0.485   1.825  0.1861 -0.2890 -0.0014
   71TMC2     H 1107   4.092   0.532   2.210  0.0191 -0.2357 -0.7135
   71TMC2    H1 1108   4.000   0.731   1.836 -0.1069  1.1818 -0.2850
   71TMC2    H2 1109   3.983   0.930   2.209 -0.2589 -0.3541  0.7290
   71TMC2    C7 1110   3.882   0.933   1.963 -1.0266  0.4046  0.1048
   71TMC2    C8 1111   4.113   0.750   2.353  0.4246  0.0928 -0.6832
   71TMC2    O1 1112   3.855   1.029   2.030 -0.0447  0.2729 -0.5349
   71TMC2    O2 1113   4.069   0.828   2.433 -0.7843  0.3362  0.4680
   71TMC2    O5 1114   4.217   0.659   2.369  0.2649 -0.6019  0.2968
   71TMC2    H5 1115   4.250   0.620   2.285  2.4649  0.1434  0.8352
   72MPD2     C 1116   3.779   0.056   1.902 -0.4351  0.2172  0.6614
   72MPD2    C1 1117   3.785   0.165   1.819  0.3867  0.3204 -0.5433
   72MPD2    C2 1118   3.857   0.274   1.861 -0.1479  0.0465  0.1039
   72MPD2    C3 1119   3.923   0.277   1.984  0.4246  0.0418 -0.3283
   72MPD2    C4 1120   3.913   0.174   2.064 -0.0705 -0.5109 -0.1050
   72MPD2    C5 1121   3.837   0.064   2.027 -0.4501  0.1245  0.1304
   72MPD2     H 1122   3.861   0.358   1.792  1.6845  1.2524  1.6971
   72MPD2    H1 1123   3.972   0.182   2.154  1.8705 -1.2964 -1.3244
   72MPD2    H2 1124   3.717   4.713   1.878 -0.2448  0.9716 -2.5018
   72MPD2    H3 1125   3.831   4.719   2.091 -0.7968  1.0181  1.3200
   72MPD2     N 1126   3.979   0.398   2.035 -0.1888  0.7467 -0.4683
   72MPD2    H5 1127   3.992   0.400   2.136 -2.6459 -0.3252 -0.1351
   72MPD2    N1 1128   3.726   0.175   1.693  0.2340 -0.3183  0.1665
   72MPD2    H7 1129   3.719   0.266   1.648 -4.3812 -1.1093 -0.7138
   73TMC2    C1 1130   2.806   1.185  14.103  0.7433 -0.2848 -0.8596
   73TMC2    C2 1131   2.752   1.110  14.005 -0.5787 -0.6448  0.3202
   73TMC2    C3 1132   2.747   0.973  14.003  0.4263  0.0314  0.8509
   73TMC2    C4 1133   2.874   1.114  14.200  0.2002  0.2280  0.3040
   73TMC2    C5 1134   2.891   0.979  14.189  0.0512 -0.0365 -0.2114
   73TMC2    C6 1135   2.820   0.900  14.097 -0.2874  0.1227 -0.4699
   73TMC2     C 1136   2.883   1.305  14.073 -0.0831  0.2865  0.5766
   73TMC2     O 1137   2.994   1.282  14.121 -0.3133  0.0520  0.6038
   73TMC2     H 1138   2.701   1.159  13.922  0.9199  1.7515  0.8308
   73TMC2    H1 1139   2.901   1.155  14.297 -0.0845 -1.9629  1.3059
   73TMC2    H2 1140   2.835   0.794  14.085  1.4659  0.1655  1.3499
   73TMC2    C7 1141   3.034   0.938  14.212 -0.3120 -0.8533 -0.7361
   73TMC2    C8 1142   2.669   0.892  13.916 -0.3286  0.3343 -0.3325
   73TMC2    O1 1143   3.062   0.828  14.254 -0.2962  0.3943  0.1202
   73TMC2    O2 1144   2.643   0.783  13.958  0.4204 -0.5469 -0.4646
   73TMC2    O5 1145   2.589   0.978  13.850  0.8783 -0.5600 -0.0206
   73TMC2    H5 1146   2.524   0.927  13.798  0.8684 -0.8033  0.2338
   74MPD2     C 1147   2.979   1.809  14.050  0.0657  0.0184  0.0774
   74MPD2    C1 1148   3.061   1.699  14.080  0.5953 -0.2214  0.5724
   74MPD2    C2 1149   3.015   1.573  14.071 -0.4666 -0.3170  0.8542
   74MPD2    C3 1150   2.876   1.545  14.029 -0.2754 -0.3572  0.5637
   74MPD2    C4 1151   2.794   1.659  14.001 -0.1902 -0.1625  0.6480
   74MPD2    C5 1152   2.849   1.783  14.008  0.8832  0.6783  0.0464
   74MPD2     H 1153   3.083   1.488  14.077 -2.0789 -1.6320  0.4878
   74MPD2    H1 1154   2.700   1.649  13.949  0.0139  0.1813  0.2099
   74MPD2    H2 1155   3.022   1.907  14.064  1.1587 -0.7114  1.8699
   74MPD2    H3 1156   2.791   1.871  13.981  1.8596  1.2136 -0.3214
   74MPD2     N 1157   2.816   1.413  14.029 -0.0185  0.3813  0.0418
   74MPD2    H5 1158   2.719   1.397  14.004 -0.2669  2.2847 -0.2656
   74MPD2    N1 1159   3.195   1.734  14.112 -0.4573 -0.3781 -0.6714
   74MPD2    H7 1160   3.223   1.829  14.091 -1.0853  0.3349  1.7231
   75TMC2    C1 1161   3.387   2.992  13.842  0.4838  0.4711 -0.4827
   75TMC2    C2 1162   3.379   3.125  13.874 -0.1887  0.4370 -0.1070
   75TMC2    C3 1163   3.328   3.208  13.781  0.1759  0.2484 -0.5811
   75TMC2    C4 1164   3.352   2.942  13.719  0.4998  0.1769 -0.1521
   75TMC2    C5 1165   3.294   3.034  13.632 -0.4093  0.7147 -0.6233
   75TMC2    C6 1166   3.282   3.171  13.658  0.1731 -0.1047  0.1999
   75TMC2     C 1167   3.460   2.910  13.938 -0.7914 -0.2625  0.0375
   75TMC2     O 1168   3.527   2.976  14.020  0.1792  0.3118 -0.1840
   75TMC2     H 1169   3.416   3.159  13.969 -1.2504 -1.4371  0.9761
   75TMC2    H1 1170   3.369   2.838  13.694 -0.7682 -0.7308  2.6945
   75TMC2    H2 1171   3.237   3.240  13.587  2.3306  2.5081  1.3615
   75TMC2    C7 1172   3.245   2.985  13.502 -0.3035  0.1926 -0.3086
   75TMC2    C8 1173   3.303   3.345  13.828  0.5505  0.3735  0.6604
   75TMC2    O1 1174   3.223   2.862  13.503 -0.1398  0.4904 -0.6665
   75TMC2    O2 1175   3.216   3.420  13.785 -0.3681 -0.0942  0.1416
   75TMC2    O5 1176   3.383   3.389  13.923 -0.0567 -0.2418 -0.4374
   75TMC2    H5 1177   3.455   3.325  13.940  0.0653 -0.5536 -2.1643
   76TMC2    C1 1178   2.158   2.284  11.848 -0.4042  0.1548  0.5004
   76TMC2    C2 1179   2.027   2.263  11.830 -0.0377  0.2180  0.4919
   76TMC2    C3 1180   1.976   2.146  11.876 -0.5159 -1.2128 -0.3015
   76TMC2    C4 1181   2.240   2.192  11.907  0.1751  0.0259  0.1323
   76TMC2    C5 1182   2.177   2.074  11.949 -1.0181 -1.5750 -0.3966
   76TMC2    C6 1183   2.046   2.049  11.938  0.0598 -0.3756 -0.5775
   76TMC2     C 1184   2.198   2.422  11.822  0.3698 -0.1705  0.7534
   76TMC2     O 1185   2.122   2.478  11.747  0.0694 -0.3609 -0.4741
   76TMC2     H 1186   1.961   2.336  11.785 -0.9799 -2.3773 -2.3443
   76TMC2    H1 1187   2.348   2.196  11.901  0.1006  0.8944 -0.5719
   76TMC2    H2 1188   2.013   1.949  11.964  0.0371  0.4219  2.4278
   76TMC2    C7 1189   2.247   1.983  12.044  0.2569  0.1626 -0.0849
   76TMC2    C8 1190   1.841   2.121  11.843  0.2213 -0.7495  0.2063
   76TMC2    O1 1191   2.187   1.886  12.089 -0.0158  0.1660 -0.1535
   76TMC2    O2 1192   1.784   2.178  11.750  0.2890  0.4579 -0.5479
   76TMC2    O5 1193   1.790   2.103  11.970 -0.1676  0.4036  0.0525
   76TMC2    H5 1194   1.837   2.042  12.031  0.8747  0.5259 -0.6129
   77MPD2     C 1195   2.417   2.857  11.978 -0.1639  0.1567 -0.5261
   77MPD2    C1 1196   2.321   2.842  11.880  0.7508  0.0163  0.4499
   77MPD2    C2 1197   2.288   2.713  11.847  0.2085  0.2445  0.3389
   77MPD2    C3 1198   2.340   2.602  11.920 -0.2111  0.2212  0.6150
   77MPD2    C4 1199   2.433   2.622  12.015 -0.0847 -0.0755  0.5065
   77MPD2    C5 1200   2.475   2.748  12.039 -0.3889  0.7304  0.4540
   77MPD2     H 1201   2.204   2.696  11.780  1.2172 -1.1352 -0.5881
   77MPD2    H1 1202   2.479   2.543  12.072  1.5473 -1.1260 -2.2464
   77MPD2    H2 1203   2.448   2.950  12.025 -1.3913  0.6666 -0.7337
   77MPD2    H3 1204   2.555   2.769  12.110 -0.2716 -0.8497  0.7769
   77MPD2     N 1205   2.300   2.467  11.903  0.1841  0.3164  0.2206
   77MPD2    H5 1206   2.336   2.397  11.966 -0.4313 -1.6173 -1.5987
   77MPD2    N1 1207   2.257   2.951  11.815  0.4554  1.2840 -0.0367
   77MPD2    H7 1208   2.185   2.938  11.745  0.9045 -0.8052 -0.1182
   78TMC2    C1 1209   1.120   2.800   1.272  0.2740  0.1314 -0.1559
   78TMC2    C2 1210   1.230   2.837   1.345 -0.1592 -0.5226  0.2836
   78TMC2    C3 1211   1.234   2.959   1.407 -0.3640  0.7738 -0.1195
   78TMC2    C4 1212   1.004   2.880   1.278 -0.1997  0.4060  0.1729
   78TMC2    C5 1213   1.009   2.997   1.357 -0.0471  0.2101 -0.0815
   78TMC2    C6 1214   1.122   3.039   1.425  0.7126  0.0727 -0.1819
   78TMC2     C 1215   1.109   2.676   1.195 -0.7304  0.0066  0.5664
   78TMC2     O 1216   1.206   2.603   1.215 -0.1420  0.3034 -0.5292
   78TMC2     H 1217   1.323   2.783   1.332  0.6083  1.1803 -1.4232
   78TMC2    H1 1218   0.909   2.843   1.241 -0.3867  0.8402  0.2200
   78TMC2    H2 1219   1.108   3.123   1.492  1.3426  0.7991 -0.9506
   78TMC2    C7 1220   0.908   3.102   1.337 -0.5526 -0.1671 -0.4398
   78TMC2    C8 1221   1.366   3.001   1.433 -0.5125 -0.0531 -0.7725
   78TMC2    O1 1222   0.935   3.218   1.366  0.5355  0.1747 -0.5367
   78TMC2    O2 1223   1.457   2.922   1.456  0.4279 -0.3437  0.2521
   78TMC2    O5 1224   1.363   3.126   1.471  0.1248 -0.2118  0.0096
   78TMC2    H5 1225   1.277   3.173   1.461  0.5987  0.4675 -0.8618
   79MPD1     C 1226   0.825   2.282   1.050 -0.4030  0.2489  0.4725
   79MPD1    C1 1227   0.952   2.282   1.102  0.1597 -0.1266  0.5281
   79MPD1    C2 1228   1.009   2.410   1.135  0.2927  0.0504  0.1226
   79MPD1    C3 1229   0.954   2.524   1.080  0.0584  0.5646  0.5527
   79MPD1    C4 1230   0.843   2.518   1.005  0.5639  0.4604 -0.0820
   79MPD1    C5 1231   0.779   2.399   0.994 -0.2743 -0.2905  0.0933
   79MPD1     H 1232   1.101   2.411   1.191  0.3173  1.4063  0.0728
   79MPD1    H1 1233   0.798   2.602   0.953 -0.9211 -0.1950  0.1618
   79MPD1    H2 1234   0.779   2.185   1.035 -3.3229  1.5284  1.1061
   79MPD1    H3 1235   0.687   2.402   0.937  1.3252 -0.6006 -2.5319
   79MPD1     N 1236   0.995   2.656   1.124 -0.3790 -0.1676  0.5260
   79MPD1    H5 1237   0.927   2.727   1.100  0.6766  0.8005  0.4266
   79MPD1    N1 1238   1.020   2.170   1.158  0.0329 -0.0726 -0.2071
   79MPD1    H6 1239   0.989   2.079   1.123  1.3904 -1.0452  1.1486
   79MPD1    H7 1240   1.120   2.176   1.144  0.1495 -0.9201  0.2779
   80TMC2    C1 1241   1.261   2.767  11.822  0.1476 -0.4033 -0.1492
   80TMC2    C2 1242   1.253   2.756  11.686  0.1686  0.5721  0.4850
   80TMC2    C3 1243   1.161   2.669  11.635  0.3521 -0.2134  0.3736
   80TMC2    C4 1244   1.175   2.696  11.906  0.2227 -0.0942 -0.5474
   80TMC2    C5 1245   1.074   2.623  11.850 -0.7612  0.4850 -0.6201
   80TMC2    C6 1246   1.068   2.611  11.715 -0.6211 -0.0108 -0.1226
   80TMC2     C 1247   1.395   2.806  11.871 -0.7475 -0.2527  0.3503
   80TMC2     O 1248   1.484   2.820  11.788  0.8643  0.7786  0.1515
   80TMC2     H 1249   1.334   2.788  11.621  0.0434  1.4589  0.7597
   80TMC2    H1 1250   1.169   2.729  12.009  1.4983 -1.8581  0.0797
   80TMC2    H2 1251   0.981   2.566  11.668  0.0807  0.4327 -1.8645
   80TMC2    C7 1252   0.948   2.590  11.920 -0.2356 -0.3884 -0.4137
   80TMC2    C8 1253   1.169   2.642  11.494 -0.0450 -0.1137  1.1410
   80TMC2    O1 1254   0.840   2.601  11.858 -0.2620 -0.2417 -0.3713
   80TMC2    O2 1255   1.239   2.714  11.424  0.1095  0.0396  0.2990
   80TMC2    O5 1256   1.170   2.508  11.478 -0.2492 -0.6485  0.5671
   80TMC2    H5 1257   1.119   2.454  11.541 -2.2247  0.0569 -0.4141
   81MPD2     C 1258   1.625   2.838  12.052  0.3719 -0.5490  0.2126
   81MPD2    C1 1259   1.492   2.846  12.094  0.0401  0.1602 -0.1311
   81MPD2    C2 1260   1.460   2.860  12.223  0.0171 -0.0754 -0.4887
   81MPD2    C3 1261   1.554   2.849  12.323 -0.5243  0.8895  0.2004
   81MPD2    C4 1262   1.689   2.828  12.279 -0.0343  0.0860  0.1196
   81MPD2    C5 1263   1.721   2.822  12.147 -0.2237  0.4921  0.7636
   81MPD2     H 1264   1.355   2.861  12.249 -0.0256 -0.3308 -0.6491
   81MPD2    H1 1265   1.770   2.811  12.349 -0.8302  0.2979  1.0996
   81MPD2    H2 1266   1.660   2.831  11.950 -2.4765 -0.3807 -0.7853
   81MPD2    H3 1267   1.822   2.800  12.117 -0.3409  0.8911  0.0704
   81MPD2     N 1268   1.499   2.863  12.457 -0.2481  0.9566  0.2864
   81MPD2    H5 1269   1.399   2.875  12.471 -0.6227  0.9881 -2.5518
   81MPD2    N1 1270   1.390   2.821  12.002 -0.2780  0.7653  0.7690
   81MPD2    H7 1271   1.296   2.820  12.040 -0.0776  2.8536  1.3666
   82TMC2    C1 1272   3.682   2.226  11.150  0.2768 -0.3240  0.1019
   82TMC2    C2 1273   3.797   2.263  11.085 -0.6712  0.0065 -0.0865
   82TMC2    C3 1274   3.911   2.220  11.144  0.1222 -0.1758  0.8520
   82TMC2    C4 1275   3.680   2.165  11.271 -0.5866  0.2201  0.6066
   82TMC2    C5 1276   3.796   2.129  11.321 -0.2411 -0.0117  1.3043
   82TMC2    C6 1277   3.914   2.151  11.262 -0.3866 -0.2255 -0.4595
   82TMC2     C 1278   3.570   2.222  11.063  0.1221  0.3160  0.4335
   82TMC2     O 1279   3.575   2.290  10.962  0.5285 -0.4329  0.2437
   82TMC2     H 1280   3.801   2.333  11.003 -0.5734  0.2557  0.1326
   82TMC2    H1 1281   3.589   2.157  11.329 -1.5672  0.2944 -0.9189
   82TMC2    H2 1282   4.002   2.092  11.288 -0.8586 -0.7496 -0.0676
   82TMC2    C7 1283   3.798   2.072  11.454  0.5302 -0.2426  0.3425
   82TMC2    C8 1284   4.038   2.252  11.081 -0.2339 -0.7931 -0.4633
   82TMC2    O1 1285   3.694   2.024  11.491 -0.0665 -0.0561  0.1632
   82TMC2    O2 1286   4.139   2.223  11.145 -0.0245 -0.2103 -0.4589
   82TMC2    O5 1287   4.022   2.207  10.957  1.2295 -0.3489  0.0481
   82TMC2    H5 1288   3.929   2.173  10.957  1.7727 -1.8231 -0.7814
   83MPD2     C 1289   3.072   2.110  10.992  0.7083  0.5241  0.0520
   83MPD2    C1 1290   3.161   2.170  10.905  0.0828  0.4224 -0.5738
   83MPD2    C2 1291   3.294   2.194  10.955  0.5509  0.8065 -0.0338
   83MPD2    C3 1292   3.348   2.126  11.063 -0.7970  0.5107 -0.0236
   83MPD2    C4 1293   3.256   2.062  11.145 -0.0579 -0.1604  0.5634
   83MPD2    C5 1294   3.121   2.065  11.113 -0.9101  0.1217  0.6319
   83MPD2     H 1295   3.358   2.263  10.901  0.9476  0.6805  0.2771
   83MPD2    H1 1296   3.284   2.020  11.241  2.3101 -0.2111 -0.1419
   83MPD2    H2 1297   2.972   2.076  10.969  1.7120 -1.0594 -2.0215
   83MPD2    H3 1298   3.048   2.024  11.181 -1.0061 -1.8348 -0.6559
   83MPD2     N 1299   3.474   2.143  11.115 -0.7674  0.6270 -0.6816
   83MPD2    H5 1300   3.497   2.100  11.204  0.4166  0.8771 -0.8688
   83MPD2    N1 1301   3.111   2.218  10.773  0.1035 -0.3019 -0.0794
   83MPD2    H7 1302   3.014   2.204  10.745 -0.2879 -0.0753  1.1603
   84TMC2    C1 1303   0.468   0.609  12.112  1.0928 -0.5408 -0.4546
   84TMC2    C2 1304   0.462   0.496  12.186  0.3086  0.4203 -0.2421
   84TMC2    C3 1305   0.404   0.390  12.119  0.8762 -0.5293 -0.6643
   84TMC2    C4 1306   0.435   0.621  11.978 -0.2468  0.0059  0.0601
   84TMC2    C5 1307   0.392   0.503  11.916 -0.3785 -0.5272  0.1137
   84TMC2    C6 1308   0.364   0.389  11.990 -0.1912 -0.5210 -0.3924
   84TMC2     C 1309   0.534   0.723  12.172  0.1016 -0.1151 -0.2189
   84TMC2     O 1310   0.547   0.826  12.103 -0.1676 -0.5863  0.5675
   84TMC2     H 1311   0.520   0.485  12.277 -1.7127  1.7517  1.1920
   84TMC2    H1 1312   0.465   0.708  11.920 -0.4133 -0.5373 -0.8332
   84TMC2    H2 1313   0.343   0.294  11.942 -4.7705  0.3633 -0.1018
   84TMC2    C7 1314   0.331   0.508  11.782 -0.1263  0.4763  0.1469
   84TMC2    C8 1315   0.416   0.260  12.172  0.5796  0.2522  0.6059
   84TMC2    O1 1316   0.322   0.403  11.717 -0.5269 -0.0324  0.0442
   84TMC2    O2 1317   0.508   0.224  12.242  0.7155 -0.4359 -0.4952
   84TMC2    O5 1318   0.293   0.201  12.163  0.0386  0.1199 -0.5192
   84TMC2    H5 1319   0.220   0.260  12.137 -1.9163 -0.4023  3.7661
   85TMC2    C1 1320   1.803   4.612  16.201 -0.2716 -0.2755  0.5638
   85TMC2    C2 1321   1.753   4.689  16.301 -0.1674  0.2821  0.3124
   85TMC2    C3 1322   1.727   0.077  16.275  0.5054 -0.3416 -0.2782
   85TMC2    C4 1323   1.834   4.654  16.077 -0.3718 -0.0038  0.4679
   85TMC2    C5 1324   1.799   0.040  16.047 -0.2878 -0.1028 -0.4534
   85TMC2    C6 1325   1.755   0.125  16.151 -1.2174 -1.4242  0.3006
   85TMC2     C 1326   1.809   4.471  16.233 -0.3123 -0.1262 -0.3618
   85TMC2     O 1327   1.917   4.412  16.241  0.9019 -0.8102 -0.1739
   85TMC2     H 1328   1.713   4.636  16.386 -0.1379 -0.5459 -0.1926
   85TMC2    H1 1329   1.858   4.581  16.000  0.3933  0.1240  0.5944
   85TMC2    H2 1330   1.730   0.228  16.131  0.5539 -1.1223 -0.3840
   85TMC2    C7 1331   1.809   0.090  15.915 -0.3505  0.1647 -0.5886
   85TMC2    C8 1332   1.655   0.175  16.354 -0.3140  0.5312 -0.4892
   85TMC2    O1 1333   1.904   0.052  15.853 -0.1071  0.2163 -0.3233
   85TMC2    O2 1334   1.583   0.268  16.318 -0.3808  0.8543 -0.3582
   85TMC2    O5 1335   1.656   0.123  16.476  0.6483  0.0546 -0.3848
   85TMC2    H5 1336   1.710   0.041  16.478 -1.1145 -1.1129 -0.9169
   86MPD2     C 1337   1.590   4.020  16.351 -0.1188 -0.8197 -0.0987
   86MPD2    C1 1338   1.507   4.093  16.266 -0.5203  0.2483 -0.0282
   86MPD2    C2 1339   1.539   4.219  16.218  0.2643  0.4756  0.2699
   86MPD2    C3 1340   1.657   4.280  16.267 -0.3044  0.1490 -0.3830
   86MPD2    C4 1341   1.741   4.203  16.349 -0.2518 -0.9366  0.6019
   86MPD2    C5 1342   1.712   4.072  16.387  0.8915 -0.1768  0.0162
   86MPD2     H 1343   1.477   4.282  16.156 -2.1601 -0.9764  1.1857
   86MPD2    H1 1344   1.831   4.245  16.393  0.4306 -2.3862  0.6051
   86MPD2    H2 1345   1.570   3.915  16.372 -0.1392 -1.2320 -2.1579
   86MPD2    H3 1346   1.770   4.017  16.460 -0.3654 -1.2466  0.2083
   86MPD2     N 1347   1.690   4.413  16.220 -0.3134  0.1398  0.2661
   86MPD2    H5 1348   1.615   4.471  16.184 -0.6291 -0.7429 -0.4977
   86MPD2    N1 1349   1.384   4.035  16.233 -0.6845 -0.0187 -0.0007
   86MPD2    H7 1350   1.332   4.065  16.151 -2.1577 -0.8241  0.6309
   87TMC2    C1 1351   4.115   2.912   0.805  0.0912  0.1401  0.6027
   87TMC2    C2 1352   4.161   2.802   0.869 -0.7697  0.5527 -0.6198
   87TMC2    C3 1353   4.211   2.819   0.995  0.1845 -0.3850 -0.6910
   87TMC2    C4 1354   4.091   3.029   0.873 -0.5688 -0.1871 -0.0231
   87TMC2    C5 1355   4.140   3.038   0.997 -0.5033 -0.3248 -0.1758
   87TMC2    C6 1356   4.199   2.936   1.064 -0.1072 -0.2281 -0.3163
   87TMC2     C 1357   4.034   2.882   0.688 -0.2323  1.1525  0.1823
   87TMC2     O 1358   3.988   2.769   0.685 -0.0441 -0.2724  0.0486
   87TMC2     H 1359   4.178   2.708   0.817 -1.2120 -0.1684  0.5500
   87TMC2    H1 1360   4.049   3.118   0.829  1.0139  0.3986 -0.3487
   87TMC2    H2 1361   4.249   2.938   1.161  0.2946 -1.6617 -0.4831
   87TMC2    C7 1362   4.078   3.137   1.075 -0.2668  0.3421  0.9077
   87TMC2    C8 1363   4.273   2.711   1.067  0.2031  0.4848 -0.6733
   87TMC2    O1 1364   4.037   3.237   1.013  0.4235 -0.0163 -0.2633
   87TMC2    O2 1365   4.347   2.720   1.163 -0.1967  0.1202  0.5997
   87TMC2    O5 1366   4.205   2.598   1.026 -0.0075  1.2247 -0.0625
   87TMC2    H5 1367   4.120   2.615   0.979 -0.2736  1.5808  0.5434
   88MPD2     C 1368   3.951   3.154   1.423  0.1006  0.3163 -0.7514
   88MPD2    C1 1369   3.961   3.181   1.287  0.3079 -0.5905  0.8930
   88MPD2    C2 1370   3.864   3.264   1.228  0.0661 -0.4897 -0.8432
   88MPD2    C3 1371   3.771   3.322   1.306  0.0747  0.3679 -0.8850
   88MPD2    C4 1372   3.767   3.297   1.439 -0.2824 -0.3917 -0.7726
   88MPD2    C5 1373   3.855   3.216   1.499 -0.4481  0.3651 -0.6270
   88MPD2     H 1374   3.860   3.274   1.120 -0.3147  1.4089 -0.6612
   88MPD2    H1 1375   3.699   3.352   1.503 -2.9495 -1.4895 -2.6511
   88MPD2    H2 1376   4.019   3.086   1.475 -0.0098 -0.1952 -1.2780
   88MPD2    H3 1377   3.845   3.204   1.606  1.2922 -2.4982 -0.7949
   88MPD2     N 1378   3.671   3.407   1.254  0.0157  0.0653  0.0587
   88MPD2    H5 1379   3.613   3.441   1.330 -1.2585 -1.9763  0.0182
   88MPD2    N1 1380   4.051   3.102   1.205  0.1356 -0.7503 -0.0687
   88MPD2    H7 1381   4.103   3.025   1.245 -0.7425 -1.7261 -0.7957
   89TMC2    C1 1382   0.471   0.821   1.331 -0.2870  0.0221 -0.6801
   89TMC2    C2 1383   0.573   0.728   1.330  0.6002 -0.1986  0.1766
   89TMC2    C3 1384   0.608   0.665   1.213  0.2692  0.3025  0.0252
   89TMC2    C4 1385   0.394   0.840   1.219 -0.0569 -0.0104  0.0797
   89TMC2    C5 1386   0.437   0.769   1.109  0.9141  0.5641  0.3597
   89TMC2    C6 1387   0.537   0.678   1.096 -0.3533  0.1760 -0.8393
   89TMC2     C 1388   0.453   0.897   1.450  0.2967  0.2172 -0.5592
   89TMC2     O 1389   0.536   0.891   1.538 -0.0312  0.4805 -0.3224
   89TMC2     H 1390   0.631   0.720   1.421 -1.4152 -0.5296  1.4353
   89TMC2    H1 1391   0.326   0.925   1.221 -0.2160 -0.1242 -0.8504
   89TMC2    H2 1392   0.575   0.641   1.001  1.4761  0.9278 -0.4023
   89TMC2    C7 1393   0.357   0.788   0.983 -0.3246 -0.6754  0.3305
   89TMC2    C8 1394   0.706   0.565   1.224  0.2181 -0.0472  0.3829
   89TMC2    O1 1395   0.365   0.698   0.905 -0.1814 -0.3086  0.2639
   89TMC2    O2 1396   0.703   0.463   1.294  0.6368 -0.2352 -0.0608
   89TMC2    O5 1397   0.770   0.581   1.106 -0.1212  0.1631 -0.2188
   89TMC2    H5 1398   0.762   0.672   1.071 -0.8059  0.0689 -0.3170
   90MPD2     C 1399   0.192   1.187   1.788 -0.8322  0.3788  0.8058
   90MPD2    C1 1400   0.097   1.132   1.701  0.3781  0.0148 -0.2314
   90MPD2    C2 1401   0.148   1.043   1.600 -0.4284  0.2359 -0.2574
   90MPD2    C3 1402   0.285   1.018   1.581 -0.7805 -0.4975  0.3190
   90MPD2    C4 1403   0.365   1.068   1.679 -0.0720 -0.0241 -0.3722
   90MPD2    C5 1404   0.324   1.154   1.772 -0.0113  0.4276 -0.3143
   90MPD2     H 1405   0.083   1.008   1.521  0.7071 -1.7171 -0.3316
   90MPD2    H1 1406   0.472   1.052   1.680 -0.4147 -2.2367 -0.7835
   90MPD2    H2 1407   0.179   1.239   1.883  0.7519  3.3956 -0.6331
   90MPD2    H3 1408   0.386   1.201   1.848  0.4936 -0.1542 -0.3672
   90MPD2     N 1409   0.332   0.949   1.465 -0.4387  0.0772 -0.0259
   90MPD2    H5 1410   0.264   0.909   1.401 -0.4679  1.0724 -0.6264
   90MPD2    N1 1411   4.701   1.133   1.726  0.7502 -0.2365 -0.7366
   90MPD2    H7 1412   4.642   1.075   1.667  0.8542 -1.7356  0.6293
   91TMC2    C1 1413   1.067   0.670  16.303  0.3080  0.6191  0.3477
   91TMC2    C2 1414   1.117   0.764  16.386 -0.5358 -0.4592  0.2788
   91TMC2    C3 1415   1.029   0.819  16.483  0.4933 -0.6708  0.2870
   91TMC2    C4 1416   0.938   0.630  16.304  0.6695  0.2659 -0.3146
   91TMC2    C5 1417   0.854   0.678  16.398 -0.4119 -0.2718 -1.0418
   91TMC2    C6 1418   0.894   0.775  16.490 -0.4914 -0.4173 -1.0550
   91TMC2     C 1419   1.153   0.629  16.191 -0.2181 -0.7297  0.2177
   91TMC2     O 1420   1.101   0.596  16.081  0.6128 -0.4644 -0.3337
   91TMC2     H 1421   1.220   0.798  16.384 -0.3632 -1.0774 -1.2103
   91TMC2    H1 1422   0.915   0.540  16.248  1.0392  0.6128 -1.0153
   91TMC2    H2 1423   0.818   0.798  16.564  0.7389 -0.2347  0.1608
   91TMC2    C7 1424   0.747   0.588  16.429 -0.0309 -0.2065 -0.3527
   91TMC2    C8 1425   1.059   0.952  16.526  0.1518 -0.5177 -0.5251
   91TMC2    O1 1426   0.717   0.590  16.548 -0.0678 -0.7065  0.1419
   91TMC2    O2 1427   1.140   1.021  16.462  0.5521 -0.2469 -0.6205
   91TMC2    O5 1428   0.957   1.002  16.607 -0.0950 -0.1366 -0.0954
   91TMC2    H5 1429   0.897   0.942  16.657  2.4159 -2.2258  0.4285
   92MPD2     C 1430   1.399   0.610  16.007  0.1530  0.1146 -0.3053
   92MPD2    C1 1431   1.398   0.624  16.141 -0.8488  1.0820 -0.4482
   92MPD2    C2 1432   1.513   0.627  16.211 -0.3951 -0.0682  0.3844
   92MPD2    C3 1433   1.639   0.610  16.153  0.3230 -0.0794 -0.0290
   92MPD2    C4 1434   1.645   0.596  16.017 -0.3424 -0.1823  0.0641
   92MPD2    C5 1435   1.520   0.610  15.945  0.0580  0.0704 -0.2637
   92MPD2     H 1436   1.510   0.633  16.319 -1.6538 -2.7162  0.4824
   92MPD2    H1 1437   1.731   0.587  15.952  1.2718 -0.1411  2.1916
   92MPD2    H2 1438   1.306   0.621  15.952 -0.1136 -0.6116  0.0072
   92MPD2    H3 1439   1.524   0.608  15.837 -0.9380  2.5339 -0.3540
   92MPD2     N 1440   1.749   0.604  16.236 -0.2155  0.7300  0.0919
   92MPD2    H5 1441   1.742   0.630  16.334  0.5371  0.3381  0.2540
   92MPD2    N1 1442   1.285   0.629  16.226 -0.3319 -0.4063 -0.5973
   92MPD2    H7 1443   1.310   0.628  16.324 -0.8493 -2.9763 -0.4863
   93TMC2    C1 1444   3.262   0.558  14.214  0.2546 -0.6510 -0.5440
   93TMC2    C2 1445   3.230   0.566  14.347  0.2775  0.1224  0.3613
   93TMC2    C3 1446   3.332   0.602  14.429 -0.5921 -0.0602 -0.1768
   93TMC2    C4 1447   3.385   0.591  14.166  0.4270 -0.4200  0.0881
   93TMC2    C5 1448   3.484   0.633  14.249 -0.8675  0.5384 -0.2745
   93TMC2    C6 1449   3.452   0.645  14.381 -0.2008  0.3104 -0.4038
   93TMC2     C 1450   3.155   0.544  14.124 -0.6085  1.2399 -0.1110
   93TMC2     O 1451   3.157   0.617  14.026  0.7608  0.5923 -0.3729
   93TMC2     H 1452   3.129   0.554  14.385  0.4475 -0.7466  0.5216
   93TMC2    H1 1453   3.401   0.571  14.061  0.2517 -0.1474  0.0078
   93TMC2    H2 1454   3.531   0.671  14.451 -0.3219  0.0451 -0.1679
   93TMC2    C7 1455   3.614   0.671  14.207 -0.1874 -0.7898  0.6145
   93TMC2    C8 1456   3.326   0.566  14.567 -0.2899 -0.6384  0.2664
   93TMC2    O1 1457   3.694   0.679  14.298  0.6096 -0.2338 -0.2891
   93TMC2    O2 1458   3.427   0.521  14.623 -0.1463  0.1732 -0.0027
   93TMC2    O5 1459   3.201   0.587  14.627  0.7038 -0.4657  0.8333
   93TMC2    H5 1460   3.153   0.652  14.572  1.1113 -1.0108 -0.1751
   94MPD2     C 1461   2.899   0.498  14.010 -0.7037 -0.0949 -0.7199
   94MPD2    C1 1462   2.946   0.421  14.117  0.4487  0.3926  0.0003
   94MPD2    C2 1463   2.877   0.315  14.169 -0.1855 -0.2399 -0.2465
   94MPD2    C3 1464   2.763   0.275  14.106 -0.0243  0.6021 -0.2060
   94MPD2    C4 1465   2.722   0.341  13.988 -0.0897 -0.7578  0.2372
   94MPD2    C5 1466   2.779   0.461  13.954  0.1909  0.6813  0.1411
   94MPD2     H 1467   2.910   0.266  14.260  0.2706  3.4184  1.5441
   94MPD2    H1 1468   2.632   0.317  13.932  0.8667  0.4479 -1.7931
   94MPD2    H2 1469   2.942   0.592  13.978  1.1341 -0.2807  1.1901
   94MPD2    H3 1470   2.741   0.531  13.881  0.4731  0.3691 -0.3069
   94MPD2     N 1471   2.680   0.165  14.148  0.2623 -0.0207 -0.3358
   94MPD2    H5 1472   2.594   0.148  14.098 -0.3634  3.5213 -0.4336
   94MPD2    N1 1473   3.067   0.455  14.173  0.2192  0.2816  0.4468
   94MPD2    H7 1474   3.103   0.404  14.254  0.7914 -2.4639 -1.5166
   95TMC2    C1 1475   3.046   2.431  16.722  0.3814  0.3233 -0.3846
   95TMC2    C2 1476   2.983   2.347  16.810 -0.2269 -0.3947  0.3726
   95TMC2    C3 1477   2.970   2.383  16.943  0.0954 -0.2751 -0.6672
   95TMC2    C4 1478   3.087   2.551  16.764 -0.5640 -0.1697 -0.1896
   95TMC2    C5 1479   3.062   2.587  16.892 -0.8043 -0.0614 -0.0948
   95TMC2    C6 1480   2.996   2.508  16.984 -0.3481 -0.5782 -0.1056
   95TMC2     C 1481   3.063   2.388  16.583  0.1188 -0.1946 -0.4318
   95TMC2     O 1482   3.115   2.469  16.506  0.3953 -0.0687 -0.6561
   95TMC2     H 1483   2.970   2.242  16.785 -4.1418 -0.5158  2.8680
   95TMC2    H1 1484   3.154   2.608  16.701  0.8489 -1.1042  0.4460
   95TMC2    H2 1485   2.990   2.544  17.086 -0.2442  1.2803 -0.7586
   95TMC2    C7 1486   3.086   2.726  16.931 -0.2618  0.0836  0.1848
   95TMC2    C8 1487   2.872   2.318  17.032 -0.1471  0.0936 -0.4357
   95TMC2    O1 1488   3.089   2.746  17.051 -0.9092 -0.4681 -0.5088
   95TMC2    O2 1489   2.826   2.380  17.127  0.5809 -0.7365  0.0620
   95TMC2    O5 1490   2.820   2.205  16.978 -0.4832  0.1104 -0.1414
   95TMC2    H5 1491   2.872   2.171  16.902 -1.0775 -1.5520  0.1932
   96MPD2     C 1492   2.967   2.095  16.181 -0.2038 -0.1268 -0.0892
   96MPD2    C1 1493   3.062   2.193  16.198 -0.8050  0.3376 -0.0837
   96MPD2    C2 1494   3.073   2.252  16.321  0.8864 -0.4729  0.8077
   96MPD2    C3 1495   2.993   2.213  16.430 -0.3226  0.3361  0.4771
   96MPD2    C4 1496   2.901   2.107  16.407 -0.2136  0.7228  0.5285
   96MPD2    C5 1497   2.889   2.051  16.281  0.6643 -0.1146  0.3370
   96MPD2     H 1498   3.139   2.336  16.337 -1.3408  1.2207  1.2014
   96MPD2    H1 1499   2.830   2.076  16.482 -0.7894  0.5084 -0.1116
   96MPD2    H2 1500   2.945   2.056  16.083  1.4211  1.4054 -1.0497
   96MPD2    H3 1501   2.816   1.972  16.265 -0.5060  0.3940  3.0997
   96MPD2     N 1502   2.994   2.273  16.556 -0.1151 -0.0134  0.5258
   96MPD2    H5 1503   2.930   2.238  16.627  2.0787 -3.8005  0.6709
   96MPD2    N1 1504   3.153   2.212  16.086 -0.2688 -0.3328  0.3945
   96MPD2    H7 1505   3.134   2.176  15.993  0.9560 -0.8503  0.3527
   97TMC2    C1 1506   0.467   0.482   0.532 -0.0123 -0.2367 -0.3466
   97TMC2    C2 1507   0.361   0.535   0.457 -0.0366 -0.0482  0.4204
   97TMC2    C3 1508   0.338   0.667   0.468  0.3221  0.3001 -0.9926
   97TMC2    C4 1509   0.524   0.563   0.629 -0.4891 -0.4579  0.4477
   97TMC2    C5 1510   0.484   0.693   0.642 -0.0588  0.1540 -0.2443
   97TMC2    C6 1511   0.383   0.746   0.565 -0.2925  0.0214 -0.1081
   97TMC2     C 1512   0.489   0.341   0.517 -0.4573 -0.3634  0.4727
   97TMC2     O 1513   0.400   0.275   0.467  0.6863  0.6301  0.1884
   97TMC2     H 1514   0.309   0.469   0.388  0.3849  1.7127 -1.5841
   97TMC2    H1 1515   0.606   0.535   0.695 -0.5796 -0.6443  0.4797
   97TMC2    H2 1516   0.372   0.853   0.568 -0.6939 -0.0177 -0.1725
   97TMC2    C7 1517   0.583   0.781   0.695 -0.2164 -0.3693  0.7392
   97TMC2    C8 1518   0.265   0.730   0.365  0.2627 -0.1538  0.1061
   97TMC2    O1 1519   0.697   0.731   0.716  0.1319  0.0919 -0.4466
   97TMC2    O2 1520   0.208   0.839   0.381 -0.1597 -0.3455 -0.3069
   97TMC2    O5 1521   0.289   0.662   0.255 -0.4378 -0.0754 -0.3699
   97TMC2    H5 1522   0.355   0.590   0.265 -1.5881 -1.0182  0.4394
   98MPD2     C 1523   0.794   4.704   0.660 -0.2684  0.3199 -0.4117
   98MPD2    C1 1524   0.676   4.695   0.589 -0.4685  0.7897 -0.5851
   98MPD2    C2 1525   0.612   0.075   0.562  0.2484 -0.2412  0.0392
   98MPD2    C3 1526   0.667   0.196   0.590  0.4772 -0.2948  0.4957
   98MPD2    C4 1527   0.785   0.199   0.658 -0.2511  0.6162 -0.2586
   98MPD2    C5 1528   0.850   0.084   0.693  0.0286 -0.8117  0.1854
   98MPD2     H 1529   0.521   0.076   0.502  1.0674 -4.4315 -1.2839
   98MPD2    H1 1530   0.820   0.299   0.682 -0.2438  0.0387  2.1767
   98MPD2    H2 1531   0.854   4.617   0.682  0.4924  1.3747  1.7025
   98MPD2    H3 1532   0.939   0.091   0.755  1.0947 -2.7136 -1.1609
   98MPD2     N 1533   0.607   0.323   0.571 -0.1784  0.3123 -0.2436
   98MPD2    H5 1534   0.662   0.403   0.600 -0.0465 -0.2036  0.9358
   98MPD2    N1 1535   0.639   4.563   0.543  0.1992  0.8917 -0.2161
   98MPD2    H7 1536   0.711   4.495   0.564 -0.6900  0.2606  0.7293
   99TMC2    C1 1537   0.391   2.046   1.422 -0.0039  0.5178 -0.2694
   99TMC2    C2 1538   0.500   2.048   1.499 -0.1995 -0.1557  0.1961
   99TMC2    C3 1539   0.493   2.063   1.634  0.2325 -0.4263  0.0609
   99TMC2    C4 1540   0.270   2.084   1.471 -0.1533 -0.7587  0.2695
   99TMC2    C5 1541   0.262   2.110   1.604 -0.2784 -0.2612 -0.2986
   99TMC2    C6 1542   0.368   2.098   1.689 -0.1389  0.8139 -0.2084
   99TMC2     C 1543   0.408   2.092   1.283 -0.7559 -0.0766 -0.4867
   99TMC2     O 1544   0.498   2.174   1.258 -0.2584 -0.5727  0.4392
   99TMC2     H 1545   0.596   2.039   1.449 -1.3760  1.4559 -2.3880
   99TMC2    H1 1546   0.195   2.129   1.407 -0.1840  0.6070  1.2731
   99TMC2    H2 1547   0.364   2.140   1.789 -0.7854 -2.1511  0.9864
   99TMC2    C7 1548   0.137   2.164   1.648  0.0387 -0.1486  0.5421
   99TMC2    C8 1549   0.616   2.079   1.703  0.2170 -0.1072 -0.3136
   99TMC2    O1 1550   0.131   2.222   1.754 -0.2127 -0.3219  0.3199
   99TMC2    O2 1551   0.725   2.105   1.648 -0.0347 -0.5132  0.0493
   99TMC2    O5 1552   0.589   2.086   1.835  0.1491  0.6392  0.4150
   99TMC2    H5 1553   0.497   2.066   1.862  0.3335  1.2881  1.5151
  100MPD2     C 1554   0.375   2.138   0.996 -0.1179 -0.1436 -0.2319
  100MPD2    C1 1555   0.282   2.076   1.071  0.0238 -0.6577 -0.6865
  100MPD2    C2 1556   0.161   2.046   1.015  0.9198 -0.0975  0.4248
  100MPD2    C3 1557   0.137   2.082   0.889  0.5651  0.2677  0.5658
  100MPD2    C4 1558   0.231   2.149   0.817  0.0299 -0.4635 -0.3160
  100MPD2    C5 1559   0.355   2.170   0.867 -1.3684 -0.3164  0.2388
  100MPD2     H 1560   0.089   2.008   1.085 -1.4945 -2.2659 -3.2399
  100MPD2    H1 1561   0.211   2.171   0.713  1.8443  2.5647 -0.0102
  100MPD2    H2 1562   0.474   2.158   1.034 -0.3591 -0.4979  0.5816
  100MPD2    H3 1563   0.429   2.224   0.809  2.7145 -1.9662  3.9307
  100MPD2     N 1564   0.008   2.061   0.839 -0.1152 -0.6464 -0.1535
  100MPD2    H5 1565   4.688   1.995   0.884  0.7963 -1.7982 -0.5788
  100MPD2    N1 1566   0.305   2.051   1.206 -0.3442  0.3615  0.2886
  100MPD2    H7 1567   0.240   1.987   1.253 -0.4604 -1.0953 -1.8595
  101TMC2    C1 1568   0.263   2.755  13.432 -0.7323 -0.3348 -1.4025
  101TMC2    C2 1569   0.270   2.784  13.564 -0.1485  0.0969 -0.4321
  101TMC2    C3 1570   0.370   2.865  13.603  0.2327  0.0228  0.4114
  101TMC2    C4 1571   0.341   2.816  13.337 -0.1078 -0.7467  0.3617
  101TMC2    C5 1572   0.443   2.894  13.384 -0.6264 -0.7407  0.7732
  101TMC2    C6 1573   0.461   2.921  13.516  0.4118  1.0933  0.1801
  101TMC2     C 1574   0.184   2.631  13.406 -0.0856  0.4111  0.4821
  101TMC2     O 1575   0.090   2.605  13.478  0.1316  0.0786 -0.3592
  101TMC2     H 1576   0.204   2.725  13.626 -0.5968 -0.3532 -1.3266
  101TMC2    H1 1577   0.331   2.791  13.232  0.3398 -0.8726  0.3500
  101TMC2    H2 1578   0.525   3.006  13.540  2.2999 -0.8235  1.9409
  101TMC2    C7 1579   0.540   2.936  13.287  0.2944 -0.1369  0.1917
  101TMC2    C8 1580   0.330   2.961  13.700  0.3947 -0.0341  0.1094
  101TMC2    O1 1581   0.511   2.932  13.167 -0.4234 -0.0702 -0.4265
  101TMC2    O2 1582   0.350   3.082  13.702  0.2336  0.5420  0.5676
  101TMC2    O5 1583   0.243   2.888  13.774 -0.1662 -0.2034  0.1034
  101TMC2    H5 1584   0.275   2.796  13.785  0.5986 -0.1837 -1.8661
  102MPD2     C 1585   0.235   2.390  13.139 -0.5942  0.5114 -0.7353
  102MPD2    C1 1586   0.172   2.444  13.249 -0.0012  0.7877  0.2881
  102MPD2    C2 1587   0.059   2.386  13.292 -0.4117 -0.3957  0.1322
  102MPD2    C3 1588   0.028   2.257  13.253 -0.2561  0.0783 -0.5706
  102MPD2    C4 1589   0.087   2.198  13.145  0.5612 -0.4960 -0.1464
  102MPD2    C5 1590   0.197   2.264  13.084  0.0040  0.5593  1.1637
  102MPD2     H 1591   0.001   2.441  13.365 -1.7451 -1.2084 -0.3002
  102MPD2    H1 1592   0.070   2.094  13.119  0.1771 -0.1640 -1.2054
  102MPD2    H2 1593   0.319   2.438  13.090 -0.7337 -0.4670 -1.9329
  102MPD2    H3 1594   0.250   2.218  13.001 -0.7520  1.0868  0.3909
  102MPD2     N 1595   4.671   2.197  13.332  0.2012  0.3831 -0.5328
  102MPD2    H5 1596   4.646   2.237  13.422  0.8454 -0.1717 -0.0966
  102MPD2    N1 1597   0.231   2.561  13.294  0.0358  0.5305 -0.5025
  102MPD2    H7 1598   0.317   2.592  13.250  0.7680 -1.1316 -0.2471
  103TMC2    C1 1599   2.912   2.290  12.309  0.3112  0.6293 -0.0484
  103TMC2    C2 1600   2.998   2.261  12.205  0.0856 -1.0096 -0.0903
  103TMC2    C3 1601   3.092   2.358  12.178  0.1784  0.1130  0.3823
  103TMC2    C4 1602   2.908   2.408  12.371  0.5004 -0.4197 -0.1158
  103TMC2    C5 1603   3.003   2.504  12.335  0.2962  0.4984 -0.4304
  103TMC2    C6 1604   3.098   2.481  12.236  0.1630 -0.6418 -0.2989
  103TMC2     C 1605   2.783   2.221  12.304 -0.1731  0.3989  0.5272
  103TMC2     O 1606   2.684   2.281  12.349 -0.2784 -0.1767 -0.5417
  103TMC2     H 1607   3.004   2.164  12.156  2.7323 -0.0460 -1.6824
  103TMC2    H1 1608   2.833   2.437  12.444  2.2824 -0.4064  1.6968
  103TMC2    H2 1609   3.161   2.566  12.211 -1.6089  0.7906  0.0970
  103TMC2    C7 1610   3.010   2.629  12.405 -0.1796  0.3175 -0.2832
  103TMC2    C8 1611   3.150   2.339  12.044  0.5314 -0.0505  0.3321
  103TMC2    O1 1612   2.918   2.669  12.473  0.3982  0.3601 -0.1521
  103TMC2    O2 1613   3.131   2.235  11.978  0.2775  0.1786  0.1421
  103TMC2    O5 1614   3.238   2.435  12.014 -0.0582 -0.1343 -0.1757
  103TMC2    H5 1615   3.239   2.508  12.080 -0.1774 -0.3186  0.0322
  104MPD2     C 1616   2.703   1.869  12.243 -0.1866 -0.2242 -1.2673
  104MPD2    C1 1617   2.690   2.006  12.234  0.3578 -0.1251 -0.0393
  104MPD2    C2 1618   2.567   2.055  12.189  0.0551  0.2529  0.2585
  104MPD2    C3 1619   2.466   1.970  12.145  0.5334  0.0005 -1.1390
  104MPD2    C4 1620   2.476   1.834  12.149 -0.5624  0.4733  1.1491
  104MPD2    C5 1621   2.596   1.789  12.204 -0.2133 -0.0990 -0.0922
  104MPD2     H 1622   2.550   2.161  12.182  1.1287  0.4498  0.6112
  104MPD2    H1 1623   2.397   1.765  12.124  1.4278 -0.6155 -2.0553
  104MPD2    H2 1624   2.791   1.819  12.282  0.1139  1.0548 -0.3175
  104MPD2    H3 1625   2.618   1.683  12.210 -0.2070 -0.1441 -0.9085
  104MPD2     N 1626   2.366   2.038  12.078 -0.1718 -0.5638  0.2786
  104MPD2    H5 1627   2.386   2.134  12.053  0.0438 -0.4380  0.9567
  104MPD2    N1 1628   2.796   2.086  12.279  0.2435 -0.1314  0.2146
  104MPD2    H7 1629   2.891   2.053  12.277 -0.1760 -1.1647 -2.4710
  105TMC2    C1 1630   3.634   2.438   0.087 -0.1126 -0.7345  0.4674
  105TMC2    C2 1631   3.563   2.402   0.195  0.2957 -0.0869  0.5030
  105TMC2    C3 1632   3.524   2.511   0.273 -0.9504 -0.0248  0.1624
  105TMC2    C4 1633   3.658   2.567   0.048  0.3561  0.2720  0.5738
  105TMC2    C5 1634   3.621   2.671   0.137  0.3378 -0.2868 -0.1080
  105TMC2    C6 1635   3.555   2.639   0.249 -0.4938  0.6296  0.2243
  105TMC2     C 1636   3.728   2.330   0.031  0.1169  0.1747  0.4333
  105TMC2     O 1637   3.727   2.220   0.087  0.3010  0.4396 -0.3014
  105TMC2     H 1638   3.539   2.297   0.211  1.1212 -0.4687 -0.7435
  105TMC2    H1 1639   3.710   2.596  17.722 -2.8748  2.2122 -0.6407
  105TMC2    H2 1640   3.520   2.703   0.329  0.8696  0.8816  0.6146
  105TMC2    C7 1641   3.693   2.796   0.139 -0.2767 -0.5502 -0.0450
  105TMC2    C8 1642   3.444   2.470   0.385  0.3460 -0.6368  0.1026
  105TMC2    O1 1643   3.721   2.858   0.038 -0.9562 -0.7780 -0.3874
  105TMC2    O2 1644   3.350   2.538   0.425  0.4468  0.0574 -0.9223
  105TMC2    O5 1645   3.506   2.371   0.449 -0.0729 -0.0277  0.5646
  105TMC2    H5 1646   3.586   2.354   0.395 -0.1516  1.5154 -0.0433
  106MPD2     C 1647   4.111   2.168  17.496  0.0788  0.4692  0.5096
  106MPD2    C1 1648   4.100   2.306  17.496  0.7298 -0.4203 -0.6364
  106MPD2    C2 1649   3.995   2.371  17.548 -0.3842 -0.2867 -0.2779
  106MPD2    C3 1650   3.906   2.308  17.622 -0.2023 -0.5481  0.5972
  106MPD2    C4 1651   3.913   2.168  17.628  0.3695 -0.1314  0.3237
  106MPD2    C5 1652   4.020   2.103  17.564  0.0235 -0.6822  0.0542
  106MPD2     H 1653   3.992   2.479  17.543 -4.1278 -0.3163  1.1384
  106MPD2    H1 1654   3.846   2.103  17.684  2.1166 -1.4225  0.8991
  106MPD2    H2 1655   4.205   2.120  17.468 -1.3391 -0.6640 -2.2867
  106MPD2    H3 1656   4.041   2.001  17.593  0.8185 -1.1272 -2.1748
  106MPD2     N 1657   3.807   2.381  17.692  0.0741 -0.7050 -0.3212
  106MPD2    H5 1658   3.794   2.476  17.657 -0.4107 -1.1937 -1.4500
  106MPD2    N1 1659   4.199   2.390  17.433  0.0241 -0.3934 -0.0887
  106MPD2    H7 1660   4.161   2.482  17.415 -0.3754 -0.5578 -0.0711
  107TMC2    C1 1661   0.473   1.644  12.377 -0.4925 -0.2754 -0.0216
  107TMC2    C2 1662   0.519   1.662  12.250 -0.9450 -0.2644 -0.1553
  107TMC2    C3 1663   0.601   1.554  12.206  0.8407 -0.2571  0.3759
  107TMC2    C4 1664   0.499   1.532  12.454  0.2118 -0.0236  0.4431
  107TMC2    C5 1665   0.571   1.430  12.399 -0.4116 -0.5123  0.6016
  107TMC2    C6 1666   0.624   1.445  12.277 -0.0708  0.0516  0.8056
  107TMC2     C 1667   0.357   1.722  12.420  0.2582 -0.3125 -0.4127
  107TMC2     O 1668   0.308   1.694  12.528  0.2877 -0.0134  0.3797
  107TMC2     H 1669   0.499   1.747  12.186  1.9944  0.8695  0.4484
  107TMC2    H1 1670   0.458   1.517  12.554  3.0214 -3.6179  1.0385
  107TMC2    H2 1671   0.680   1.363  12.233  0.1223  0.1312  0.9063
  107TMC2    C7 1672   0.570   1.304  12.474 -0.1993 -0.4692 -0.0424
  107TMC2    C8 1673   0.618   1.559  12.059 -0.6669  0.0019  0.0048
  107TMC2    O1 1674   0.540   1.313  12.597  0.2685 -0.0601  0.3333
  107TMC2    O2 1675   0.565   1.654  11.996 -0.1064  0.7050  0.1671
  107TMC2    O5 1676   0.640   1.437  12.012 -0.2812 -0.3246 -0.1285
  107TMC2    H5 1677   0.711   1.389  12.061 -1.3605 -1.2363  0.5446
  108MPD2     C 1678   0.159   1.987  12.238 -0.0710 -0.6348  0.2187
  108MPD2    C1 1679   0.178   1.887  12.335  0.8441 -0.4569 -0.3035
  108MPD2    C2 1680   0.088   1.861  12.433  0.6198  1.0946 -0.4251
  108MPD2    C3 1681   4.719   1.946  12.436  0.3424 -0.3964 -0.1638
  108MPD2    C4 1682   4.691   2.036  12.338 -0.2214 -0.3070  0.2247
  108MPD2    C5 1683   0.041   2.060  12.240 -0.1745  0.0314 -0.1142
  108MPD2     H 1684   0.099   1.782  12.506  0.7532  0.1532 -1.4727
  108MPD2    H1 1685   4.611   2.110  12.341 -0.2330 -0.1797 -3.3614
  108MPD2    H2 1686   0.237   2.016  12.168 -1.0994  1.4451 -0.0788
  108MPD2    H3 1687   0.012   2.143  12.177 -0.6921  1.6695  2.2719
  108MPD2     N 1688   4.620   1.926  12.537 -0.4248 -0.3513  0.4820
  108MPD2    H5 1689   4.654   1.883  12.622  0.0075 -1.4888 -0.2760
  108MPD2    N1 1690   0.299   1.807  12.328 -0.4356 -0.6216  0.5841
  108MPD2    H7 1691   0.359   1.836  12.251 -0.3037 -1.5113  0.3529
  109TMC2    C1 1692   4.317   4.055   1.181  0.8872 -1.1805 -0.7072
  109TMC2    C2 1693   4.205   4.123   1.219 -0.1926  0.1435  0.4753
  109TMC2    C3 1694   4.176   4.235   1.150 -0.2285  0.1824  0.3797
  109TMC2    C4 1695   4.385   4.077   1.069  0.0280  0.2314 -0.7996
  109TMC2    C5 1696   4.350   4.189   0.994  0.3198 -1.0642  0.2142
  109TMC2    C6 1697   4.248   4.274   1.041  0.2791  0.0080  0.9512
  109TMC2     C 1698   4.355   3.950   1.270  0.3234  0.8063 -0.1364
  109TMC2     O 1699   4.270   3.878   1.321 -0.2324 -0.4492  0.2767
  109TMC2     H 1700   4.158   4.091   1.312  2.4059 -2.3535  0.9329
  109TMC2    H1 1701   4.474   4.022   1.042  0.1251 -1.6022  3.3072
  109TMC2    H2 1702   4.222   4.355   0.973  0.1602 -0.3159  0.6131
  109TMC2    C7 1703   4.447   4.233   0.893 -0.3366  0.1703 -0.5806
  109TMC2    C8 1704   4.063   4.316   1.181  0.5074 -0.4793 -0.2051
  109TMC2    O1 1705   4.503   4.143   0.834  0.6556  0.2368  0.8077
  109TMC2    O2 1706   4.003   4.394   1.102  0.3294 -0.3064  0.0604
  109TMC2    O5 1707   4.025   4.291   1.309  0.0257  0.6368 -0.5376
  109TMC2    H5 1708   4.103   4.277   1.368  1.4539 -0.4725 -2.6675
  110MPD2     C 1709   4.715   3.621   1.429 -0.5245 -0.7223  0.4425
  110MPD2    C1 1710   0.035   3.732   1.372  0.1360  0.2379 -0.8437
  110MPD2    C2 1711   4.696   3.841   1.332  0.8851  0.1312  0.2724
  110MPD2    C3 1712   4.557   3.834   1.336 -0.7400 -0.2190 -0.3970
  110MPD2    C4 1713   4.500   3.722   1.386  0.3573 -0.4678 -0.2146
  110MPD2    C5 1714   4.579   3.618   1.438  0.0466 -0.0519  0.4091
  110MPD2     H 1715   4.736   3.924   1.275 -0.5806  1.3252  0.9634
  110MPD2    H1 1716   4.392   3.720   1.395  0.5034  1.8310  2.2633
  110MPD2    H2 1717   0.030   3.531   1.451 -0.9369 -0.6921  1.6582
  110MPD2    H3 1718   4.529   3.527   1.469  1.0789 -0.5253  0.7141
  110MPD2     N 1719   4.491   3.942   1.271 -0.2282  0.4716  0.0944
  110MPD2    H5 1720   4.548   4.015   1.230  0.4530 -1.2302 -2.0090
  110MPD2    N1 1721   0.176   3.727   1.353  0.0411  0.1869 -0.4363
  110MPD2    H7 1722   0.228   3.643   1.377 -0.8507 -0.2220  0.0973
  111TMC2    C1 1723   4.582   3.202  12.014  0.4066 -0.3841 -0.6880
  111TMC2    C2 1724   4.498   3.153  12.113  0.1926 -0.5520  0.5107
  111TMC2    C3 1725   4.549   3.152  12.233  0.0485  0.5390  0.5191
  111TMC2    C4 1726   4.712   3.221  12.038  0.6996  0.2209  0.1597
  111TMC2    C5 1727   0.024   3.202  12.165 -0.0888  0.1059  0.2126
  111TMC2    C6 1728   4.682   3.163  12.261  1.0154 -0.0132  0.3018
  111TMC2     C 1729   4.520   3.230  11.882 -1.0626  0.4937  0.0625
  111TMC2     O 1730   4.600   3.256  11.789 -0.2936 -0.3420  0.9569
  111TMC2     H 1731   4.394   3.125  12.097 -0.0678  0.5553  0.2585
  111TMC2    H1 1732   0.026   3.245  11.948  4.1267  0.3472  2.3394
  111TMC2    H2 1733   4.726   3.142  12.358 -1.4578 -1.3279  1.1426
  111TMC2    C7 1734   0.157   3.236  12.200 -0.0419 -0.2384 -0.2509
  111TMC2    C8 1735   4.463   3.112  12.342 -0.3864 -0.4510 -0.4052
  111TMC2    O1 1736   0.174   3.264  12.319  0.3665  0.1996  0.3516
  111TMC2    O2 1737   4.343   3.085  12.337  0.0342  0.2696  0.2272
  111TMC2    O5 1738   4.516   3.175  12.447  0.8295  0.1377  0.1548
  111TMC2    H5 1739   4.590   3.232  12.418 -0.6925  1.9349 -0.2479
  112MPD2     C 1740   4.081   3.216  11.582  0.2608 -0.3192 -0.5095
  112MPD2    C1 1741   4.205   3.249  11.541 -0.5645 -0.0506  0.1974
  112MPD2    C2 1742   4.306   3.258  11.637 -0.0776  0.2743  0.2304
  112MPD2    C3 1743   4.289   3.241  11.775  0.3971 -0.6624  0.4773
  112MPD2    C4 1744   4.160   3.220  11.815  0.0651  0.4999  0.0489
  112MPD2    C5 1745   4.058   3.206  11.722 -0.7256 -0.9241  0.6015
  112MPD2     H 1746   4.407   3.276  11.603  0.3503 -2.2793  0.1144
  112MPD2    H1 1747   4.131   3.209  11.919  1.6641 -2.7606  0.1402
  112MPD2    H2 1748   3.997   3.203  11.514 -0.3177 -2.0778  0.5521
  112MPD2    H3 1749   3.958   3.189  11.758 -0.1263 -0.0546  2.7276
  112MPD2     N 1750   4.379   3.234  11.883 -0.2824 -0.1952  0.8435
  112MPD2    H5 1751   4.339   3.222  11.976 -0.1769 -0.0325  0.9106
  112MPD2    N1 1752   4.238   3.279  11.404  0.2321 -0.0314 -0.2699
  112MPD2    H7 1753   4.324   3.330  11.387 -0.6493  2.8102  3.7184
  113TMC2    C1 1754   2.995   1.954   0.688  0.6644  0.2824  0.0315
  113TMC2    C2 1755   2.962   2.082   0.722  0.2108  0.3124 -1.2368
  113TMC2    C3 1756   2.845   2.138   0.674  0.8107  0.0887  0.3273
  113TMC2    C4 1757   2.909   1.879   0.611  0.7299  0.5016 -0.2208
  113TMC2    C5 1758   2.800   1.940   0.557  0.1194  0.3431  0.4979
  113TMC2    C6 1759   2.762   2.067   0.584 -0.4796  0.4647  0.2453
  113TMC2     C 1760   3.134   1.909   0.688 -0.1636  0.7343  0.0614
  113TMC2     O 1761   3.216   2.000   0.691  0.1978 -0.1288  0.2414
  113TMC2     H 1762   3.028   2.137   0.789 -1.8702  0.1055  0.9847
  113TMC2    H1 1763   2.942   1.782   0.574 -0.6576  0.0945 -0.4088
  113TMC2    H2 1764   2.677   2.110   0.531 -1.5793 -0.5473  1.1781
  113TMC2    C7 1765   2.685   1.854   0.537 -0.4681  0.3634 -0.1341
  113TMC2    C8 1766   2.801   2.267   0.724 -0.5165 -0.4020 -0.5011
  113TMC2    O1 1767   2.587   1.914   0.499  0.1233 -0.0844  0.3006
  113TMC2    O2 1768   2.841   2.313   0.829 -0.3545  0.4795  0.0152
  113TMC2    O5 1769   2.802   2.339   0.607 -0.1931  0.0882 -0.2095
  113TMC2    H5 1770   2.757   2.308   0.525  0.1506 -1.2574  0.1121
  114MPD2     C 1771   3.485   1.600   0.862  0.9645 -0.9368  0.2061
  114MPD2    C1 1772   3.470   1.734   0.868 -0.0000 -0.9149  0.6468
  114MPD2    C2 1773   3.366   1.795   0.816  0.4556 -0.1789 -0.0817
  114MPD2    C3 1774   3.257   1.721   0.768 -0.0012  0.0785 -1.2128
  114MPD2    C4 1775   3.267   1.581   0.775 -0.2582  0.7166  0.7008
  114MPD2    C5 1776   3.379   1.523   0.826 -0.2902 -0.2374 -0.3469
  114MPD2     H 1777   3.371   1.903   0.829  0.7531 -0.4252  1.8241
  114MPD2    H1 1778   3.185   1.516   0.746  1.4794 -0.9491 -0.4996
  114MPD2    H2 1779   3.572   1.548   0.901  1.1643 -0.4620  0.3952
  114MPD2    H3 1780   3.389   1.416   0.842 -0.4923  0.0321  1.6111
  114MPD2     N 1781   3.137   1.776   0.722  0.1715  0.3369  0.4316
  114MPD2    H5 1782   3.059   1.717   0.694  0.2227  0.7895 -0.6833
  114MPD2    N1 1783   3.561   1.816   0.935 -0.3222 -0.2047 -0.1795
  114MPD2    H7 1784   3.530   1.912   0.947 -0.5988 -0.6534  2.6472
  115TMC2    C1 1785   4.057   4.535  17.413  0.3843  0.1006 -1.2918
  115TMC2    C2 1786   4.170   4.597  17.468  0.2016 -0.0687 -0.6343
  115TMC2    C3 1787   4.187   4.730  17.421  0.3161  0.0519 -0.0382
  115TMC2    C4 1788   3.982   4.599  17.317  0.6467 -0.5575  0.0948
  115TMC2    C5 1789   4.008   4.724  17.274 -0.5044 -0.0465 -0.3210
  115TMC2    C6 1790   4.117   0.050  17.326 -0.2070  0.0771 -0.8843
  115TMC2     C 1791   4.003   4.406  17.461  0.4429  0.4307 -0.0357
  115TMC2     O 1792   3.907   4.369  17.400 -0.4154  0.5944  0.3942
  115TMC2     H 1793   4.243   4.553  17.534 -2.0603 -2.3073  0.3885
  115TMC2    H1 1794   3.902   4.546  17.267 -1.5039  2.8528 -0.1280
  115TMC2    H2 1795   4.136   0.154  17.302  3.0337 -0.4223 -0.4973
  115TMC2    C7 1796   3.902   0.053  17.216  0.1300  0.2722  0.1289
  115TMC2    C8 1797   4.279   0.083  17.493  0.8144 -0.8903 -0.7525
  115TMC2    O1 1798   3.792   0.002  17.215 -0.2374  0.2287 -0.2294
  115TMC2    O2 1799   4.274   0.204  17.488 -0.3569  0.4657 -0.0008
  115TMC2    O5 1800   4.367   0.018  17.565  0.0654 -0.0610 -0.0672
  115TMC2    H5 1801   4.364   4.663  17.561 -0.1855  0.0321 -2.1200
  116MPD2     C 1802   3.904   3.994  17.736 -0.0393  0.9269 -0.4143
  116MPD2    C1 1803   3.882   4.027  17.604 -0.4575  0.4080  0.1757
  116MPD2    C2 1804   3.941   4.147  17.554  0.1448  1.0527 -1.0045
  116MPD2    C3 1805   4.018   4.230  17.627 -0.3577 -0.1973  0.3428
  116MPD2    C4 1806   4.040   4.186  17.760  0.1806 -0.5881  1.2040
  116MPD2    C5 1807   3.975   4.077   0.046 -0.2171  0.4335  0.2121
  116MPD2     H 1808   3.935   4.164  17.447  0.1910 -0.3582 -1.2375
  116MPD2    H1 1809   4.095   4.249   0.064 -0.9973  1.5453  0.2270
  116MPD2    H2 1810   3.865   3.904   0.017  0.3717  0.1143 -1.6514
  116MPD2    H3 1811   3.976   4.054   0.152 -3.0414  0.5910  0.2780
  116MPD2     N 1812   4.058   4.355  17.573  0.1934  0.2274  0.7773
  116MPD2    H5 1813   4.116   4.414  17.632  0.7053 -1.3350  1.8410
  116MPD2    N1 1814   3.812   3.941  17.512 -0.1805  0.2116 -0.1407
  116MPD2    H7 1815   3.805   3.981  17.419  0.9296  1.5281  0.3436
  117TMC2    C1 1816   2.554   0.598  14.260  0.1611  0.5542  0.1710
  117TMC2    C2 1817   2.658   0.554  14.331  0.1377 -0.0699  0.3002
  117TMC2    C3 1818   2.727   0.639  14.405 -0.1142  0.5046  0.5634
  117TMC2    C4 1819   2.528   0.734  14.238 -0.0963  0.1522 -0.1545
  117TMC2    C5 1820   2.594   0.821  14.322  0.4600 -0.2444 -0.2294
  117TMC2    C6 1821   2.698   0.775  14.404 -0.2109 -0.4483 -0.0500
  117TMC2     C 1822   2.489   0.515  14.167  0.5893  0.2118 -0.6190
  117TMC2     O 1823   2.433   0.418  14.208 -0.1866 -0.1057  0.1626
  117TMC2     H 1824   2.687   0.450  14.333  0.6151  0.0507 -0.4269
  117TMC2    H1 1825   2.433   0.770  14.201  0.2884 -0.2463 -1.5200
  117TMC2    H2 1826   2.758   0.841  14.465  1.6677 -1.7842 -0.4778
  117TMC2    C7 1827   2.562   0.963  14.327 -0.3690  0.2408  0.9094
  117TMC2    C8 1828   2.822   0.586  14.492 -0.4997 -0.5051 -0.0684
  117TMC2    O1 1829   2.623   1.030  14.412  0.6424  0.2928 -0.1488
  117TMC2    O2 1830   2.886   0.486  14.466 -0.4026  0.3963 -0.2399
  117TMC2    O5 1831   2.775   0.613  14.615  0.2011  0.0187  0.3003
  117TMC2    H5 1832   2.715   0.691  14.611 -0.4192 -0.4380  0.7565
  118MPD2     C 1833   2.304   1.162  14.133 -0.4939 -0.1811  0.1769
  118MPD2    C1 1834   2.414   1.138  14.217  0.4234 -0.0090  0.1680
  118MPD2    C2 1835   2.488   1.249  14.261  0.1971 -0.3031 -0.3692
  118MPD2    C3 1836   2.446   1.381  14.237  0.5717  0.3622  0.5466
  118MPD2    C4 1837   2.327   1.400  14.170  0.6839 -0.5748 -0.3861
  118MPD2    C5 1838   2.263   1.290  14.115  0.1836 -0.0160  0.4433
  118MPD2     H 1839   2.579   1.237  14.319  1.4239 -0.8820 -2.4081
  118MPD2    H1 1840   2.262   1.486  14.162  0.6079 -0.6002 -0.0181
  118MPD2    H2 1841   2.251   1.080  14.084  0.8427 -0.1145 -1.3826
  118MPD2    H3 1842   2.169   1.304  14.063 -1.4305  0.6786  3.5587
  118MPD2     N 1843   2.513   1.497  14.280 -0.1357 -0.3789  0.6738
  118MPD2    H5 1844   2.470   1.579  14.239 -1.7870 -0.9706  1.2061
  118MPD2    N1 1845   2.457   1.001  14.239  0.3527  0.7061 -0.7158
  118MPD2    H7 1846   2.408   0.926  14.191 -0.3489  0.2227  0.7327
  119TMC2    C1 1847   0.644   2.213  13.323  0.3418 -0.9830 -0.2332
  119TMC2    C2 1848   0.662   2.226  13.191 -0.5518 -0.0487  0.2952
  119TMC2    C3 1849   0.584   2.164  13.103  0.1713  0.2740 -0.3027
  119TMC2    C4 1850   0.544   2.132  13.365  0.3674 -0.0474  0.1121
  119TMC2    C5 1851   0.466   2.063  13.273 -0.4975 -0.1380 -0.1031
  119TMC2    C6 1852   0.487   2.076  13.145 -0.0367 -0.6111  0.2686
  119TMC2     C 1853   0.744   2.260  13.421  0.7402 -0.0169  0.4135
  119TMC2     O 1854   0.720   2.240  13.540 -0.0867  0.1749 -0.5396
  119TMC2     H 1855   0.721   2.311  13.160 -0.3249 -0.1598  0.4180
  119TMC2    H1 1856   0.529   2.114  13.471 -1.9052  0.7482 -0.0761
  119TMC2    H2 1857   0.428   2.027  13.069 -2.8651 -0.8545  2.6078
  119TMC2    C7 1858   0.363   1.969  13.312 -0.5199 -0.2608  0.1361
  119TMC2    C8 1859   0.570   2.223  12.972 -0.6209  0.1664 -0.0137
  119TMC2    O1 1860   0.280   1.955  13.224 -0.3013 -0.0603 -0.2016
  119TMC2    O2 1861   0.571   2.344  12.963 -0.0316 -0.4364 -0.2107
  119TMC2    O5 1862   0.602   2.132  12.882 -0.1977 -0.1223  0.1680
  119TMC2    H5 1863   0.599   2.036  12.903  0.3262 -0.3423 -0.7401
  120MPD2     C 1864   1.216   2.141  13.540  1.2899 -0.3103  0.2887
  120MPD2    C1 1865   1.110   2.167  13.622  0.1401 -0.3244  0.0748
  120MPD2    C2 1866   0.989   2.219  13.563  0.7682 -1.1549  0.4793
  120MPD2    C3 1867   0.983   2.225  13.424  0.0043 -0.5854  0.6389
  120MPD2    C4 1868   1.099   2.213  13.346  0.1630 -0.2097 -0.6884
  120MPD2    C5 1869   1.211   2.172  13.407 -0.1065 -0.1276 -0.2089
  120MPD2     H 1870   0.919   2.258  13.635  1.9309 -1.6705  1.9138
  120MPD2    H1 1871   1.112   2.228  13.240  0.7295 -0.7251 -0.6885
  120MPD2    H2 1872   1.312   2.107  13.579  1.1324  0.6344  1.4792
  120MPD2    H3 1873   1.298   2.165  13.344  1.0880  1.6728  1.2300
  120MPD2     N 1874   0.862   2.245  13.355 -0.0022 -0.3360  0.1280
  120MPD2    H5 1875   0.866   2.235  13.254 -2.5367  1.5178 -0.1802
  120MPD2    N1 1876   1.104   2.133  13.762 -0.1228  0.2665 -0.3070
  120MPD2    H7 1877   1.188   2.083  13.790  0.9767  0.0801 -3.8716
  121TMC2    C1 1878   2.062   3.588  13.858  0.5668  0.2176  0.3476
  121TMC2    C2 1879   2.190   3.548  13.888  0.7632  0.5376 -0.1437
  121TMC2    C3 1880   2.210   3.465  13.997 -0.2770 -0.0256  0.1900
  121TMC2    C4 1881   1.970   3.565  13.951 -0.6578 -0.8805  0.0100
  121TMC2    C5 1882   1.988   3.481  14.057  0.0068 -0.6379  0.0305
  121TMC2    C6 1883   2.110   3.434  14.087 -0.3268  0.1914  0.2412
  121TMC2     C 1884   2.048   3.723  13.802 -0.5836  0.5779 -0.3123
  121TMC2     O 1885   1.977   3.807  13.852 -0.0269  0.0256 -0.3330
  121TMC2     H 1886   2.272   3.596  13.834  0.3486 -0.4316 -1.6408
  121TMC2    H1 1887   1.870   3.604  13.933 -0.0850  0.6917  0.2127
  121TMC2    H2 1888   2.138   3.407  14.188 -1.6754  1.7287  1.0220
  121TMC2    C7 1889   1.897   3.485  14.174  0.2956  0.4664 -0.6917
  121TMC2    C8 1890   2.336   3.453  14.057 -0.1075  0.2488 -0.5468
  121TMC2    O1 1891   1.950   3.463  14.280  0.4631 -0.1071 -0.7792
  121TMC2    O2 1892   2.429   3.530  14.035 -0.4398  0.3663 -0.4660
  121TMC2    O5 1893   2.358   3.332  14.117 -0.3966 -0.2266  0.2310
  121TMC2    H5 1894   2.280   3.272  14.114  0.3141 -1.0597 -1.7032
  122MPD2     C 1895   2.094   3.969  13.640  0.3895  0.4847  0.4660
  122MPD2    C1 1896   2.135   3.837  13.604 -0.4077  0.3208 -0.8973
  122MPD2    C2 1897   2.190   3.809  13.482  0.4010 -0.7008 -0.2686
  122MPD2    C3 1898   2.206   3.915  13.392  0.1146  0.7200  0.5430
  122MPD2    C4 1899   2.170   4.044  13.429  0.9881 -0.2043  0.6303
  122MPD2    C5 1900   2.105   4.068  13.543 -0.4581 -0.1508 -0.8351
  122MPD2     H 1901   2.210   3.708  13.447  0.3992 -1.1128  0.8967
  122MPD2    H1 1902   2.168   4.119  13.351 -1.2921  1.7074  2.5422
  122MPD2    H2 1903   2.045   3.992  13.734 -2.0017  2.6575 -1.3515
  122MPD2    H3 1904   2.073   4.167  13.573  0.7957 -0.0997  0.3369
  122MPD2     N 1905   2.236   3.908  13.258 -0.0764  0.1869  0.3814
  122MPD2    H5 1906   2.224   3.991  13.201  1.1597 -0.7655 -1.2902
  122MPD2    N1 1907   2.126   3.728  13.691 -0.6308  0.6214  0.0978
  122MPD2    H7 1908   2.158   3.642  13.648 -0.0637  1.0149 -0.2813
  123TMC2    C1 1909   0.622   2.296  10.911  0.0779 -0.0381 -0.7585
  123TMC2    C2 1910   0.618   2.429  10.931 -0.3978  0.0065 -0.6209
  123TMC2    C3 1911   0.634   2.515  10.825  0.7965 -0.5316  0.1533
  123TMC2    C4 1912   0.618   2.245  10.785 -0.1821  0.5900  0.7568
  123TMC2    C5 1913   0.639   2.335  10.684  0.2054  0.3369 -0.2252
  123TMC2    C6 1914   0.648   2.471  10.692 -0.4267  0.0019 -0.7985
  123TMC2     C 1915   0.570   2.216  11.024 -0.8923 -0.5218 -0.2075
  123TMC2     O 1916   0.572   2.268  11.136 -0.3355  0.1769 -0.0902
  123TMC2     H 1917   0.595   2.479  11.024  0.2329 -1.7364  0.4747
  123TMC2    H1 1918   0.621   2.140  10.758 -0.7378  0.3967  1.4399
  123TMC2    H2 1919   0.664   2.542  10.612 -1.4964 -1.0546 -1.9538
  123TMC2    C7 1920   0.624   2.267  10.559  0.6311  0.7473  0.0028
  123TMC2    C8 1921   0.648   2.657  10.857  0.2334 -0.4026 -0.0000
  123TMC2    O1 1922   0.697   2.169  10.543 -0.6934  0.3177  0.2647
  123TMC2    O2 1923   0.618   2.708  10.961 -0.6935  0.4473 -0.1066
  123TMC2    O5 1924   0.746   2.701  10.775 -0.6151  0.6048  0.1183
  123TMC2    H5 1925   0.775   2.631  10.713 -1.1358  1.1294 -0.7070
  124MPD2     C 1926   0.293   1.812  11.173 -0.0465 -0.1750 -0.2941
  124MPD2    C1 1927   0.358   1.783  11.054 -0.5677 -1.3593 -0.8285
  124MPD2    C2 1928   0.446   1.869  11.000 -0.7408 -0.0158 -0.2185
  124MPD2    C3 1929   0.460   1.995  11.055 -0.3906 -0.0014  0.1408
  124MPD2    C4 1930   0.384   2.028  11.165  0.5595 -0.5884 -0.1967
  124MPD2    C5 1931   0.296   1.939  11.228  0.4207  0.3260  0.2832
  124MPD2     H 1932   0.498   1.859  10.905  1.4522  1.4630  0.8375
  124MPD2    H1 1933   0.387   2.129  11.204  0.2526 -0.5546 -0.2567
  124MPD2    H2 1934   0.223   1.741  11.217  0.0135  0.3604  0.6633
  124MPD2    H3 1935   0.240   1.958  11.319 -0.6497 -2.4979  0.2170
  124MPD2     N 1936   0.548   2.084  10.990  0.6321  0.1252 -0.6254
  124MPD2    H5 1937   0.598   2.051  10.908  0.0982 -0.9599 -0.5027
  124MPD2    N1 1938   0.330   1.658  10.997 -0.0941  0.6595  1.2204
  124MPD2    H7 1939   0.255   1.608  11.045  0.4957  1.1350  2.6566
  125TMC2    C1 1940   0.668   3.552   9.398  0.1539 -0.0490 -0.0717
  125TMC2    C2 1941   0.588   3.634   9.325 -0.1653  0.9785  0.3935
  125TMC2    C3 1942   0.571   3.762   9.368 -0.2321  0.6302 -0.1085
  125TMC2    C4 1943   0.737   3.586   9.507  0.2850 -0.2963  0.3159
  125TMC2    C5 1944   0.729   3.719   9.550 -0.2965 -0.3759 -0.2791
  125TMC2    C6 1945   0.642   3.806   9.487 -0.4330  0.5063 -0.0193
  125TMC2     C 1946   0.691   3.414   9.352 -0.2511  0.1051 -0.9827
  125TMC2     O 1947   0.788   3.351   9.396 -0.2229  0.0230  0.0084
  125TMC2     H 1948   0.550   3.599   9.230  0.0096  0.9649  0.3287
  125TMC2    H1 1949   0.792   3.519   9.573  1.1339  0.1718  0.0929
  125TMC2    H2 1950   0.612   3.900   9.533 -0.1604  1.2248 -1.3298
  125TMC2    C7 1951   0.843   3.780   9.618 -0.5512  0.1404  0.2775
  125TMC2    C8 1952   0.468   3.856   9.318 -0.2750 -0.4263 -0.5626
  125TMC2    O1 1953   0.830   3.894   9.661 -0.2109 -0.0543  0.0624
  125TMC2    O2 1954   0.481   3.977   9.339 -0.2275  0.0367 -0.2938
  125TMC2    O5 1955   0.385   3.800   9.238 -0.4595  0.1692  0.2586
  125TMC2    H5 1956   0.398   3.704   9.219 -0.2451 -0.1837  2.2212
  126MPD1     C 1957   0.498   2.978   9.160  0.3245 -0.0675  0.5044
  126MPD1    C1 1958   0.403   3.080   9.142 -0.1955  0.9049  0.2803
  126MPD1    C2 1959   0.433   3.202   9.207  0.0838 -0.2605 -0.3047
  126MPD1    C3 1960   0.561   3.240   9.248 -0.5992  0.3036 -0.2109
  126MPD1    C4 1961   0.660   3.138   9.246  0.6985  0.5852 -1.0662
  126MPD1    C5 1962   0.622   3.011   9.207 -0.0765  0.0126  0.0109
  126MPD1     H 1963   0.361   3.283   9.210 -0.6172 -0.8325 -1.9290
  126MPD1    H1 1964   0.760   3.153   9.285  0.0803  1.2313  0.2832
  126MPD1    H2 1965   0.488   2.877   9.122 -0.6244  0.0058  0.5641
  126MPD1    H3 1966   0.707   2.945   9.191 -0.7544 -0.3426 -2.1166
  126MPD1     N 1967   0.576   3.368   9.305  0.0566 -0.1947  0.2280
  126MPD1    H5 1968   0.496   3.430   9.297  0.1180 -0.2188 -0.5217
  126MPD1    N1 1969   0.274   3.036   9.098  0.0411  0.3425  0.0837
  126MPD1    H6 1970   0.219   3.119   9.077  1.7017  1.8192  1.5482
  126MPD1    H7 1971   0.282   2.975   9.017  0.3300 -1.5271  1.5121
  127TMC2    C1 1972   1.635   2.788  10.201 -0.4550  0.2754 -0.5381
  127TMC2    C2 1973   1.673   2.759  10.325  0.5692  0.2239  0.6315
  127TMC2    C3 1974   1.582   2.691  10.405 -0.1393  0.3307 -0.0805
  127TMC2    C4 1975   1.518   2.732  10.148 -1.2700  0.0733 -0.2208
  127TMC2    C5 1976   1.433   2.656  10.228  0.2295  0.1755 -0.8048
  127TMC2    C6 1977   1.457   2.653  10.363 -0.8255  0.7092 -1.3193
  127TMC2     C 1978   1.747   2.826  10.122 -0.1668 -0.2646  0.0417
  127TMC2     O 1979   1.840   2.880  10.180  0.1190 -0.1412  0.0966
  127TMC2     H 1980   1.760   2.803  10.373 -0.5668  1.2735  1.7394
  127TMC2    H1 1981   1.497   2.757  10.044  0.0183  0.6338 -0.3425
  127TMC2    H2 1982   1.387   2.606  10.431 -0.4369  0.2696 -1.2279
  127TMC2    C7 1983   1.305   2.618  10.173 -0.1219 -0.2675 -0.5669
  127TMC2    C8 1984   1.639   2.618  10.521 -0.0836 -0.6476  0.5019
  127TMC2    O1 1985   1.251   2.690  10.089 -0.2621 -0.0883 -0.8176
  127TMC2    O2 1986   1.573   2.535  10.583  0.2200 -0.1195  0.5755
  127TMC2    O5 1987   1.767   2.593  10.491  0.5112  0.6447 -0.7161
  127TMC2    H5 1988   1.814   2.672  10.455 -0.5360  1.5023 -0.2157
  128MPD2     C 1989   1.830   2.777   9.773  0.1026 -0.1353 -0.4882
  128MPD2    C1 1990   1.844   2.832   9.895 -0.0507 -0.2082  0.4567
  128MPD2    C2 1991   1.940   2.921   9.915 -0.4387 -0.2894 -0.7501
  128MPD2    C3 1992   2.054   2.928   9.833  0.2766 -0.3417  0.2757
  128MPD2    C4 1993   2.047   2.869   9.711  0.1123 -0.5116 -0.4857
  128MPD2    C5 1994   1.928   2.805   9.680  0.0409  0.3103  0.5336
  128MPD2     H 1995   1.936   2.983  10.004 -0.5055 -1.3564 -0.0165
  128MPD2    H1 1996   2.117   2.891   9.630  1.3925 -0.1610  0.7124
  128MPD2    H2 1997   1.754   2.708   9.738 -2.4601  1.5383  1.7629
  128MPD2    H3 1998   1.908   2.767   9.580  4.3050 -0.2508 -0.1233
  128MPD2     N 1999   2.170   3.003   9.866  0.7502 -0.0774 -0.1850
  128MPD2    H5 2000   2.172   3.053   9.954  0.8705  2.4507 -1.6230
  128MPD2    N1 2001   1.738   2.805   9.989  0.1459  0.4689  0.3619
  128MPD2    H7 2002   1.659   2.748   9.958 -1.2086  2.2774  0.4727
  129TMC2    C1 2003   1.478   4.119   1.119 -0.2528 -0.2106  0.2285
  129TMC2    C2 2004   1.600   4.156   1.069 -0.1466  0.1361 -0.2594
  129TMC2    C3 2005   1.672   4.054   1.014 -0.1522  0.3345 -0.1301
  129TMC2    C4 2006   1.424   3.995   1.115  0.3171 -0.1946  0.1131
  129TMC2    C5 2007   1.496   3.905   1.048  0.2090 -0.4082 -0.5614
  129TMC2    C6 2008   1.614   3.930   0.987  0.4208  0.5137  0.3097
  129TMC2     C 2009   1.429   4.204   1.229 -0.9471 -0.2281  0.0215
  129TMC2     O 2010   1.335   4.165   1.295 -0.2599  0.5424  0.1702
  129TMC2     H 2011   1.622   4.260   1.048 -1.0279  0.1336 -1.1898
  129TMC2    H1 2012   1.326   3.969   1.153 -0.7872  2.8293 -0.6558
  129TMC2    H2 2013   1.665   3.849   0.936 -1.8192 -0.2776 -0.6789
  129TMC2    C7 2014   1.431   3.774   1.032  0.1512 -0.1048 -0.0419
  129TMC2    C8 2015   1.808   4.089   0.982  0.5526  0.9206  1.3851
  129TMC2    O1 2016   1.319   3.757   1.072 -0.1847 -0.2290  0.2779
  129TMC2    O2 2017   1.854   4.202   1.000  0.3295 -0.0608  0.5594
  129TMC2    O5 2018   1.888   3.976   0.981 -0.2447  0.7424  0.2917
  129TMC2    H5 2019   1.831   3.899   1.003 -0.5877  0.6685 -0.8711
  130MPD2     C 2020   1.377   4.433   1.426 -0.0211 -0.2981 -0.4791
  130MPD2    C1 2021   1.493   4.417   1.348 -0.5483 -0.2615 -0.3950
  130MPD2    C2 2022   1.598   4.509   1.358 -0.2151  0.0932 -0.5122
  130MPD2    C3 2023   1.598   4.619   1.436  0.0659  0.8811  0.0493
  130MPD2    C4 2024   1.490   4.634   1.522 -0.2532  0.0185 -0.0820
  130MPD2    C5 2025   1.379   4.548   1.503  0.1217  0.5123  0.1767
  130MPD2     H 2026   1.679   4.491   1.288 -1.3437 -3.1301 -0.9984
  130MPD2    H1 2027   1.485   4.699   1.609  1.3807  0.7106 -0.5099
  130MPD2    H2 2028   1.291   4.368   1.434 -0.0219  0.1121  2.9433
  130MPD2    H3 2029   1.292   4.574   1.561 -0.4301 -1.2717  0.1492
  130MPD2     N 2030   1.711   4.704   1.431  0.3303  0.2192  0.0727
  130MPD2    H5 2031   1.780   4.667   1.366 -1.5111 -2.7611 -0.1694
  130MPD2    N1 2032   1.516   4.308   1.258 -0.0466 -0.4958  0.0862
  130MPD2    H7 2033   1.596   4.304   1.195 -1.8703  1.1857 -2.3557
  131TMC2    C1 2034   0.123   2.127  10.259  0.9256 -0.0141  0.0825
  131TMC2    C2 2035   0.131   2.228  10.349  0.3136  0.1283 -0.1475
  131TMC2    C3 2036   0.098   2.354  10.306  0.1423 -0.1541 -0.0447
  131TMC2    C4 2037   0.084   2.150  10.125 -0.0308 -0.5030  0.3248
  131TMC2    C5 2038   0.068   2.280  10.092 -0.3567 -0.8141  0.7460
  131TMC2    C6 2039   0.080   2.379  10.175 -0.3527  0.1796 -0.1724
  131TMC2     C 2040   0.198   2.002  10.293 -0.7057  0.8479 -0.5913
  131TMC2     O 2041   0.238   1.992  10.405 -0.2462  0.4026 -0.2252
  131TMC2     H 2042   0.174   2.213  10.447  1.9982  0.2587 -0.8625
  131TMC2    H1 2043   0.058   2.071  10.055  1.5371 -2.0620  1.5042
  131TMC2    H2 2044   0.070   2.482  10.143 -1.8054  0.7359  2.0559
  131TMC2    C7 2045   0.041   2.313   9.945 -0.1764 -0.6996  0.4151
  131TMC2    C8 2046   0.125   2.470  10.388  0.1599  0.6747 -0.0884
  131TMC2    O1 2047   0.001   2.229   9.862 -0.6391 -0.4287 -0.0825
  131TMC2    O2 2048   0.204   2.559  10.355  0.4459 -0.1048  0.0345
  131TMC2    O5 2049   0.076   2.446  10.515 -0.1105 -0.6096  0.4357
  131TMC2    H5 2050   0.020   2.366  10.509  2.2465 -2.2382 -0.1032
  132MPD2     C 2051   0.197   1.694  10.086  0.9253  0.1175 -0.2412
  132MPD2    C1 2052   0.189   1.773  10.202  0.2775  0.4073  0.0802
  132MPD2    C2 2053   0.194   1.712  10.323 -0.1821  0.0727 -0.4852
  132MPD2    C3 2054   0.225   1.577  10.324  0.0835 -0.5398 -0.2992
  132MPD2    C4 2055   0.233   1.496  10.210 -0.0180 -0.0534 -0.3771
  132MPD2    C5 2056   0.210   1.559  10.092  0.2492 -0.7931  0.2917
  132MPD2     H 2057   0.204   1.767  10.416 -0.4924 -0.7778  0.0465
  132MPD2    H1 2058   0.242   1.388  10.211 -1.3313 -0.1423  0.9281
  132MPD2    H2 2059   0.201   1.732   9.985 -1.9991  0.7152 -0.1502
  132MPD2    H3 2060   0.207   1.500  10.001 -2.1437  1.2418 -0.9497
  132MPD2     N 2061   0.242   1.522  10.458  0.5507  0.1040 -0.0568
  132MPD2    H5 2062   0.239   1.579  10.541 -0.7876  0.8028 -0.5822
  132MPD2    N1 2063   0.181   1.915  10.188 -0.1135  0.2556 -0.3678
  132MPD2    H7 2064   0.197   1.944  10.092  1.6334 -1.2761 -0.5423
  133TMC2    C1 2065   4.513   3.384  10.005  0.1372  0.1153 -0.6203
  133TMC2    C2 2066   4.606   3.324  10.088  0.2369 -0.2433  0.1419
  133TMC2    C3 2067   4.673   3.393  10.184 -0.0278  0.2367 -0.0836
  133TMC2    C4 2068   4.501   3.517  10.019 -0.2501  0.1105  0.0916
  133TMC2    C5 2069   4.554   3.579  10.131 -0.0167 -0.2261 -0.7258
  133TMC2    C6 2070   4.647   3.523  10.210 -0.1489 -0.1270 -0.2175
  133TMC2     C 2071   4.431   3.302   9.909 -0.4729 -0.7029  0.4267
  133TMC2     O 2072   4.439   3.182   9.914  0.3863  0.0021  0.0093
  133TMC2     H 2073   4.612   3.216  10.094 -2.3240 -0.4093 -0.2180
  133TMC2    H1 2074   4.432   3.573   9.957 -0.5852 -0.3601  0.0347
  133TMC2    H2 2075   4.702   3.575  10.288 -0.7804 -0.1248  0.2246
  133TMC2    C7 2076   4.561   3.728  10.117 -0.6144 -0.0958 -0.2704
  133TMC2    C8 2077   0.028   3.318  10.255 -0.5926 -0.0798  0.7544
  133TMC2    O1 2078   4.591   3.779  10.010  0.3031 -0.6666 -0.5545
  133TMC2    O2 2079   0.042   3.195  10.244 -0.0303 -0.2006  0.5042
  133TMC2    O5 2080   0.119   3.403  10.319  0.6778  0.0037  0.2234
  133TMC2    H5 2081   0.197   3.365  10.364  0.8328  0.5260  0.3981
  134MPD2     C 2082   4.170   3.435   9.677  0.4323  0.3492  0.0659
  134MPD2    C1 2083   4.240   3.335   9.748 -0.2288 -0.0817  0.6534
  134MPD2    C2 2084   4.215   3.195   9.721  0.2458  0.1430 -0.0821
  134MPD2    C3 2085   4.116   3.155   9.636 -0.6343  0.5382  0.7106
  134MPD2    C4 2086   4.040   3.256   9.578  0.9051 -0.6389  0.3680
  134MPD2    C5 2087   4.074   3.387   9.601 -0.4569 -0.0985  0.5787
  134MPD2     H 2088   4.266   3.116   9.776 -1.2603 -1.8631 -1.5765
  134MPD2    H1 2089   3.953   3.233   9.517  0.2095 -0.0837  1.1570
  134MPD2    H2 2090   4.188   3.541   9.690  0.7695  0.4543 -1.2384
  134MPD2    H3 2091   4.018   3.458   9.541 -2.6126 -2.6096 -0.3486
  134MPD2     N 2092   4.083   3.026   9.600  0.4090 -0.1486 -0.3329
  134MPD2    H5 2093   3.997   3.011   9.548 -1.0385  0.4809  1.8807
  134MPD2    N1 2094   4.344   3.375   9.836  0.0675 -0.0791 -0.6487
  134MPD2    H7 2095   4.349   3.475   9.856 -0.5965 -0.4189  1.2151
  135TMC2    C1 2096   1.609   3.998   9.263 -0.3082 -0.6903  0.8285
  135TMC2    C2 2097   1.661   4.015   9.386 -0.4556 -0.2849  0.7900
  135TMC2    C3 2098   1.583   4.070   9.479 -0.2037 -0.7599  0.6875
  135TMC2    C4 2099   1.489   4.053   9.234 -0.2320  0.4207 -0.5201
  135TMC2    C5 2100   1.408   4.098   9.333 -0.2685 -1.0104 -0.2819
  135TMC2    C6 2101   1.454   4.109   9.459  0.4735 -0.0330  0.5620
  135TMC2     C 2102   1.666   3.920   9.153  0.2296  0.3858  0.4616
  135TMC2     O 2103   1.603   3.908   9.050  0.1441  0.1543 -0.0863
  135TMC2     H 2104   1.755   3.973   9.422  1.0232  0.5205 -2.1412
  135TMC2    H1 2105   1.450   4.049   9.133  1.0774  0.3777 -1.0303
  135TMC2    H2 2106   1.400   4.158   9.539 -2.0031 -0.7996 -0.6457
  135TMC2    C7 2107   1.276   4.140   9.291  0.5854  0.8974 -0.1564
  135TMC2    C8 2108   1.628   4.037   9.615  0.0293  0.3727 -0.5249
  135TMC2    O1 2109   1.266   4.183   9.175 -0.1747  0.4231 -0.3449
  135TMC2    O2 2110   1.634   3.916   9.629 -0.2065  0.3280  0.1028
  135TMC2    O5 2111   1.564   4.115   9.700 -0.1350 -0.4819 -0.3000
  135TMC2    H5 2112   1.570   4.208   9.667 -2.2796  0.2180  1.2556
  136MPD2     C 2113   1.800   3.729   8.967 -0.7270  0.0201 -0.1601
  136MPD2    C1 2114   1.848   3.770   9.093 -0.4034 -0.7804 -0.0957
  136MPD2    C2 2115   1.976   3.725   9.134 -0.4859 -0.2412 -0.4422
  136MPD2    C3 2116   2.028   3.612   9.073 -0.1385 -0.3710 -0.0587
  136MPD2    C4 2117   1.969   3.569   8.957  0.1632 -0.0490 -0.5245
  136MPD2    C5 2118   1.869   3.640   8.898  0.4475 -0.5000  0.2867
  136MPD2     H 2119   2.015   3.760   9.229 -2.6261 -1.1889  0.7861
  136MPD2    H1 2120   2.007   3.488   8.897  1.0124  0.0010 -0.0551
  136MPD2    H2 2121   1.714   3.771   8.917  0.7556 -0.4314 -3.0978
  136MPD2    H3 2122   1.834   3.607   8.800 -0.9386 -4.8683  2.2409
  136MPD2     N 2123   2.151   3.554   9.103  0.3434  0.1524  0.1978
  136MPD2    H5 2124   2.174   3.471   9.049  0.9666  0.2671  0.2847
  136MPD2    N1 2125   1.789   3.865   9.178  0.2606  0.5157 -0.1201
  136MPD2    H7 2126   1.832   3.889   9.266  0.1190  0.9844 -0.1764
  137TMC2    C1 2127   1.573   3.072   9.310 -0.3396 -0.1521  0.4342
  137TMC2    C2 2128   1.664   3.064   9.209 -0.4329 -0.0086  0.0862
  137TMC2    C3 2129   1.626   2.984   9.101  0.0011  0.4619 -0.0810
  137TMC2    C4 2130   1.458   3.002   9.306 -0.5515 -0.0292  0.0430
  137TMC2    C5 2131   1.426   2.925   9.200  0.5521  0.3973 -0.6115
  137TMC2    C6 2132   1.510   2.913   9.097 -0.0767  0.3005 -0.1919
  137TMC2     C 2133   1.590   3.165   9.424  0.0926 -0.1252  0.7472
  137TMC2     O 2134   1.494   3.206   9.486 -0.0660  0.2254  0.7105
  137TMC2     H 2135   1.753   3.125   9.214 -0.2554 -0.3260  0.7537
  137TMC2    H1 2136   1.395   3.006   9.394  1.6209 -0.9640  1.6473
  137TMC2    H2 2137   1.495   2.847   9.012  2.0750 -1.5322  0.8993
  137TMC2    C7 2138   1.329   2.821   9.220  0.7673 -0.8023 -0.1868
  137TMC2    C8 2139   1.743   2.951   9.017  0.4880  0.6563 -0.1101
  137TMC2    O1 2140   1.353   2.714   9.165 -0.2394  0.2481  0.6642
  137TMC2    O2 2141   1.854   2.966   9.055  0.4380 -0.1297 -0.1807
  137TMC2    O5 2142   1.707   2.977   8.892 -0.0483 -0.0155 -0.2330
  137TMC2    H5 2143   1.620   3.022   8.887 -0.6517 -1.0108  1.3900
  138MPD2     C 2144   1.897   3.224   9.615  0.1218  0.3237 -0.4996
  138MPD2    C1 2145   1.769   3.250   9.571 -0.7376  0.3986  0.2125
  138MPD2    C2 2146   1.689   3.342   9.640 -0.3331  0.5179 -0.2713
  138MPD2    C3 2147   1.747   3.417   9.738  0.2070 -0.4186 -0.1254
  138MPD2    C4 2148   1.881   3.402   9.765  0.2411  0.2234  0.3884
  138MPD2    C5 2149   1.954   3.301   9.714 -0.0791  0.0001  0.2035
  138MPD2     H 2150   1.585   3.355   9.611  0.3777  1.6949 -2.3258
  138MPD2    H1 2151   1.933   3.467   9.834  1.1110 -0.0254 -0.0286
  138MPD2    H2 2152   1.956   3.147   9.567  0.3267 -2.7100  4.5309
  138MPD2    H3 2153   2.058   3.285   9.736  0.1053  0.8268 -0.0578
  138MPD2     N 2154   1.678   3.516   9.810  0.1508  0.2375  0.0972
  138MPD2    H5 2155   1.578   3.504   9.800 -0.2239  1.5565  2.2578
  138MPD2    N1 2156   1.721   3.172   9.467 -0.2581  0.3493  0.0569
  138MPD2    H7 2157   1.795   3.127   9.414 -0.3906 -1.1831  1.1717
  139TMC2    C1 2158   2.925   1.355  13.681  0.6774  0.6254  0.0159
  139TMC2    C2 2159   3.061   1.386  13.681  0.3143 -0.0596 -0.6420
  139TMC2    C3 2160   3.088   1.524  13.697 -0.2729 -0.5655 -0.8649
  139TMC2    C4 2161   2.822   1.446  13.695  0.2503  0.7134 -0.1518
  139TMC2    C5 2162   2.863   1.574  13.708 -0.2539  0.2307  0.0274
  139TMC2    C6 2163   2.991   1.618  13.705  0.0208  0.1076 -0.2170
  139TMC2     C 2164   2.890   1.225  13.635 -0.5194 -0.6498 -0.1192
  139TMC2     O 2165   2.788   1.218  13.569  0.1584 -0.5882 -0.3221
  139TMC2     H 2166   3.140   1.315  13.660 -0.3182 -1.5968  2.2118
  139TMC2    H1 2167   2.721   1.411  13.680  0.0938  0.8411  0.6136
  139TMC2    H2 2168   3.012   1.719  13.740 -0.7878 -0.0373  0.7062
  139TMC2    C7 2169   2.758   1.666  13.669 -0.5236  0.0756 -0.9730
  139TMC2    C8 2170   3.217   1.554  13.754  0.0876  0.1666 -0.0761
  139TMC2    O1 2171   2.642   1.654  13.709  0.2972  0.3594  0.8022
  139TMC2    O2 2172   3.294   1.463  13.789  0.0645 -0.1920 -0.3300
  139TMC2    O5 2173   3.259   1.670  13.705 -0.4910 -0.0331  0.5481
  139TMC2    H5 2174   3.194   1.730  13.663  0.5850  1.1198  0.5154
  140MPD2     C 2175   3.027   0.894  13.760 -0.3586  0.0706 -0.1592
  140MPD2    C1 2176   2.954   0.985  13.680  0.1139 -0.1708 -0.6525
  140MPD2    C2 2177   2.846   0.930  13.609  0.5058 -0.2052 -0.2000
  140MPD2    C3 2178   2.814   0.795  13.617  0.3027 -0.3958  0.3441
  140MPD2    C4 2179   2.904   0.706  13.676  0.3566 -0.3808  0.7764
  140MPD2    C5 2180   3.007   0.758  13.755  0.4928 -0.2776 -0.4547
  140MPD2     H 2181   2.771   0.988  13.556 -0.0245 -1.2691 -0.6216
  140MPD2    H1 2182   2.890   0.599  13.687  2.6878 -0.6558  1.0829
  140MPD2    H2 2183   3.101   0.942  13.823  2.2282 -1.8157 -1.7636
  140MPD2    H3 2184   3.068   0.695  13.819 -2.6176 -2.5159  0.3471
  140MPD2     N 2185   2.689   0.762  13.557 -0.0367 -0.7364 -0.0979
  140MPD2    H5 2186   2.634   0.833  13.509  0.1955 -0.8789 -0.5712
  140MPD2    N1 2187   2.975   1.125  13.691 -0.4708  0.1310 -0.9614
  140MPD2    H7 2188   3.048   1.157  13.754 -1.0076 -0.1470 -0.1842
  141TMC2    C1 2189   2.871   3.113  13.674 -0.1062  0.2465 -0.0194
  141TMC2    C2 2190   2.752   3.050  13.683  0.2467 -0.2799 -0.0479
  141TMC2    C3 2191   2.706   3.016  13.805 -0.5656 -0.4085  0.6080
  141TMC2    C4 2192   2.942   3.157  13.786 -0.5984 -0.1890 -0.0980
  141TMC2    C5 2193   2.896   3.120  13.911 -0.8512 -0.0845 -0.3512
  141TMC2    C6 2194   2.777   3.049  13.921 -0.1923 -0.2988  1.1308
  141TMC2     C 2195   2.900   3.168  13.539 -0.5297  0.0785  0.6020
  141TMC2     O 2196   2.859   3.103  13.448 -0.0008 -0.5893 -0.8522
  141TMC2     H 2197   2.688   3.024  13.600 -0.6265 -2.9260  1.4405
  141TMC2    H1 2198   3.033   3.215  13.779 -0.1504 -0.7263  1.1917
  141TMC2    H2 2199   2.748   3.018  14.021  3.3827 -1.5623  1.7538
  141TMC2    C7 2200   2.987   3.140  14.019 -0.2269  0.5877 -0.2943
  141TMC2    C8 2201   2.583   2.949  13.803 -0.1162  0.1561 -0.1873
  141TMC2    O1 2202   3.108   3.141  13.990 -0.6482  0.2106 -0.2126
  141TMC2    O2 2203   2.551   2.887  13.702  0.7357  0.1802 -0.0117
  141TMC2    O5 2204   2.498   3.025  13.871 -0.7301  0.2308 -0.0851
  141TMC2    H5 2205   2.532   3.037  13.962  0.1961  0.0589 -0.4102
  142TMC2    C1 2206   0.646   1.491  10.194 -0.4850 -0.1661 -0.4019
  142TMC2    C2 2207   0.691   1.484  10.063 -0.0798 -0.2745  0.2514
  142TMC2    C3 2208   0.677   1.599   9.989  0.3909  0.2995  0.2670
  142TMC2    C4 2209   0.584   1.603  10.247 -0.2733 -0.4362  0.1218
  142TMC2    C5 2210   0.578   1.715  10.163  0.7118  0.1758  0.3933
  142TMC2    C6 2211   0.623   1.712  10.034  0.1826 -0.2433 -0.3261
  142TMC2     C 2212   0.642   1.364  10.261 -0.0017  0.3761 -0.3985
  142TMC2     O 2213   0.646   1.268  10.189 -0.3635 -0.2388  0.2926
  142TMC2     H 2214   0.739   1.395  10.025 -0.3982  0.3966 -1.6829
  142TMC2    H1 2215   0.540   1.611  10.346  0.4940  2.1043  0.2523
  142TMC2    H2 2216   0.622   1.805   9.978  1.0133 -0.1932 -0.2550
  142TMC2    C7 2217   0.559   1.842  10.238  0.3825 -0.3326 -0.2428
  142TMC2    C8 2218   0.755   1.602   9.870  0.0435  0.4663  0.0233
  142TMC2    O1 2219   0.549   1.835  10.359 -0.3354 -0.8064 -0.0749
  142TMC2    O2 2220   0.770   1.511   9.796 -0.2078  0.5598  0.2476
  142TMC2    O5 2221   0.842   1.697   9.897 -0.0012 -0.1471 -0.0495
  142TMC2    H5 2222   0.821   1.755   9.973 -1.1593 -1.5065  0.6884
  143MPD2     C 2223   0.588   1.084  10.683  0.6065 -0.3529 -0.4793
  143MPD2    C1 2224   0.581   1.044  10.552 -0.0088  0.2661 -0.0496
  143MPD2    C2 2225   0.597   1.137  10.454  0.2673  1.0786  0.1258
  143MPD2    C3 2226   0.610   1.272  10.488 -0.0673 -0.0501  0.2611
  143MPD2    C4 2227   0.619   1.310  10.621  0.0522  0.9410 -0.7963
  143MPD2    C5 2228   0.600   1.216  10.717  0.1742 -0.3774 -0.1269
  143MPD2     H 2229   0.612   1.107  10.351 -0.2838 -0.4113  0.4848
  143MPD2    H1 2230   0.643   1.412  10.648 -0.9461  0.0439  3.4868
  143MPD2    H2 2231   0.580   1.007  10.758  1.0664  2.0610  2.0673
  143MPD2    H3 2232   0.594   1.243  10.821  0.0232  0.5441 -0.3786
  143MPD2     N 2233   0.629   1.381  10.395  0.1085 -0.0639 -0.3456
  143MPD2    H5 2234   0.631   1.476  10.429 -1.5703 -0.0487 -0.3031
  143MPD2    N1 2235   0.562   0.907  10.526 -0.2532  0.1964  0.1983
  143MPD2    H7 2236   0.553   0.841  10.602 -0.6537  0.8153  0.6873
  144TMC2    C1 2237   3.900   0.840   0.759  0.4316  0.0829 -0.3627
  144TMC2    C2 2238   3.940   0.751   0.657  0.7816 -0.6542 -0.1833
  144TMC2    C3 2239   4.070   0.727   0.639 -0.7513 -0.2992 -0.7384
  144TMC2    C4 2240   3.993   0.895   0.842 -0.1481 -0.0096  0.6218
  144TMC2    C5 2241   4.129   0.873   0.818 -0.0079  0.1484 -0.7256
  144TMC2    C6 2242   4.167   0.788   0.714  0.6619 -0.5198  0.2373
  144TMC2     C 2243   3.762   0.866   0.774 -0.3155 -0.2812 -0.6113
  144TMC2     O 2244   3.688   0.788   0.718 -0.4807  0.8522  0.4925
  144TMC2     H 2245   3.865   0.717   0.586  1.8312  0.6649 -1.9109
  144TMC2    H1 2246   3.957   0.955   0.925  2.0511 -1.1796  2.4130
  144TMC2    H2 2247   4.270   0.769   0.685  0.5537  0.5848 -0.9209
  144TMC2    C7 2248   4.236   0.950   0.874 -0.2591 -0.1091 -0.0558
  144TMC2    C8 2249   4.107   0.678   0.507  0.3199 -0.0418 -0.1737
  144TMC2    O1 2250   4.351   0.904   0.866 -0.6306 -0.1928 -0.2166
  144TMC2    O2 2251   4.207   0.615   0.493 -0.0960 -0.0385  0.9967
  144TMC2    O5 2252   4.081   0.788   0.436  0.3131 -0.1622  0.1923
  144TMC2    H5 2253   4.034   0.866   0.471  0.9934  1.0765 -1.6379
  145MPD2     C 2254   3.350   1.116   0.958  0.6436 -0.7874 -0.1098
  145MPD2    C1 2255   3.360   1.019   0.853  0.2805 -0.0930 -0.1217
  145MPD2    C2 2256   3.484   0.975   0.821  0.0443  0.0353 -1.0666
  145MPD2    C3 2257   3.601   1.024   0.882  0.4556  0.8179 -0.6217
  145MPD2    C4 2258   3.595   1.123   0.976 -0.1863 -0.0382 -0.3047
  145MPD2    C5 2259   3.469   1.164   1.013 -0.3157 -0.6969 -0.7906
  145MPD2     H 2260   3.499   0.913   0.733  0.0802  0.0859 -1.0970
  145MPD2    H1 2261   3.681   1.157   1.032  1.2162 -1.0353 -1.8916
  145MPD2    H2 2262   3.258   1.154   1.002  0.3710 -1.2435 -0.2897
  145MPD2    H3 2263   3.456   1.222   1.104  0.4134 -1.5959 -0.1051
  145MPD2     N 2264   3.728   0.979   0.847  0.4870  0.1747 -1.4793
  145MPD2    H5 2265   3.808   1.026   0.889  0.3603 -1.7375  0.9303
  145MPD2    N1 2266   3.244   0.971   0.785 -0.3071  0.2920 -0.1985
  145MPD2    H7 2267   3.263   0.911   0.704  1.4900 -0.2405  0.6134
  146TMC2    C1 2268   0.260   3.793  12.604 -0.5765  0.0447  0.0823
  146TMC2    C2 2269   0.247   3.739  12.474  0.5026  0.7550 -0.0227
  146TMC2    C3 2270   0.345   3.653  12.420 -0.3104  0.1289 -0.2157
  146TMC2    C4 2271   0.377   3.762  12.672  0.0429  0.3881  0.1059
  146TMC2    C5 2272   0.482   3.698  12.604  0.3391  0.3637  0.6094
  146TMC2    C6 2273   0.466   3.639  12.478  0.5403  0.2305 -0.5060
  146TMC2     C 2274   0.167   3.889  12.657  0.0367 -0.3324 -0.1380
  146TMC2     O 2275   0.082   3.936  12.583 -0.3120  0.4597 -0.5305
  146TMC2     H 2276   0.154   3.751  12.420 -0.1198  1.3749  1.1915
  146TMC2    H1 2277   0.401   3.799  12.771 -1.5358 -4.1207  2.1884
  146TMC2    H2 2278   0.549   3.602  12.419 -0.9507 -2.0754 -1.1829
  146TMC2    C7 2279   0.612   3.682  12.672 -0.0221 -0.2514  0.2533
  146TMC2    C8 2280   0.334   3.624  12.284 -0.0951  0.2187  0.1107
  146TMC2    O1 2281   0.710   3.697  12.602 -0.4804 -0.2336 -0.0106
  146TMC2    O2 2282   0.428   3.625  12.208  0.1171  0.4099 -0.7475
  146TMC2    O5 2283   0.218   3.558  12.265  0.1650  0.1167 -0.2403
  146TMC2    H5 2284   0.176   3.539  12.352 -0.5495  1.9323 -0.2002
  147MPD2     C 2285   0.875   3.620  13.120  0.1980 -0.4380 -0.3084
  147MPD2    C1 2286   0.738   3.621  13.145 -0.6195 -0.3323  0.1738
  147MPD2    C2 2287   0.653   3.655  13.039  0.6203 -0.1965  0.5180
  147MPD2    C3 2288   0.700   3.669  12.911 -1.0708 -0.1302  0.6079
  147MPD2    C4 2289   0.837   3.660  12.884 -0.4011 -0.5360  0.1286
  147MPD2    C5 2290   0.919   3.646  12.992 -0.2498  0.0930 -0.5806
  147MPD2     H 2291   0.548   3.677  13.053  0.1815 -2.0372  0.1012
  147MPD2    H1 2292   0.878   3.668  12.784 -2.2082 -0.1502 -0.5974
  147MPD2    H2 2293   0.956   3.597  13.188 -0.8466 -2.0107  0.3997
  147MPD2    H3 2294   1.025   3.646  12.966  0.7405  1.4007  3.4214
  147MPD2     N 2295   0.598   3.670  12.810 -0.2463  0.0367 -0.1632
  147MPD2    H5 2296   0.507   3.656  12.852 -0.6465 -0.2945 -1.1280
  147MPD2    N1 2297   0.693   3.588  13.277 -0.1164 -0.0658  0.0466
  147MPD2    H7 2298   0.768   3.583  13.345 -0.5166  1.5567  0.5972
  148TMC2    C1 2299   0.097   2.863  10.894 -0.2593  0.2161  0.5079
  148TMC2    C2 2300   0.206   2.931  10.857  0.2867  0.0545  0.0149
  148TMC2    C3 2301   0.325   2.908  10.910  0.1189  0.3082  0.1227
  148TMC2    C4 2302   0.107   2.759  10.983 -0.6896 -0.1739 -0.2069
  148TMC2    C5 2303   0.227   2.748  11.046 -1.4156  0.0397 -0.2795
  148TMC2    C6 2304   0.335   2.822  11.012 -0.2055  0.0861  0.1042
  148TMC2     C 2305   4.719   2.873  10.813  0.1679 -0.1230 -0.2314
  148TMC2     O 2306   4.678   2.977  10.766 -0.8159  0.2150 -0.3070
  148TMC2     H 2307   0.194   3.011  10.784 -0.8935  0.1409  0.3121
  148TMC2    H1 2308   0.024   2.699  11.017  0.5483 -0.0535  3.0116
  148TMC2    H2 2309   0.426   2.816  11.070  0.0310  0.8667 -0.1886
  148TMC2    C7 2310   0.258   2.633  11.128 -0.4108  0.4783  0.5236
  148TMC2    C8 2311   0.430   3.002  10.887 -0.0926 -1.0661  0.4901
  148TMC2    O1 2312   0.365   2.578  11.097  0.2243 -0.4187 -1.2396
  148TMC2    O2 2313   0.402   3.109  10.841  0.0268 -0.7224 -0.3384
  148TMC2    O5 2314   0.551   2.951  10.926 -0.1454 -0.4308  0.0185
  148TMC2    H5 2315   0.563   2.854  10.935 -1.6431 -0.5661  0.6012
  149MPD2     C 2316   4.449   2.823  10.702  0.1208 -0.3215  0.5226
  149MPD2    C1 2317   4.531   2.717  10.746  0.8005 -0.2121 -0.3511
  149MPD2    C2 2318   4.482   2.584  10.752  0.4644 -0.0117 -0.2382
  149MPD2    C3 2319   4.356   2.550  10.695  0.0496  0.7938  0.0287
  149MPD2    C4 2320   4.278   2.655  10.649 -0.0137  0.8104  0.3129
  149MPD2    C5 2321   4.327   2.788  10.655  0.1257  0.6237  0.1006
  149MPD2     H 2322   4.552   2.504  10.777  0.6446  0.1163 -0.3355
  149MPD2    H1 2323   4.177   2.640  10.613 -0.1378 -2.2960  1.9341
  149MPD2    H2 2324   4.476   2.927  10.691  0.8804 -0.9865 -4.1437
  149MPD2    H3 2325   4.265   2.864  10.608 -1.1287 -0.2427  0.3499
  149MPD2     N 2326   4.293   2.425  10.694 -0.3265  0.1285 -0.0130
  149MPD2    H5 2327   4.206   2.420  10.643 -0.2130 -0.0094 -0.1943
  149MPD2    N1 2328   4.659   2.745  10.802 -0.2688  0.6377 -0.3367
  149MPD2    H7 2329   4.709   2.662  10.831  0.4245  0.4183 -2.1893
  150TMC2    C1 2330   1.588   2.376  11.952 -0.4579  0.2018  0.0023
  150TMC2    C2 2331   1.567   2.416  11.817 -0.5144  0.4270  0.0871
  150TMC2    C3 2332   1.649   2.515  11.764  0.6863 -0.1556 -0.2006
  150TMC2    C4 2333   1.707   2.418  12.009 -0.8797 -0.7941  0.3287
  150TMC2    C5 2334   1.787   2.510  11.949  0.7041 -0.5119 -0.5425
  150TMC2    C6 2335   1.751   2.563  11.831 -0.0732 -0.0743 -0.2749
  150TMC2     C 2336   1.478   2.340  12.031 -0.6282 -0.1678  0.1509
  150TMC2     O 2337   1.483   2.372  12.147 -0.0090 -0.3438  0.1221
  150TMC2     H 2338   1.476   2.387  11.765 -0.7359  0.0723  0.6713
  150TMC2    H1 2339   1.716   2.396  12.115  0.4949  1.2565  0.6352
  150TMC2    H2 2340   1.801   2.655  11.803 -0.0719 -0.4631 -1.5483
  150TMC2    C7 2341   1.916   2.538  12.010  0.5242  0.5888 -0.2398
  150TMC2    C8 2342   1.594   2.583  11.651  0.4633  0.6377 -0.9568
  150TMC2    O1 2343   1.977   2.639  11.989 -0.1044  0.2679 -0.2137
  150TMC2    O2 2344   1.479   2.560  11.620  0.3066 -0.7148  0.0200
  150TMC2    O5 2345   1.690   2.619  11.562  0.1030  0.2230 -0.0520
  150TMC2    H5 2346   1.785   2.607  11.584  0.0018 -0.0975  0.2119
  151MPD2     C 2347   1.085   2.023  12.136 -0.1264  0.1570  0.3862
  151MPD2    C1 2348   1.149   1.977  12.023  0.2083  0.2685  0.0494
  151MPD2    C2 2349   1.257   2.051  11.969 -0.0791 -0.4634  0.2701
  151MPD2    C3 2350   1.298   2.163  12.025  0.2812 -0.2886 -0.8176
  151MPD2    C4 2351   1.232   2.213  12.130  0.4962 -0.2304  0.1071
  151MPD2    C5 2352   1.124   2.143  12.186 -0.2388 -0.5668 -0.0248
  151MPD2     H 2353   1.322   2.007  11.894  1.0823  2.6936 -0.5762
  151MPD2    H1 2354   1.254   2.307  12.179 -2.0658  1.2960 -1.7242
  151MPD2    H2 2355   1.011   1.969  12.194  0.9656 -1.6017  0.1419
  151MPD2    H3 2356   1.070   2.172  12.276  1.1363 -1.4522  1.0944
  151MPD2     N 2357   1.401   2.241  11.965 -0.1563 -0.5292 -0.0136
  151MPD2    H5 2358   1.432   2.213  11.872 -0.3167  3.0593 -1.1377
  151MPD2    N1 2359   1.113   1.848  11.978  0.1336  0.4953  0.6266
  151MPD2    H7 2360   1.047   1.797  12.036  0.6232 -0.2514  0.5236
  152TMC2    C1 2361   1.812   1.937  12.756 -0.4115 -0.0258  0.0324
  152TMC2    C2 2362   1.886   1.855  12.841 -0.2476  0.1011  0.1275
  152TMC2    C3 2363   2.018   1.891  12.876  0.2596  0.6362  0.1517
  152TMC2    C4 2364   1.862   2.055  12.709  0.2955 -0.0176  0.1879
  152TMC2    C5 2365   1.997   2.083  12.739  0.5745 -0.8168 -0.2969
  152TMC2    C6 2366   2.070   2.000  12.816  0.0396  0.5726  0.3650
  152TMC2     C 2367   1.677   1.906  12.735  0.0022  0.2981 -0.5538
  152TMC2     O 2368   1.625   1.971  12.645 -0.2066  0.8844 -0.1609
  152TMC2     H 2369   1.852   1.755  12.863  1.9687  0.2932  4.4639
  152TMC2    H1 2370   1.799   2.123  12.653  1.1373  1.6969  1.3236
  152TMC2    H2 2371   2.164   2.032  12.859 -0.9242  3.4407  0.3762
  152TMC2    C7 2372   2.051   2.215  12.700  0.5504  0.4329 -0.1512
  152TMC2    C8 2373   2.110   1.792  12.933 -0.2245  0.2807  0.1152
  152TMC2    O1 2374   1.969   2.280  12.638  0.7829  0.9051 -0.4245
  152TMC2    O2 2375   2.222   1.769  12.894  0.2858  0.3953 -0.4619
  152TMC2    O5 2376   2.046   1.725  13.033  0.2638 -0.3683 -0.8100
  152TMC2    H5 2377   1.957   1.762  13.054  0.7187  0.0818  0.3624
  153MPD2     C 2378   1.457   1.698  12.946 -0.4191 -0.8683  0.4421
  153MPD2    C1 2379   1.484   1.796  12.850 -0.3026 -0.9937  0.1664
  153MPD2    C2 2380   1.373   1.875  12.802 -0.0166 -0.1310 -0.6460
  153MPD2    C3 2381   1.243   1.845  12.845  0.2794 -0.6280 -0.1740
  153MPD2    C4 2382   1.218   1.756  12.946 -0.2010  0.4450  0.0839
  153MPD2    C5 2383   1.329   1.688  12.995 -0.7221 -0.6390  0.0733
  153MPD2     H 2384   1.398   1.955  12.732  0.3464  1.8069  1.7109
  153MPD2    H1 2385   1.128   1.734  13.002 -0.6749  0.2659 -0.7420
  153MPD2    H2 2386   1.538   1.644  12.993 -0.0744 -0.9179 -0.2183
  153MPD2    H3 2387   1.312   1.633  13.087  1.5116  0.9235  1.4131
  153MPD2     N 2388   1.140   1.933  12.793  0.7456 -0.3258 -0.1136
  153MPD2    H5 2389   1.164   1.997  12.719 -1.1304  0.7887  0.2544
  153MPD2    N1 2390   1.622   1.823  12.828 -0.0023  0.1380  0.1705
  153MPD2    H7 2391   1.696   1.781  12.884 -0.0674  2.5554  2.0448
  154TMC2    C1 2392   3.459   1.997   0.089 -0.1026  0.1166  0.4567
  154TMC2    C2 2393   3.544   1.939   0.182 -0.3983 -0.3587 -0.0838
  154TMC2    C3 2394   3.596   1.816   0.154  0.2057 -0.6538 -0.3365
  154TMC2    C4 2395   3.425   1.932  17.739 -0.4607  0.1658 -0.0624
  154TMC2    C5 2396   3.472   1.808  17.721  0.5619  0.3614 -0.0816
  154TMC2    C6 2397   3.564   1.747   0.039 -0.0782 -0.2207  0.3192
  154TMC2     C 2398   3.369   2.092   0.159 -0.0203 -0.4337 -0.0364
  154TMC2     O 2399   3.390   2.125   0.274  0.0234 -0.0813 -0.1056
  154TMC2     H 2400   3.570   1.985   0.276 -0.6715 -1.0578  0.3326
  154TMC2    H1 2401   3.360   1.969  17.661  1.2199 -0.4036 -1.7357
  154TMC2    H2 2402   3.594   1.644   0.022 -0.7659 -0.4859  0.7244
  154TMC2    C7 2403   3.467   1.763  17.584  0.1725 -0.0029 -0.0385
  154TMC2    C8 2404   3.709   1.771   0.228  0.3273  0.1827  0.6742
  154TMC2    O1 2405   3.361   1.781  17.524  0.1897  0.3733 -0.2817
  154TMC2    O2 2406   3.770   1.851   0.296  0.6823  0.7642 -0.6104
  154TMC2    O5 2407   3.677   1.642   0.253 -0.3109 -0.4227 -0.6917
  154TMC2    H5 2408   3.597   1.605   0.209 -0.0688 -2.6085  0.6983
  155MPD2     C 2409   3.051   2.223   0.028 -0.1779 -0.0670 -0.4117
  155MPD2    C1 2410   3.152   2.206   0.119 -0.1261 -0.4954  0.3761
  155MPD2    C2 2411   3.154   2.285   0.238 -0.6866  1.0081 -0.8668
  155MPD2    C3 2412   3.046   2.370   0.263  0.4634  0.5780 -0.2010
  155MPD2    C4 2413   2.945   2.382   0.165  0.2770  0.0529 -0.8659
  155MPD2    C5 2414   2.947   2.304   0.051 -0.5202 -0.7538  0.7091
  155MPD2     H 2415   3.241   2.279   0.302 -0.2570 -0.8757 -1.6138
  155MPD2    H1 2416   2.860   2.447   0.183 -0.3129 -0.7161 -0.9175
  155MPD2    H2 2417   3.032   2.157  17.709 -1.5873 -1.3954  0.9556
  155MPD2    H3 2418   2.871   2.303  17.739  2.4139 -0.9039 -2.2029
  155MPD2     N 2419   3.048   2.445   0.383 -0.1911  0.0105  0.3018
  155MPD2    H5 2420   3.131   2.442   0.443  0.8981 -0.0679 -1.2138
  155MPD2    N1 2421   3.260   2.115   0.082 -0.8785  0.8679  0.6449
  155MPD2    H7 2422   3.259   2.065  17.759  1.0317 -0.2641  1.2726
  156TMC2    C1 2423   1.738   4.324  11.718  0.4847  1.1163 -0.3683
  156TMC2    C2 2424   1.630   4.243  11.698  0.1955  0.1202  0.1845
  156TMC2    C3 2425   1.562   4.269  11.583  0.0217  0.3412  0.0518
  156TMC2    C4 2426   1.783   4.416  11.631 -0.7634 -0.4683 -0.5791
  156TMC2    C5 2427   1.702   4.448  11.527  0.7943 -0.0151  0.5478
  156TMC2    C6 2428   1.596   4.369  11.501 -0.3601 -0.0054 -0.5039
  156TMC2     C 2429   1.806   4.320  11.845  0.6988 -0.3159  0.8644
  156TMC2     O 2430   1.834   4.426  11.902  0.0547 -0.4719  0.4710
  156TMC2     H 2431   1.601   4.169  11.771 -0.0601 -0.8615 -0.9201
  156TMC2    H1 2432   1.869   4.473  11.664  0.0326 -1.0076 -1.7380
  156TMC2    H2 2433   1.522   4.399  11.427 -0.7082  0.8829  0.2055
  156TMC2    C7 2434   1.747   4.552  11.440 -0.6508  0.2354 -0.2818
  156TMC2    C8 2435   1.427   4.218  11.567 -0.0610 -0.5594 -0.2877
  156TMC2    O1 2436   1.840   4.625  11.476 -0.1373  0.3557 -0.6879
  156TMC2    O2 2437   1.332   4.291  11.553 -0.1958  0.4076 -0.8933
  156TMC2    O5 2438   1.413   4.101  11.630  0.0750 -0.2174 -0.3906
  156TMC2    H5 2439   1.498   4.053  11.615  1.3045  1.7505  0.3675
  157MPD2     C 2440   1.869   4.020  12.041 -0.0665  0.3053  0.0729
  157MPD2    C1 2441   1.876   4.154  12.007  0.3071  0.2103  0.1204
  157MPD2    C2 2442   1.953   4.237  12.089 -0.7758  0.1631  0.0382
  157MPD2    C3 2443   2.018   4.189  12.200  0.4065 -0.1624 -0.4483
  157MPD2    C4 2444   2.016   4.050  12.232  0.6880  0.2906  0.6526
  157MPD2    C5 2445   1.932   3.972  12.155 -0.2553  0.6234 -0.4431
  157MPD2     H 2446   1.949   4.344  12.073  1.0656  0.2661  0.3117
  157MPD2    H1 2447   2.080   4.004  12.306 -0.9174 -1.2995  1.0394
  157MPD2    H2 2448   1.808   3.947  11.989  1.0221  0.2462 -1.1295
  157MPD2    H3 2449   1.924   3.865  12.169 -0.3245  0.3826 -2.3332
  157MPD2     N 2450   2.103   4.281  12.264  0.4392 -0.2195 -0.7630
  157MPD2    H5 2451   2.107   4.373  12.221  1.3010  1.1714  2.2760
  157MPD2    N1 2452   1.797   4.195  11.898  0.6334 -0.0745  0.4378
  157MPD2    H7 2453   1.745   4.119  11.855 -2.2798  1.0989  1.9061
  158TMC2    C1 2454   2.696   2.871  13.322  0.1817  0.3420  0.0476
  158TMC2    C2 2455   2.732   2.912  13.203 -0.3185  0.5461 -0.0673
  158TMC2    C3 2456   2.634   2.975  13.131  0.7388  0.5443 -0.5793
  158TMC2    C4 2457   2.577   2.871  13.372 -0.6229 -0.6722  0.2518
  158TMC2    C5 2458   2.485   2.941  13.306 -0.1806  0.1615 -0.0379
  158TMC2    C6 2459   2.514   2.994  13.184  0.0409  0.1775  0.4058
  158TMC2     C 2460   2.784   2.786  13.398 -0.0192 -0.4030  0.8759
  158TMC2     O 2461   2.895   2.764  13.344  0.0748  0.2038 -0.5088
  158TMC2     H 2462   2.835   2.898  13.171 -0.2892  2.9652 -1.0005
  158TMC2    H1 2463   2.550   2.828  13.468 -0.5350 -0.3903  0.4025
  158TMC2    H2 2464   2.438   3.060  13.141  0.9796 -0.9257 -2.9766
  158TMC2    C7 2465   2.344   2.917  13.328 -0.1525  0.1316 -0.1850
  158TMC2    C8 2466   2.672   3.087  13.051 -0.3002 -0.3591  0.2171
  158TMC2    O1 2467   2.263   3.004  13.307  0.0254 -0.2812 -0.6169
  158TMC2    O2 2468   2.598   3.181  13.053  0.4352 -0.1276  0.4035
  158TMC2    O5 2469   2.743   3.052  12.942 -0.3431 -0.6410  0.0669
  158TMC2    H5 2470   2.769   2.957  12.935 -0.5486 -0.6203 -1.0500
  159MPD2     C 2471   2.935   2.474  13.786 -0.4486  0.0050 -0.2115
  159MPD2    C1 2472   2.830   2.549  13.824  0.0309 -0.1919 -0.4065
  159MPD2    C2 2473   2.781   2.645  13.734 -0.3121 -0.5056 -0.0567
  159MPD2    C3 2474   2.823   2.654  13.603  0.2512 -0.4033  1.3571
  159MPD2    C4 2475   2.925   2.577  13.565 -0.9069  0.5152  0.1601
  159MPD2    C5 2476   2.976   2.488  13.654  0.3480 -0.3229  0.2065
  159MPD2     H 2477   2.693   2.703  13.759  1.0196  2.0659 -1.3206
  159MPD2    H1 2478   2.951   2.572  13.460  1.6389 -0.4573  0.8408
  159MPD2    H2 2479   2.978   2.398  13.849 -0.3116 -0.8292 -1.2968
  159MPD2    H3 2480   3.050   2.415  13.622  0.0079 -0.6552  0.1709
  159MPD2     N 2481   2.749   2.749  13.523  0.4113 -0.5731  0.5615
  159MPD2    H5 2482   2.681   2.803  13.576  0.1750  2.1431 -2.5210
  159MPD2    N1 2483   2.776   2.523  13.951  0.0761 -0.6966  0.0936
  159MPD2    H7 2484   2.806   2.442  14.003 -0.0316  1.0305  2.8503
  160TMC2    C1 2485   2.328   1.521   1.423 -0.1666 -0.0586 -0.2758
  160TMC2    C2 2486   2.369   1.435   1.528 -0.6515  0.1487  0.2518
  160TMC2    C3 2487   2.501   1.398   1.527  0.2674  0.0029  0.0246
  160TMC2    C4 2488   2.412   1.567   1.331  0.5598  0.8051 -0.2976
  160TMC2    C5 2489   2.544   1.523   1.343 -0.6352  0.9010 -0.1960
  160TMC2    C6 2490   2.588   1.436   1.431 -0.0779 -0.1831 -0.1735
  160TMC2     C 2491   2.180   1.529   1.407 -0.1883 -0.1017  0.7946
  160TMC2     O 2492   2.114   1.440   1.460 -0.7691 -0.1070  0.5028
  160TMC2     H 2493   2.302   1.394   1.603 -1.0331  1.5941  0.7070
  160TMC2    H1 2494   2.370   1.626   1.249 -1.8981  1.0803  1.1467
  160TMC2    H2 2495   2.696   1.429   1.440 -0.2471 -2.8374 -0.3534
  160TMC2    C7 2496   2.631   1.556   1.238 -0.1968  0.2041  0.6467
  160TMC2    C8 2497   2.544   1.311   1.637 -0.0024 -0.1932 -0.9786
  160TMC2    O1 2498   2.715   1.469   1.215  0.2178 -0.1014 -0.6277
  160TMC2    O2 2499   2.487   1.293   1.744  0.5607  0.3148 -0.1444
  160TMC2    O5 2500   2.668   1.277   1.612  0.2750  0.0816 -0.3039
  160TMC2    H5 2501   2.673   1.251   1.517  1.4812  0.7907 -0.4317
  161MPD2     C 2502   1.920   1.536   1.250  0.2603 -0.2535  0.8369
  161MPD2    C1 2503   2.016   1.637   1.253  0.3224 -0.3656 -0.1829
  161MPD2    C2 2504   1.986   1.756   1.202 -0.1541 -0.5320  0.5494
  161MPD2    C3 2505   1.868   1.786   1.139 -0.0891  1.3671  0.2184
  161MPD2    C4 2506   1.774   1.684   1.146  0.2677 -0.3504 -0.5341
  161MPD2    C5 2507   1.800   1.560   1.196 -0.7193 -0.2509  0.5369
  161MPD2     H 2508   2.072   1.822   1.202 -0.4099 -0.2064 -0.8598
  161MPD2    H1 2509   1.676   1.699   1.103 -0.2278 -0.1858  0.6314
  161MPD2    H2 2510   1.953   1.441   1.290 -1.9684 -1.2121  0.3889
  161MPD2    H3 2511   1.715   1.493   1.196  1.1387 -2.6142 -0.8545
  161MPD2     N 2512   1.831   1.908   1.082  0.0394 -0.4625  0.1473
  161MPD2    H5 2513   1.737   1.908   1.044 -0.4488  0.3798  1.3905
  161MPD2    N1 2514   2.141   1.626   1.317 -0.2779 -0.3698 -1.4001
  161MPD2    H7 2515   2.209   1.697   1.294 -0.5464  0.7112  1.1459
  162TMC2    C1 2516   0.087   3.962   0.861  0.3342  0.4223  0.1718
  162TMC2    C2 2517   0.019   4.035   0.952  0.2614 -0.3200  0.0893
  162TMC2    C3 2518   0.092   4.109   1.040  0.1356 -0.2843  0.4000
  162TMC2    C4 2519   0.221   3.944   0.875 -0.3168 -0.1310 -0.9607
  162TMC2    C5 2520   0.291   4.022   0.963  0.5139 -0.0506  0.4734
  162TMC2    C6 2521   0.228   4.117   1.035 -0.6278  0.4854 -0.5513
  162TMC2     C 2522   0.011   3.862   0.784  0.0326  0.1882  0.4146
  162TMC2     O 2523   0.078   3.782   0.725 -0.3009 -0.3124  0.3553
  162TMC2     H 2524   4.653   4.033   0.960  0.3239  0.4965  1.1169
  162TMC2    H1 2525   0.275   3.882   0.804 -2.1464 -0.0344 -2.4237
  162TMC2    H2 2526   0.276   4.178   1.110 -2.9071  0.6522  0.7826
  162TMC2    C7 2527   0.429   4.007   0.991 -0.7446  0.2420  0.0957
  162TMC2    C8 2528   0.009   4.195   1.126  0.4601  0.6232  0.1430
  162TMC2    O1 2529   0.498   4.100   1.036  0.0153 -0.5525 -0.5061
  162TMC2    O2 2530   4.656   4.145   1.186  0.0138  0.3473 -0.5073
  162TMC2    O5 2531   0.010   4.314   1.063 -0.6210  0.0403 -0.3222
  162TMC2    H5 2532   0.097   4.325   1.019 -1.3760  1.1294 -1.5201
  163MPD2     C 2533   4.342   3.694   0.537 -0.8083  0.0074 -0.0144
  163MPD2    C1 2534   4.465   3.633   0.551 -0.1781 -0.4386  0.3176
  163MPD2    C2 2535   4.562   3.689   0.628  0.1027  0.6375 -0.1445
  163MPD2    C3 2536   4.530   3.806   0.696  0.4621  0.4023 -0.1204
  163MPD2    C4 2537   4.405   3.865   0.691 -0.7459  0.1138 -0.2938
  163MPD2    C5 2538   4.320   3.817   0.598 -0.5161 -0.2644 -0.2087
  163MPD2     H 2539   4.665   3.654   0.629 -0.3539 -0.6853 -0.3182
  163MPD2    H1 2540   4.382   3.955   0.747 -0.1843  1.3502 -2.0287
  163MPD2    H2 2541   4.269   3.664   0.463  0.2323 -1.7273 -0.3368
  163MPD2    H3 2542   4.221   3.858   0.584 -0.1552  0.2894 -1.1471
  163MPD2     N 2543   4.620   3.885   0.774  0.4549 -0.2447  0.1010
  163MPD2    H5 2544   4.587   3.972   0.813 -1.2492 -0.7710 -0.1848
  163MPD2    N1 2545   4.480   3.511   0.472  0.1273  0.3338  0.1834
  163MPD2    H7 2546   4.417   3.490   0.395 -1.0510 -1.0797  1.5045
  164TMC2    C1 2547   0.377   2.553  11.616  0.3873  0.2139 -0.3244
  164TMC2    C2 2548   0.475   2.609  11.538 -0.4052  0.4063  0.0350
  164TMC2    C3 2549   0.463   2.739  11.499 -0.2377 -0.7626  0.0550
  164TMC2    C4 2550   0.278   2.632  11.657  0.2065  0.1345 -0.3607
  164TMC2    C5 2551   0.265   2.763  11.616 -0.3987  0.2473 -0.4025
  164TMC2    C6 2552   0.358   2.818  11.531 -0.0667 -0.1917 -0.1757
  164TMC2     C 2553   0.366   2.410  11.644 -0.1484 -0.2432 -0.3465
  164TMC2     O 2554   0.302   2.373  11.739  0.3761 -0.1700  0.2158
  164TMC2     H 2555   0.560   2.548  11.511 -0.7307  0.0701 -0.2300
  164TMC2    H1 2556   0.197   2.582  11.709  0.1824  2.4594  1.8459
  164TMC2    H2 2557   0.360   2.922  11.500 -1.3713 -0.4624 -1.1772
  164TMC2    C7 2558   0.138   2.835  11.621  0.2016 -0.5200  0.9103
  164TMC2    C8 2559   0.557   2.787  11.397  0.5443 -0.2145 -0.4824
  164TMC2    O1 2560   0.104   2.910  11.534 -0.7157  0.4310  0.2842
  164TMC2    O2 2561   0.554   2.903  11.377 -0.1334 -0.1617  0.5717
  164TMC2    O5 2562   0.594   2.697  11.308  1.2100  0.5168 -0.0066
  164TMC2    H5 2563   0.542   2.614  11.307  0.8077  0.7636  3.0797
  165TMC2    C1 2564   1.469   0.661   0.987  0.7193 -0.1182 -0.5028
  165TMC2    C2 2565   1.490   0.529   0.989  0.3713  0.5068 -0.7294
  165TMC2    C3 2566   1.604   0.486   0.922  0.0429 -0.2575 -0.2840
  165TMC2    C4 2567   1.563   0.754   0.949  0.5279 -0.4214 -0.1074
  165TMC2    C5 2568   1.686   0.712   0.904  0.8203 -0.1985 -0.9380
  165TMC2    C6 2569   1.703   0.577   0.893 -0.6330  0.6212 -0.1048
  165TMC2     C 2570   1.355   0.713   1.062 -0.1639 -0.1165  0.0631
  165TMC2     O 2571   1.340   0.836   1.078  0.6996 -0.1626 -0.7102
  165TMC2     H 2572   1.420   0.450   1.015  1.0904  0.1919  0.2630
  165TMC2    H1 2573   1.543   0.861   0.945  1.7666 -0.1591  1.1161
  165TMC2    H2 2574   1.796   0.531   0.862 -0.5106 -0.0385  1.2412
  165TMC2    C7 2575   1.810   0.785   0.927 -0.2896 -0.2762  0.3076
  165TMC2    C8 2576   1.631   0.343   0.942  0.2157 -0.2254 -1.0980
  165TMC2    O1 2577   1.917   0.725   0.899  0.3026  1.0372 -0.4648
  165TMC2    O2 2578   1.538   0.261   0.926 -0.7830  0.0340  0.2349
  165TMC2    O5 2579   1.686   0.357   1.058  0.4340 -0.8549 -0.2827
  165TMC2    H5 2580   1.745   0.435   1.061  0.3621 -0.8218  0.4007
  166MPD2     C 2581   1.012   0.583   1.407 -0.8770  0.4776 -0.6746
  166MPD2    C1 2582   1.090   0.696   1.400 -0.2459  0.2491 -0.0934
  166MPD2    C2 2583   1.161   0.716   1.281 -0.2798 -0.8368 -0.8571
  166MPD2    C3 2584   1.164   0.617   1.182  0.0804  0.7570  0.6217
  166MPD2    C4 2585   1.079   0.508   1.190  0.4717  0.2473 -0.4351
  166MPD2    C5 2586   1.010   0.488   1.304  0.1687  0.0003 -0.3579
  166MPD2     H 2587   1.224   0.804   1.278 -0.8618 -0.3104  2.9492
  166MPD2    H1 2588   1.073   0.436   1.109 -1.8719 -0.2843  0.2136
  166MPD2    H2 2589   0.948   0.565   1.492  0.7354 -0.2540  0.4019
  166MPD2    H3 2590   0.950   0.398   1.316 -0.9949  0.2926 -4.1090
  166MPD2     N 2591   1.257   0.619   1.073 -0.1597 -0.1897 -0.3220
  166MPD2    H5 2592   1.266   0.542   1.007 -0.0233  0.3419 -0.9338
  166MPD2    N1 2593   1.094   0.785   1.506  0.3978 -0.3074 -0.4628
  166MPD2    H7 2594   1.053   0.750   1.592  0.1753  2.6986  0.6527
  167TMC2    C1 2595   4.453   2.825  13.529  0.1673 -0.3131 -0.1301
  167TMC2    C2 2596   4.344   2.897  13.574 -0.2800  0.1384 -0.3008
  167TMC2    C3 2597   4.229   2.836  13.548  0.5960  0.8592  0.4393
  167TMC2    C4 2598   4.457   2.722  13.442  0.0767  0.4715  0.5816
  167TMC2    C5 2599   4.329   2.673  13.415  0.6391 -0.4811 -1.2173
  167TMC2    C6 2600   4.220   2.726  13.464 -0.2798 -0.3840  0.0783
  167TMC2     C 2601   4.570   2.902  13.541 -0.6481  0.7128 -0.6597
  167TMC2     O 2602   4.591   2.953  13.653  0.3337  0.5150 -0.6206
  167TMC2     H 2603   4.355   2.988  13.633  1.4472 -0.7468  0.7402
  167TMC2    H1 2604   4.552   2.676  13.416  1.4172  2.3022  2.2149
  167TMC2    H2 2605   4.125   2.675  13.452 -0.6239  0.1160  0.6275
  167TMC2    C7 2606   4.329   2.541  13.358  0.1808  0.4414  0.0682
  167TMC2    C8 2607   4.108   2.914  13.566  0.3011 -0.1602  0.8317
  167TMC2    O1 2608   4.265   2.462  13.426  0.4265 -0.2477  0.3741
  167TMC2    O2 2609   4.026   2.932  13.484 -0.9568 -0.4569  0.3843
  167TMC2    O5 2610   4.111   2.958  13.696 -0.0880  0.2661 -0.5143
  167TMC2    H5 2611   4.173   2.907  13.752 -0.8564 -0.2150 -0.0936
  168MPD2     C 2612   0.062   3.079  13.485  0.8180 -0.0182  0.3930
  168MPD2    C1 2613   4.737   2.997  13.395 -0.5032 -0.1622  0.1582
  168MPD2    C2 2614   0.055   2.986  13.267  0.3372  0.9478 -0.5577
  168MPD2    C3 2615   0.158   3.070  13.228 -0.0121  0.1369 -0.2904
  168MPD2    C4 2616   0.214   3.156  13.320  0.1606  0.6174 -0.3058
  168MPD2    C5 2617   0.175   3.154  13.448  0.2840 -0.1714 -0.8790
  168MPD2     H 2618   0.009   2.911  13.204 -1.7860 -0.3795  2.6145
  168MPD2    H1 2619   0.305   3.209  13.293 -0.6493  1.8290 -0.6232
  168MPD2    H2 2620   0.041   3.070  13.591  1.8910  1.3148  0.7216
  168MPD2    H3 2621   0.236   3.206  13.520  0.3522  0.3962 -1.3486
  168MPD2     N 2622   0.207   3.074  13.095  0.0069  0.0708 -0.1575
  168MPD2    H5 2623   0.290   3.129  13.077  0.7992 -0.7157  1.1417
  168MPD2    N1 2624   4.639   2.906  13.423 -0.2610  0.0037  0.1597
  168MPD2    H7 2625   4.611   2.846  13.346 -0.9000  1.2909 -0.6130
  169MPD1     C 2626   0.325   2.216   9.589  0.2498  0.2244  0.4376
  169MPD1    C1 2627   0.397   2.099   9.596 -0.0688 -0.2880  0.4498
  169MPD1    C2 2628   0.515   2.107   9.669  0.3434  0.1597  0.3302
  169MPD1    C3 2629   0.545   2.212   9.746 -0.3261 -0.1016  0.0380
  169MPD1    C4 2630   0.469   2.325   9.747  0.8811  0.0823 -0.2481
  169MPD1    C5 2631   0.355   2.325   9.668  0.1320 -0.2926  0.2682
  169MPD1     H 2632   0.583   2.023   9.661  0.3078  0.5749 -4.3280
  169MPD1    H1 2633   0.491   2.411   9.810 -1.1451 -0.4158  1.1420
  169MPD1    H2 2634   0.227   2.218   9.544  0.3899  0.0485  0.1251
  169MPD1    H3 2635   0.289   2.412   9.671 -0.1316 -0.4539 -0.9338
  169MPD1     N 2636   0.671   2.200   9.809  0.4054 -0.2307  0.1201
  169MPD1    H5 2637   0.707   2.107   9.795  0.6789 -0.2252  0.7877
  169MPD1    N1 2638   0.369   1.997   9.506 -0.5034 -0.4644  0.3125
  169MPD1    H6 2639   0.269   1.980   9.505 -0.6835  0.5572  0.8579
  169MPD1    H7 2640   0.410   1.908   9.534  1.1615  0.9077  2.2452
  170MPD1     C 2641   0.958   0.148  12.935 -0.0076 -0.0192 -0.1213
  170MPD1    C1 2642   0.853   0.079  12.994  0.3532 -0.2945 -0.5422
  170MPD1    C2 2643   0.821   0.094  13.130  0.8351 -0.5142  0.2293
  170MPD1    C3 2644   0.892   0.186  13.202  0.3054  0.7332 -0.2308
  170MPD1    C4 2645   1.004   0.244  13.149 -0.3145  1.0596  0.9320
  170MPD1    C5 2646   1.037   0.233  13.012  0.1565  0.1573  0.1769
  170MPD1     H 2647   0.734   0.050  13.176  0.9123 -0.8686  0.0312
  170MPD1    H1 2648   1.067   0.317  13.198  0.7731  1.4216 -0.9782
  170MPD1    H2 2649   0.990   0.147  12.832  1.3808 -0.2148  0.3059
  170MPD1    H3 2650   1.120   0.294  12.979 -0.1713  1.3156  1.5006
  170MPD1     N 2651   0.855   0.198  13.343  0.0784 -0.2413  0.5097
  170MPD1    H5 2652   0.767   0.159  13.373 -0.6044 -0.0253 -1.1771
  170MPD1    N1 2653   0.769   4.737  12.921  0.8877  0.1869 -0.0473
  170MPD1    H6 2654   0.805   4.727  12.826 -0.7493 -0.0536 -0.6426
  170MPD1    H7 2655   0.757   4.644  12.961  1.3027 -0.1497 -0.7000
  171MPD1     C 2656   4.194   1.612  15.344  0.6563 -0.0663  0.1672
  171MPD1    C1 2657   4.139   1.496  15.308 -0.6914 -0.6518  0.3172
  171MPD1    C2 2658   4.103   1.410  15.414 -0.7781  0.2516  0.0146
  171MPD1    C3 2659   4.124   1.443  15.546  0.2437 -0.0131 -0.3157
  171MPD1    C4 2660   4.163   1.569  15.567 -0.4672  0.0432  0.0266
  171MPD1    C5 2661   4.204   1.654  15.471 -0.1946 -0.2247 -0.2605
  171MPD1     H 2662   4.060   1.313  15.392 -1.4964  0.8117 -1.0586
  171MPD1    H1 2663   4.168   1.612  15.667  0.8824  2.6781 -1.1800
  171MPD1    H2 2664   4.209   1.686  15.266 -0.8404 -1.7219 -1.6844
  171MPD1    H3 2665   4.219   1.760  15.485  1.0452 -0.3845 -0.4152
  171MPD1     N 2666   4.099   1.361  15.658  0.7770  0.4484 -0.2890
  171MPD1    H5 2667   4.113   1.397  15.752  2.2548  0.0251 -0.3539
  171MPD1    N1 2668   4.138   1.459  15.174 -0.2923 -0.0339  0.6565
  171MPD1    H6 2669   4.068   1.388  15.156 -0.4295  0.8724 -2.3304
  171MPD1    H7 2670   4.138   1.528  15.100  3.3141  1.1619  1.7342
  172MPD1     C 2671   3.475   0.694   0.276  0.1918  0.5933 -0.2843
  172MPD1    C1 2672   3.359   0.759   0.309 -0.3531  0.1040  0.1131
  172MPD1    C2 2673   3.381   0.874   0.388 -0.2857 -0.2722 -0.5141
  172MPD1    C3 2674   3.506   0.926   0.409 -0.7492 -0.5806 -0.4127
  172MPD1    C4 2675   3.621   0.852   0.378  0.0264  0.6592 -0.5316
  172MPD1    C5 2676   3.604   0.734   0.307  0.2667  0.2173 -0.2141
  172MPD1     H 2677   3.290   0.925   0.416  0.3140 -0.8964  2.5535
  172MPD1    H1 2678   3.724   0.876   0.404 -0.7472  0.8319  2.3272
  172MPD1    H2 2679   3.466   0.603   0.217  1.3851 -0.8295  1.7265
  172MPD1    H3 2680   3.684   0.670   0.272  1.7128  1.9479 -0.0299
  172MPD1     N 2681   3.522   1.061   0.455 -0.1313 -0.1181 -0.7587
  172MPD1    H5 2682   3.612   1.103   0.475 -1.0673  0.9412  1.1838
  172MPD1    N1 2683   3.239   0.695   0.287 -1.1781 -0.2294 -0.2624
  172MPD1    H6 2684   3.161   0.758   0.276  0.0961  1.4418  0.2315
  172MPD1    H7 2685   3.244   0.641   0.201  1.3560  1.3866 -1.1154
  173MPD1     C 2686   4.290   0.760  14.808  0.9360  0.0686 -0.3296
  173MPD1    C1 2687   4.406   0.742  14.886 -0.3870 -0.7735 -0.2274
  173MPD1    C2 2688   4.428   0.621  14.937 -0.0626 -0.1263  0.0127
  173MPD1    C3 2689   4.332   0.522  14.930  0.7169 -0.1173 -0.5515
  173MPD1    C4 2690   4.207   0.547  14.872  0.5109  0.6054 -0.0297
  173MPD1    C5 2691   4.188   0.672  14.807 -0.5194 -0.0884  0.1065
  173MPD1     H 2692   4.522   0.603  14.987  0.2895  1.5899 -0.0327
  173MPD1    H1 2693   4.129   0.472  14.873 -0.6810  1.8552  0.2593
  173MPD1    H2 2694   4.273   0.851  14.752  0.4129 -1.0232 -1.9371
  173MPD1    H3 2695   4.103   0.687  14.741 -0.8479 -2.1277  0.0437
  173MPD1     N 2696   4.354   0.390  14.980 -0.4389  0.0255 -0.4122
  173MPD1    H5 2697   4.271   0.333  14.988  0.2184 -0.8777 -0.0539
  173MPD1    N1 2698   4.501   0.844  14.885 -0.9891  0.2086 -0.9121
  173MPD1    H6 2699   4.446   0.930  14.881  1.4211  1.7657  0.2289
  173MPD1    H7 2700   4.553   0.832  14.971  0.6805 -1.7757 -2.2048
  174MPD1     C 2701   4.720   4.099  15.066 -0.6113  0.3771 -0.3707
  174MPD1    C1 2702   0.020   4.201  14.990  0.2167  0.2495 -0.1222
  174MPD1    C2 2703   4.704   4.328  14.997  0.3728 -0.3394 -0.6861
  174MPD1    C3 2704   4.595   4.351  15.085 -0.7786 -0.5536 -0.3979
  174MPD1    C4 2705   4.552   4.239  15.156 -0.0450 -0.3367 -0.4023
  174MPD1    C5 2706   4.614   4.116  15.149 -0.2977 -0.3535  0.1142
  174MPD1     H 2707   0.003   4.410  14.938  0.3779  0.1643  0.0175
  174MPD1    H1 2708   4.469   4.247  15.226  0.0861 -2.4692  0.0127
  174MPD1    H2 2709   0.025   4.001  15.068  0.6761  0.9837 -0.7506
  174MPD1    H3 2710   4.581   4.041  15.221 -0.2472 -1.8067 -1.3764
  174MPD1     N 2711   4.540   4.478  15.112 -0.6342 -0.2529 -0.4177
  174MPD1    H5 2712   4.460   4.473  15.174 -0.3138  1.1403  0.1029
  174MPD1    N1 2713   0.110   4.166  14.887  0.3228  0.2336  0.4416
  174MPD1    H6 2714   0.178   4.099  14.920 -1.8910 -2.5962 -0.7990
  174MPD1    H7 2715   0.161   4.250  14.860 -1.2220  0.9708 -0.2425
  175MPD1     C 2716   2.585   1.556  15.271 -0.2072  0.0480 -0.7964
  175MPD1    C1 2717   2.496   1.516  15.369  0.4920 -0.2839  0.1005
  175MPD1    C2 2718   2.514   1.549  15.503  0.3433  0.0776 -0.3529
  175MPD1    C3 2719   2.609   1.644  15.532 -0.2797 -0.6167 -0.2495
  175MPD1    C4 2720   2.691   1.690  15.427 -0.4104 -0.1629 -0.1760
  175MPD1    C5 2721   2.688   1.648  15.302 -0.1726  0.5892 -0.3962
  175MPD1     H 2722   2.453   1.502  15.579 -1.0507  0.0827 -1.4601
  175MPD1    H1 2723   2.764   1.764  15.456  0.2698 -0.1863 -1.8163
  175MPD1    H2 2724   2.576   1.512  15.172 -0.5349 -0.5056 -0.5170
  175MPD1    H3 2725   2.768   1.674  15.233  1.3626 -0.1204  1.0947
  175MPD1     N 2726   2.643   1.685  15.661 -0.1309 -0.5999  0.5607
  175MPD1    H5 2727   2.730   1.734  15.678 -1.6717  1.4667  2.4262
  175MPD1    N1 2728   2.406   1.418  15.329 -0.2841 -0.8639  1.0175
  175MPD1    H6 2729   2.329   1.423  15.395  0.8085  0.8312  2.1719
  175MPD1    H7 2730   2.368   1.434  15.236 -2.1654  0.3641  2.0008
  176MPD1     C 2731   0.288   4.007  17.045  0.0613  0.4319 -0.0242
  176MPD1    C1 2732   0.199   4.012  17.152  0.2859 -0.6399 -0.6384
  176MPD1    C2 2733   0.246   4.051  17.275  0.0808  0.1698  0.0257
  176MPD1    C3 2734   0.373   4.098  17.300  0.1952 -0.3363 -0.0972
  176MPD1    C4 2735   0.461   4.102  17.191 -0.1153  0.5645  0.3600
  176MPD1    C5 2736   0.420   4.052  17.066  0.1002  0.8811  0.0606
  176MPD1     H 2737   0.178   4.042  17.358  0.4438  1.6115  0.4806
  176MPD1    H1 2738   0.564   4.135  17.200  0.1091  0.4359 -1.6841
  176MPD1    H2 2739   0.274   3.963  16.947 -2.8195 -1.3277  1.2053
  176MPD1    H3 2740   0.493   4.039  16.987 -2.7675 -5.1758 -1.5921
  176MPD1     N 2741   0.400   4.148  17.430  0.3761  0.1796  0.2005
  176MPD1    H5 2742   0.335   4.137  17.507  1.6186  2.9760  1.6580
  176MPD1    N1 2743   0.072   3.955  17.139 -0.2266 -0.2492 -0.5504
  176MPD1    H6 2744   0.036   3.964  17.044  0.2655  0.4884 -0.6638
  176MPD1    H7 2745   0.001   3.995  17.200 -0.1611 -2.3770  0.9113
  177MPD1     C 2746   3.067   2.598  10.078 -0.5289 -0.0110  0.1873
  177MPD1    C1 2747   2.968   2.552   9.997 -0.1290 -0.2613 -0.4290
  177MPD1    C2 2748   2.854   2.636   9.980 -0.5794 -0.0811  0.3126
  177MPD1    C3 2749   2.866   2.776  10.014 -0.0453 -0.1688  0.4063
  177MPD1    C4 2750   2.979   2.823  10.081 -0.1579  0.8959 -0.3732
  177MPD1    C5 2751   3.073   2.727  10.116  0.1742  0.5675 -1.1324
  177MPD1     H 2752   2.758   2.602   9.942  0.0384 -0.1719 -1.1947
  177MPD1    H1 2753   2.981   2.925  10.118  1.2720  0.2212  1.3829
  177MPD1    H2 2754   3.145   2.530  10.110 -1.2034 -0.4955  0.7921
  177MPD1    H3 2755   3.162   2.761  10.168  0.3049 -1.4370 -0.0643
  177MPD1     N 2756   2.755   2.863   9.976 -0.4022  1.3247  0.4024
  177MPD1    H5 2757   2.684   2.814   9.923  1.9850 -2.7457  0.9955
  177MPD1    N1 2758   2.952   2.413   9.973  0.2119 -0.0135 -0.0098
  177MPD1    H6 2759   2.893   2.389   9.894  0.1527 -2.0126  0.6407
  177MPD1    H7 2760   3.041   2.364   9.969  0.9506  1.3321  0.1140
  178MPD1     C 2761   0.886   0.035   0.299 -0.4827  0.6919 -0.2385
  178MPD1    C1 2762   0.797   0.016   0.193  0.7578  0.1703 -0.4700
  178MPD1    C2 2763   0.852   4.713   0.073  0.0370  0.0736  1.4156
  178MPD1    C3 2764   0.987   4.701   0.050 -0.2644  0.8082 -0.0045
  178MPD1    C4 2765   1.071   4.726   0.157 -0.0022  0.6748  0.0779
  178MPD1    C5 2766   1.018   0.017   0.282  0.3595 -0.0670  0.5352
  178MPD1     H 2767   0.779   4.678   0.002  2.2584 -1.2626 -0.1974
  178MPD1    H1 2768   1.179   4.727   0.146  0.1901  2.2012  2.1926
  178MPD1    H2 2769   0.845   0.067   0.394 -1.6408  0.4490 -0.6536
  178MPD1    H3 2770   1.082   0.056   0.360  1.5364 -1.2052  0.1344
  178MPD1     N 2771   1.045   4.663  17.693 -0.1147 -0.2840  0.5107
  178MPD1    H5 2772   1.142   4.640  17.709 -0.1378  0.1381  1.2676
  178MPD1    N1 2773   0.653   0.014   0.209 -0.0697  0.3307  0.1864
  178MPD1    H6 2774   0.607   0.061   0.286  0.2928 -0.6559  1.0078
  178MPD1    H7 2775   0.609   0.040   0.121 -1.3300  0.0696  0.7452
  179MPD1     C 2776   4.420   3.243  16.465  0.2058  0.5610 -0.3683
  179MPD1    C1 2777   4.556   3.229  16.473  0.2868 -0.9100 -0.0107
  179MPD1    C2 2778   4.613   3.131  16.393 -0.4274  0.7163  0.3452
  179MPD1    C3 2779   4.540   3.034  16.322  0.3034 -0.7298  0.7848
  179MPD1    C4 2780   4.402   3.052  16.324  0.1526  0.2033  0.5149
  179MPD1    C5 2781   4.342   3.149  16.401 -0.3428 -0.0448 -0.3209
  179MPD1     H 2782   4.721   3.137  16.382 -0.4023  0.5665  0.5133
  179MPD1    H1 2783   4.347   2.970  16.279  1.1754  0.2850 -0.9126
  179MPD1    H2 2784   4.371   3.313  16.532  1.7853  0.5429  0.7920
  179MPD1    H3 2785   4.234   3.159  16.406 -0.1816  1.1490  0.8641
  179MPD1     N 2786   4.596   2.924  16.242 -0.0711 -0.4304 -0.3000
  179MPD1    H5 2787   4.533   2.880  16.175 -2.6614  0.8463  1.2841
  179MPD1    N1 2788   4.642   3.322  16.534 -0.0528 -0.4677  0.4111
  179MPD1    H6 2789   4.729   3.280  16.568 -0.3860 -0.7670  0.8944
  179MPD1    H7 2790   4.589   3.352  16.615  0.8479  1.3659  0.3134
  180MPD1     C 2791   0.276   3.481  15.620  0.3916  0.4932  0.5870
  180MPD1    C1 2792   0.343   3.455  15.506 -0.5946 -0.4597 -0.0330
  180MPD1    C2 2793   0.288   3.498  15.384  0.0923 -0.1533 -0.4173
  180MPD1    C3 2794   0.177   3.584  15.382 -0.1960  0.2093  0.3899
  180MPD1    C4 2795   0.124   3.624  15.504 -0.3049 -0.1962 -0.2039
  180MPD1    C5 2796   0.176   3.566  15.618 -0.1506 -0.0684 -0.6337
  180MPD1     H 2797   0.345   3.461  15.300 -0.0213 -2.5043  0.5341
  180MPD1    H1 2798   0.035   3.686  15.509 -1.4841 -1.5370 -4.2821
  180MPD1    H2 2799   0.309   3.430  15.710  0.4937  0.7178  0.6779
  180MPD1    H3 2800   0.132   3.586  15.716  0.3293 -0.2999 -0.3696
  180MPD1     N 2801   0.138   3.632  15.257 -0.3483 -0.0446  0.1543
  180MPD1    H5 2802   0.181   3.585  15.178 -0.3434 -3.5506  2.2212
  180MPD1    N1 2803   0.456   3.373  15.512  0.2628 -0.0259  0.2890
  180MPD1    H6 2804   0.507   3.378  15.424  0.7955  0.5850  0.6324
  180MPD1    H7 2805   0.499   3.413  15.596  1.3905 -2.0360  0.6533
  181MPD1     C 2806   2.062   1.025   9.773 -0.0495  0.0765 -0.5681
  181MPD1    C1 2807   2.077   0.899   9.727  0.7137 -0.7532  0.3699
  181MPD1    C2 2808   2.207   0.848   9.718  0.2246 -0.2940 -0.1224
  181MPD1    C3 2809   2.317   0.915   9.766  0.6057  0.5619  1.0505
  181MPD1    C4 2810   2.294   1.044   9.814 -0.2725 -0.1216 -0.7407
  181MPD1    C5 2811   2.168   1.092   9.815  1.1724  0.2143 -0.0542
  181MPD1     H 2812   2.216   0.749   9.675 -1.4666 -0.5092  0.0225
  181MPD1    H1 2813   2.378   1.101   9.851 -1.3045  0.5026  0.6075
  181MPD1    H2 2814   1.969   1.080   9.783  0.0127 -0.3023  1.9433
  181MPD1    H3 2815   2.146   1.191   9.853  0.5043 -0.6438  1.7684
  181MPD1     N 2816   2.449   0.872   9.763 -0.2366  0.1934  0.2547
  181MPD1    H5 2817   2.522   0.923   9.812  0.9863 -0.9474 -0.3723
  181MPD1    N1 2818   1.969   0.839   9.665  0.5401 -0.5364  0.0088
  181MPD1    H6 2819   1.974   0.740   9.642  0.7827 -0.4365 -0.3732
  181MPD1    H7 2820   1.881   0.839   9.717  0.4626  0.8222 -0.1181
  182MPD1     C 2821   2.946   4.270   0.677 -0.6718 -0.8247 -0.2740
  182MPD1    C1 2822   2.877   4.371   0.747 -0.2967  0.4005  0.4719
  182MPD1    C2 2823   2.834   4.480   0.677 -0.3931 -0.3323  0.7539
  182MPD1    C3 2824   2.841   4.483   0.538  0.1412  0.0551  0.5490
  182MPD1    C4 2825   2.911   4.381   0.471 -0.0785  0.6762  0.0677
  182MPD1    C5 2826   2.961   4.273   0.539 -0.2120  0.2596  0.2120
  182MPD1     H 2827   2.805   4.564   0.738 -1.5342  1.1376 -1.8088
  182MPD1    H1 2828   2.927   4.396   0.365 -0.7687 -0.6913 -0.2289
  182MPD1    H2 2829   2.991   4.186   0.729  0.1255  0.0385  0.4438
  182MPD1    H3 2830   3.023   4.209   0.478 -0.8922 -0.9584  0.7984
  182MPD1     N 2831   2.781   4.581   0.457 -0.3279 -0.1925  0.1716
  182MPD1    H5 2832   2.754   4.558   0.362  1.3893 -0.9178 -0.1430
  182MPD1    N1 2833   2.882   4.363   0.885  0.2478 -0.1449  0.0321
  182MPD1    H6 2834   2.800   4.409   0.925  0.3470 -0.0147  0.0871
  182MPD1    H7 2835   2.896   4.268   0.919 -0.5289  0.3854  1.8501
  183MPD1     C 2836   2.207   3.448   8.505  0.0059  0.0754 -0.1205
  183MPD1    C1 2837   2.118   3.552   8.497  0.0755  0.5313 -0.1047
  183MPD1    C2 2838   2.115   3.652   8.603 -0.5402 -0.3115 -0.3847
  183MPD1    C3 2839   2.211   3.638   8.705 -0.3245 -0.0883  0.6131
  183MPD1    C4 2840   2.311   3.537   8.703 -0.8162  0.0282  0.7057
  183MPD1    C5 2841   2.299   3.440   8.605  0.1868  0.2270 -0.0263
  183MPD1     H 2842   2.049   3.737   8.595  0.5496  0.3428 -2.5102
  183MPD1    H1 2843   2.388   3.537   8.779  0.5677  1.9984 -0.7053
  183MPD1    H2 2844   2.209   3.364   8.436  0.9886 -0.6320  0.7715
  183MPD1    H3 2845   2.377   3.364   8.603  0.2573  0.3291 -1.0106
  183MPD1     N 2846   2.219   3.741   8.804  0.0563 -0.1522 -0.1905
  183MPD1    H5 2847   2.153   3.818   8.794 -1.3625 -1.4436 -0.8066
  183MPD1    N1 2848   2.025   3.556   8.389  0.3440 -0.3259  0.6140
  183MPD1    H6 2849   2.017   3.645   8.339 -3.3732 -0.5860  0.7706
  183MPD1    H7 2850   2.042   3.487   8.316 -1.5733 -0.9142  0.7354
  184MPD1     C 2851   1.432   3.964  10.517  0.3738  0.5794  0.5095
  184MPD1    C1 2852   1.360   3.847  10.515 -0.1894 -0.9571 -0.1504
  184MPD1    C2 2853   1.409   3.743  10.435 -0.5009 -0.3427 -0.0393
  184MPD1    C3 2854   1.540   3.742  10.388 -0.4328  0.1808 -0.0888
  184MPD1    C4 2855   1.610   3.857  10.403  0.0952 -0.0573  0.3755
  184MPD1    C5 2856   1.556   3.968  10.460  0.0229  0.0571 -0.6244
  184MPD1     H 2857   1.343   3.659  10.418 -2.9363  1.9612 -2.0740
  184MPD1    H1 2858   1.712   3.855  10.366  0.0780  0.4610  0.3094
  184MPD1    H2 2859   1.392   4.057  10.556 -0.7651  0.6197 -0.7547
  184MPD1    H3 2860   1.611   4.061  10.466 -0.0619  0.1397 -1.0955
  184MPD1     N 2861   1.602   3.642  10.315  0.5638  0.3194  0.2684
  184MPD1    H5 2862   1.691   3.656  10.268  1.5593 -1.2102  1.7210
  184MPD1    N1 2863   1.228   3.838  10.570 -0.4477  0.3563 -0.0616
  184MPD1    H6 2864   1.219   3.897  10.652 -4.0483 -1.9548  1.2260
  184MPD1    H7 2865   1.204   3.744  10.601 -1.6103  0.8336  0.4756
  185MPD1     C 2866   1.441   2.774   9.662 -0.1216  0.1432  0.3749
  185MPD1    C1 2867   1.376   2.785   9.789  0.5767 -0.0477  0.1166
  185MPD1    C2 2868   1.406   2.898   9.863  0.0613 -0.2449  0.1357
  185MPD1    C3 2869   1.505   2.985   9.826 -0.4184  0.5615 -1.0165
  185MPD1    C4 2870   1.571   2.963   9.704  0.0128  0.0500 -1.0408
  185MPD1    C5 2871   1.547   2.854   9.621  0.4412 -0.6050 -0.0520
  185MPD1     H 2872   1.346   2.923   9.949 -0.2144  1.1376 -0.4577
  185MPD1    H1 2873   1.654   3.028   9.681 -0.3310  0.4411 -1.1541
  185MPD1    H2 2874   1.413   2.705   9.584  2.0937  0.2396 -0.5078
  185MPD1    H3 2875   1.600   2.828   9.531  1.0585  1.7358 -0.3624
  185MPD1     N 2876   1.556   3.092   9.902  0.4179 -0.3138  0.0453
  185MPD1    H5 2877   1.635   3.143   9.865 -1.7975  3.0440 -0.0391
  185MPD1    N1 2878   1.259   2.709   9.809 -0.7719  1.4208  0.2132
  185MPD1    H6 2879   1.245   2.696   9.909 -1.8660  0.5237 -0.0627
  185MPD1    H7 2880   1.273   2.611   9.785 -2.5188  0.5985  2.6438
  186MPD1     C 2881   0.500   2.381  15.919  0.6833 -0.2212 -0.4256
  186MPD1    C1 2882   0.552   2.490  15.857 -0.1549 -0.3427  0.2179
  186MPD1    C2 2883   0.635   2.567  15.930  0.1297  0.6205 -0.4875
  186MPD1    C3 2884   0.657   2.542  16.064 -0.5487  0.1185  0.2311
  186MPD1    C4 2885   0.591   2.438  16.129 -0.7676 -0.4666  0.3339
  186MPD1    C5 2886   0.516   2.357  16.053 -0.3728 -0.1063  0.4907
  186MPD1     H 2887   0.674   2.657  15.884  2.3809 -0.3924 -0.5443
  186MPD1    H1 2888   0.614   2.415  16.233  0.5557 -0.3616  0.0594
  186MPD1    H2 2889   0.431   2.323  15.859  1.1018 -1.7716  0.6117
  186MPD1    H3 2890   0.463   2.275  16.100 -0.4206 -0.9296 -1.0036
  186MPD1     N 2891   0.744   2.626  16.141 -0.0972  0.1280 -0.5328
  186MPD1    H5 2892   0.741   2.616  16.242 -0.5436 -0.0184 -0.5626
  186MPD1    N1 2893   0.512   2.532  15.728 -0.3566  0.3102  0.1620
  186MPD1    H6 2894   0.480   2.453  15.672  0.3433  1.5744 -2.0135
  186MPD1    H7 2895   0.580   2.587  15.677  0.8019 -0.0795  1.2793
  187MPD1     C 2896   0.434   0.270   0.148 -0.2036  0.4254 -0.0272
  187MPD1    C1 2897   0.420   0.398   0.105  0.8655  0.7803 -0.4356
  187MPD1    C2 2898   0.313   0.431   0.025 -0.2133  0.7833 -0.0951
  187MPD1    C3 2899   0.230   0.332  17.743 -0.5485 -0.6340 -0.4126
  187MPD1    C4 2900   0.246   0.203   0.027 -0.0774 -0.3564 -0.1313
  187MPD1    C5 2901   0.347   0.171   0.110 -0.4879  0.5429  0.4518
  187MPD1     H 2902   0.312   0.535  17.758 -0.1273  0.0142 -2.5877
  187MPD1    H1 2903   0.169   0.135  17.756 -0.1845  0.5562 -1.6366
  187MPD1    H2 2904   0.505   0.242   0.224 -1.0629 -0.6703  0.3670
  187MPD1    H3 2905   0.341   0.069   0.149  1.2215  0.4471  0.4605
  187MPD1     N 2906   0.133   0.360  17.640  0.2846 -0.2342  0.0218
  187MPD1    H5 2907   0.084   0.293  17.582  0.4323 -1.6874  1.5646
  187MPD1    N1 2908   0.506   0.491   0.168 -0.0204 -0.0569 -0.0014
  187MPD1    H6 2909   0.588   0.448   0.210 -0.6593 -0.4506  0.8408
  187MPD1    H7 2910   0.530   0.561   0.098 -2.0519  0.4148 -0.2309
  188MPD1     C 2911   4.171   4.505  10.249  0.0189  0.4977 -0.6205
  188MPD1    C1 2912   4.131   4.445  10.132  0.1008 -0.2662 -0.1208
  188MPD1    C2 2913   4.116   4.305  10.140 -0.5498  0.3090 -0.6390
  188MPD1    C3 2914   4.182   4.235  10.239 -0.1847  0.3611  0.1287
  188MPD1    C4 2915   4.246   4.301  10.343 -0.2798  0.0810 -0.2713
  188MPD1    C5 2916   4.233   4.437  10.347  0.2368  0.3954 -0.4438
  188MPD1     H 2917   4.072   4.260  10.052 -0.4267 -0.6672 -0.1996
  188MPD1    H1 2918   4.300   4.243  10.416  0.3809 -0.2240 -1.0048
  188MPD1    H2 2919   4.185   4.613  10.247  1.7980  0.2989  2.5711
  188MPD1    H3 2920   4.266   4.497  10.431 -4.5794 -0.8287  2.3358
  188MPD1     N 2921   4.175   4.096  10.250 -0.0970 -0.3107 -0.1073
  188MPD1    H5 2922   4.230   4.050  10.322  0.3546  2.2405  1.1858
  188MPD1    N1 2923   4.072   4.513  10.025  0.1038  0.4731  0.0572
  188MPD1    H6 2924   4.120   4.602  10.011  0.6053  0.3887  1.1827
  188MPD1    H7 2925   4.089   4.458   9.941 -0.0916 -0.3046  0.5223
  189MPD1     C 2926   1.749   0.624   0.519  0.0124  0.2998  0.2912
  189MPD1    C1 2927   1.619   0.600   0.567  0.0301  0.1021 -0.0875
  189MPD1    C2 2928   1.533   0.706   0.579  0.0566  0.6125  0.5585
  189MPD1    C3 2929   1.573   0.836   0.543 -0.1383 -0.0124  0.7816
  189MPD1    C4 2930   1.693   0.855   0.480  0.0067  0.2166  0.2953
  189MPD1    C5 2931   1.781   0.747   0.475 -0.3841 -1.2096  0.4632
  189MPD1     H 2932   1.433   0.702   0.621  1.1584  1.8442  3.3238
  189MPD1    H1 2933   1.719   0.950   0.435 -0.9393 -0.1182 -0.9554
  189MPD1    H2 2934   1.821   0.545   0.504  0.7533  0.9136  0.6370
  189MPD1    H3 2935   1.876   0.759   0.425 -0.9110 -1.6561 -0.6305
  189MPD1     N 2936   1.478   0.940   0.554  0.1002 -0.0512 -0.0655
  189MPD1    H5 2937   1.392   0.906   0.596 -0.8804  4.0379  1.3005
  189MPD1    N1 2938   1.578   0.463   0.574 -0.4513  0.2637 -0.6292
  189MPD1    H6 2939   1.567   0.413   0.486 -0.6641 -2.1083  0.7488
  189MPD1    H7 2940   1.487   0.450   0.617  0.9949  1.0295  2.6582
  190MPD1     C 2941   0.752   0.122  15.913  0.3641 -0.2180  0.0151
  190MPD1    C1 2942   0.765   0.037  16.019  0.3703 -0.4585  0.7137
  190MPD1    C2 2943   0.787   4.644  16.005  0.2995 -0.5666 -0.3835
  190MPD1    C3 2944   0.802   4.598  15.874  1.0490 -0.9964 -0.6753
  190MPD1    C4 2945   0.785   4.679  15.766 -0.0564 -0.4184 -0.5357
  190MPD1    C5 2946   0.762   0.072  15.784 -0.0225 -0.1565  0.6095
  190MPD1     H 2947   0.798   4.571  16.084 -3.0564 -0.0884  0.5230
  190MPD1    H1 2948   0.787   4.645  15.664  1.9462  0.2100 -0.6990
  190MPD1    H2 2949   0.735   0.229  15.920  0.7123 -0.2148  0.8108
  190MPD1    H3 2950   0.759   0.141  15.700 -4.3995 -0.6487  0.3906
  190MPD1     N 2951   0.828   4.463  15.855  0.2381  0.5391  0.1554
  190MPD1    H5 2952   0.820   4.403  15.937 -0.3775  2.6663  1.6401
  190MPD1    N1 2953   0.775   0.086  16.151  0.4886  0.3252 -0.0256
  190MPD1    H6 2954   0.724   0.172  16.172 -0.5733 -0.9203  2.5410
  190MPD1    H7 2955   0.758   0.022  16.229  2.4003 -0.0540  0.0754
  191MPD1     C 2956   3.978   0.700  13.282 -0.1080 -0.1465 -0.3628
  191MPD1    C1 2957   3.896   0.813  13.265  0.4419  0.2188  0.4457
  191MPD1    C2 2958   3.927   0.898  13.158  0.2261  0.8652 -0.3359
  191MPD1    C3 2959   4.044   0.882  13.085 -0.8904 -0.9653  0.9321
  191MPD1    C4 2960   4.124   0.775  13.116  0.0459 -0.5834 -0.2536
  191MPD1    C5 2961   4.101   0.692  13.218  0.0302 -0.3943 -0.2631
  191MPD1     H 2962   3.868   0.985  13.135 -0.9967 -0.2571 -1.3889
  191MPD1    H1 2963   4.213   0.750  13.059  1.3789 -0.1944  1.6434
  191MPD1    H2 2964   3.954   0.619  13.350 -1.2322 -1.0874 -1.8764
  191MPD1    H3 2965   4.163   0.604  13.222 -0.0291 -0.4592 -0.7713
  191MPD1     N 2966   4.075   0.963  12.970 -0.0503 -0.4698  0.5891
  191MPD1    H5 2967   4.003   1.031  12.948 -0.2961 -0.3193  1.9157
  191MPD1    N1 2968   3.769   0.828  13.322  0.0921 -0.7920  0.2808
  191MPD1    H6 2969   3.731   0.921  13.310  1.0366 -0.5270 -0.6066
  191MPD1    H7 2970   3.741   0.785  13.410  0.2811  1.3524  1.3826
  192MPD1     C 2971   3.792   1.251  12.041 -0.3736  0.0764 -0.5138
  192MPD1    C1 2972   3.731   1.199  12.157 -0.1190 -0.5649 -0.1174
  192MPD1    C2 2973   3.804   1.194  12.275 -0.6404  0.1229  0.0017
  192MPD1    C3 2974   3.933   1.248  12.283 -0.1631  0.7644  0.3775
  192MPD1    C4 2975   3.986   1.303  12.163  0.0984 -0.5099  0.1715
  192MPD1    C5 2976   3.917   1.311  12.046 -0.0528  0.2625 -0.6939
  192MPD1     H 2977   3.758   1.141  12.357  2.0062 -0.5271  1.0721
  192MPD1    H1 2978   4.081   1.354  12.158 -1.3664  2.3992  1.9357
  192MPD1    H2 2979   3.743   1.254  11.944  0.4624 -2.3888 -1.0125
  192MPD1    H3 2980   3.957   1.357  11.956 -1.8907 -0.4822 -1.8834
  192MPD1     N 2981   4.013   1.237  12.402  0.4048  0.3543 -0.2066
  192MPD1    H5 2982   4.109   1.270  12.399  0.7486 -0.5049  1.4267
  192MPD1    N1 2983   3.617   1.124  12.141 -0.3307 -0.7251  0.4248
  192MPD1    H6 2984   3.552   1.144  12.217  0.8691  0.0644  1.2518
  192MPD1    H7 2985   3.571   1.160  12.058  2.1981 -0.8341 -1.0116
  193MPD1     C 2986   4.104   1.093  17.208  0.6447 -1.0038  0.6418
  193MPD1    C1 2987   4.017   1.171  17.134 -0.0119 -0.1879  0.0731
  193MPD1    C2 2988   4.074   1.262  17.044  0.3380 -0.0724  0.3403
  193MPD1    C3 2989   4.208   1.266  17.022 -0.2042 -0.3248  0.3079
  193MPD1    C4 2990   4.291   1.181  17.093  0.4172 -0.4506  0.4797
  193MPD1    C5 2991   4.237   1.092  17.183  0.7135 -0.2282  0.1570
  193MPD1     H 2992   4.006   1.314  16.977  1.9670 -1.2007 -2.2223
  193MPD1    H1 2993   4.397   1.173  17.073  0.8653  0.0623  2.7375
  193MPD1    H2 2994   4.058   1.034  17.286 -3.2558  0.6781 -0.3776
  193MPD1    H3 2995   4.300   1.025  17.239 -0.0785 -1.4315 -0.3943
  193MPD1     N 2996   4.267   1.362  16.944 -1.2952 -0.4110 -0.2347
  193MPD1    H5 2997   4.368   1.368  16.937 -1.4716  1.5012 -1.2477
  193MPD1    N1 2998   3.882   1.187  17.172 -0.5139  0.0642  0.0119
  193MPD1    H6 2999   3.853   1.098  17.212  2.1223 -1.9611 -2.5927
  193MPD1    H7 3000   3.830   1.215  17.089  1.6742 -0.6867 -1.5776
  194MPD1     C 3001   1.886   3.907  17.160 -0.3237  0.3709  0.5538
  194MPD1    C1 3002   1.912   3.835  17.043 -0.4803  0.3648 -0.0660
  194MPD1    C2 3003   2.008   3.732  17.047 -0.0105 -0.2554  0.3449
  194MPD1    C3 3004   2.060   3.702  17.174 -0.1425  0.6060 -0.6515
  194MPD1    C4 3005   2.040   3.775  17.287  0.3836  0.0870  0.6388
  194MPD1    C5 3006   1.958   3.886  17.281  0.2300 -0.5899 -0.2595
  194MPD1     H 3007   2.037   3.674  16.960 -0.7822  0.7323 -0.5775
  194MPD1    H1 3008   2.072   3.740  17.385 -0.3105 -0.2105  0.7603
  194MPD1    H2 3009   1.816   3.989  17.161  1.6105  1.9477  4.4591
  194MPD1    H3 3010   1.935   3.945  17.368 -1.1527  0.1822 -1.1447
  194MPD1     N 3011   2.134   3.580  17.190  0.6806 -0.1677 -0.9216
  194MPD1    H5 3012   2.161   3.553  17.284 -1.0305  0.2970 -0.2986
  194MPD1    N1 3013   1.825   3.859  16.931  0.1790  0.2341  0.2659
  194MPD1    H6 3014   1.868   3.852  16.839 -0.1440 -2.2175  0.3175
  194MPD1    H7 3015   1.772   3.946  16.924 -1.1167 -0.4918  1.1992
  195MPD1     C 3016   4.373   0.734  17.275 -0.2297  0.1057 -0.0048
  195MPD1    C1 3017   4.432   0.765  17.397  0.2236 -0.8356  0.1214
  195MPD1    C2 3018   4.407   0.680  17.507  0.1717  0.1132 -0.1304
  195MPD1    C3 3019   4.340   0.561  17.487  0.2328 -0.7465 -0.1812
  195MPD1    C4 3020   4.292   0.522  17.363  0.1002  0.0128  0.5209
  195MPD1    C5 3021   4.307   0.613  17.259 -0.4400  0.3257 -0.1492
  195MPD1     H 3022   4.455   0.702  17.601 -0.4452  1.3219 -0.0941
  195MPD1    H1 3023   4.243   0.426  17.351  1.0803 -0.6939  2.2030
  195MPD1    H2 3024   4.375   0.797  17.187 -0.2360 -0.1926 -0.2206
  195MPD1    H3 3025   4.258   0.592  17.165  2.5445 -0.6868 -1.4862
  195MPD1     N 3026   4.327   0.459  17.580  0.2876 -0.2944 -0.6437
  195MPD1    H5 3027   4.271   0.379  17.552  1.1068 -0.7630 -0.9172
  195MPD1    N1 3028   4.504   0.881  17.411  0.0159 -0.0333  0.0256
  195MPD1    H6 3029   4.541   0.910  17.321 -1.0285  1.6359  0.1546
  195MPD1    H7 3030   4.566   0.895  17.491  0.3089  0.1102 -0.2262
  196MPD1     C 3031   3.345   4.231   1.018  0.8176 -0.2801  0.3729
  196MPD1    C1 3032   3.267   4.290   1.112  0.3329  0.3140  0.5583
  196MPD1    C2 3033   3.319   4.393   1.187 -0.2128 -0.8982  0.4163
  196MPD1    C3 3034   3.437   4.451   1.152  0.3945  0.1764 -0.4222
  196MPD1    C4 3035   3.512   4.390   1.064 -0.9433  0.1169 -0.1590
  196MPD1    C5 3036   3.472   4.280   0.990  0.5843  0.2776 -0.2014
  196MPD1     H 3037   3.267   4.435   1.272 -0.0398  1.6718 -0.7406
  196MPD1    H1 3038   3.608   4.432   1.035  0.4694 -1.0332  2.8452
  196MPD1    H2 3039   3.309   4.145   0.964  2.4345 -1.0016  0.4516
  196MPD1    H3 3040   3.539   4.233   0.919  1.1985  1.2212 -0.2519
  196MPD1     N 3041   3.477   4.567   1.220  0.3633 -0.3921  0.5448
  196MPD1    H5 3042   3.416   4.613   1.287  0.2976  2.6591 -1.6221
  196MPD1    N1 3043   3.133   4.240   1.144  0.5867 -0.2538 -0.0346
  196MPD1    H6 3044   3.079   4.318   1.177  1.8092  0.0529  1.2477
  196MPD1    H7 3045   3.085   4.196   1.065  1.2343  2.4834 -1.9763
  197MPD1     C 3046   2.506   1.137  17.604  0.6809 -0.4452 -0.0453
  197MPD1    C1 3047   2.605   1.217  17.654 -0.6783 -0.2092 -0.4545
  197MPD1    C2 3048   2.655   1.318  17.581 -0.1403 -0.2040 -0.0710
  197MPD1    C3 3049   2.610   1.349  17.455  0.2152  0.2334 -0.1034
  197MPD1    C4 3050   2.524   1.258  17.399 -1.0616 -0.4826 -0.2608
  197MPD1    C5 3051   2.461   1.164  17.477  0.5664  0.1384  0.0785
  197MPD1     H 3052   2.745   1.370  17.612 -0.3947  0.3715 -0.2969
  197MPD1    H1 3053   2.495   1.264  17.295 -0.3192 -0.4753 -0.4682
  197MPD1    H2 3054   2.450   1.064  17.662  0.6412 -1.6286 -1.5658
  197MPD1    H3 3055   2.378   1.111  17.432  0.4211 -0.2559  0.8053
  197MPD1     N 3056   2.655   1.447  17.372  0.3213  0.0317  0.1107
  197MPD1    H5 3057   2.606   1.467  17.286  3.4100  2.3431 -1.1084
  197MPD1    N1 3058   2.643   1.186   0.021 -0.1561  0.1302  0.2137
  197MPD1    H6 3059   2.744   1.187   0.035 -0.2597  0.3231  0.9614
  197MPD1    H7 3060   2.594   1.108   0.065 -0.2383  0.4620  0.7085
  198MPD1     C 3061   0.525   3.995  15.755  0.1898  0.2905 -0.3771
  198MPD1    C1 3062   0.436   4.025  15.853 -0.6977 -0.2673  0.3061
  198MPD1    C2 3063   0.390   4.156  15.850  0.6780 -0.0224  0.4585
  198MPD1    C3 3064   0.448   4.256  15.777  0.4230  0.4105  0.7107
  198MPD1    C4 3065   0.520   4.205  15.669  0.1604 -0.1267 -0.2360
  198MPD1    C5 3066   0.564   4.079  15.659  0.5166 -0.0900  0.2028
  198MPD1     H 3067   0.305   4.187  15.910  0.1753  0.0830 -0.3112
  198MPD1    H1 3068   0.566   4.264  15.591  1.3876  0.6912  1.1236
  198MPD1    H2 3069   0.571   3.897  15.749 -1.2248 -0.4120  0.2253
  198MPD1    H3 3070   0.629   4.055  15.575 -0.2093  0.3020 -0.4745
  198MPD1     N 3071   0.420   4.390  15.808  0.5975  0.4527  0.1410
  198MPD1    H5 3072   0.372   4.409  15.895  0.0217 -0.0717 -0.0650
  198MPD1    N1 3073   0.390   3.919  15.936  0.3223  0.6430  0.6893
  198MPD1    H6 3074   0.466   3.855  15.956 -0.0550 -0.0739 -0.1724
  198MPD1    H7 3075   0.360   3.953  16.027  0.7486  2.0783  0.2954
  199MPD1     C 3076   2.193   2.212  10.071  0.0293  0.0951 -1.1810
  199MPD1    C1 3077   2.254   2.121  10.159  0.4583 -0.1850  0.1392
  199MPD1    C2 3078   2.185   2.003  10.192 -0.1474 -0.4523 -0.0664
  199MPD1    C3 3079   2.048   1.992  10.149  0.5028 -0.6481 -0.3634
  199MPD1    C4 3080   1.986   2.096  10.083 -0.3404  0.2532  0.1205
  199MPD1    C5 3081   2.056   2.206  10.041  0.0842 -0.3910 -0.1219
  199MPD1     H 3082   2.233   1.925  10.250 -0.1005 -0.4236 -0.0663
  199MPD1    H1 3083   1.878   2.087  10.071 -0.4261 -0.3773  1.3211
  199MPD1    H2 3084   2.245   2.304  10.046  1.0221 -0.0979  0.1566
  199MPD1    H3 3085   1.997   2.286   9.997  0.1111 -0.4493 -0.2646
  199MPD1     N 3086   1.973   1.883  10.189 -0.2316  0.3279 -0.0565
  199MPD1    H5 3087   1.874   1.884  10.169 -0.1111 -1.3655 -0.7534
  199MPD1    N1 3088   2.393   2.121  10.169  0.2603  0.7483 -0.6236
  199MPD1    H6 3089   2.420   2.060  10.246 -0.7877  1.0360 -0.0309
  199MPD1    H7 3090   2.428   2.213  10.197  0.3404  0.4707  0.2107
  200MPD1     C 3091   1.104   1.326  15.048 -1.1099 -0.3073 -0.3656
  200MPD1    C1 3092   1.190   1.310  15.156 -0.1826 -0.1186 -0.2248
  200MPD1    C2 3093   1.329   1.316  15.130 -0.5037  0.3530  0.4777
  200MPD1    C3 3094   1.370   1.295  15.002 -0.4028  0.2789 -0.2064
  200MPD1    C4 3095   1.286   1.300  14.898 -0.8484  0.4515  0.8640
  200MPD1    C5 3096   1.151   1.318  14.921 -0.5387  0.0162 -0.0843
  200MPD1     H 3097   1.395   1.320  15.216  2.0357 -3.8634 -1.2789
  200MPD1    H1 3098   1.318   1.298  14.795 -0.9611  2.1057  0.8085
  200MPD1    H2 3099   0.998   1.348  15.055 -1.1442 -0.9747  1.3007
  200MPD1    H3 3100   1.077   1.329  14.843 -0.1486 -0.3685 -0.5079
  200MPD1     N 3101   1.507   1.270  14.983 -0.7118 -0.5223 -0.0248
  200MPD1    H5 3102   1.559   1.266  15.070 -2.2644  1.4836  1.0052
  200MPD1    N1 3103   1.137   1.320  15.291  0.3619  0.5065 -0.1247
  200MPD1    H6 3104   1.191   1.263  15.356  0.1334  1.4909  0.9363
  200MPD1    H7 3105   1.045   1.276  15.289 -0.5534  2.3450  2.2736
  201MPD1     C 3106   3.031   0.276  13.725  0.2071 -0.2780 -0.6368
  201MPD1    C1 3107   3.036   0.159  13.652 -0.1766  0.1167  0.2270
  201MPD1    C2 3108   3.158   0.118  13.602 -0.1233 -0.6556 -0.8287
  201MPD1    C3 3109   3.274   0.184  13.634 -0.3954 -0.0488  0.2145
  201MPD1    C4 3110   3.265   0.300  13.706  0.2992  0.0484 -0.1602
  201MPD1    C5 3111   3.145   0.357  13.740 -0.6350  0.0425 -0.0805
  201MPD1     H 3112   3.160   0.024  13.548 -0.5895 -1.2456  0.1937
  201MPD1    H1 3113   3.355   0.358  13.722  3.6275 -4.4278 -2.4944
  201MPD1    H2 3114   2.941   0.319  13.769  1.0445 -1.5760  2.3790
  201MPD1    H3 3115   3.127   0.441  13.806 -0.0958 -1.4082  1.9443
  201MPD1     N 3116   3.399   0.123  13.598  0.2102  0.3341 -0.3228
  201MPD1    H5 3117   3.395   0.035  13.548  1.6253  0.1766 -0.1437
  201MPD1    N1 3118   2.918   0.085  13.613 -0.5144 -0.2119  0.1647
  201MPD1    H6 3119   2.939   4.728  13.605 -0.7295 -0.3667  1.6419
  201MPD1    H7 3120   2.842   0.103  13.678  0.3076 -0.8682  1.3081
  202MPD1     C 3121   2.865   3.126   9.100 -0.3637  0.4521  0.3259
  202MPD1    C1 3122   2.942   3.079   9.213 -0.6072 -0.2214  0.4105
  202MPD1    C2 3123   3.016   3.182   9.277 -0.4451 -0.4474  0.4858
  202MPD1    C3 3124   2.995   3.316   9.250  0.0756  0.5798 -0.4286
  202MPD1    C4 3125   2.906   3.352   9.149 -0.5345  0.3165 -0.1540
  202MPD1    C5 3126   2.837   3.258   9.077  1.2325  0.3993 -0.0637
  202MPD1     H 3127   3.067   3.143   9.364 -0.2851  0.5372  0.8337
  202MPD1    H1 3128   2.887   3.458   9.133 -2.6552 -0.3841 -2.3131
  202MPD1    H2 3129   2.826   3.051   9.032 -0.3669 -0.4378  1.3263
  202MPD1    H3 3130   2.768   3.280   8.996 -0.0207 -0.2530  0.8395
  202MPD1     N 3131   3.051   3.421   9.327  0.4507  1.0418  0.1729
  202MPD1    H5 3132   3.033   3.517   9.298  0.2049  1.2342  0.9690
  202MPD1    N1 3133   2.998   2.953   9.218 -0.5265 -0.3824  0.1758
  202MPD1    H6 3134   2.932   2.885   9.180  1.6869 -2.4713  0.0477
  202MPD1    H7 3135   3.024   2.925   9.312  0.0342 -0.8510 -0.1112
  203MPD1     C 3136   1.587   0.129  12.562  0.4686  0.4285 -0.0398
  203MPD1    C1 3137   1.667   0.020  12.606  0.5794  0.4231  0.3958
  203MPD1    C2 3138   1.798   0.050  12.644 -0.2016  0.0701  0.4403
  203MPD1    C3 3139   1.853   0.167  12.608  0.6252 -0.1573  0.2092
  203MPD1    C4 3140   1.776   0.272  12.549  0.3516 -0.6200 -0.4627
  203MPD1    C5 3141   1.641   0.250  12.541  0.1765  0.0301  0.0605
  203MPD1     H 3142   1.849   4.718  12.705  2.0940  1.8055  0.6002
  203MPD1    H1 3143   1.817   0.366  12.515  1.0890 -1.1136 -0.9581
  203MPD1    H2 3144   1.483   0.112  12.537  0.6273  1.3486 -1.3493
  203MPD1    H3 3145   1.585   0.335  12.504 -1.4953 -0.7830  0.7434
  203MPD1     N 3146   1.987   0.192  12.646  0.2323 -0.2971  0.0918
  203MPD1    H5 3147   2.038   0.107  12.669 -0.0054 -0.1898  1.0292
  203MPD1    N1 3148   1.605   4.653  12.664  0.4695 -0.4267  0.7370
  203MPD1    H6 3149   1.522   4.635  12.608  0.3304  0.2124  0.7442
  203MPD1    H7 3150   1.664   4.570  12.668  0.7565 -0.2919 -0.5894
  204MPD1     C 3151   1.627   2.656  17.726  0.3523  0.2431  0.2959
  204MPD1    C1 3152   1.670   2.569   0.060 -0.2166  0.5816  0.0567
  204MPD1    C2 3153   1.683   2.433   0.029 -0.1350  0.1310 -0.1818
  204MPD1    C3 3154   1.670   2.389  17.666  0.4022  0.0125 -0.1770
  204MPD1    C4 3155   1.625   2.480  17.573  0.1194 -0.1879 -0.5937
  204MPD1    C5 3156   1.598   2.611  17.604 -1.0021 -0.3341  0.0159
  204MPD1     H 3157   1.711   2.357   0.101  0.6217  0.7218  0.1479
  204MPD1    H1 3158   1.608   2.443  17.472 -0.6814  0.7148 -0.7907
  204MPD1    H2 3159   1.611   2.762  17.742  0.9881  0.4408 -0.3898
  204MPD1    H3 3160   1.557   2.677  17.529 -0.1497  0.0682 -0.0913
  204MPD1     N 3161   1.711   2.258  17.633  0.2765  0.6928 -0.3191
  204MPD1    H5 3162   1.740   2.203  17.712 -0.4757  1.2695  0.3665
  204MPD1    N1 3163   1.687   2.618   0.190 -0.2792 -0.0734 -0.1993
  204MPD1    H6 3164   1.741   2.703   0.187 -1.0442  0.3834 -1.0597
  204MPD1    H7 3165   1.730   2.554   0.257 -0.6702 -0.0100  0.1153
  205MPD1     C 3166   2.454   0.635  17.388  0.6067  0.0073 -0.2223
  205MPD1    C1 3167   2.347   0.554  17.348  0.3760  0.2296 -0.2009
  205MPD1    C2 3168   2.221   0.594  17.387  0.2010  1.4236 -0.2244
  205MPD1    C3 3169   2.191   0.715  17.448  0.0377  0.0538 -0.2925
  205MPD1    C4 3170   2.294   0.796  17.483  0.0392  0.5651  0.8784
  205MPD1    C5 3171   2.423   0.755  17.448  0.6968 -0.4752  0.8201
  205MPD1     H 3172   2.145   0.522  17.361  1.7464  0.2928 -1.6209
  205MPD1    H1 3173   2.285   0.890  17.536  0.1448 -0.3177  2.4498
  205MPD1    H2 3174   2.557   0.609  17.366  0.4003  0.3093 -1.5776
  205MPD1    H3 3175   2.509   0.815  17.476 -0.5819  2.6970 -2.0484
  205MPD1     N 3176   2.060   0.772  17.468  0.2200 -0.0933  0.7605
  205MPD1    H5 3177   2.055   0.863  17.512  4.9122  0.4630  0.1754
  205MPD1    N1 3178   2.369   0.420  17.311 -0.2614 -0.2931  0.0930
  205MPD1    H6 3179   2.299   0.377  17.252 -1.7994  0.0334  1.6692
  205MPD1    H7 3180   2.456   0.402  17.262  0.4290  2.4003  0.3437
  206MPD1     C 3181   2.646   3.525  17.112 -0.3508  0.4945 -0.5150
  206MPD1    C1 3182   2.695   3.446  17.011  0.3867 -0.1547  0.5060
  206MPD1    C2 3183   2.622   3.437  16.899 -0.3522  0.0779 -0.3926
  206MPD1    C3 3184   2.531   3.536  16.875  0.6108 -0.6359 -0.2130
  206MPD1    C4 3185   2.481   3.627  16.974  0.2991 -0.6741  0.0780
  206MPD1    C5 3186   2.542   3.616  17.096 -0.1176  0.5219  0.0281
  206MPD1     H 3187   2.659   3.380  16.815 -0.9689 -0.6636 -0.1599
  206MPD1    H1 3188   2.395   3.692  16.958  2.6770  2.4175 -0.0406
  206MPD1    H2 3189   2.705   3.529  17.203 -1.4680 -1.8981  0.3173
  206MPD1    H3 3190   2.514   3.676  17.182 -0.0490  1.8042 -0.8412
  206MPD1     N 3191   2.451   3.534  16.760  0.0075  0.0801  0.0903
  206MPD1    H5 3192   2.380   3.606  16.760  0.6011  0.6847  2.1793
  206MPD1    N1 3193   2.792   3.350  17.042 -0.0430 -0.2281 -0.8719
  206MPD1    H6 3194   2.861   3.385  17.108 -2.9631 -2.6132  3.4872
  206MPD1    H7 3195   2.844   3.313  16.962  1.1747  0.4740 -0.4035
  207MPD1     C 3196   0.800   0.048   9.932 -0.1122 -0.2410  0.2984
  207MPD1    C1 3197   0.841   0.177   9.920 -0.2955  0.0017 -0.2069
  207MPD1    C2 3198   0.794   0.267  10.012  0.5993 -0.1657 -0.0508
  207MPD1    C3 3199   0.694   0.226  10.103 -0.0084 -1.0108  0.1470
  207MPD1    C4 3200   0.652   0.099  10.111  0.2671  0.3213 -0.3034
  207MPD1    C5 3201   0.708   0.007  10.024 -0.0479  0.5731  0.1350
  207MPD1     H 3202   0.827   0.370  10.018 -1.9940  0.4446  3.3874
  207MPD1    H1 3203   0.583   0.070  10.189  1.5193 -1.6317  0.0768
  207MPD1    H2 3204   0.854   4.710   9.884 -0.6599 -0.3291 -0.1636
  207MPD1    H3 3205   0.694   4.644  10.043  2.6815 -0.0755 -1.4427
  207MPD1     N 3206   0.633   0.304  10.203  0.2270 -0.4703 -0.2721
  207MPD1    H5 3207   0.569   0.267  10.273 -1.9879 -1.2878 -2.7583
  207MPD1    N1 3208   0.947   0.205   9.833  0.7069  0.1691 -0.4607
  207MPD1    H6 3209   0.973   0.304   9.830 -0.7899  0.7077  3.2337
  207MPD1    H7 3210   0.902   0.186   9.744  0.0290  0.0465 -0.0960
  208MPD1     C 3211   1.218   3.890  17.458 -0.9074 -0.1894 -0.0683
  208MPD1    C1 3212   1.139   3.989  17.510  0.4480  0.0843  0.6972
  208MPD1    C2 3213   1.199   4.100  17.569 -0.6581 -0.7597  0.0404
  208MPD1    C3 3214   1.341   4.104  17.575 -1.1192 -0.4831 -0.0579
  208MPD1    C4 3215   1.414   4.008  17.516 -0.8210  0.3058  0.2224
  208MPD1    C5 3216   1.348   3.902  17.462 -0.0089  0.0290 -0.4838
  208MPD1     H 3217   1.141   4.171  17.629  0.3783 -1.1267  1.4800
  208MPD1    H1 3218   1.520   3.995  17.529 -0.6417  0.6153 -0.9033
  208MPD1    H2 3219   1.176   3.805  17.408 -0.5433  0.5275 -1.5923
  208MPD1    H3 3220   1.403   3.814  17.433  0.0459 -0.6705  1.7102
  208MPD1     N 3221   1.403   4.217  17.642 -0.3217  0.4680 -0.1296
  208MPD1    H5 3222   1.348   4.302  17.654 -0.1022  0.5844  0.0700
  208MPD1    N1 3223   1.000   3.961  17.519  0.5521  0.2605  0.3598
  208MPD1    H6 3224   0.944   4.045  17.506  0.9549  0.3566 -0.7924
  208MPD1    H7 3225   0.964   3.889  17.455  0.1963  2.4274 -1.8757
  209MPD1     C 3226   3.768   4.700  10.591  0.5120  0.3813  0.1081
  209MPD1    C1 3227   3.885   4.666  10.536  0.0800 -0.9434  0.4246
  209MPD1    C2 3228   3.999   4.724  10.592 -0.5473 -0.0257 -0.0467
  209MPD1    C3 3229   3.987   0.055  10.715  0.3691  0.3572  0.3253
  209MPD1    C4 3230   3.867   0.075  10.767 -0.2486 -0.4586 -0.5033
  209MPD1    C5 3231   3.756   0.024  10.711 -0.2362  0.0585  0.3967
  209MPD1     H 3232   4.098   4.710  10.550 -0.5042  0.3005 -0.0550
  209MPD1    H1 3233   3.852   0.124  10.862  1.5516 -1.7243  0.4288
  209MPD1    H2 3234   3.671   4.668  10.556  0.9584 -2.1752  1.2167
  209MPD1    H3 3235   3.656   0.040  10.749 -1.6509 -1.4607 -2.6354
  209MPD1     N 3236   4.109   0.086  10.776  0.8039  0.5724 -0.1496
  209MPD1    H5 3237   4.189   0.045  10.729 -1.1086 -0.3591 -2.5758
  209MPD1    N1 3238   3.884   4.596  10.414 -0.4686 -0.6129 -0.4425
  209MPD1    H6 3239   3.800   4.538  10.412 -0.6115 -0.4856  1.9660
  209MPD1    H7 3240   3.964   4.533  10.408 -0.5761 -0.8123  0.1665
  210MPD1     C 3241   4.712   0.539  11.608  0.5894 -0.3656 -0.5631
  210MPD1    C1 3242   4.647   0.417  11.622  0.2301 -0.2403  0.1501
  210MPD1    C2 3243   4.582   0.365  11.512  0.7693 -0.2945 -0.0760
  210MPD1    C3 3244   4.574   0.441  11.395  1.0901 -0.0972  0.1397
  210MPD1    C4 3245   4.626   0.572  11.382 -0.2754 -0.2219 -0.8775
  210MPD1    C5 3246   4.687   0.615  11.493  0.4086 -0.4332  0.7472
  210MPD1     H 3247   4.532   0.270  11.512  0.1968  0.0082 -0.0232
  210MPD1    H1 3248   4.613   0.638  11.298 -1.9935  0.0981 -0.3586
  210MPD1    H2 3249   0.019   0.591  11.688 -0.1070  0.4793 -0.6853
  210MPD1    H3 3250   4.721   0.718  11.483 -0.9623  0.1871  2.4444
  210MPD1     N 3251   4.500   0.402  11.276 -0.7084 -0.0635  0.1747
  210MPD1    H5 3252   4.489   0.470  11.201 -0.1598 -0.3152 -0.1320
  210MPD1    N1 3253   4.672   0.345  11.739  0.5395 -0.1614 -0.0869
  210MPD1    H6 3254   4.592   0.288  11.768  1.3352  0.4753  3.2874
  210MPD1    H7 3255   4.706   0.408  11.811  0.7414 -0.8147  0.3897
  211MPD1     C 3256   2.602   0.111  16.173  0.8130  0.0634 -0.4542
  211MPD1    C1 3257   2.550   0.203  16.079  0.2381  0.5114  0.5651
  211MPD1    C2 3258   2.464   0.297  16.123  0.0391  0.6796 -0.0775
  211MPD1    C3 3259   2.432   0.305  16.253  0.2543  0.2488  0.4158
  211MPD1    C4 3260   2.493   0.224  16.353  0.4887 -0.2887  0.2244
  211MPD1    C5 3261   2.580   0.128  16.309  0.3167 -0.0050 -0.0709
  211MPD1     H 3262   2.411   0.352  16.045 -1.2764  1.1185  1.1284
  211MPD1    H1 3263   2.461   0.219  16.457 -1.0515 -1.1720 -0.2819
  211MPD1    H2 3264   2.658   0.029  16.129  0.9300 -0.6750  1.0828
  211MPD1    H3 3265   2.626   0.051  16.370  0.8231  0.3552  0.0043
  211MPD1     N 3266   2.331   0.399  16.287  0.5172  0.4527  0.1724
  211MPD1    H5 3267   2.272   0.451  16.223  1.3469  3.5476  1.8850
  211MPD1    N1 3268   2.567   0.191  15.942  0.0146 -0.6320 -0.5596
  211MPD1    H6 3269   2.495   0.131  15.903  0.5540 -0.3061 -2.0363
  211MPD1    H7 3270   2.539   0.278  15.897  0.6929 -0.8154 -1.3385
  212MPD1     C 3271   1.838   3.540  16.158  0.0028 -0.1836 -0.1712
  212MPD1    C1 3272   1.766   3.610  16.250 -0.6476  0.5775 -0.2044
  212MPD1    C2 3273   1.730   3.550  16.369  0.0264  0.2456  0.2131
  212MPD1    C3 3274   1.764   3.417  16.400 -0.3788  0.2904 -1.0195
  212MPD1    C4 3275   1.839   3.355  16.306  0.2924  0.3974  0.4092
  212MPD1    C5 3276   1.877   3.415  16.190 -0.4644 -0.2901 -0.0154
  212MPD1     H 3277   1.666   3.611  16.431 -1.1855 -0.5158 -0.2815
  212MPD1    H1 3278   1.882   3.256  16.300 -0.7085  0.1030 -2.1239
  212MPD1    H2 3279   1.869   3.583  16.064  0.8921  1.2064  0.7526
  212MPD1    H3 3280   1.937   3.366  16.115 -0.2004 -0.8658  0.5711
  212MPD1     N 3281   1.720   3.342  16.512  0.1373  0.0843 -0.0040
  212MPD1    H5 3282   1.719   3.241  16.504 -1.7249  0.1074 -0.0069
  212MPD1    N1 3283   1.725   3.741  16.220  0.7611 -0.7531  0.9551
  212MPD1    H6 3284   1.766   3.789  16.140 -0.7709 -0.5698  0.2661
  212MPD1    H7 3285   1.690   3.796  16.298 -0.7324 -0.0330 -0.2232
  213MPD1     C 3286   4.451   3.766  16.516  0.2022 -0.6528  0.2114
  213MPD1    C1 3287   4.358   3.704  16.434  0.6307 -0.4569 -0.7724
  213MPD1    C2 3288   4.310   3.770  16.324  0.3788 -1.0826 -0.2141
  213MPD1    C3 3289   4.372   3.885  16.281 -0.3072  0.0520 -0.3319
  213MPD1    C4 3290   4.475   3.938  16.354 -0.3518  0.0754 -0.3320
  213MPD1    C5 3291   4.507   3.888  16.477 -0.2364 -0.1652 -0.2846
  213MPD1     H 3292   4.228   3.726  16.268 -0.9947  0.3788  0.6413
  213MPD1    H1 3293   4.537   4.027  16.344  0.2193 -0.4720 -1.6408
  213MPD1    H2 3294   4.457   3.734  16.619 -0.0965  0.1938  0.4938
  213MPD1    H3 3295   4.577   3.933  16.547  0.0298  0.2916 -0.8457
  213MPD1     N 3296   4.330   3.944  16.157  0.7824  0.2305  0.2715
  213MPD1    H5 3297   4.261   3.884  16.113 -0.8137  2.8680 -0.8619
  213MPD1    N1 3298   4.275   3.611  16.500  0.2821 -0.0990 -0.7242
  213MPD1    H6 3299   4.226   3.541  16.444  0.9286 -1.1963  0.0744
  213MPD1    H7 3300   4.329   3.558  16.569  0.1591  1.0464  0.2477
  214MPD1     C 3301   3.865   3.479  15.637 -0.5690 -1.2062  0.7113
  214MPD1    C1 3302   3.896   3.576  15.552  0.9523 -0.0576 -0.4336
  214MPD1    C2 3303   3.964   3.682  15.604  0.5142 -0.1243 -0.1987
  214MPD1    C3 3304   3.998   3.690  15.738 -0.2856 -0.2787  0.1058
  214MPD1    C4 3305   3.959   3.585  15.824 -0.0964  0.0468  0.2523
  214MPD1    C5 3306   3.894   3.476  15.771 -0.4092 -0.7308  0.1080
  214MPD1     H 3307   3.995   3.757  15.533 -0.3541  1.4463  1.0834
  214MPD1    H1 3308   3.983   3.584  15.929  0.0429  0.0987  0.2204
  214MPD1    H2 3309   3.826   3.383  15.604 -1.1917  0.2187 -2.6922
  214MPD1    H3 3310   3.878   3.385  15.827 -2.1482 -0.0736  0.6780
  214MPD1     N 3311   4.054   3.805  15.796 -0.3638  0.0483 -0.1782
  214MPD1    H5 3312   4.055   3.817  15.897  0.8523  0.0714 -0.1953
  214MPD1    N1 3313   3.876   3.557  15.414 -0.1817 -0.0452 -0.4666
  214MPD1    H6 3314   3.789   3.505  15.404  0.2386 -1.3488  2.5449
  214MPD1    H7 3315   3.863   3.645  15.365  1.2540  0.3369 -0.1750
  215MPD1     C 3316   3.690   4.726  11.588  0.0244 -0.3897  1.1191
  215MPD1    C1 3317   3.799   0.014  11.664  0.1025  0.1363  0.1280
  215MPD1    C2 3318   3.882   0.112  11.613 -0.2073 -0.0308  0.0568
  215MPD1    C3 3319   3.856   0.202  11.510  0.0988 -0.2745 -0.1358
  215MPD1    C4 3320   3.737   0.178  11.442  0.4418  0.2771 -0.2422
  215MPD1    C5 3321   3.666   0.062  11.479 -0.5949  0.1558 -0.4994
  215MPD1     H 3322   3.980   0.120  11.658 -0.2567  0.4931  0.0781
  215MPD1    H1 3323   3.700   0.241  11.362 -0.4383 -1.0758 -0.8994
  215MPD1    H2 3324   3.626   4.638  11.596 -0.1777 -0.3950 -0.7546
  215MPD1    H3 3325   3.587   0.023  11.415 -1.8019 -0.8091  1.5990
  215MPD1     N 3326   3.949   0.303  11.488  0.1117 -0.3732  0.2335
  215MPD1    H5 3327   4.021   0.322  11.557  0.9521  1.5213 -1.1669
  215MPD1    N1 3328   3.848   4.672  11.765 -0.1366 -0.4118 -0.0883
  215MPD1    H6 3329   3.921   4.720  11.818  1.8508 -3.6803  0.1368
  215MPD1    H7 3330   3.775   4.631  11.823 -2.4149  1.2443 -1.8125
  216MPD1     C 3331   1.234   3.658   0.386 -0.1392  0.2384  0.1867
  216MPD1    C1 3332   1.363   3.623   0.395 -0.6850 -0.6264 -0.4106
  216MPD1    C2 3333   1.405   3.491   0.370  0.3121 -0.0122 -0.0561
  216MPD1    C3 3334   1.311   3.392   0.347  0.2050  0.4383 -0.0389
  216MPD1    C4 3335   1.179   3.428   0.353  0.7212 -0.0603 -0.0729
  216MPD1    C5 3336   1.140   3.558   0.377  0.0200 -1.0382  0.1485
  216MPD1     H 3337   1.511   3.472   0.361  0.3879  0.4710 -0.2275
  216MPD1    H1 3338   1.102   3.355   0.332  1.9594 -1.3913  0.0092
  216MPD1    H2 3339   1.201   3.761   0.391 -1.7951 -0.3427  1.1805
  216MPD1    H3 3340   1.035   3.584   0.379  0.1587 -0.5657  1.5249
  216MPD1     N 3341   1.361   3.252   0.330 -0.2315  0.0725 -0.0636
  216MPD1    H5 3342   1.461   3.247   0.320 -0.1741  1.6557 -0.4303
  216MPD1    N1 3343   1.457   3.729   0.401  0.3744 -0.1084  0.1742
  216MPD1    H6 3344   1.553   3.701   0.418  0.3515  0.8895  1.9896
  216MPD1    H7 3345   1.427   3.803   0.465 -0.8666  0.1783 -0.7270
  217MPD1     C 3346   2.348   3.047   8.534 -0.3690  0.3959  0.1563
  217MPD1    C1 3347   2.473   3.077   8.587 -0.4937  0.4653 -0.4167
  217MPD1    C2 3348   2.475   3.119   8.719 -0.4827  0.4253 -0.5016
  217MPD1    C3 3349   2.361   3.123   8.798  0.3859  0.6071  0.3118
  217MPD1    C4 3350   2.239   3.086   8.746  0.4208  0.6265 -0.3335
  217MPD1    C5 3351   2.229   3.049   8.611 -0.3526 -0.5376 -0.2024
  217MPD1     H 3352   2.571   3.149   8.760 -0.3178  0.6903 -1.0900
  217MPD1    H1 3353   2.144   3.109   8.794  0.0185  0.9867 -1.2905
  217MPD1    H2 3354   2.333   3.035   8.427  1.2945  1.2027 -0.1776
  217MPD1    H3 3355   2.128   3.046   8.574 -1.1291  2.6651  1.6943
  217MPD1     N 3356   2.355   3.189   8.926 -0.1120 -0.3562  0.1308
  217MPD1    H5 3357   2.265   3.199   8.971 -0.5051  0.6044 -0.8792
  217MPD1    N1 3358   2.576   3.105   8.494 -0.0433  0.1863 -0.5668
  217MPD1    H6 3359   2.567   3.045   8.412  1.1992 -0.3343 -0.3212
  217MPD1    H7 3360   2.669   3.083   8.530  0.1596  0.9552 -0.6186
  218MPD1     C 3361   3.800   0.197  13.183  0.6146 -0.4390 -0.5082
  218MPD1    C1 3362   3.880   0.097  13.128  0.7573 -0.4424  0.1007
  218MPD1    C2 3363   3.987   0.128  13.047 -0.6414 -0.9185 -0.7689
  218MPD1    C3 3364   4.022   0.259  13.023 -0.0529 -0.0161  0.9329
  218MPD1    C4 3365   3.956   0.361  13.092 -0.3885 -0.3549 -0.6396
  218MPD1    C5 3366   3.843   0.329  13.171  0.5349 -1.1461  0.2091
  218MPD1     H 3367   4.042   0.044  13.007  2.3340 -0.5398  2.5343
  218MPD1    H1 3368   3.987   0.465  13.086  0.8319 -0.6409  0.5318
  218MPD1    H2 3369   3.718   0.175  13.251 -0.3264 -0.3127 -1.6072
  218MPD1    H3 3370   3.780   0.408  13.211  1.1100 -0.8874  0.6083
  218MPD1     N 3371   4.135   0.277  12.936 -0.4145  0.0436 -0.6019
  218MPD1    H5 3372   4.179   0.199  12.888 -0.1671 -1.0581  1.4550
  218MPD1    N1 3373   3.837   4.701  13.130 -0.5071  0.4985 -0.2892
  218MPD1    H6 3374   3.756   4.664  13.179  0.7141 -0.6279  0.9022
  218MPD1    H7 3375   3.901   4.625  13.106  0.3283  0.9181  0.5929
  219MPD1     C 3376   3.889   0.521  12.137  0.0385  0.0523 -0.3149
  219MPD1    C1 3377   4.028   0.528  12.111 -0.1062  0.3622 -0.0244
  219MPD1    C2 3378   4.121   0.505  12.210 -0.3156  0.5213 -0.2854
  219MPD1    C3 3379   4.081   0.459  12.337 -0.3764 -1.3094  0.4682
  219MPD1    C4 3380   3.942   0.443  12.354 -0.5889 -0.0764 -0.6147
  219MPD1    C5 3381   3.848   0.474  12.260  0.7292  0.4300 -0.1611
  219MPD1     H 3382   4.228   0.524  12.204 -0.5161  1.7218 -0.0360
  219MPD1    H1 3383   3.905   0.433  12.455 -0.0576 -0.2786 -0.4418
  219MPD1    H2 3384   3.817   0.542  12.058  1.2902  2.8976 -0.6882
  219MPD1    H3 3385   3.743   0.456  12.281  0.9006 -0.9123 -0.4631
  219MPD1     N 3386   4.162   0.432  12.448  0.3971 -0.0712  0.1971
  219MPD1    H5 3387   4.116   0.379  12.521 -2.1544 -3.2049 -3.6577
  219MPD1    N1 3388   4.066   0.583  11.988 -0.3107 -0.0245 -0.2114
  219MPD1    H6 3389   4.164   0.564  11.973 -0.9210 -1.5871 -2.2307
  219MPD1    H7 3390   4.015   0.546  11.907  1.5125 -0.4642 -1.1460
  220MPD1     C 3391   3.520   0.713   9.688 -0.5364  0.2488 -0.0900
  220MPD1    C1 3392   3.438   0.699   9.794 -0.4810 -0.4406  0.3349
  220MPD1    C2 3393   3.485   0.623   9.903 -0.3047  0.2458 -0.0666
  220MPD1    C3 3394   3.610   0.556   9.901 -0.0216  0.1927 -0.2112
  220MPD1    C4 3395   3.683   0.561   9.784 -0.3211 -0.2697  0.4409
  220MPD1    C5 3396   3.644   0.647   9.685 -0.9682  0.2643  0.1036
  220MPD1     H 3397   3.421   0.619   9.990  0.3586 -1.6617  0.3181
  220MPD1    H1 3398   3.775   0.505   9.772 -1.1609 -1.6358  0.2817
  220MPD1    H2 3399   3.494   0.779   9.606  0.0970  0.0269 -0.4720
  220MPD1    H3 3400   3.698   0.649   9.592 -1.2008  2.8400  0.0110
  220MPD1     N 3401   3.659   0.496  10.020 -0.2356 -0.7215  0.3884
  220MPD1    H5 3402   3.602   0.494  10.104 -0.1465  1.5933  0.5191
  220MPD1    N1 3403   3.335   0.796   9.822 -0.9493 -0.4376 -0.0878
  220MPD1    H6 3404   3.283   0.831   9.742 -0.7440 -0.9783 -0.4618
  220MPD1    H7 3405   3.269   0.770   9.895 -0.5009  1.4846  0.9936
  221MPD1     C 3406   1.686   0.165  16.976  0.5842  0.7173 -0.0248
  221MPD1    C1 3407   1.681   0.166  16.840  1.0680 -0.2312  0.8494
  221MPD1    C2 3408   1.765   0.076  16.772 -0.1156 -1.1169  0.3410
  221MPD1    C3 3409   1.830   4.718  16.841  0.3862 -0.6497  0.1297
  221MPD1    C4 3410   1.807   4.708  16.981 -0.1584 -0.0355  0.2850
  221MPD1    C5 3411   1.747   0.065  17.048 -0.0127  0.1804  0.6708
  221MPD1     H 3412   1.782   0.091  16.666 -0.0756 -0.7291  0.4030
  221MPD1    H1 3413   1.852   4.633  17.045  0.3314 -0.9843 -1.1727
  221MPD1    H2 3414   1.639   0.246  17.031 -1.0451 -1.0440  1.1904
  221MPD1    H3 3415   1.744   0.058  17.156  0.3118 -0.4628  0.6370
  221MPD1     N 3416   1.919   4.633  16.779 -0.0449  0.2441  0.1482
  221MPD1    H5 3417   1.971   4.571  16.841  0.7399  0.6656 -0.1006
  221MPD1    N1 3418   1.626   0.281  16.778 -0.0030 -0.1612  0.3737
  221MPD1    H6 3419   1.542   0.318  16.821  0.5112 -1.1405  2.2651
  221MPD1    H7 3420   1.593   0.254  16.686 -0.8887  1.4482  0.2369
  222MPD1     C 3421   1.222   3.250  17.580 -0.0414  0.2493  0.0318
  222MPD1    C1 3422   1.303   3.351  17.528 -0.1397 -0.3465  0.3003
  222MPD1    C2 3423   1.333   3.466  17.594 -0.0177 -0.1501  0.0284
  222MPD1    C3 3424   1.259   3.498  17.708  0.5930 -0.0162 -0.2519
  222MPD1    C4 3425   1.158   3.412  17.746 -0.0292  0.0460  0.1116
  222MPD1    C5 3426   1.144   3.285  17.688  0.1733 -0.3232  0.2781
  222MPD1     H 3427   1.416   3.522  17.555 -0.0852 -0.6841 -0.8689
  222MPD1    H1 3428   1.107   3.423   0.076 -1.4985 -0.0575 -0.6587
  222MPD1    H2 3429   1.199   3.156  17.532 -1.7191  1.3529 -1.3209
  222MPD1    H3 3430   1.070   3.215  17.725 -1.1898  0.0090 -1.8246
  222MPD1     N 3431   1.272   3.620   0.015  0.8142  0.0443  0.0386
  222MPD1    H5 3432   1.200   3.658   0.076 -0.5272  0.8660 -2.0932
  222MPD1    N1 3433   1.390   3.313  17.424 -0.2519  0.2254 -0.2249
  222MPD1    H6 3434   1.425   3.397  17.379  2.7236 -1.0056 -0.2420
  222MPD1    H7 3435   1.337   3.258  17.356  1.9344 -3.2066  0.8479
  223MPD1     C 3436   0.583   4.025   0.144  0.0865 -0.1048  0.1182
  223MPD1    C1 3437   0.630   3.956   0.032 -0.1208 -0.5673 -0.4725
  223MPD1    C2 3438   0.764   3.958   0.010  0.3494 -0.1258 -0.0202
  223MPD1    C3 3439   0.859   4.025   0.091  0.0623 -0.6040 -0.7280
  223MPD1    C4 3440   0.805   4.091   0.202 -0.2732 -0.2039  0.1046
  223MPD1    C5 3441   0.670   4.097   0.227  0.0778 -0.1599  0.4460
  223MPD1     H 3442   0.807   3.900  17.694 -0.3896 -0.3488 -0.2554
  223MPD1    H1 3443   0.870   4.147   0.267 -0.4555  0.6051 -0.4061
  223MPD1    H2 3444   0.480   4.011   0.176  0.1042 -2.1430 -0.7268
  223MPD1    H3 3445   0.642   4.131   0.326  1.0477 -0.3250  0.7761
  223MPD1     N 3446   0.996   4.011   0.068  0.0614 -0.0206  0.1358
  223MPD1    H5 3447   1.024   3.964  17.748 -0.1110  0.8481 -0.3990
  223MPD1    N1 3448   0.556   3.857  17.735 -0.3516  0.4477  0.0909
  223MPD1    H6 3449   0.458   3.857  17.763 -0.6158  0.3897 -0.8341
  223MPD1    H7 3450   0.581   3.763   0.002 -1.7659  0.5343  1.4225
  224MPD1     C 3451   1.943   4.521   9.456  0.0034  0.0935 -0.7867
  224MPD1    C1 3452   1.992   4.393   9.485 -0.0773  0.4218 -0.0576
  224MPD1    C2 3453   2.125   4.358   9.470  0.8680 -0.0270 -0.3737
  224MPD1    C3 3454   2.216   4.455   9.438  0.8833 -0.2860 -0.0310
  224MPD1    C4 3455   2.169   4.578   9.409  0.3107  0.1165  0.6322
  224MPD1    C5 3456   2.031   4.610   9.400  0.9512  0.1967  0.2092
  224MPD1     H 3457   2.157   4.257   9.494 -0.7132 -0.5547 -0.4756
  224MPD1    H1 3458   2.241   4.653   9.378 -0.6401  0.3469 -0.9839
  224MPD1    H2 3459   1.840   4.548   9.475  0.2699  1.5937 -1.4208
  224MPD1    H3 3460   2.005   4.705   9.356 -0.2935  0.0410  0.6174
  224MPD1     N 3461   2.354   4.442   9.431  0.2788  0.0080 -0.8315
  224MPD1    H5 3462   2.403   4.531   9.431  0.1560  0.0715  2.4423
  224MPD1    N1 3463   1.900   4.297   9.518 -0.5312 -0.1878 -0.1453
  224MPD1    H6 3464   1.814   4.327   9.565  0.6764 -0.6591  2.3821
  224MPD1    H7 3465   1.938   4.222   9.575  1.2024 -0.3713 -1.5578
  225MPD1     C 3466   3.954   1.654  13.018  0.2961 -0.0974 -0.4960
  225MPD1    C1 3467   3.938   1.559  12.920  0.1111  0.9210  0.3516
  225MPD1    C2 3468   3.813   1.509  12.890  0.3605 -0.2549  0.2094
  225MPD1    C3 3469   3.704   1.571  12.951 -0.2908  0.6951  1.0140
  225MPD1    C4 3470   3.725   1.670  13.045  0.3228 -0.3265  0.4067
  225MPD1    C5 3471   3.849   1.708  13.085 -0.1946 -0.0465  0.0498
  225MPD1     H 3472   3.804   1.437  12.810 -1.0654  2.1825 -1.8283
  225MPD1    H1 3473   3.644   1.720  13.097  0.8494  0.2328  0.6914
  225MPD1    H2 3474   4.054   1.681  13.051 -0.2618  1.0944  0.1998
  225MPD1    H3 3475   3.863   1.773  13.170  0.5319 -1.4337  0.9898
  225MPD1     N 3476   3.567   1.537  12.926 -0.5532 -0.3210  0.3374
  225MPD1    H5 3477   3.495   1.595  12.969 -0.0640  0.4329  0.1344
  225MPD1    N1 3478   4.048   1.486  12.881 -0.2231 -0.2596  0.1055
  225MPD1    H6 3479   4.078   1.426  12.958 -0.3528 -0.8379 -0.2922
  225MPD1    H7 3480   4.133   1.541  12.884  0.0559 -0.6957  0.2304
  226MPD1     C 3481   1.244   4.585   9.951 -0.7879 -0.8845 -0.3068
  226MPD1    C1 3482   1.189   4.693   9.893  0.5371  0.6351  0.6685
  226MPD1    C2 3483   1.204   4.703   9.753 -0.2848  0.6650  0.1718
  226MPD1    C3 3484   1.256   4.596   9.679 -0.3201  0.1557  0.4679
  226MPD1    C4 3485   1.298   4.482   9.744 -0.2459  0.0704 -0.0078
  226MPD1    C5 3486   1.294   4.485   9.880 -0.1930  0.0851  0.5701
  226MPD1     H 3487   1.172   0.056   9.712  4.5016  1.8234 -0.8758
  226MPD1    H1 3488   1.341   4.393   9.699 -0.0205 -0.2469  0.8513
  226MPD1    H2 3489   1.248   4.580  10.060 -0.4376 -0.3302 -0.2904
  226MPD1    H3 3490   1.339   4.395   9.919 -0.6579  0.1177  1.1935
  226MPD1     N 3491   1.266   4.609   9.536 -0.6617 -0.0752 -0.1220
  226MPD1    H5 3492   1.236   4.690   9.482 -0.0557 -0.1952 -0.6327
  226MPD1    N1 3493   1.139   0.056   9.969  0.5569  0.5841 -0.5745
  226MPD1    H6 3494   1.069   0.110   9.920 -0.4742 -0.2751 -0.0728
  226MPD1    H7 3495   1.103   0.023  10.059  3.4383  1.3432  0.8761
  227MPD1     C 3496   0.674   0.275   9.065 -0.4270  0.7962  0.2293
  227MPD1    C1 3497   0.757   0.305   9.174 -0.0174  0.2214  0.6153
  227MPD1    C2 3498   0.869   0.224   9.194 -0.2126  0.3703  0.3195
  227MPD1    C3 3499   0.897   0.110   9.125  0.5312  0.2340 -0.5273
  227MPD1    C4 3500   0.789   0.074   9.043 -0.6842 -0.3900 -0.0341
  227MPD1    C5 3501   0.688   0.151   9.009 -0.6860  0.3970  0.6483
  227MPD1     H 3502   0.933   0.242   9.280 -0.8723  1.7754  0.5192
  227MPD1    H1 3503   0.777   4.717   9.000 -2.1993  0.2641 -1.0827
  227MPD1    H2 3504   0.592   0.337   9.031 -1.2637  0.5755  1.8574
  227MPD1    H3 3505   0.606   0.113   8.949  0.8713 -0.0032 -1.2344
  227MPD1     N 3506   0.998   0.023   9.164 -0.2264  0.4724  0.3181
  227MPD1    H5 3507   1.047   0.050   9.249  2.0442 -1.0666 -0.4929
  227MPD1    N1 3508   0.744   0.431   9.241 -0.2651  0.4218 -0.2857
  227MPD1    H6 3509   0.789   0.439   9.332  1.8749  1.6756 -1.4541
  227MPD1    H7 3510   0.648   0.462   9.239 -0.6193 -0.6418  0.0851
  228MPD1     C 3511   1.209   3.139  13.709 -0.2420 -0.8347 -0.2668
  228MPD1    C1 3512   1.202   3.256  13.633  0.2815 -0.1819 -0.0960
  228MPD1    C2 3513   1.080   3.323  13.622  0.3741  0.3707  0.3402
  228MPD1    C3 3514   0.961   3.274  13.671  0.0803 -0.1356 -0.2598
  228MPD1    C4 3515   0.964   3.158  13.734 -0.4264 -0.2862 -0.4701
  228MPD1    C5 3516   1.086   3.094  13.761 -0.3185  0.2231  0.0343
  228MPD1     H 3517   1.071   3.408  13.555  0.6211  1.4837  1.7110
  228MPD1    H1 3518   0.882   3.093  13.765 -1.3543  0.9576 -0.3354
  228MPD1    H2 3519   1.303   3.084  13.720  1.7642  1.9325 -3.7753
  228MPD1    H3 3520   1.078   2.994  13.800 -0.5127 -0.3332 -1.4084
  228MPD1     N 3521   0.841   3.335  13.645 -0.0336  0.5446 -0.3066
  228MPD1    H5 3522   0.860   3.403  13.572 -2.6813  1.5134 -0.0771
  228MPD1    N1 3523   1.310   3.296  13.552  0.6295 -0.2652  0.1441
  228MPD1    H6 3524   1.403   3.274  13.585  0.6651  2.3493  1.7382
  228MPD1    H7 3525   1.301   3.391  13.515 -3.3319 -0.2639  1.0533
  229MPD1     C 3526   0.210   2.534  14.361  0.0141 -1.2500 -0.4133
  229MPD1    C1 3527   0.246   2.409  14.332 -0.1460 -0.1664 -0.0529
  229MPD1    C2 3528   0.355   2.362  14.413 -0.4239  1.5903 -0.1126
  229MPD1    C3 3529   0.405   2.430  14.530 -0.2526 -0.3681  0.3741
  229MPD1    C4 3530   0.349   2.547  14.565  0.4543 -0.9478 -0.5716
  229MPD1    C5 3531   0.254   2.593  14.474 -0.1599  0.1826 -0.3876
  229MPD1     H 3532   0.399   2.267  14.384 -0.7573  1.3691  0.1082
  229MPD1    H1 3533   0.383   2.604  14.651  2.0992  1.2761 -2.7351
  229MPD1    H2 3534   0.126   2.576  14.307 -1.1915 -1.8905  0.9694
  229MPD1    H3 3535   0.215   2.692  14.497  0.2201  0.6232 -1.6346
  229MPD1     N 3536   0.510   2.385  14.611  0.3358  0.7992 -0.2399
  229MPD1    H5 3537   0.525   2.443  14.693 -2.9180 -0.7595  1.4695
  229MPD1    N1 3538   0.200   2.341  14.216 -0.5197  0.1117 -0.1074
  229MPD1    H6 3539   0.124   2.390  14.170 -1.2208 -1.2710 -0.4304
  229MPD1    H7 3540   0.191   2.239  14.221  0.2527  0.0199 -0.5271
  230MPD1     C 3541   0.941   2.311  15.520  0.4671  0.3781  0.4716
  230MPD1    C1 3542   0.997   2.199  15.464  0.3754  0.3397  0.5726
  230MPD1    C2 3543   0.982   2.197  15.328  0.4103  0.5299  0.3832
  230MPD1    C3 3544   0.897   2.282  15.254  0.2982  0.0184  0.2213
  230MPD1    C4 3545   0.832   2.382  15.325 -0.0099  0.1502 -0.4966
  230MPD1    C5 3546   0.860   2.401  15.460 -0.0203  1.1232  0.0359
  230MPD1     H 3547   1.020   2.112  15.273 -0.8762  0.3755 -0.2413
  230MPD1    H1 3548   0.768   2.448  15.266  0.3614 -0.5447 -1.6848
  230MPD1    H2 3549   0.950   2.314  15.628 -0.1582  0.5635  0.5232
  230MPD1    H3 3550   0.823   2.479  15.526 -2.1892  0.6941 -0.6746
  230MPD1     N 3551   0.862   2.248  15.124  0.9458 -0.7695 -0.7231
  230MPD1    H5 3552   0.904   2.162  15.091  0.6057 -1.8439  1.6807
  230MPD1    N1 3553   1.085   2.110  15.538  0.5493 -0.2197 -0.3250
  230MPD1    H6 3554   1.068   2.014  15.507 -2.4138 -0.0317  0.7514
  230MPD1    H7 3555   1.052   2.125  15.633 -0.5961 -1.6311 -0.4990
  231MPD1     C 3556   3.078   3.714  15.862 -0.3954  0.2439 -0.4388
  231MPD1    C1 3557   3.058   3.723  15.724 -0.3257  0.0032  0.4307
  231MPD1    C2 3558   3.141   3.808  15.654  0.2408 -0.3845  0.6154
  231MPD1    C3 3559   3.214   3.903  15.725  0.6978  1.1619  0.3611
  231MPD1    C4 3560   3.225   3.898  15.860  0.2030  0.1559 -0.9908
  231MPD1    C5 3561   3.158   3.800  15.925 -0.4208  0.0045 -0.5676
  231MPD1     H 3562   3.139   3.810  15.546  0.7781  0.2237  0.6182
  231MPD1    H1 3563   3.280   3.971  15.918  0.6621  0.9336 -2.3973
  231MPD1    H2 3564   3.036   3.632  15.918 -0.3065 -0.8718 -2.0116
  231MPD1    H3 3565   3.170   3.794  16.033  3.5643  3.7264 -0.8178
  231MPD1     N 3566   3.292   3.996  15.645  0.6663  0.1372 -0.7446
  231MPD1    H5 3567   3.299   3.975  15.546 -0.0385 -0.3196 -0.6939
  231MPD1    N1 3568   2.997   3.615  15.653 -0.4793 -0.5858 -0.1337
  231MPD1    H6 3569   2.938   3.566  15.721 -1.7182  1.8474  0.5344
  231MPD1    H7 3570   2.952   3.652  15.570 -1.5424  2.4175  1.7917
  232MPD1     C 3571   0.949   2.678   0.323  0.1821 -0.2251  0.4256
  232MPD1    C1 3572   0.863   2.792   0.312 -0.0467 -0.2119  0.2701
  232MPD1    C2 3573   0.727   2.777   0.293 -0.0601 -0.1360 -0.2675
  232MPD1    C3 3574   0.669   2.651   0.297 -0.9478  0.2351 -0.3007
  232MPD1    C4 3575   0.750   2.544   0.301  0.6217  0.4765  0.0768
  232MPD1    C5 3576   0.886   2.560   0.315  0.0155 -0.1605 -0.6069
  232MPD1     H 3577   0.661   2.863   0.288  0.0386  0.0392  1.3583
  232MPD1    H1 3578   0.709   2.444   0.294 -0.2386  0.8519 -0.3480
  232MPD1    H2 3579   1.058   2.681   0.325  0.2255  0.6492 -2.5436
  232MPD1    H3 3580   0.943   2.468   0.312 -1.8773 -1.3908  0.7674
  232MPD1     N 3581   0.527   2.645   0.291  0.5647  1.2150  0.1698
  232MPD1    H5 3582   0.483   2.734   0.271  2.9911  2.4860  0.4614
  232MPD1    N1 3583   0.919   2.921   0.287  0.1967  0.4799  0.2882
  232MPD1    H6 3584   0.850   2.996   0.290 -0.6076 -0.2327 -0.4695
  232MPD1    H7 3585   1.003   2.949   0.337 -0.4107  0.6380  1.2221
  233MPD1     C 3586   1.454   0.657   1.422 -0.3509  0.2681 -0.5395
  233MPD1    C1 3587   1.510   0.547   1.357 -0.3516  0.4233 -0.0475
  233MPD1    C2 3588   1.642   0.560   1.311 -0.5575 -0.0597 -0.2976
  233MPD1    C3 3589   1.717   0.681   1.310 -0.6239  0.2534 -0.2659
  233MPD1    C4 3590   1.656   0.784   1.368  0.3076 -0.1058 -0.1671
  233MPD1    C5 3591   1.535   0.771   1.428  0.3058  0.4748  0.0384
  233MPD1     H 3592   1.694   0.469   1.283  1.1986  1.1638 -1.0209
  233MPD1    H1 3593   1.712   0.876   1.378  1.1295 -0.3016 -2.9597
  233MPD1    H2 3594   1.357   0.658   1.471 -0.8148 -0.3154 -1.4638
  233MPD1    H3 3595   1.498   0.866   1.467  1.6455  1.1532 -0.3671
  233MPD1     N 3596   1.856   0.691   1.276 -0.7156  0.6576 -0.0079
  233MPD1    H5 3597   1.907   0.775   1.300  0.1809  0.3366 -0.8028
  233MPD1    N1 3598   1.452   0.422   1.373 -0.1197  1.0267 -0.5152
  233MPD1    H6 3599   1.470   0.360   1.294  1.7572 -0.6488  1.2477
  233MPD1    H7 3600   1.353   0.436   1.391 -0.4486 -1.7348 -0.1731
  234MPD1     C 3601   3.371   3.316  10.742  0.2089 -0.2189  0.2853
  234MPD1    C1 3602   3.436   3.414  10.673  0.5343 -1.1408 -0.5582
  234MPD1    C2 3603   3.381   3.461  10.558 -0.6679 -0.3932  0.0496
  234MPD1    C3 3604   3.269   3.402  10.503  0.4722  1.3381 -0.1231
  234MPD1    C4 3605   3.217   3.286  10.564  0.3649  0.0671  0.7146
  234MPD1    C5 3606   3.271   3.256  10.686 -0.2006  0.1133 -0.4482
  234MPD1     H 3607   3.420   3.547  10.505 -1.3256  1.5809  2.8159
  234MPD1    H1 3608   3.133   3.226  10.532 -1.1835  3.6871 -2.0306
  234MPD1    H2 3609   3.405   3.274  10.836  0.4118  0.6775  0.6072
  234MPD1    H3 3610   3.238   3.158  10.721  3.0558  0.4236  3.4890
  234MPD1     N 3611   3.238   3.443  10.374 -0.0223 -0.2763  0.0974
  234MPD1    H5 3612   3.268   3.534  10.340 -2.1537  1.0342  1.7443
  234MPD1    N1 3613   3.537   3.488  10.732 -0.6472  0.3804 -0.5965
  234MPD1    H6 3614   3.593   3.423  10.787  0.9330  1.5669 -0.8239
  234MPD1    H7 3615   3.596   3.540  10.668  1.8960  1.6389  2.7356
  235MPD1     C 3616   4.669   0.733  10.970 -0.0565  0.1163 -0.3811
  235MPD1    C1 3617   0.013   0.734  10.856 -0.2146  0.3444 -0.5020
  235MPD1    C2 3618   0.076   0.853  10.824 -0.4345 -0.1459  0.2041
  235MPD1    C3 3619   0.048   0.967  10.902 -0.4719  0.0729  0.2716
  235MPD1    C4 3620   4.703   0.968  11.005 -0.9421  0.0634 -0.4942
  235MPD1    C5 3621   4.652   0.847  11.044 -0.2468  0.0843  0.0652
  235MPD1     H 3622   0.130   0.858  10.730 -0.1482 -1.8214  0.2905
  235MPD1    H1 3623   4.676   1.051  11.068 -0.0421 -0.9520  1.2508
  235MPD1    H2 3624   4.618   0.642  10.999  0.3792  0.8314  2.6351
  235MPD1    H3 3625   4.568   0.855  11.112  0.2376 -2.0355  0.9241
  235MPD1     N 3626   0.094   1.088  10.842  0.4005  0.4644 -0.4586
  235MPD1    H5 3627   0.115   1.087  10.742 -0.1362  0.5816 -0.5712
  235MPD1    N1 3628   0.027   0.620  10.777 -0.0027  0.2104  0.3187
  235MPD1    H6 3629   4.732   0.540  10.829 -1.5758  2.1321  2.1592
  235MPD1    H7 3630   0.120   0.597  10.743  0.2485  0.6440  0.7009
  236MPD1     C 3631   3.674   2.091  10.171  0.0746  0.6621  0.0168
  236MPD1    C1 3632   3.677   1.985  10.256  0.2445 -0.5888  1.1832
  236MPD1    C2 3633   3.772   1.984  10.355  0.1071 -0.7963  0.3458
  236MPD1    C3 3634   3.848   2.101  10.383 -0.4219 -0.6636  0.5211
  236MPD1    C4 3635   3.829   2.210  10.308 -0.1994  0.3781  0.0170
  236MPD1    C5 3636   3.746   2.204  10.202 -0.5562 -0.1072 -1.0750
  236MPD1     H 3637   3.785   1.890  10.408  1.1273 -0.7647  0.1514
  236MPD1    H1 3638   3.887   2.300  10.325 -0.9975  1.4373 -2.8689
  236MPD1    H2 3639   3.613   2.093  10.082 -0.0313  0.2644  0.0809
  236MPD1    H3 3640   3.717   2.288  10.140 -2.5416  1.0129  1.3481
  236MPD1     N 3641   3.942   2.116  10.492  0.6504  0.0455 -0.0331
  236MPD1    H5 3642   3.984   2.208  10.499  0.2421  0.3129 -1.0946
  236MPD1    N1 3643   3.607   1.868  10.220  0.3321 -0.0984  0.3507
  236MPD1    H6 3644   3.602   1.796  10.293  1.6639 -1.1606 -0.5949
  236MPD1    H7 3645   3.520   1.895  10.174  0.0193  0.2686  1.1667
  237MPD1     C 3646   4.487   1.069  15.297 -0.4007 -0.0490  0.2029
  237MPD1    C1 3647   4.518   0.951  15.234  0.5787 -0.1852  0.1222
  237MPD1    C2 3648   4.426   0.851  15.234 -0.4432 -1.0044  0.3249
  237MPD1    C3 3649   4.310   0.869  15.317 -0.1407 -0.5737  0.1684
  237MPD1    C4 3650   4.280   0.996  15.365 -0.5131 -0.0515 -0.8038
  237MPD1    C5 3651   4.369   1.096  15.360 -0.4259  0.6450  0.0406
  237MPD1     H 3652   4.436   0.756  15.185 -0.2945 -0.5790 -0.4614
  237MPD1    H1 3653   4.187   1.014  15.417 -1.1363 -2.2440 -1.1319
  237MPD1    H2 3654   4.555   1.153  15.300 -1.6956  1.1011 -2.8761
  237MPD1    H3 3655   4.350   1.193  15.405 -1.0635  1.4536 -1.9999
  237MPD1     N 3656   4.216   0.761  15.340 -0.5802 -0.2441  0.3498
  237MPD1    H5 3657   4.144   0.792  15.404  0.0794 -0.4651  1.2147
  237MPD1    N1 3658   4.637   0.929  15.159  0.4559 -0.3754  0.2892
  237MPD1    H6 3659   4.676   0.837  15.176 -1.9675 -1.7214 -1.4143
  237MPD1    H7 3660   4.710   0.998  15.176 -1.6963  1.2548  2.8947
  238MPD1     C 3661   1.100   3.652  15.059  0.2110 -0.5790 -0.6438
  238MPD1    C1 3662   1.120   3.787  15.051  0.1288 -0.0028 -0.3568
  238MPD1    C2 3663   1.006   3.871  15.065  0.3059 -0.0897  0.3648
  238MPD1    C3 3664   0.876   3.813  15.068  0.1640 -0.4826  0.1840
  238MPD1    C4 3665   0.864   3.681  15.078 -0.4678 -0.3477 -0.1317
  238MPD1    C5 3666   0.972   3.598  15.076  0.2579  0.4189  0.6829
  238MPD1     H 3667   1.013   3.976  15.040 -0.0516  0.0867  1.0085
  238MPD1    H1 3668   0.763   3.647  15.096 -0.4106 -0.8030 -0.6584
  238MPD1    H2 3669   1.173   3.574  15.041  0.9027  0.8981 -4.2630
  238MPD1    H3 3670   0.947   3.495  15.053 -0.3952  0.6784  0.2382
  238MPD1     N 3671   0.756   3.892  15.066 -0.5310  0.5364  0.1518
  238MPD1    H5 3672   0.673   3.838  15.089 -0.7650  2.0709  2.9446
  238MPD1    N1 3673   1.250   3.843  15.034 -0.3442  0.2732  0.5989
  238MPD1    H6 3674   1.250   3.937  14.995 -2.7438  0.2308  0.5044
  238MPD1    H7 3675   1.316   3.787  14.981 -0.3110  1.5350 -0.6989
  239MPD1     C 3676   0.884   0.181  15.389  0.6139  0.6413  0.5484
  239MPD1    C1 3677   0.987   0.262  15.340 -0.3564  0.7842 -0.3627
  239MPD1    C2 3678   0.971   0.303  15.209  0.1162  0.1144  0.1987
  239MPD1    C3 3679   0.862   0.262  15.133 -0.1575 -0.0114 -0.4571
  239MPD1    C4 3680   0.772   0.169  15.181 -0.0274  0.6043 -1.0219
  239MPD1    C5 3681   0.783   0.132  15.309  0.0241 -0.4034  0.5621
  239MPD1     H 3682   1.041   0.376  15.170 -2.4076  3.0452  1.1617
  239MPD1    H1 3683   0.683   0.127  15.135  0.3560 -0.5733 -0.6807
  239MPD1    H2 3684   0.871   0.171  15.496  0.4982 -1.5372  0.3317
  239MPD1    H3 3685   0.693   0.087  15.349  0.9226 -2.4182  0.3419
  239MPD1     N 3686   0.837   0.311  15.006  0.0403  0.2023  0.7294
  239MPD1    H5 3687   0.754   0.269  14.966  0.3436 -0.1095  0.4229
  239MPD1    N1 3688   1.072   0.326  15.431  0.2531 -0.5016 -0.4915
  239MPD1    H6 3689   1.156   0.348  15.378  1.1486 -0.6697  0.8573
  239MPD1    H7 3690   1.095   0.277  15.517  0.4540 -0.6756 -0.6425
  240MPD1     C 3691   4.214   0.337  13.457  0.1181 -0.1767  0.2684
  240MPD1    C1 3692   4.163   0.206  13.479 -0.9327  0.0427  0.0784
  240MPD1    C2 3693   4.222   0.123  13.579 -0.2677 -0.6076 -0.2877
  240MPD1    C3 3694   4.341   0.169  13.634 -0.4709  0.1840  1.1413
  240MPD1    C4 3695   4.392   0.295  13.605  0.3547 -0.2874  0.2601
  240MPD1    C5 3696   4.328   0.378  13.519 -0.5748 -0.5717  0.5182
  240MPD1     H 3697   4.196   0.019  13.593 -1.6958 -0.2444 -0.2335
  240MPD1    H1 3698   4.484   0.337  13.645 -0.3260  0.4437  1.0440
  240MPD1    H2 3699   4.160   0.400  13.386 -1.3524 -1.3589  0.3298
  240MPD1    H3 3700   4.372   0.472  13.487 -2.5153 -0.9305 -3.2101
  240MPD1     N 3701   4.416   0.083  13.716 -0.2504 -0.8193 -0.1282
  240MPD1    H5 3702   4.360   0.004  13.746 -0.5961 -0.0675  1.2014
  240MPD1    N1 3703   4.037   0.171  13.412 -0.5561 -0.4180 -0.1312
  240MPD1    H6 3704   4.038   0.078  13.372  0.1931  0.4375 -2.1348
  240MPD1    H7 3705   4.006   0.234  13.338  2.0829  1.0664  0.0177
  241MPD1     C 3706   0.255   0.287  14.509 -0.0479 -0.6263 -0.7549
  241MPD1    C1 3707   0.312   0.182  14.446  0.6105  0.6317  0.0918
  241MPD1    C2 3708   0.235   0.124  14.343 -0.4818  0.2735 -0.1003
  241MPD1    C3 3709   0.111   0.164  14.305 -0.2476  0.0576 -0.3162
  241MPD1    C4 3710   0.048   0.263  14.376  0.0853 -0.2772 -0.2958
  241MPD1    C5 3711   0.124   0.324  14.478 -0.2650  0.0855  0.3127
  241MPD1     H 3712   0.293   0.054  14.283  0.0553  0.7745 -0.1633
  241MPD1    H1 3713   4.695   0.302  14.344  0.2250  0.4777  0.2371
  241MPD1    H2 3714   0.312   0.345  14.581 -1.2826 -0.8906  0.4497
  241MPD1    H3 3715   0.069   0.398  14.535 -1.6043  0.3337 -1.2797
  241MPD1     N 3716   0.033   0.092  14.205 -0.6957 -0.2242  1.2489
  241MPD1    H5 3717   4.685   0.131  14.180 -1.2285 -1.5533  1.1276
  241MPD1    N1 3718   0.453   0.181  14.437 -0.3100  0.7054  0.1706
  241MPD1    H6 3719   0.492   0.180  14.531  2.0320 -1.1680 -0.8224
  241MPD1    H7 3720   0.497   0.099  14.396 -0.4912  0.4951  0.3990
  242MPD1     C 3721   4.716   3.274  16.048 -0.0142 -0.2472  0.4964
  242MPD1    C1 3722   4.619   3.259  15.955  0.0373 -0.3771  0.0102
  242MPD1    C2 3723   4.657   3.225  15.826 -0.3861 -0.1481 -0.2598
  242MPD1    C3 3724   0.051   3.210  15.791 -0.3966  0.4158 -0.4151
  242MPD1    C4 3725   0.145   3.237  15.889  0.9229 -0.3462  0.5387
  242MPD1    C5 3726   0.105   3.282  16.011 -0.0256  0.6889  0.2764
  242MPD1     H 3727   4.569   3.205  15.766 -1.8876  2.4725  1.0676
  242MPD1    H1 3728   0.252   3.236  15.869  1.1720  1.2367  1.7840
  242MPD1    H2 3729   4.689   3.290  16.152  0.2481 -0.0919  0.5411
  242MPD1    H3 3730   0.184   3.303  16.081  1.4821 -0.2459 -1.1413
  242MPD1     N 3731   0.101   3.158  15.666  0.0633 -0.7786 -0.5773
  242MPD1    H5 3732   0.202   3.148  15.664  0.1495  0.3751 -1.6726
  242MPD1    N1 3733   4.488   3.232  15.996  0.0210 -0.2501  0.1012
  242MPD1    H6 3734   4.451   3.284  16.075 -3.0389 -0.7890 -0.9805
  242MPD1    H7 3735   4.425   3.232  15.916 -1.6189  0.9358  1.4072
  243MPD1     C 3736   1.154   2.255   0.078 -1.1557 -0.5594 -0.0686
  243MPD1    C1 3737   1.266   2.246  17.761  1.1177 -0.2797  0.3659
  243MPD1    C2 3738   1.285   2.130  17.690  0.3724 -0.0234  0.3671
  243MPD1    C3 3739   1.189   2.034  17.670 -0.1659 -0.6896  1.0607
  243MPD1    C4 3740   1.067   2.060  17.731 -0.4752  0.1084 -0.2997
  243MPD1    C5 3741   1.059   2.160   0.067 -0.3064  0.5069  0.6490
  243MPD1     H 3742   1.377   2.120  17.633  0.3345 -0.6132  0.4026
  243MPD1    H1 3743   0.987   1.987  17.729  0.8063 -1.2409 -1.9061
  243MPD1    H2 3744   1.139   2.326   0.158 -0.7991  0.4931 -0.9416
  243MPD1    H3 3745   0.969   2.161   0.128 -0.4545  1.8928  0.4005
  243MPD1     N 3746   1.213   1.908  17.604 -1.0559  0.3263  0.4695
  243MPD1    H5 3747   1.303   1.899  17.558 -0.7095 -0.6186  1.3126
  243MPD1    N1 3748   1.372   2.330   0.025 -0.4664  0.5591  0.9235
  243MPD1    H6 3749   1.353   2.430   0.029  0.9464  0.8883 -0.2084
  243MPD1    H7 3750   1.438   2.326  17.713 -0.1540 -0.5592  1.2611
  244MPD1     C 3751   0.914   0.932  17.602  0.1668 -0.0447  0.4538
  244MPD1    C1 3752   0.844   1.049  17.618 -0.0612  0.9266  0.1581
  244MPD1    C2 3753   0.911   1.169  17.615  0.0187 -0.2254  0.1036
  244MPD1    C3 3754   1.043   1.166  17.577  0.5600 -0.2546 -0.3123
  244MPD1    C4 3755   1.113   1.052  17.569 -0.1898 -0.2810  0.2337
  244MPD1    C5 3756   1.052   0.928  17.577  0.7598  1.0116 -0.1530
  244MPD1     H 3757   0.862   1.264  17.633  0.4144 -0.2731  1.4742
  244MPD1    H1 3758   1.220   1.043  17.556 -0.3151 -0.8983 -0.3217
  244MPD1    H2 3759   0.865   0.836  17.616  1.2167 -0.6458 -0.0413
  244MPD1    H3 3760   1.102   0.832  17.574 -0.1146  0.5151  1.1542
  244MPD1     N 3761   1.096   1.293  17.561 -0.0725  0.4678 -0.0032
  244MPD1    H5 3762   1.029   1.370  17.557  0.4177  0.7834 -2.2389
  244MPD1    N1 3763   0.710   1.041  17.653 -0.6038  0.0328  0.2919
  244MPD1    H6 3764   0.664   1.128  17.628 -0.4038  0.6139  1.9673
  244MPD1    H7 3765   0.657   0.958  17.630 -0.7646 -0.3240  1.9640
  245MPD1     C 3766   4.058   2.530  13.054  0.0467  0.0709 -0.3793
  245MPD1    C1 3767   4.082   2.665  13.090 -0.4544 -0.6909  0.2885
  245MPD1    C2 3768   3.997   2.723  13.182  0.3138 -0.0119  0.0608
  245MPD1    C3 3769   3.917   2.659  13.270 -0.1884 -0.3938  0.5326
  245MPD1    C4 3770   3.918   2.516  13.258 -0.0038  0.6788  0.0230
  245MPD1    C5 3771   3.983   2.461  13.150  0.4870  0.4799 -0.3696
  245MPD1     H 3772   4.007   2.827  13.210 -1.2712  0.5071 -1.2410
  245MPD1    H1 3773   3.860   2.452  13.323  0.1654  0.7819  0.2751
  245MPD1    H2 3774   4.109   2.478  12.973 -2.7067  1.0332 -2.7383
  245MPD1    H3 3775   3.966   2.354  13.143  0.6332  0.3454  1.5051
  245MPD1     N 3776   3.854   2.727  13.381 -0.8546  0.2965  0.3927
  245MPD1    H5 3777   3.869   2.826  13.395  0.5056  0.3561 -1.4115
  245MPD1    N1 3778   4.175   2.741  13.023  0.8075  0.8388 -0.0229
  245MPD1    H6 3779   4.206   2.829  13.065  0.7052  0.6127  0.5286
  245MPD1    H7 3780   4.243   2.688  12.968  1.9260  0.0564  2.1249
  246MPD1     C 3781   4.561   4.198  10.311  0.5976 -0.3035  0.4444
  246MPD1    C1 3782   4.548   4.113  10.417 -0.6824  0.0443  0.1643
  246MPD1    C2 3783   4.539   3.973  10.387 -0.3302  0.4634 -0.1718
  246MPD1    C3 3784   4.578   3.923  10.264  1.0600  0.4427 -0.2153
  246MPD1    C4 3785   4.619   4.012  10.167  0.1376  0.2724 -0.1859
  246MPD1    C5 3786   4.591   4.148  10.186  0.7541  0.3029  0.1230
  246MPD1     H 3787   4.514   3.909  10.470  1.5628  0.3140  0.2650
  246MPD1    H1 3788   4.647   3.984  10.066  2.6597 -0.9035  0.8204
  246MPD1    H2 3789   4.557   4.306  10.313  0.5008 -0.2740 -1.2115
  246MPD1    H3 3790   4.616   4.220  10.109 -1.6341 -0.6938 -1.5667
  246MPD1     N 3791   4.564   3.786  10.241  0.1558  0.3293  0.0391
  246MPD1    H5 3792   4.544   3.729  10.323 -2.5720  0.0262 -0.8464
  246MPD1    N1 3793   4.517   4.166  10.541 -0.1331 -0.0952 -0.5093
  246MPD1    H6 3794   4.555   4.118  10.622 -0.8644  0.7873  0.3744
  246MPD1    H7 3795   4.536   4.266  10.545 -1.5467  0.1033  1.5431
  247MPD1     C 3796   3.071   3.230  16.862 -0.3582  0.4198 -0.0233
  247MPD1    C1 3797   3.097   3.161  16.979  0.7761  1.1340 -0.0516
  247MPD1    C2 3798   3.101   3.020  16.977 -0.3733 -0.5079 -0.2165
  247MPD1    C3 3799   3.096   2.959  16.855 -0.0217  0.4823 -0.1253
  247MPD1    C4 3800   3.104   3.036  16.739 -1.0227 -1.2535 -0.1914
  247MPD1    C5 3801   3.091   3.171  16.738  0.0159  0.3937 -0.3175
  247MPD1     H 3802   3.112   2.969  17.072  0.9498  0.1518 -0.0178
  247MPD1    H1 3803   3.100   2.982  16.645 -2.2640  0.6310 -1.2318
  247MPD1    H2 3804   3.045   3.335  16.855 -0.9077  0.3662  1.1944
  247MPD1    H3 3805   3.091   3.224  16.643  2.2181  0.8786 -0.0234
  247MPD1     N 3806   3.089   2.819  16.833 -0.0737  0.7214  1.0331
  247MPD1    H5 3807   3.104   2.787  16.738 -0.2282 -0.5963  1.4485
  247MPD1    N1 3808   3.080   3.234  17.105  0.3189 -0.0946  0.3037
  247MPD1    H6 3809   3.138   3.190  17.176 -1.5624  0.2478  2.0577
  247MPD1    H7 3810   3.102   3.333  17.105 -1.7114  0.3364 -1.2288
  248MPD1     C 3811   3.690   1.514  17.189 -0.2065 -0.5229 -0.0774
  248MPD1    C1 3812   3.786   1.526  17.288 -0.3332 -0.1828 -0.7904
  248MPD1    C2 3813   3.749   1.582  17.402 -0.5697  0.7877 -0.1133
  248MPD1    C3 3814   3.616   1.627  17.424 -0.2349 -0.4168 -0.1764
  248MPD1    C4 3815   3.518   1.605  17.331  0.4514 -0.6025 -0.0866
  248MPD1    C5 3816   3.561   1.553  17.209  0.5297  0.2596 -0.3733
  248MPD1     H 3817   3.822   1.607  17.479  0.9917  0.0806 -1.3774
  248MPD1    H1 3818   3.418   1.644  17.342  0.9474  0.2290  1.4741
  248MPD1    H2 3819   3.714   1.486  17.087  0.5794 -0.3992  0.0754
  248MPD1    H3 3820   3.485   1.546  17.132  1.5682 -1.4157 -1.2531
  248MPD1     N 3821   3.582   1.689  17.554 -0.2650 -0.4013  0.3666
  248MPD1    H5 3822   3.656   1.695  17.622 -1.3554 -0.9973  1.6003
  248MPD1    N1 3823   3.922   1.505  17.264  0.2364 -0.6929 -0.1520
  248MPD1    H6 3824   3.977   1.489  17.348 -1.3500  1.5154  1.3126
  248MPD1    H7 3825   3.939   1.418  17.213  0.2615 -0.4715 -0.5272
  249MPD1     C 3826   4.506   4.600  11.274 -0.5813 -0.1661 -0.1314
  249MPD1    C1 3827   4.591   4.653  11.366  0.8005 -0.3236  0.2895
  249MPD1    C2 3828   4.669   0.016  11.318 -0.0679  0.3968 -0.0803
  249MPD1    C3 3829   4.691   0.034  11.188 -0.0468 -0.1006  0.4125
  249MPD1    C4 3830   4.614   4.707  11.097 -0.3879 -0.0510 -0.1700
  249MPD1    C5 3831   4.520   4.620  11.142 -0.3952 -0.7179  0.0346
  249MPD1     H 3832   4.725   0.074  11.391 -0.0996  1.6317 -1.0456
  249MPD1    H1 3833   4.629   4.716  10.990 -0.1642  1.4284 -0.0092
  249MPD1    H2 3834   4.427   4.530  11.298 -1.0272 -0.2552 -1.8640
  249MPD1    H3 3835   4.454   4.577  11.068 -0.8500 -1.3369  0.8107
  249MPD1     N 3836   0.050   0.130  11.157 -0.0717  0.0775  0.3444
  249MPD1    H5 3837   0.092   0.181  11.235  1.9987 -1.5936  0.3306
  249MPD1    N1 3838   4.573   4.619  11.501 -0.5851  0.7737  0.1759
  249MPD1    H6 3839   4.527   4.529  11.509  0.2694  0.3610  0.3942
  249MPD1    H7 3840   4.659   4.621  11.555  0.4529  0.9860 -1.5006
  250MPD2     C 3841   1.721   0.868  12.557  0.4005  0.2977  0.5345
  250MPD2    C1 3842   1.707   0.885  12.693 -0.8668 -0.3323 -0.6347
  250MPD2    C2 3843   1.673   0.778  12.775  0.2489  0.6526 -0.7861
  250MPD2    C3 3844   1.646   0.659  12.715 -0.0109  0.7571  0.1928
  250MPD2    C4 3845   1.647   0.649  12.577  0.2678 -0.3269  0.2693
  250MPD2    C5 3846   1.685   0.752  12.504 -0.5836 -0.7255  0.2687
  250MPD2     H 3847   1.655   0.788  12.881 -0.6245  0.5151 -0.9227
  250MPD2    H1 3848   1.627   0.555  12.525  2.6167  0.0046 -1.2491
  250MPD2    H2 3849   1.741   0.958  12.499  0.3638 -0.8805 -1.3060
  250MPD2    H3 3850   1.692   0.758  12.396  0.6252  2.6770  0.5695
  250MPD2     N 3851   1.631   0.540  12.782  1.1124 -0.0619 -0.0099
  250MPD2    H5 3852   1.619   0.457  12.725  0.1906 -0.2668  0.4833
  250MPD2    N1 3853   1.749   1.011  12.747 -0.1873 -0.7786  0.4971
  250MPD2    H7 3854   1.787   1.075  12.678 -1.7381 -0.7875 -0.3603
  251TMC3    C1 3855   1.773   1.183  12.896  1.1793 -0.9342  0.3846
  251TMC3    C2 3856   1.717   1.280  12.967 -1.1186  1.0273 -0.4851
  251TMC3    C3 3857   1.790   1.387  13.004  0.4594  0.9352  0.3613
  251TMC3    C4 3858   1.905   1.195  12.858 -0.7854  0.3392  1.1960
  251TMC3    C5 3859   1.969   1.311  12.885  0.3376 -0.0683 -0.3801
  251TMC3    C6 3860   1.916   1.410  12.958  0.3107  0.2040  0.3195
  251TMC3     C 3861   1.708   1.058  12.875  0.7998  0.5596 -0.0105
  251TMC3     O 3862   1.621   1.013  12.952 -0.4724  0.4151 -0.1930
  251TMC3     H 3863   1.615   1.268  13.002  0.0902 -1.4302  2.2501
  251TMC3    H1 3864   1.961   1.119  12.805  1.1325  3.0171 -0.6290
  251TMC3    H2 3865   1.980   1.496  12.979 -0.6064  1.2016 -0.9693
  251TMC3    C7 3866   2.115   1.294  12.894  0.1235 -0.4644 -0.1462
  251TMC3    C8 3867   1.746   1.438  13.129 -0.1460 -0.0535  0.6822
  251TMC3    O1 3868   2.181   1.389  12.853  0.1720 -0.5227 -0.5473
  251TMC3    O2 3869   1.627   1.427  13.165 -0.5991 -0.3834 -0.0039
  252TMC3    C1 3870   0.870   2.254   9.915  0.5934 -0.4986 -0.0114
  252TMC3    C2 3871   0.982   2.333   9.893  0.1109 -0.2054 -0.4186
  252TMC3    C3 3872   1.101   2.275   9.934  0.6396  0.1906 -1.0061
  252TMC3    C4 3873   0.869   2.141   9.986 -0.1578  0.1715 -0.1492
  252TMC3    C5 3874   0.994   2.082  10.011 -0.7477 -0.4320 -0.3732
  252TMC3    C6 3875   1.110   2.148   9.982  0.0779  0.2135 -0.3576
  252TMC3     C 3876   0.751   2.301   9.864 -0.2048 -0.1868 -0.3326
  252TMC3     O 3877   0.734   2.423   9.853  0.5419  0.4033  0.1115
  252TMC3     H 3878   0.978   2.434   9.854  0.6776 -0.2278 -0.5373
  252TMC3    H1 3879   0.778   2.088  10.014 -1.5254  2.4765 -0.2474
  252TMC3    H2 3880   1.205   2.099  10.004  0.1038 -0.0748 -1.1039
  252TMC3    C7 3881   0.990   1.963  10.089 -0.5684 -0.5079  0.6290
  252TMC3    C8 3882   1.224   2.341   9.896  0.3500 -0.1952 -0.0819
  252TMC3    O1 3883   0.886   1.898  10.076 -0.0726 -0.3080  0.1399
  252TMC3    O2 3884   1.212   2.422   9.807 -0.4396  0.2661 -0.0405
  253MPD2     C 3885   3.512   1.346  15.741 -0.0546 -0.4497 -0.2916
  253MPD2    C1 3886   3.385   1.309  15.692 -0.6217  0.4604  0.9575
  253MPD2    C2 3887   3.310   1.210  15.759 -0.0586  0.2639  0.0966
  253MPD2    C3 3888   3.356   1.162  15.882 -0.4668 -0.7473  0.2301
  253MPD2    C4 3889   3.478   1.203  15.926 -0.5791 -0.5126  0.0428
  253MPD2    C5 3890   3.558   1.290  15.857 -0.5830  0.0668  0.1603
  253MPD2     H 3891   3.216   1.179  15.715  0.5261 -0.9779 -0.2668
  253MPD2    H1 3892   3.512   1.166  16.022  0.2729  0.8769  0.2831
  253MPD2    H2 3893   3.579   1.415  15.691  0.6727  0.3051  1.7162
  253MPD2    H3 3894   3.656   1.323  15.890 -1.3138  1.9005  0.4675
  253MPD2     N 3895   3.282   1.071  15.957  0.1219 -0.4573  0.4222
  253MPD2    H5 3896   3.337   1.022  16.027  0.3181  0.6633  1.0415
  253MPD2    N1 3897   3.319   1.372  15.587  0.0245 -0.1431 -0.0228
  253MPD2    H7 3898   3.229   1.339  15.554 -0.0887 -0.6602  0.8066
  254TMC3    C1 3899   3.085   0.991  16.069  0.3437  0.3724  0.1759
  254TMC3    C2 3900   2.958   1.022  16.100 -0.5355 -0.0025 -0.1704
  254TMC3    C3 3901   2.914   0.997  16.225 -0.3000 -0.4931  0.2503
  254TMC3    C4 3902   3.166   0.928  16.154 -0.1525  0.3311 -0.1548
  254TMC3    C5 3903   3.120   0.909  16.282  0.6623  0.5455 -0.5104
  254TMC3    C6 3904   2.990   0.941  16.321  0.0735 -0.5392 -0.2509
  254TMC3     C 3905   3.139   1.062  15.953 -0.0828 -0.0044  0.5969
  254TMC3     O 3906   3.064   1.120  15.874 -0.1960 -0.1408 -0.3531
  254TMC3     H 3907   2.894   1.065  16.024 -0.8872  0.3084  0.3104
  254TMC3    H1 3908   3.259   0.880  16.126  0.5038  1.0700  0.7869
  254TMC3    H2 3909   2.964   0.935  16.426 -1.7005 -2.7994 -0.8330
  254TMC3    C7 3910   3.197   0.809  16.353  0.1989  0.6471  0.1247
  254TMC3    C8 3911   2.778   1.013  16.265 -0.1907  0.5501  0.0576
  254TMC3    O1 3912   3.241   0.724  16.280 -0.5023  0.2692 -0.3056
  254TMC3    O2 3913   2.764   1.048  16.384  0.3271  0.2594  0.0797
  255MPD2     C 3914   0.798   3.622  10.138  0.0301 -0.7381  0.5874
  255MPD2    C1 3915   0.831   3.753  10.103  0.2373 -0.1920 -0.2056
  255MPD2    C2 3916   0.966   3.789  10.093  0.2518  0.3206  0.9874
  255MPD2    C3 3917   1.062   3.694  10.120 -0.0845  0.4863 -0.4164
  255MPD2    C4 3918   1.027   3.570  10.162  0.3597 -0.2791 -0.8318
  255MPD2    C5 3919   0.899   3.534  10.168  0.1821  0.1472  0.3676
  255MPD2     H 3920   0.997   3.885  10.052 -0.2915 -0.8584 -2.2202
  255MPD2    H1 3921   1.094   3.492  10.198  0.2973  1.2918  2.7227
  255MPD2    H2 3922   0.701   3.574  10.141 -0.4236  0.2771  1.7127
  255MPD2    H3 3923   0.864   3.433  10.185 -1.8216  0.9696  1.1461
  255MPD2     N 3924   1.200   3.732  10.096 -0.4516 -0.1880  0.1681
  255MPD2    H5 3925   1.217   3.828  10.068  1.0761 -1.2839 -2.6372
  255MPD2    N1 3926   0.724   3.837  10.056  0.2726  0.7221  0.2543
  255MPD2    H7 3927   0.633   3.797  10.035  0.9524 -2.2909  2.9579
  256TMC3    C1 3928   0.625   4.022   9.946 -0.6944  0.7825 -0.8229
  256TMC3    C2 3929   0.654   4.116   9.858 -0.5891  0.4576 -0.1013
  256TMC3    C3 3930   0.573   4.128   9.747  0.6233  0.0972 -0.4726
  256TMC3    C4 3931   0.519   3.939   9.927 -0.7846  0.1682  0.3518
  256TMC3    C5 3932   0.449   3.948   9.817 -0.9084 -0.0681 -0.1291
  256TMC3    C6 3933   0.472   4.039   9.721 -0.0083 -0.0308  0.6076
  256TMC3     C 3934   0.732   3.976  10.027 -0.7374  0.6701  0.5083
  256TMC3     O 3935   0.828   4.050  10.042  0.1028  0.2498 -0.3104
  256TMC3     H 3936   0.739   4.180   9.878 -0.1970  0.1189 -0.7095
  256TMC3    H1 3937   0.496   3.860   9.997 -2.4162 -1.1834 -1.7022
  256TMC3    H2 3938   0.411   4.051   9.633 -1.2789  0.4381  1.5406
  256TMC3    C7 3939   0.439   3.816   9.762 -0.4944  0.3952 -0.3405
  256TMC3    C8 3940   0.632   4.191   9.636 -0.6110  0.0044  0.4291
  256TMC3    O1 3941   0.498   3.729   9.820  0.4356 -0.2159  0.2007
  256TMC3    O2 3942   0.554   4.241   9.559 -0.3085 -0.1325 -0.5114
  257MPD2     C 3943   0.265   0.758  13.393  0.4857 -0.0862  0.2351
  257MPD2    C1 3944   0.399   0.779  13.348  0.5913  0.0156  0.7537
  257MPD2    C2 3945   0.502   0.716  13.424  0.1265  0.0467 -0.4300
  257MPD2    C3 3946   0.476   0.629  13.528  0.4822  0.4013  0.2719
  257MPD2    C4 3947   0.345   0.604  13.567 -0.0937  0.7533 -0.1150
  257MPD2    C5 3948   0.248   0.678  13.501 -0.1426  0.5443 -0.2296
  257MPD2     H 3949   0.605   0.723  13.393  0.5873  1.7077  1.5056
  257MPD2    H1 3950   0.318   0.532  13.644  2.7937  0.1721  0.3415
  257MPD2    H2 3951   0.186   0.820  13.351  1.4004  1.9021  1.4605
  257MPD2    H3 3952   0.149   0.661  13.541  1.2815 -3.6565  1.5359
  257MPD2     N 3953   0.586   0.553  13.575 -0.3675 -0.3486  0.2839
  257MPD2    H5 3954   0.672   0.561  13.521  0.4720  1.6337  1.9371
  257MPD2    N1 3955   0.417   0.858  13.227 -0.3978 -0.5141  0.0926
  257MPD2    H7 3956   0.339   0.914  13.194  0.0784  0.7058  1.0278
  258TMC3    C1 3957   0.695   0.371  13.674 -0.3230  0.2585  0.3739
  258TMC3    C2 3958   0.754   0.334  13.550  0.1403  0.6450 -0.0546
  258TMC3    C3 3959   0.866   0.264  13.563  0.2961 -0.3060  0.2447
  258TMC3    C4 3960   0.753   0.340  13.792  1.0661 -0.0310  0.5907
  258TMC3    C5 3961   0.872   0.270  13.786  0.2034 -0.6552  0.2852
  258TMC3    C6 3962   0.940   0.241  13.674  0.5533  0.5835  0.0215
  258TMC3     C 3963   0.577   0.450  13.672 -0.1032  0.5100  0.0126
  258TMC3     O 3964   0.503   0.452  13.769  0.3439  0.4171  0.3984
  258TMC3     H 3965   0.713   0.359  13.453  2.2461 -0.3727 -1.2285
  258TMC3    H1 3966   0.709   0.374  13.884  0.5322  0.3060  0.2114
  258TMC3    H2 3967   1.032   0.185  13.673 -0.5512 -1.1182 -4.8967
  258TMC3    C7 3968   0.945   0.242  13.912 -0.2030 -0.3407  0.4316
  258TMC3    C8 3969   0.937   0.253  13.438  0.1390  0.1232 -0.2688
  258TMC3    O1 3970   1.064   0.237  13.902  0.2721 -0.2318 -0.5909
  258TMC3    O2 3971   1.050   0.300  13.434 -0.9199 -0.0954 -0.0158
  259MPD2     C 3972   4.324   3.240   0.694 -0.0581 -0.0708 -0.1682
  259MPD2    C1 3973   4.336   3.120   0.634  0.1624  0.0884 -0.3867
  259MPD2    C2 3974   4.327   3.122   0.493  0.0330 -0.2835 -0.6768
  259MPD2    C3 3975   4.281   3.227   0.423  0.6199  1.1324 -0.4718
  259MPD2    C4 3976   4.238   3.334   0.497  0.0174 -0.0877 -0.1707
  259MPD2    C5 3977   4.264   3.342   0.634  0.8566  0.1500  0.1453
  259MPD2     H 3978   4.366   3.033   0.444 -0.0051 -0.2737 -0.7241
  259MPD2    H1 3979   4.200   3.424   0.450  0.6970  0.4417  0.2933
  259MPD2    H2 3980   4.344   3.245   0.801  1.4004 -3.9839 -0.2613
  259MPD2    H3 3981   4.239   3.431   0.691 -1.7044  1.0626 -2.3871
  259MPD2     N 3982   4.287   3.230   0.279 -0.5484 -0.1759  0.6044
  259MPD2    H5 3983   4.309   3.145   0.230  0.7452  0.0421  0.8144
  259MPD2    N1 3984   4.406   3.017   0.702  0.0754 -0.2416  0.0003
  259MPD2    H7 3985   4.440   3.034   0.796 -1.4757 -1.5631  0.7960
  260TMC3    C1 3986   4.315   3.303   0.064  0.0008 -1.2583  1.1306
  260TMC3    C2 3987   4.407   3.373  17.750  0.2023 -0.0002  0.6352
  260TMC3    C3 3988   4.445   3.311  17.632  0.3447 -0.3560  0.1719
  260TMC3    C4 3989   4.246   3.194   0.016 -1.0473 -0.5049  0.5972
  260TMC3    C5 3990   4.294   3.139  17.663  0.1990  0.0025  0.1405
  260TMC3    C6 3991   4.400   3.191  17.595 -0.0095 -0.2687  0.0547
  260TMC3     C 3992   4.294   3.344   0.203 -0.3911 -0.5523 -0.0959
  260TMC3     O 3993   4.320   3.456   0.240 -0.2648  0.4082  0.4925
  260TMC3     H 3994   4.461   3.460   0.020  1.6918  0.9827 -4.0434
  260TMC3    H1 3995   4.177   3.137   0.076  0.7896 -0.0633  3.1248
  260TMC3    H2 3996   4.449   3.130  17.521  0.8309 -1.2859  1.4408
  260TMC3    C7 3997   4.287   2.996  17.660 -0.5023 -0.3382  0.6775
  260TMC3    C8 3998   4.585   3.321  17.612  0.2971 -0.9090  0.1220
  260TMC3    O1 3999   4.388   2.939  17.619  0.5261  0.3413  0.6533
  260TMC3    O2 4000   4.635   3.420  17.559 -0.2444 -0.5740 -0.0183
  261MPD2     C 4001   1.138   0.058  12.628  0.4573 -0.4693  0.1216
  261MPD2    C1 4002   1.223   0.171  12.623 -0.3083  0.1324 -0.1513
  261MPD2    C2 4003   1.233   0.255  12.515 -0.7357 -0.3819  0.6027
  261MPD2    C3 4004   1.160   0.222  12.404 -0.0793 -0.1644  1.1125
  261MPD2    C4 4005   1.080   0.109  12.401 -0.7229 -1.1500  0.3487
  261MPD2    C5 4006   1.071   0.030  12.515  0.0638  0.3303 -0.1653
  261MPD2     H 4007   1.288   0.348  12.517 -1.3148 -0.0037 -2.1038
  261MPD2    H1 4008   1.039   0.067  12.310 -1.8924  0.3840  0.1781
  261MPD2    H2 4009   1.138   4.734  12.714 -0.1890  0.0231  0.4946
  261MPD2    H3 4010   1.007   4.685  12.521  0.1760  0.2244 -0.5422
  261MPD2     N 4011   1.181   0.309  12.289 -0.5106  0.3158  0.0810
  261MPD2    H5 4012   1.232   0.397  12.292 -1.8488  1.0713  0.7687
  261MPD2    N1 4013   1.298   0.208  12.737 -0.9710 -0.5649  0.2371
  261MPD2    H7 4014   1.355   0.291  12.725 -0.6410 -0.9190 -0.6106
  262TMC3    C1 4015   1.193   0.363  12.067 -0.0874 -0.9575 -0.1012
  262TMC3    C2 4016   1.197   0.499  12.090 -0.2255 -0.3554  0.5166
  262TMC3    C3 4017   1.210   0.582  11.982  0.1510 -0.3204  0.0738
  262TMC3    C4 4018   1.224   0.306  11.947 -0.2283  0.3443 -0.3796
  262TMC3    C5 4019   1.262   0.394  11.848  0.4519  0.1853  0.0399
  262TMC3    C6 4020   1.251   0.530  11.859  0.6650 -0.5479  0.1072
  262TMC3     C 4021   1.138   0.273  12.164 -0.3627 -0.2740 -0.0771
  262TMC3     O 4022   1.093   0.165  12.124 -0.9020  0.1681 -0.3296
  262TMC3     H 4023   1.171   0.532  12.190 -0.1904  1.7440 -0.1621
  262TMC3    H1 4024   1.228   0.199  11.933  0.3467  0.6153 -2.2308
  262TMC3    H2 4025   1.259   0.601  11.778  1.9446  1.2113  1.7811
  262TMC3    C7 4026   1.311   0.340  11.725 -0.4484 -0.3037 -0.0505
  262TMC3    C8 4027   1.172   0.727  11.998 -0.2731 -0.4490  0.5667
  262TMC3    O1 4028   1.334   0.223  11.731 -0.0621  0.3336 -0.0636
  262TMC3    O2 4029   1.234   0.809  11.933  0.3579  0.2647 -0.0663
  263MPD2     C 4030   1.998   4.150  11.512 -0.0873 -0.3918  0.5075
  263MPD2    C1 4031   2.063   4.268  11.541  0.0812  0.1793 -0.2434
  263MPD2    C2 4032   2.059   4.364  11.439  0.0184 -1.1230 -0.3218
  263MPD2    C3 4033   1.996   4.340  11.314  0.6708 -0.1674 -0.0675
  263MPD2    C4 4034   1.943   4.212  11.292  0.2888 -0.8493  0.1115
  263MPD2    C5 4035   1.953   4.115  11.388 -0.5974  0.4658 -0.0003
  263MPD2     H 4036   2.123   4.451  11.449 -0.9331 -0.4891  0.3536
  263MPD2    H1 4037   1.894   4.187  11.198  1.6171 -0.6366 -0.6384
  263MPD2    H2 4038   2.001   4.073  11.587  2.8852 -0.1303  0.6549
  263MPD2    H3 4039   1.924   4.012  11.370 -1.1119  0.1612  2.4818
  263MPD2     N 4040   2.006   4.444  11.219  0.5083 -0.2359  0.9105
  263MPD2    H5 4041   2.047   4.528  11.258  0.6778  0.7095 -1.3650
  263MPD2    N1 4042   2.146   4.277  11.657 -0.9129  0.2866  0.4474
  263MPD2    H7 4043   2.165   4.202  11.723  1.8804  1.7482  1.3116
  264TMC3    C1 4044   2.038   4.544  11.005 -0.5848 -0.2966 -0.5834
  264TMC3    C2 4045   2.040   4.676  11.051 -0.0561  0.1586  0.0726
  264TMC3    C3 4046   2.083   0.023  10.957 -0.2733  0.0173  0.3232
  264TMC3    C4 4047   2.069   4.507  10.881  0.5140 -0.6447  0.3203
  264TMC3    C5 4048   2.092   4.604  10.785 -0.0869  0.8002 -0.0544
  264TMC3    C6 4049   2.109   4.735  10.825  0.9656 -0.3409 -0.9747
  264TMC3     C 4050   1.976   4.440  11.085  0.1399 -0.5652 -0.1232
  264TMC3     O 4051   1.930   4.343  11.025  0.1238  0.1699  0.0905
  264TMC3     H 4052   1.979   4.712  11.132 -1.1300 -1.9004  0.1725
  264TMC3    H1 4053   2.083   4.403  10.853  0.3093  0.5505 -4.3219
  264TMC3    H2 4054   2.125   0.070  10.751  1.8528  0.6819  0.2826
  264TMC3    C7 4055   2.177   4.566  10.677  0.0769  0.6019  0.2262
  264TMC3    C8 4056   2.115   0.160  10.999 -0.6277 -0.2515  0.3715
  264TMC3    O1 4057   2.235   4.457  10.674 -0.4202  0.5478  0.3600
  264TMC3    O2 4058   2.126   0.245  10.915  0.8524  0.1738  0.5812
  265MPD2     C 4059   4.055   0.556  15.854  0.1091  0.0004  0.0713
  265MPD2    C1 4060   4.146   0.650  15.805 -0.3342 -0.1529 -0.4755
  265MPD2    C2 4061   4.240   0.605  15.714 -0.6430 -0.4941 -0.6847
  265MPD2    C3 4062   4.233   0.482  15.662 -0.2210  0.4087  0.2572
  265MPD2    C4 4063   4.139   0.397  15.711  0.2715  0.1499  0.6183
  265MPD2    C5 4064   4.052   0.429  15.812 -0.0185  0.3417 -0.1236
  265MPD2     H 4065   4.307   0.680  15.672 -0.2288 -0.3970  0.1455
  265MPD2    H1 4066   4.127   0.296  15.672 -0.9209  0.2146  0.8159
  265MPD2    H2 4067   3.981   0.579  15.930 -0.7856 -1.0643 -0.4710
  265MPD2    H3 4068   3.974   0.370  15.859  1.0469  0.8320  2.2456
  265MPD2     N 4069   4.328   0.427  15.580 -0.3980 -0.3916  0.3145
  265MPD2    H5 4070   4.304   0.338  15.536  0.1734 -1.2074  1.6396
  265MPD2    N1 4071   4.152   0.782  15.845 -0.0607 -0.8147 -0.2452
  265MPD2    H7 4072   4.209   0.841  15.785  2.0515 -1.3235  1.2543
  266TMC3    C1 4073   4.079   0.991  15.922 -0.5404 -0.3467  0.6030
  266TMC3    C2 4074   4.089   1.064  16.035 -0.3984  0.0071 -0.7849
  266TMC3    C3 4075   4.099   1.200  16.027  0.1857 -0.2985 -0.0317
  266TMC3    C4 4076   4.066   1.045  15.797  0.0260 -0.1551  0.3804
  266TMC3    C5 4077   4.066   1.178  15.794 -0.0617 -0.5718 -0.2416
  266TMC3    C6 4078   4.080   1.258  15.902 -0.3494 -0.3993 -1.0021
  266TMC3     C 4079   4.070   0.843  15.938 -0.0191 -0.0691 -0.0299
  266TMC3     O 4080   4.012   0.798  16.032  0.4268 -0.0880 -0.6531
  266TMC3     H 4081   4.126   1.017  16.126  0.4032  1.2399 -0.4611
  266TMC3    H1 4082   4.075   0.981  15.711 -0.2740  0.1149  0.1509
  266TMC3    H2 4083   4.056   1.363  15.898 -3.2777 -1.0638 -0.6642
  266TMC3    C7 4084   4.060   1.231  15.658 -0.6641 -0.2408 -0.0282
  266TMC3    C8 4085   4.210   1.257  16.102 -0.0337  0.5860 -0.8877
  266TMC3    O1 4086   4.026   1.157  15.571  0.1744  0.1248 -0.3004
  266TMC3    O2 4087   4.303   1.177  16.125  0.2392  0.4891 -0.2837
  267MPD2     C 4088   1.922   2.448   0.579 -0.0065 -0.0666  0.0796
  267MPD2    C1 4089   1.957   2.574   0.548  0.4716  0.0982  0.7786
  267MPD2    C2 4090   1.865   2.674   0.517 -0.6796  0.9601  0.4552
  267MPD2    C3 4091   1.733   2.639   0.526  0.0402 -0.9081 -0.4128
  267MPD2    C4 4092   1.691   2.506   0.563  0.6206 -0.1705 -0.2249
  267MPD2    C5 4093   1.791   2.415   0.588 -0.3614  0.0648  1.1274
  267MPD2     H 4094   1.894   2.776   0.498 -1.0660  1.5213  2.9108
  267MPD2    H1 4095   1.589   2.469   0.562  0.8510 -0.7667 -1.7003
  267MPD2    H2 4096   1.995   2.371   0.601 -1.4375 -0.3365  3.9192
  267MPD2    H3 4097   1.760   2.316   0.621  0.3903 -0.3430  0.5961
  267MPD2     N 4098   1.624   2.729   0.491  0.1442  0.4040 -0.3730
  267MPD2    H5 4099   1.529   2.696   0.503 -0.2342  2.2973  1.7733
  267MPD2    N1 4100   2.094   2.597   0.543  0.1994 -0.5123  0.2969
  267MPD2    H7 4101   2.148   2.519   0.577 -0.4026 -0.0874  2.2362
  268TMC3    C1 4102   2.292   2.707   0.476  0.2350  0.0717 -0.1337
  268TMC3    C2 4103   2.348   2.773   0.371  0.1717  0.7163 -0.3563
  268TMC3    C3 4104   2.483   2.778   0.358 -0.8908 -0.2081 -0.6550
  268TMC3    C4 4105   2.367   2.649   0.570  0.0813  0.2810  0.1223
  268TMC3    C5 4106   2.504   2.647   0.558 -1.1002 -0.1656 -0.4404
  268TMC3    C6 4107   2.560   2.729   0.462  0.2725 -0.2779  0.6136
  268TMC3     C 4108   2.153   2.716   0.490 -0.2878 -0.6352 -0.5485
  268TMC3     O 4109   2.105   2.805   0.424 -0.6349 -0.0818  0.2329
  268TMC3     H 4110   2.288   2.826   0.297 -2.9768 -1.4523  0.6474
  268TMC3    H1 4111   2.327   2.613   0.664 -1.2937 -1.6584 -1.2078
  268TMC3    H2 4112   2.666   2.716   0.442  0.8842 -1.5473  4.6954
  268TMC3    C7 4113   2.567   2.616   0.685  0.5485 -0.0423  0.1322
  268TMC3    C8 4114   2.552   2.888   0.296  0.5623 -0.4173  0.6121
  268TMC3    O1 4115   2.533   2.516   0.751  0.1456 -0.5881 -0.2735
  268TMC3    O2 4116   2.660   2.925   0.345  0.6546 -0.1648  0.3001
  269MPD2     C 4117   2.008   1.366  16.195  0.1830 -0.1114  0.0566
  269MPD2    C1 4118   1.978   1.318  16.066 -0.4196 -0.2923  0.2053
  269MPD2    C2 4119   2.000   1.408  15.957  0.6257 -0.3608 -0.0132
  269MPD2    C3 4120   2.060   1.530  15.971 -0.1148  0.3351 -0.4776
  269MPD2    C4 4121   2.089   1.571  16.095  0.3465  0.4446  0.6222
  269MPD2    C5 4122   2.063   1.489  16.205  0.5025 -0.7458  0.0209
  269MPD2     H 4123   1.988   1.386  15.852  0.6071  1.2010 -0.3486
  269MPD2    H1 4124   2.131   1.669  16.112  1.5032 -0.3400  2.3977
  269MPD2    H2 4125   2.015   1.301  16.281  0.1001  1.0410  0.9389
  269MPD2    H3 4126   2.095   1.519  16.304 -0.9641  3.8595 -0.9331
  269MPD2     N 4127   2.072   1.605  15.849 -0.1099 -0.4671 -0.7105
  269MPD2    H5 4128   2.044   1.561  15.762 -1.2082 -2.0845  0.4540
  269MPD2    N1 4129   1.921   1.191  16.055  0.1264  0.4738  0.3619
  269MPD2    H7 4130   1.929   1.127  16.133 -3.9292 -0.2952  0.1454
  270TMC3    C1 4131   1.880   0.993  15.950 -0.1602  0.9335 -0.2544
  270TMC3    C2 4132   1.801   0.937  15.854 -0.5147 -0.3839 -0.6013
  270TMC3    C3 4133   1.828   0.809  15.804 -0.0659  0.1799 -1.0334
  270TMC3    C4 4134   2.002   0.938  15.972 -0.0308  0.3796  0.5142
  270TMC3    C5 4135   2.025   0.820  15.908  0.0559  0.2786 -0.6378
  270TMC3    C6 4136   1.945   0.748  15.823  0.2444 -0.2545 -0.1626
  270TMC3     C 4137   1.876   1.135  15.940  0.4012 -0.2719  0.7104
  270TMC3     O 4138   1.841   1.186  15.838 -0.1420 -0.6219  0.1419
  270TMC3     H 4139   1.707   0.982  15.826  0.1061  1.7887  0.8113
  270TMC3    H1 4140   2.078   0.991  16.029  2.5607 -2.9371  0.0963
  270TMC3    H2 4141   1.964   0.647  15.786 -0.8251 -0.6279  0.3064
  270TMC3    C7 4142   2.146   0.747  15.955 -0.3315  0.7571  0.7347
  270TMC3    C8 4143   1.758   0.778  15.682  0.4782 -0.5178  0.4198
  270TMC3    O1 4144   2.213   0.697  15.865  0.4853  0.2450 -0.2707
  270TMC3    O2 4145   1.636   0.791  15.693 -0.5032  0.5089  0.4098
  271MPD2     C 4146   1.621   0.911  13.887  0.1258  0.2839 -0.5155
  271MPD2    C1 4147   1.545   0.872  13.990 -0.0332 -0.3935 -0.6811
  271MPD2    C2 4148   1.411   0.884  13.993  0.3689  0.1678  0.6182
  271MPD2    C3 4149   1.343   0.933  13.889  0.2551  0.5295  0.0187
  271MPD2    C4 4150   1.419   0.982  13.782  0.8684 -0.2285 -0.0032
  271MPD2    C5 4151   1.559   0.967  13.779  0.1381  0.5021 -0.2862
  271MPD2     H 4152   1.366   0.851  14.085  0.7159  1.1625  1.1491
  271MPD2    H1 4153   1.373   1.031  13.697  1.1451 -0.2343 -0.1570
  271MPD2    H2 4154   1.729   0.901  13.881  0.3696  1.2292  2.2673
  271MPD2    H3 4155   1.616   0.994  13.691  0.7125 -1.2447 -0.4561
  271MPD2     N 4156   1.203   0.957  13.883 -0.1327 -0.2091  0.0573
  271MPD2    H5 4157   1.160   0.981  13.794 -2.8717  0.6499  1.6255
  271MPD2    N1 4158   1.607   0.813  14.108  0.4543 -0.0853 -0.4742
  271MPD2    H7 4159   1.548   0.795  14.188 -0.4056  2.3561 -0.5499
  272TMC3    C1 4160   1.755   0.721  14.256 -0.0253  0.5610 -0.3241
  272TMC3    C2 4161   1.860   0.641  14.275  0.4987 -0.9815  0.0223
  272TMC3    C3 4162   1.901   0.615  14.403  0.3145  0.4649  0.6143
  272TMC3    C4 4163   1.672   0.766  14.358  0.2519 -0.2743 -0.0736
  272TMC3    C5 4164   1.713   0.728  14.478 -0.2331  0.4425 -0.0315
  272TMC3    C6 4165   1.824   0.659  14.507  0.1066  0.2913 -0.2285
  272TMC3     C 4166   1.732   0.774  14.121  0.1144  0.1699  0.4813
  272TMC3     O 4167   1.816   0.763  14.034  0.0764  0.2952  0.1474
  272TMC3     H 4168   1.915   0.606  14.189  0.3770 -0.1450 -0.3940
  272TMC3    H1 4169   1.590   0.836  14.344  0.5112  0.1801  0.6672
  272TMC3    H2 4170   1.862   0.641  14.606 -2.8083  1.6229  1.1161
  272TMC3    C7 4171   1.645   0.781  14.592  0.5668 -0.2201  0.5876
  272TMC3    C8 4172   2.045   0.576  14.419 -0.1991  0.2270  0.5483
  272TMC3    O1 4173   1.534   0.836  14.573 -0.4459 -0.1119 -0.5912
  272TMC3    O2 4174   2.124   0.616  14.335  0.0815  0.5402 -0.3507
  273MPD2     C 4175   2.382   3.488  11.416 -0.1949  0.4354  0.1183
  273MPD2    C1 4176   2.486   3.556  11.485 -0.0612  0.5270  0.0618
  273MPD2    C2 4177   2.576   3.623  11.406  0.1993 -0.6568 -0.3004
  273MPD2    C3 4178   2.579   3.622  11.265  0.2760  0.6433 -0.5918
  273MPD2    C4 4179   2.489   3.541  11.199  0.1048  0.1004  0.1972
  273MPD2    C5 4180   2.400   3.471  11.281  0.1913  0.1063  0.3392
  273MPD2     H 4181   2.647   3.683  11.462  0.3467 -1.4269  0.3348
  273MPD2    H1 4182   2.495   3.533  11.091  0.3766 -0.4571  0.2540
  273MPD2    H2 4183   2.306   3.441  11.477  1.1282 -1.7279  0.1053
  273MPD2    H3 4184   2.323   3.419  11.225  1.4467 -0.9890 -0.3888
  273MPD2     N 4185   2.673   3.686  11.184  0.2417 -0.0478  0.0425
  273MPD2    H5 4186   2.676   3.655  11.087 -1.0810 -0.4168  0.1100
  273MPD2    N1 4187   2.498   3.564  11.629  0.7531  0.5726  0.2592
  273MPD2    H7 4188   2.562   3.630  11.673  2.5509 -1.4395  0.6364
  274TMC3    C1 4189   2.863   3.808  11.135  0.2428 -0.5940  0.5329
  274TMC3    C2 4190   2.818   3.827  11.003 -0.0512  0.5571 -0.7894
  274TMC3    C3 4191   2.861   3.939  10.926 -0.6875  0.3291 -0.0408
  274TMC3    C4 4192   2.951   3.902  11.189  0.9414  0.4650  0.7565
  274TMC3    C5 4193   2.995   4.000  11.116  0.7243  0.4536 -0.3182
  274TMC3    C6 4194   2.957   4.022  10.984  0.3193 -0.0509  0.4129
  274TMC3     C 4195   2.764   3.774  11.229  0.0117  0.0647  0.1728
  274TMC3     O 4196   2.771   3.833  11.337  0.4154  0.0284 -0.1902
  274TMC3     H 4197   2.749   3.752  10.965  0.5099  0.8280 -2.3346
  274TMC3    H1 4198   2.995   3.865  11.281  0.0133 -1.8800  0.2763
  274TMC3    H2 4199   2.975   4.121  10.942  1.9593 -1.0260 -1.1448
  274TMC3    C7 4200   3.041   4.112  11.202 -0.7120 -0.1564  0.4981
  274TMC3    C8 4201   2.804   3.981  10.798  0.6810  0.2479  0.3990
  274TMC3    O1 4202   3.104   4.199  11.147 -0.0162 -0.1936 -0.3738
  274TMC3    O2 4203   2.699   3.937  10.759  0.1858  0.4143  0.0172
  275MPD2     C 4204   3.210   1.727  14.897  0.3148 -0.3658 -0.0747
  275MPD2    C1 4205   3.138   1.825  14.821  0.6653 -0.4524 -0.3534
  275MPD2    C2 4206   3.001   1.796  14.795  0.5818 -0.0998  0.5154
  275MPD2    C3 4207   2.948   1.678  14.833  0.1043  0.9438  0.3721
  275MPD2    C4 4208   3.025   1.587  14.893 -0.5222 -0.5669 -0.6358
  275MPD2    C5 4209   3.147   1.614  14.925  0.3730 -0.4126 -0.6478
  275MPD2     H 4210   2.943   1.859  14.729  0.5963 -2.8471 -2.1239
  275MPD2    H1 4211   2.984   1.489  14.917 -0.5953 -0.5589 -0.7302
  275MPD2    H2 4212   3.313   1.733  14.931  0.5279  0.0510 -0.7911
  275MPD2    H3 4213   3.202   1.530  14.966  0.4787 -1.1561 -2.3308
  275MPD2     N 4214   2.815   1.641  14.815  0.0654 -0.3559  0.0163
  275MPD2    H5 4215   2.792   1.543  14.826 -1.7398 -0.1637 -2.1712
  275MPD2    N1 4216   3.187   1.959  14.792 -0.2315  0.1865 -0.5860
  275MPD2    H7 4217   3.123   2.017  14.739  0.5986  0.2147 -1.5381
  276TMC3    C1 4218   3.324   2.152  14.770  0.3816 -0.2422 -0.1277
  276TMC3    C2 4219   3.221   2.234  14.814 -0.5988  0.1741 -0.4486
  276TMC3    C3 4220   3.238   2.347  14.878  0.0971 -0.4437  0.9987
  276TMC3    C4 4221   3.446   2.196  14.817  0.3201 -0.7972  0.2421
  276TMC3    C5 4222   3.461   2.309  14.897  0.0019 -0.1650  0.7413
  276TMC3    C6 4223   3.360   2.407  14.902  0.3756  0.5131  0.4729
  276TMC3     C 4224   3.314   2.009  14.806  0.3289 -0.7488  0.3835
  276TMC3     O 4225   3.407   1.954  14.854 -0.0523 -0.3866 -0.6169
  276TMC3     H 4226   3.113   2.222  14.812 -0.5094 -0.6002 -0.2661
  276TMC3    H1 4227   3.532   2.130  14.810  0.9286  0.0474 -0.3279
  276TMC3    H2 4228   3.372   2.487  14.973 -1.6233  1.1967  0.0315
  276TMC3    C7 4229   3.514   2.283  15.029 -0.0001 -0.3839 -0.2280
  276TMC3    C8 4230   3.156   2.358  14.996  0.2808  0.7033 -0.0946
  276TMC3    O1 4231   3.511   2.385  15.098  0.5042  0.2413  0.5640
  276TMC3    O2 4232   3.168   2.465  15.055  0.4118 -0.0348 -0.1254
  277MPD2     C 4233   4.538   0.708  13.404 -0.1513 -0.3700 -1.4373
  277MPD2    C1 4234   4.443   0.763  13.481 -0.6634 -0.0539 -0.3342
  277MPD2    C2 4235   4.440   0.738  13.619  0.2931  0.5475 -0.3353
  277MPD2    C3 4236   4.535   0.664  13.675 -0.5172  0.0952 -0.0338
  277MPD2    C4 4237   4.638   0.616  13.598  0.7401 -0.4449 -0.0303
  277MPD2    C5 4238   4.636   0.632  13.461 -1.2052  0.4122 -0.4261
  277MPD2     H 4239   4.364   0.788  13.677 -0.7513  0.6868 -1.8315
  277MPD2    H1 4240   4.714   0.551  13.639 -0.2538 -1.9016 -0.5304
  277MPD2    H2 4241   4.538   0.721  13.296  0.2640  1.0115 -1.2775
  277MPD2    H3 4242   4.695   0.568  13.396 -0.4426 -0.2193  0.8886
  277MPD2     N 4243   4.526   0.652  13.818 -0.0589 -0.2438  0.1552
  277MPD2    H5 4244   4.438   0.691  13.849  0.3983 -0.7470  2.0505
  277MPD2    N1 4245   4.348   0.849  13.419  0.0190 -0.0093  0.4903
  277MPD2    H7 4246   4.379   0.880  13.328  1.8720  2.9129  2.0941
  278TMC3    C1 4247   4.567   0.581  14.028 -0.6619  0.2709  0.0505
  278TMC3    C2 4248   4.541   0.452  14.067  0.5041 -0.4633  0.3369
  278TMC3    C3 4249   4.416   0.430  14.108 -0.6120 -0.5759  0.1179
  278TMC3    C4 4250   4.475   0.681  14.043  0.1026 -0.1900 -0.5645
  278TMC3    C5 4251   4.347   0.657  14.094 -0.1558 -0.2963  0.3553
  278TMC3    C6 4252   4.318   0.526  14.126 -0.1462 -0.0421 -0.2185
  278TMC3     C 4253   4.615   0.592  13.896  0.5982  0.3876  0.3002
  278TMC3     O 4254   4.709   0.522  13.861  0.1570  0.1285  0.3168
  278TMC3     H 4255   4.611   0.370  14.060 -2.0946 -2.5270 -1.3578
  278TMC3    H1 4256   4.506   0.780  14.009 -0.1446  0.5019  1.2261
  278TMC3    H2 4257   4.222   0.487  14.158 -0.2987 -0.7907 -1.6298
  278TMC3    C7 4258   4.241   0.731  14.025  0.4528  0.6502  0.2461
  278TMC3    C8 4259   4.387   0.285  14.113  0.2940 -0.1317  0.0042
  278TMC3    O1 4260   4.283   0.797  13.933  0.3624 -0.4578 -0.2470
  278TMC3    O2 4261   4.480   0.216  14.156 -0.8986  0.5200  0.6533
  279MPD2     C 4262   4.015   1.666   0.434 -1.2038 -0.1791  0.5985
  279MPD2    C1 4263   3.982   1.533   0.449 -0.2754 -0.0244 -0.1447
  279MPD2    C2 4264   4.057   1.440   0.382  0.6458  0.4825 -0.3935
  279MPD2    C3 4265   4.169   1.474   0.307  0.1192 -0.1951 -0.0078
  279MPD2    C4 4266   4.210   1.603   0.312  0.8431  0.2182 -0.4105
  279MPD2    C5 4267   4.131   1.700   0.369  0.5701 -0.1998 -0.7650
  279MPD2     H 4268   4.020   1.338   0.378  0.2303  0.6277 -0.3354
  279MPD2    H1 4269   4.291   1.644   0.253  1.6179  0.2231  0.6779
  279MPD2    H2 4270   3.955   1.742   0.482 -0.3672  0.9929 -0.2266
  279MPD2    H3 4271   4.161   1.804   0.373 -1.9976  0.4603  1.7838
  279MPD2     N 4272   4.226   1.378   0.219  0.4097 -0.3682  0.0892
  279MPD2    H5 4273   4.294   1.416   0.153 -0.0931 -0.0356 -0.2442
  279MPD2    N1 4274   3.861   1.512   0.522 -0.0379 -0.4057 -0.3856
  279MPD2    H7 4275   3.811   1.590   0.563  0.7951  0.9943 -2.0083
  280TMC3    C1 4276   3.659   1.408   0.574 -0.9250  0.7452 -0.0028
  280TMC3    C2 4277   3.593   1.287   0.597 -0.3550 -0.2601  0.6990
  280TMC3    C3 4278   3.464   1.277   0.545 -0.3012 -0.3575  0.8823
  280TMC3    C4 4279   3.595   1.516   0.523 -0.6679 -0.4446  0.0313
  280TMC3    C5 4280   3.462   1.508   0.481  0.5022  0.2400  0.0147
  280TMC3    C6 4281   3.398   1.389   0.495  0.3441 -0.0666  0.4479
  280TMC3     C 4282   3.798   1.387   0.533  0.6304  1.0458  0.5100
  280TMC3     O 4283   3.835   1.274   0.513 -0.4881 -0.4583  0.4797
  280TMC3     H 4284   3.643   1.194   0.624 -1.5968 -0.8517  0.9572
  280TMC3    H1 4285   3.635   1.615   0.503 -1.2076 -0.5710 -1.6797
  280TMC3    H2 4286   3.293   1.374   0.473  0.0972 -0.7655  2.1292
  280TMC3    C7 4287   3.395   1.628   0.452  0.6636  0.2628 -0.0527
  280TMC3    C8 4288   3.418   1.150   0.485  0.0841  0.1629 -0.5260
  280TMC3    O1 4289   3.451   1.734   0.476 -0.2176  0.3293 -0.2091
  280TMC3    O2 4290   3.305   1.150   0.441  0.7087 -0.0756 -0.4094
  281TMC3    C1 4291   2.512   0.626  13.490  0.1924  0.5387 -0.4899
  281TMC3    C2 4292   2.487   0.690  13.378 -0.3408 -0.0523 -0.3054
  281TMC3    C3 4293   2.361   0.679  13.324 -0.6626 -0.5309  0.0449
  281TMC3    C4 4294   2.415   0.545  13.541 -0.8666  0.0230 -0.1891
  281TMC3    C5 4295   2.299   0.522  13.472 -0.4227  0.1725 -0.0406
  281TMC3    C6 4296   2.270   0.589  13.362 -0.2999  0.5040  0.8782
  281TMC3     C 4297   2.638   0.631  13.556  0.3674 -0.3006  0.2197
  281TMC3     O 4298   2.679   0.532  13.614  0.1537 -0.7031 -0.0179
  281TMC3     H 4299   2.561   0.766  13.354 -1.6160  1.4144  0.4021
  281TMC3    H1 4300   2.427   0.507  13.641  1.1644 -0.3989 -0.5906
  281TMC3    H2 4301   2.176   0.580  13.309 -0.1109  0.2239  0.5872
  281TMC3    C7 4302   2.191   0.445  13.537 -0.3499  0.4578 -0.6163
  281TMC3    C8 4303   2.316   0.755  13.203  0.4275  0.5372 -0.1071
  281TMC3    O1 4304   2.073   0.475  13.519 -0.0686  0.4797 -0.2118
  281TMC3    O2 4305   2.195   0.771  13.188 -0.2532  0.5253  0.0313
  282MPD2     C 4306   4.268   2.489  15.246 -0.3875 -0.0913 -0.3974
  282MPD2    C1 4307   4.150   2.562  15.257 -0.6460 -0.2600 -0.2632
  282MPD2    C2 4308   4.079   2.599  15.146 -0.5055  0.0862  0.5722
  282MPD2    C3 4309   4.129   2.564  15.018 -1.2814  0.1240 -0.0818
  282MPD2    C4 4310   4.252   2.503  15.007  0.0544  0.3428  0.2031
  282MPD2    C5 4311   4.313   2.462  15.122 -0.3041  0.0937 -0.3858
  282MPD2     H 4312   3.981   2.643  15.150 -1.1515 -1.2375 -0.5592
  282MPD2    H1 4313   4.300   2.488  14.911  1.1633 -2.2512  1.1555
  282MPD2    H2 4314   4.329   2.468  15.333  1.5638  1.1980 -1.4632
  282MPD2    H3 4315   4.399   2.396  15.107  0.3911  1.1519 -1.0446
  282MPD2     N 4316   4.054   2.601  14.907  0.3884 -0.0193 -0.5049
  282MPD2    H5 4317   3.972   2.659  14.922 -0.2727 -1.1306  0.2042
  282MPD2    N1 4318   4.098   2.594  15.379  0.2389  0.0235 -0.0201
  282MPD2    H7 4319   4.001   2.623  15.371  0.5338  0.5219 -1.7569
  283TMC3    C1 4320   4.063   2.627  15.605  0.9610  0.0366  0.2818
  283TMC3    C2 4321   4.082   2.737  15.677 -0.8674  0.0812 -0.0983
  283TMC3    C3 4322   4.011   2.755  15.792  0.6563 -0.2414  0.4784
  283TMC3    C4 4323   3.992   2.518  15.649  0.3904  0.2832 -0.2973
  283TMC3    C5 4324   3.922   2.536  15.767 -0.0171  0.0920 -0.5309
  283TMC3    C6 4325   3.932   2.652  15.837 -0.0399  0.3240 -0.0797
  283TMC3     C 4326   4.163   2.583  15.501 -0.1608 -0.2259  0.0240
  283TMC3     O 4327   4.282   2.575  15.535  0.5128  0.0071  0.2935
  283TMC3     H 4328   4.141   2.813  15.628 -1.2917  0.3656 -0.1665
  283TMC3    H1 4329   3.991   2.423  15.596 -0.6051 -0.7034  1.4737
  283TMC3    H2 4330   3.897   2.660  15.940  1.7119  0.8308  0.4818
  283TMC3    C7 4331   3.841   2.437  15.826 -1.3685  0.1529 -0.2255
  283TMC3    C8 4332   4.060   2.851  15.883 -0.5195 -0.0890 -0.6321
  283TMC3    O1 4333   3.816   2.443  15.945 -0.0923  0.0667  0.3078
  283TMC3    O2 4334   4.025   2.832  15.999 -0.3379  0.1688  0.3149
  284MPD2     C 4335   1.797   1.326  11.695 -0.3099  0.5966 -0.1014
  284MPD2    C1 4336   1.881   1.267  11.794 -0.1048  0.0200  0.1373
  284MPD2    C2 4337   1.867   1.135  11.830 -0.0300  0.0262  0.6174
  284MPD2    C3 4338   1.777   1.057  11.758 -0.1225  0.1866 -0.4771
  284MPD2    C4 4339   1.698   1.112  11.665  0.3272  0.4593 -0.4346
  284MPD2    C5 4340   1.706   1.248  11.639 -0.1132 -0.4909 -0.3190
  284MPD2     H 4341   1.914   1.105  11.923 -1.7124  0.5249  1.6225
  284MPD2    H1 4342   1.630   1.056  11.602 -0.6413  0.7995  0.2956
  284MPD2    H2 4343   1.816   1.425  11.657 -1.5308  0.5189 -0.8954
  284MPD2    H3 4344   1.639   1.284  11.561 -0.9740 -1.0063  0.1817
  284MPD2     N 4345   1.768   0.918  11.781 -0.2203  0.5945  0.4357
  284MPD2    H5 4346   1.730   0.866  11.703  4.4136  0.2161 -1.5610
  284MPD2    N1 4347   1.995   1.333  11.847 -0.2132 -0.0013 -0.4594
  284MPD2    H7 4348   2.049   1.285  11.918  0.9575  2.8521  0.5599
  285TMC3    C1 4349   2.170   1.479  11.853 -0.2295 -0.1091 -0.5875
  285TMC3    C2 4350   2.258   1.374  11.843 -0.0838 -0.0937  0.1318
  285TMC3    C3 4351   2.387   1.402  11.811 -0.2292 -0.0360  0.0034
  285TMC3    C4 4352   2.219   1.606  11.839  0.0943  0.2118  0.1105
  285TMC3    C5 4353   2.354   1.631  11.826 -0.0642 -0.1113  0.6885
  285TMC3    C6 4354   2.441   1.524  11.804 -0.0720 -0.4450 -0.0901
  285TMC3     C 4355   2.034   1.461  11.810  0.7293 -0.4763  0.4620
  285TMC3     O 4356   1.965   1.557  11.769 -0.1594  0.2644  0.3415
  285TMC3     H 4357   2.230   1.270  11.847  0.2003 -0.2606 -2.1136
  285TMC3    H1 4358   2.145   1.685  11.843 -0.7199 -0.3793 -2.8453
  285TMC3    H2 4359   2.535   1.562  11.765  0.8111 -1.6497  0.8854
  285TMC3    C7 4360   2.398   1.766  11.795 -0.1685 -0.2766 -0.0246
  285TMC3    C8 4361   2.448   1.306  11.721  0.6663 -0.4619  0.5093
  285TMC3    O1 4362   2.315   1.847  11.756 -0.0029  0.2161 -0.3291
  285TMC3    O2 4363   2.374   1.223  11.675 -0.0291 -0.1423  0.2583
  286MPD2     C 4364   3.067   1.185   1.400 -0.0626 -0.5733  0.5861
  286MPD2    C1 4365   3.047   1.105   1.294 -0.5393 -0.5119  0.0457
  286MPD2    C2 4366   3.154   1.036   1.236 -0.2566 -0.2954 -0.6538
  286MPD2    C3 4367   3.274   1.047   1.303 -0.1308  0.5878  0.7712
  286MPD2    C4 4368   3.290   1.126   1.412 -0.3472 -0.3862  0.5187
  286MPD2    C5 4369   3.186   1.196   1.461 -0.0812 -0.1378 -0.3138
  286MPD2     H 4370   3.147   0.974   1.147 -1.0272 -2.2118  0.7503
  286MPD2    H1 4371   3.386   1.153   1.454 -0.3935 -1.4632  1.3004
  286MPD2    H2 4372   2.986   1.247   1.440  0.6032 -0.5875  1.9551
  286MPD2    H3 4373   3.204   1.264   1.544  1.2802  0.4806 -1.1143
  286MPD2     N 4374   3.390   0.971   1.257  0.1087 -0.2134  0.4663
  286MPD2    H5 4375   3.478   0.977   1.308 -1.0518  0.3298  2.4298
  286MPD2    N1 4376   2.918   1.090   1.233  0.3277  0.1676 -0.3531
  286MPD2    H7 4377   2.915   1.025   1.155 -2.5270  0.3920 -0.4138
  287TMC3    C1 4378   3.540   0.826   1.148 -0.2727 -0.2145 -0.2614
  287TMC3    C2 4379   3.554   0.724   1.056 -0.1358 -0.2094 -0.0262
  287TMC3    C3 4380   3.671   0.659   1.064 -0.4864  0.7611  0.1650
  287TMC3    C4 4381   3.628   0.847   1.254 -0.3898  0.2191 -0.4836
  287TMC3    C5 4382   3.741   0.770   1.264 -0.2181 -0.9274 -0.6203
  287TMC3    C6 4383   3.762   0.674   1.169 -0.4857  0.0936  0.0161
  287TMC3     C 4384   3.402   0.878   1.152  0.7866  0.1899 -0.1105
  287TMC3     O 4385   3.309   0.819   1.098 -0.2252  0.3530  0.0318
  287TMC3     H 4386   3.481   0.692   0.983 -0.5874  0.3917  0.1592
  287TMC3    H1 4387   3.618   0.926   1.328 -1.9479  1.2582 -1.8044
  287TMC3    H2 4388   3.842   0.600   1.169 -0.0850  0.5285  0.3278
  287TMC3    C7 4389   3.839   0.788   1.366 -0.3771 -0.0926  0.2722
  287TMC3    C8 4390   3.691   0.556   0.966  0.8510  0.1290 -0.8444
  287TMC3    O1 4391   3.836   0.893   1.424 -0.2074 -0.0116  0.1411
  287TMC3    O2 4392   3.602   0.518   0.895 -0.3075 -0.6961 -0.3086
  288TMC3    C1 4393   4.503   4.718  15.115 -0.4759  0.2959 -0.6576
  288TMC3    C2 4394   4.406   4.706  15.210 -0.2749 -0.9010  0.3782
  288TMC3    C3 4395   4.335   0.076  15.238 -0.3969  0.4293  0.0932
  288TMC3    C4 4396   4.535   0.094  15.041 -0.4297  0.0390  0.2501
  288TMC3    C5 4397   4.458   0.203  15.074 -0.0507  0.2602 -0.5859
  288TMC3    C6 4398   4.357   0.199  15.174 -0.7253  1.0281  0.2288
  288TMC3     C 4399   4.583   4.602  15.073 -0.1784  0.2035 -0.3625
  288TMC3     O 4400   4.681   4.624  15.003 -0.3486 -0.1667  0.2473
  288TMC3     H 4401   4.407   4.621  15.278 -0.3059 -0.6550  0.6861
  288TMC3    H1 4402   4.612   0.097  14.966 -1.2290 -1.8520 -0.6321
  288TMC3    H2 4403   4.301   0.288  15.200 -1.2491  0.7195  0.1753
  288TMC3    C7 4404   4.475   0.332  15.008 -0.2885  0.9891  0.3815
  288TMC3    C8 4405   4.267   0.075  15.369 -0.1177  0.1833  0.2039
  288TMC3    O1 4406   4.591   0.364  14.980 -0.2119  0.3652  0.3240
  288TMC3    O2 4407   4.258   0.183  15.430  0.1467  0.1243 -0.8278
  289MPD2     C 4408   4.467   4.148  14.219 -0.3545  0.1465  0.0351
  289MPD2    C1 4409   4.406   4.236  14.135 -0.4019  0.2841  0.6245
  289MPD2    C2 4410   4.272   4.228  14.112 -0.5377  0.1425 -0.6729
  289MPD2    C3 4411   4.201   4.121  14.165  0.6583  0.2964 -0.1460
  289MPD2    C4 4412   4.266   4.022  14.241 -0.0633  0.2151 -1.0781
  289MPD2    C5 4413   4.396   4.045  14.272 -0.1700 -0.3794  0.0203
  289MPD2     H 4414   4.233   4.301  14.042  0.4269  0.9605 -0.3558
  289MPD2    H1 4415   4.213   3.938  14.283 -2.3721  0.5779 -3.2668
  289MPD2    H2 4416   4.573   4.156  14.242 -0.6730 -1.1544  1.9792
  289MPD2    H3 4417   4.450   3.968  14.325  0.2424 -0.9305 -1.2013
  289MPD2     N 4418   4.064   4.101  14.130  0.1059  0.6021 -0.1052
  289MPD2    H5 4419   4.016   4.017  14.158 -0.9900  1.6875  1.2955
  289MPD2    N1 4420   4.485   4.343  14.089  0.0955 -0.7151 -0.0172
  289MPD2    H7 4421   4.579   4.345  14.127 -0.2474  0.5560  0.7419
  290TMC3    C1 4422   3.839   4.158  14.067 -0.2823  0.9262  0.4786
  290TMC3    C2 4423   3.756   4.248  13.997 -0.4013  0.4169 -0.2103
  290TMC3    C3 4424   3.622   4.257  14.027 -0.2355 -0.8609 -0.3174
  290TMC3    C4 4425   3.790   4.072  14.164  0.3755 -0.2264  0.7073
  290TMC3    C5 4426   3.653   4.098  14.200 -0.9873  0.9434 -0.3720
  290TMC3    C6 4427   3.571   4.192  14.134  0.4623  0.6529 -0.4634
  290TMC3     C 4428   3.985   4.188  14.062 -0.0622  0.6194  1.1307
  290TMC3     O 4429   4.021   4.291  14.008  0.3025 -0.0995 -0.3827
  290TMC3     H 4430   3.796   4.312  13.921  0.4865  0.7782  0.5596
  290TMC3    H1 4431   3.851   3.997  14.214  1.5221 -0.8779 -1.6715
  290TMC3    H2 4432   3.470   4.219  14.166  0.5410  0.9310 -0.4497
  290TMC3    C7 4433   3.622   4.056  14.336 -0.1003 -0.2512  0.1542
  290TMC3    C8 4434   3.586   4.398  14.020  0.3448 -0.0020  0.0907
  290TMC3    O1 4435   3.521   4.109  14.392 -0.4268  0.2311  0.2210
  290TMC3    O2 4436   3.497   4.428  13.943 -0.3160 -0.3008  0.6104
  291MPD2     C 4437   3.713   4.629  17.613 -0.3578  0.5259  0.5651
  291MPD2    C1 4438   3.786   4.579  17.720 -0.4480  0.6410  0.7694
  291MPD2    C2 4439   3.895   4.657   0.001  0.0247 -0.0088 -0.3685
  291MPD2    C3 4440   3.922   0.034  17.707 -0.3217  0.1301 -0.0617
  291MPD2    C4 4441   3.850   0.081  17.606  0.2219 -0.0645 -0.0391
  291MPD2    C5 4442   3.736   0.016  17.564 -0.4891 -0.2541 -0.0699
  291MPD2     H 4443   3.951   4.620   0.086 -0.3300  0.7116  0.1866
  291MPD2    H1 4444   3.872   0.172  17.551 -0.6573  0.2887  0.1768
  291MPD2    H2 4445   3.623   4.583  17.575 -0.4786  1.3088 -0.0919
  291MPD2    H3 4446   3.672   0.052  17.484 -1.4250  0.0624  0.8169
  291MPD2     N 4447   4.040   0.110  17.749 -0.2293  0.6788 -0.0670
  291MPD2    H5 4448   4.058   0.197  17.700  0.2981  0.3061 -0.5405
  291MPD2    N1 4449   3.756   4.458   0.021 -0.2676  0.0516  0.4508
  291MPD2    H7 4450   3.811   4.440   0.104  0.9509  0.8251 -0.1949
  292TMC3    C1 4451   3.655   4.267   0.083  0.0248 -0.2876 -0.4540
  292TMC3    C2 4452   3.700   4.289   0.211  0.0629  0.1541  0.1411
  292TMC3    C3 4453   3.664   4.190   0.306  0.3948  0.1758  0.3830
  292TMC3    C4 4454   3.573   4.161   0.056 -0.4332  0.5343 -0.2754
  292TMC3    C5 4455   3.545   4.059   0.148 -0.4522 -0.8685 -0.1114
  292TMC3    C6 4456   3.596   4.071   0.275 -0.4083 -0.0283  0.0646
  292TMC3     C 4457   3.681   4.358  17.738 -0.1456  1.0334 -0.3988
  292TMC3     O 4458   3.610   4.344  17.640  0.2488  0.4532 -0.3205
  292TMC3     H 4459   3.717   4.383   0.261  0.2689  1.0325 -1.5827
  292TMC3    H1 4460   3.543   4.146  17.718  0.8774 -0.9355 -0.4444
  292TMC3    H2 4461   3.578   3.990   0.345  0.1471  0.5478  0.8739
  292TMC3    C7 4462   3.501   3.926   0.113  0.0537  0.1535  0.0585
  292TMC3    C8 4463   3.718   4.211   0.441  0.1929 -0.3381 -0.1050
  292TMC3    O1 4464   3.531   3.833   0.184  0.0187 -0.3109  0.4970
  292TMC3    O2 4465   3.820   4.279   0.451 -0.0176  0.3688  0.1121
  293MPD2     C 4466   0.633   0.459  12.993 -0.4251  0.4258 -0.3383
  293MPD2    C1 4467   0.758   0.472  12.940 -0.0351  0.3106 -0.6271
  293MPD2    C2 4468   0.858   0.519  13.031  0.4072  0.2045 -0.5281
  293MPD2    C3 4469   0.828   0.549  13.165  0.5754 -0.0774 -0.5250
  293MPD2    C4 4470   0.699   0.529  13.205 -0.3827 -0.1452  0.3015
  293MPD2    C5 4471   0.602   0.493  13.117 -0.1811  0.2356 -0.0516
  293MPD2     H 4472   0.960   0.536  12.997 -0.1235  2.0920 -1.1639
  293MPD2    H1 4473   0.664   0.553  13.305  0.0145 -0.5431  0.5345
  293MPD2    H2 4474   0.559   0.426  12.921  2.8166 -0.2742 -3.3896
  293MPD2    H3 4475   0.500   0.485  13.152  0.4862  0.0146  1.9057
  293MPD2     N 4476   0.931   0.586  13.260  0.4777  0.2541  0.1577
  293MPD2    H5 4477   1.026   0.568  13.231 -0.0791  2.5137 -3.0314
  293MPD2    N1 4478   0.786   0.428  12.805  0.5190 -0.6566  0.0567
  293MPD2    H7 4479   0.718   0.372  12.755 -0.9981  1.5710 -0.4044
  294TMC3    C1 4480   0.888   0.391  12.603 -0.0990 -0.0414 -0.0218
  294TMC3    C2 4481   0.821   0.271  12.605 -0.4401  0.0823  0.8343
  294TMC3    C3 4482   0.759   0.219  12.498  0.1617  0.0417 -0.0931
  294TMC3    C4 4483   0.904   0.452  12.481  0.5266  0.4846 -0.3452
  294TMC3    C5 4484   0.840   0.398  12.370  0.0591 -0.8528 -0.2984
  294TMC3    C6 4485   0.779   0.278  12.377  0.3742 -0.6217  0.2638
  294TMC3     C 4486   0.897   0.460  12.728  0.8571  0.6163  1.0393
  294TMC3     O 4487   0.978   0.542  12.752 -0.0955  0.2400 -0.1699
  294TMC3     H 4488   0.843   0.222  12.699  0.0213  0.1286  0.7492
  294TMC3    H1 4489   0.962   0.544  12.476  0.1484  0.8847  2.6707
  294TMC3    H2 4490   0.745   0.231  12.286 -0.7129 -0.4822  0.5958
  294TMC3    C7 4491   0.856   0.460  12.243 -0.1686  0.0415 -0.2475
  294TMC3    C8 4492   0.714   0.085  12.511  0.2802  0.4661  0.1295
  294TMC3    O1 4493   0.911   0.567  12.249 -0.2212  0.1634  0.4977
  294TMC3    O2 4494   0.735   0.030  12.621  0.5367 -0.3068  0.1822
  295MPD2     C 4495   2.347   0.182   0.740 -0.0600  0.3545 -0.0948
  295MPD2    C1 4496   2.212   0.192   0.758  0.0077 -0.8431 -0.6276
  295MPD2    C2 4497   2.158   0.211   0.882  0.4872  0.3994 -0.3571
  295MPD2    C3 4498   2.231   0.234   0.994  0.2807 -0.5146  0.4340
  295MPD2    C4 4499   2.361   0.241   0.984 -0.1858  0.1138  0.4766
  295MPD2    C5 4500   2.419   0.217   0.857 -0.0617 -0.3508 -0.0024
  295MPD2     H 4501   2.050   0.219   0.895  0.6902 -0.2844  1.7439
  295MPD2    H1 4502   2.424   0.253   1.072 -0.6011 -1.3496  0.9839
  295MPD2    H2 4503   2.396   0.159   0.646 -0.3748 -1.5459  0.1885
  295MPD2    H3 4504   2.527   0.207   0.858  0.0676  0.8608 -1.0988
  295MPD2     N 4505   2.169   0.253   1.126 -0.1634  0.0929 -0.1454
  295MPD2    H5 4506   2.230   0.264   1.206  1.3327 -0.1469 -1.2547
  295MPD2    N1 4507   2.118   0.186   0.653 -0.1362  0.6127  0.4044
  295MPD2    H7 4508   2.022   0.217   0.668 -1.1280 -0.7879 -3.0317
  296TMC3    C1 4509   2.024   0.215   1.311  0.4460  0.9391  0.3469
  296TMC3    C2 4510   2.057   0.327   1.385 -0.0872  0.0508 -0.2719
  296TMC3    C3 4511   1.973   0.357   1.494  0.0013 -0.6568  0.0174
  296TMC3    C4 4512   1.924   0.129   1.353  0.0833  0.0969 -0.6535
  296TMC3    C5 4513   1.848   0.157   1.467 -0.5118 -0.1730  0.2363
  296TMC3    C6 4514   1.874   0.272   1.536 -0.3684 -0.4575  0.2937
  296TMC3     C 4515   2.040   0.224   1.162 -0.1737  0.2608 -0.3037
  296TMC3     O 4516   1.952   0.170   1.094 -0.1685 -0.1445  0.4198
  296TMC3     H 4517   2.123   0.398   1.336  2.0800 -0.6958  1.5417
  296TMC3    H1 4518   1.902   0.039   1.298  0.0924  0.5865 -1.4579
  296TMC3    H2 4519   1.824   0.283   1.632  0.8838  0.0684  0.8697
  296TMC3    C7 4520   1.726   0.081   1.499  1.0004  0.6483  0.1062
  296TMC3    C8 4521   1.990   0.491   1.542  0.3240  0.3404  0.6440
  296TMC3    O1 4522   1.644   0.131   1.580 -0.2570 -0.5321 -0.3198
  296TMC3    O2 4523   2.098   0.544   1.518  0.3684 -0.0168  1.3724
  297MPD2     C 4524   3.048   1.351  16.234 -0.0240  0.6813 -0.4722
  297MPD2    C1 4525   3.054   1.471  16.166 -0.2128  0.1846 -0.4567
  297MPD2    C2 4526   3.171   1.541  16.152 -0.5505  0.0083  0.0620
  297MPD2    C3 4527   3.290   1.475  16.191  0.0871 -0.3056 -0.1584
  297MPD2    C4 4528   3.288   1.350  16.239  0.5955 -0.4099 -0.8889
  297MPD2    C5 4529   3.169   1.285  16.269  0.2241 -0.4201 -0.3266
  297MPD2     H 4530   3.179   1.646  16.126 -0.9139  0.2719  1.0361
  297MPD2    H1 4531   3.379   1.297  16.264  0.1454  0.4604  2.6775
  297MPD2    H2 4532   2.956   1.299  16.258 -1.1747  1.7116 -2.6688
  297MPD2    H3 4533   3.162   1.190  16.320  0.6209 -1.1475 -1.6224
  297MPD2     N 4534   3.411   1.556  16.185  0.1792 -0.4157  0.0577
  297MPD2    H5 4535   3.402   1.655  16.167 -0.3754 -0.3520  0.7014
  297MPD2    N1 4536   2.932   1.541  16.144 -0.1586 -0.5757 -0.3510
  297MPD2    H7 4537   2.843   1.492  16.152 -1.4688  2.0704  1.1442
  298TMC3    C1 4538   2.773   1.688  16.046  0.1178 -0.0089  0.7711
  298TMC3    C2 4539   2.740   1.701  15.914 -0.8569  0.6185 -0.1232
  298TMC3    C3 4540   2.607   1.736  15.890  0.3987 -0.3855  0.1821
  298TMC3    C4 4541   2.683   1.720  16.151 -0.5717  0.3952 -0.2232
  298TMC3    C5 4542   2.562   1.772  16.116  0.0409  0.1046 -0.4237
  298TMC3    C6 4543   2.512   1.765  15.985  0.5312 -0.2734  0.4152
  298TMC3     C 4544   2.912   1.653  16.063 -0.7630  0.3179 -0.0336
  298TMC3     O 4545   2.989   1.688  15.971 -0.3284 -0.8560  0.6496
  298TMC3     H 4546   2.802   1.660  15.835  0.4450 -0.9302  1.6999
  298TMC3    H1 4547   2.723   1.714  16.252 -0.4524  1.3923 -0.2164
  298TMC3    H2 4548   2.413   1.795  15.950  1.2695 -1.3701 -2.6066
  298TMC3    C7 4549   2.485   1.837  16.216  0.7562  0.9541 -0.5662
  298TMC3    C8 4550   2.554   1.677  15.766 -0.8060  0.2107 -0.5043
  298TMC3    O1 4551   2.538   1.872  16.323  0.2017 -0.0292  0.1944
  298TMC3    O2 4552   2.436   1.649  15.763 -0.0737  0.3574 -0.0523
  299MPD2     C 4553   4.036   0.759  10.356 -0.3298 -0.3212 -0.4860
  299MPD2    C1 4554   3.990   0.824  10.474  0.0246  0.6329 -0.3845
  299MPD2    C2 4555   3.862   0.875  10.479  0.9481 -0.3632  0.3249
  299MPD2    C3 4556   3.781   0.874  10.361  0.0720 -0.2189 -0.0515
  299MPD2    C4 4557   3.826   0.816  10.246 -0.2827  0.0893  0.1440
  299MPD2    C5 4558   3.957   0.768  10.244 -0.0252  0.5320  0.4706
  299MPD2     H 4559   3.819   0.907  10.574 -0.0805 -0.5290 -0.0882
  299MPD2    H1 4560   3.764   0.811  10.157 -0.7137 -2.6042  0.5901
  299MPD2    H2 4561   4.127   0.703  10.337 -0.3608  0.4536 -2.9982
  299MPD2    H3 4562   3.988   0.725  10.149  0.8766  0.0639  0.9798
  299MPD2     N 4563   3.649   0.926  10.354  1.1265  0.2312 -0.3140
  299MPD2    H5 4564   3.578   0.894  10.289 -0.9000  1.6718  1.1863
  299MPD2    N1 4565   4.080   0.827  10.578  0.6243  0.2663 -0.5875
  299MPD2    H7 4566   4.170   0.782  10.566  1.5823  2.5940 -2.1995
  300TMC3    C1 4567   3.480   1.072  10.452  0.4736  0.5106  0.6618
  300TMC3    C2 4568   3.464   1.188  10.523  0.0617 -0.2888 -0.0057
  300TMC3    C3 4569   3.342   1.221  10.563  0.3832  0.3216  0.2478
  300TMC3    C4 4570   3.378   0.987  10.422  0.2511  0.1201 -0.2540
  300TMC3    C5 4571   3.252   1.020  10.461  0.5515 -0.1437  0.1965
  300TMC3    C6 4572   3.235   1.139  10.535  0.1188  0.6789  0.2700
  300TMC3     C 4573   3.620   1.032  10.440  0.2635  0.3563  0.3508
  300TMC3     O 4574   3.696   1.102  10.506 -1.0496  0.4111  0.1464
  300TMC3     H 4575   3.541   1.258  10.555  1.2592 -1.0125 -1.2838
  300TMC3    H1 4576   3.382   0.889  10.376 -1.3112  0.5398 -1.2714
  300TMC3    H2 4577   3.142   1.162  10.585 -0.4115 -0.1227 -0.3534
  300TMC3    C7 4578   3.145   0.924  10.432  0.4725  0.6059 -0.3599
  300TMC3    C8 4579   3.330   1.334  10.648  0.2063 -0.0849  0.5852
  300TMC3    O1 4580   3.166   0.846  10.339  0.7365 -0.6138 -0.7284
  300TMC3    O2 4581   3.425   1.387  10.690 -0.3018 -0.2262 -0.0531
  301MPD2     C 4582   2.054   2.913   0.799 -0.4827 -0.4893 -0.8760
  301MPD2    C1 4583   1.920   2.873   0.791 -0.4901 -0.0591  0.0943
  301MPD2    C2 4584   1.880   2.750   0.829  0.4907  0.3059  0.2321
  301MPD2    C3 4585   1.972   2.659   0.876 -0.7033 -0.3700 -0.8535
  301MPD2    C4 4586   2.106   2.691   0.888 -0.0521 -0.5979 -0.5581
  301MPD2    C5 4587   2.145   2.821   0.852 -0.1022 -0.6176  0.2824
  301MPD2     H 4588   1.776   2.726   0.810  0.5978  0.1714 -0.1649
  301MPD2    H1 4589   2.186   2.632   0.932  0.7381  0.0135 -1.1739
  301MPD2    H2 4590   2.085   3.014   0.775 -2.1018  0.1385 -0.3582
  301MPD2    H3 4591   2.243   2.862   0.875 -0.2180 -0.0785 -0.1916
  301MPD2     N 4592   1.936   2.529   0.918  0.0073 -0.2359 -0.2103
  301MPD2    H5 4593   2.006   2.458   0.935 -0.3208 -0.4160  0.4083
  301MPD2    N1 4594   1.822   2.967   0.746 -0.2110 -0.9323  0.2331
  301MPD2    H7 4595   1.728   2.930   0.737 -1.6213  3.4187 -2.4774
  302TMC3    C1 4596   1.777   2.343   0.950  0.1889 -0.4623 -0.6527
  302TMC3    C2 4597   1.867   2.245   0.994  0.5117  0.4117 -0.9513
  302TMC3    C3 4598   1.832   2.114   0.981  0.1600  0.4939 -0.3955
  302TMC3    C4 4599   1.654   2.313   0.897 -0.1607  0.4032 -0.1262
  302TMC3    C5 4600   1.630   2.176   0.883  0.3907  0.1133 -0.1821
  302TMC3    C6 4601   1.716   2.075   0.924  0.7394  0.0629 -1.1293
  302TMC3     C 4602   1.806   2.492   0.937 -0.5066  0.1145 -0.0384
  302TMC3     O 4603   1.701   2.558   0.949  0.3941 -0.4583 -0.3527
  302TMC3     H 4604   1.962   2.274   1.036  0.3393  1.1061 -1.0438
  302TMC3    H1 4605   1.580   2.383   0.861 -0.8580  0.0277  0.5822
  302TMC3    H2 4606   1.689   1.976   0.891  0.1364  0.2266 -1.1392
  302TMC3    C7 4607   1.514   2.129   0.803 -0.2085 -0.0503  0.1522
  302TMC3    C8 4608   1.913   2.020   1.050 -0.3720 -0.5578  0.1725
  302TMC3    O1 4609   1.524   2.023   0.751  0.0090  0.1405 -0.1423
  302TMC3    O2 4610   2.026   2.051   1.092  0.3163  0.2477  0.3741
  303MPD2     C 4611   0.787   0.112  10.521 -0.2732  0.3035 -0.4415
  303MPD2    C1 4612   0.887   0.085  10.433 -0.5004 -0.1946 -0.2438
  303MPD2    C2 4613   0.959   0.186  10.379 -0.0615 -0.2113 -0.2233
  303MPD2    C3 4614   0.942   0.322  10.416  0.4898  0.4095  0.5450
  303MPD2    C4 4615   0.852   0.341  10.517 -0.5100  0.0101  0.2887
  303MPD2    C5 4616   0.777   0.240  10.566  0.0357 -0.6940  0.0518
  303MPD2     H 4617   1.025   0.159  10.298  0.6879 -1.3224  0.7546
  303MPD2    H1 4618   0.842   0.441  10.557 -1.2750  1.4125 -3.3976
  303MPD2    H2 4619   0.728   0.032  10.565 -0.3885 -0.9092 -2.8487
  303MPD2    H3 4620   0.717   0.269  10.652  3.4281  1.0443  1.8393
  303MPD2     N 4621   1.010   0.435  10.364  0.4280 -0.0707 -0.0954
  303MPD2    H5 4622   0.974   0.524  10.399  0.2877 -0.3549  0.4825
  303MPD2    N1 4623   0.889   4.695  10.391  0.0362 -0.3202 -0.1414
  303MPD2    H7 4624   0.821   4.637  10.441 -0.0926 -1.2967 -1.4553
  304TMC3    C1 4625   0.948   4.501  10.288 -0.2384 -0.2009  0.5954
  304TMC3    C2 4626   0.870   4.446  10.385 -0.2866  0.7073  0.3393
  304TMC3    C3 4627   0.770   4.364  10.349  0.4163 -0.1947 -0.0445
  304TMC3    C4 4628   0.953   4.447  10.166  0.1621 -0.4861 -1.1097
  304TMC3    C5 4629   0.852   4.364  10.131 -0.0808  0.8023  0.7708
  304TMC3    C6 4630   0.760   4.323  10.221  0.1627 -0.4434 -1.0229
  304TMC3     C 4631   0.979   4.636  10.305 -0.3555  0.1878 -0.6853
  304TMC3     O 4632   1.054   4.697  10.228 -0.2983  0.4172 -0.1933
  304TMC3     H 4633   0.887   4.472  10.489 -1.1753 -0.8425  0.8716
  304TMC3    H1 4634   1.026   4.481  10.093  2.2093 -3.1200 -0.2733
  304TMC3    H2 4635   0.683   4.250  10.196 -0.1935 -0.8101  1.1398
  304TMC3    C7 4636   0.774   4.394  10.013 -0.1649  0.1403  0.6643
  304TMC3    C8 4637   0.652   4.415  10.405  0.4883  0.3073 -0.3155
  304TMC3    O1 4638   0.652   4.398  10.020  0.4003 -0.0949  0.1108
  304TMC3    O2 4639   0.654   4.445  10.524  0.6416  0.0061 -0.4758
  305MPD2     C 4640   4.186   2.393  14.133 -0.2619 -0.1082 -0.6286
  305MPD2    C1 4641   4.319   2.378  14.115  0.4857  0.2011 -0.6824
  305MPD2    C2 4642   4.365   2.319  13.996  0.4488 -0.2889  0.1436
  305MPD2    C3 4643   4.275   2.272  13.902 -0.1134 -0.3309 -0.6367
  305MPD2    C4 4644   4.143   2.295  13.922 -0.0308 -0.8949 -0.0620
  305MPD2    C5 4645   4.099   2.349  14.037 -0.2483  0.0485  0.0844
  305MPD2     H 4646   4.469   2.298  13.974  0.9873  1.7851  0.6139
  305MPD2    H1 4647   4.079   2.265  13.840  1.0053 -1.0632 -0.8017
  305MPD2    H2 4648   4.137   2.430  14.223 -0.1672 -1.4467 -0.0322
  305MPD2    H3 4649   3.992   2.347  14.053 -0.1635  0.9147  0.7769
  305MPD2     N 4650   4.311   2.208  13.782  0.6846  0.5589 -0.2048
  305MPD2    H5 4651   4.237   2.198  13.713  0.8833 -0.0448 -0.3311
  305MPD2    N1 4652   4.401   2.426  14.222  0.0102  0.6457  0.1520
  305MPD2    H7 4653   4.348   2.454  14.304  0.1421 -4.4766  2.0021
  306TMC3    C1 4654   4.565   2.436  14.375 -0.8356 -1.4595  0.0737
  306TMC3    C2 4655   4.659   2.356  14.429  0.0680  0.4753 -0.1435
  306TMC3    C3 4656   4.678   2.370  14.566 -0.9057  1.1298 -0.6219
  306TMC3    C4 4657   4.501   2.536  14.436 -1.0099 -0.7370  1.3180
  306TMC3    C5 4658   4.530   2.552  14.567  0.2887  0.5723  0.2977
  306TMC3    C6 4659   4.611   2.466  14.633  0.6675 -0.5273 -0.3967
  306TMC3     C 4660   4.535   2.418  14.231 -0.3214  0.1500 -0.0210
  306TMC3     O 4661   4.608   2.363  14.152 -0.7677 -0.2433 -0.2149
  306TMC3     H 4662   4.717   2.283  14.373 -0.8704 -1.0693  0.9031
  306TMC3    H1 4663   4.437   2.604  14.382  0.4813  0.1367  0.6458
  306TMC3    H2 4664   4.625   2.479  14.740 -1.1629  2.2840 -0.4935
  306TMC3    C7 4665   4.449   2.649  14.633 -0.2955 -0.3211  0.3863
  306TMC3    C8 4666   0.037   2.284  14.624 -0.1980 -0.1675 -0.4638
  306TMC3    O1 4667   4.355   2.700  14.577 -0.5069 -0.1751 -0.0345
  306TMC3    O2 4668   0.069   2.184  14.557 -0.0720 -0.1977  0.9780
  307MPD2     C 4669   2.130   0.916   0.102  0.2792 -0.2420  0.3725
  307MPD2    C1 4670   2.078   1.049   0.122  0.6669  0.0171 -0.7425
  307MPD2    C2 4671   2.051   1.092   0.252  0.3949  0.0669  1.0375
  307MPD2    C3 4672   2.064   1.011   0.358  0.1236  0.0492  0.1568
  307MPD2    C4 4673   2.121   0.888   0.341 -0.3124 -0.0795 -0.1278
  307MPD2    C5 4674   2.145   0.834   0.212  0.0525 -0.2468  0.2955
  307MPD2     H 4675   2.021   1.195   0.263  1.6451  0.5086  0.3136
  307MPD2    H1 4676   2.113   0.818   0.423  1.5771  0.7013  0.7268
  307MPD2    H2 4677   2.160   0.882   0.003  0.3408  0.8646  0.0099
  307MPD2    H3 4678   2.180   0.732   0.195 -2.2134 -0.7828 -1.0755
  307MPD2     N 4679   2.029   1.061   0.490  0.3746 -0.0241  1.0257
  307MPD2    H5 4680   1.963   1.138   0.495 -0.1794 -0.5351  1.6412
  307MPD2    N1 4681   2.078   1.148   0.029  0.7801 -0.5337  0.4761
  307MPD2    H7 4682   2.052   1.242   0.058  2.0301  1.0274 -3.4636
  308TMC3    C1 4683   1.800   1.182   0.800 -0.5741  0.0106 -0.4864
  308TMC3    C2 4684   1.876   1.266   0.873 -0.3976 -0.5343 -0.0619
  308TMC3    C3 4685   2.018   1.251   0.862  0.1038  0.5167  0.3945
  308TMC3    C4 4686   1.856   1.084   0.724 -0.3281  0.2563  0.2616
  308TMC3    C5 4687   1.997   1.066   0.716  0.9186  0.1217 -0.0747
  308TMC3    C6 4688   2.071   1.157   0.783  0.3060 -0.0147  0.4080
  308TMC3     C 4689   1.662   1.164   0.812 -0.0876  1.0419 -0.5774
  308TMC3     O 4690   1.610   1.049   0.807 -0.5485 -0.0278  0.2558
  308TMC3     H 4691   1.835   1.337   0.944 -1.1507  0.6320 -1.6433
  308TMC3    H1 4692   1.790   1.016   0.670 -2.2303  2.6814 -0.4541
  308TMC3    H2 4693   2.179   1.153   0.778  0.2162 -2.2078  0.2231
  308TMC3    C7 4694   2.059   0.993   0.606  0.2288  0.2553  0.2366
  308TMC3    C8 4695   2.105   1.354   0.913  0.6751 -0.0191  0.5516
  308TMC3    O1 4696   2.151   0.918   0.635 -0.2284  0.4376 -0.1933
  308TMC3    O2 4697   2.225   1.336   0.915  0.1652  0.4923 -0.2554
  309MPD2     C 4698   0.828   1.029  17.184 -1.1129  0.0502 -0.3778
  309MPD2    C1 4699   0.878   1.154  17.168 -0.2772 -0.6993 -0.5509
  309MPD2    C2 4700   0.818   1.268  17.223 -0.9847 -0.3242  0.2008
  309MPD2    C3 4701   0.710   1.251  17.299 -0.2659 -0.1210 -0.0680
  309MPD2    C4 4702   0.654   1.130  17.320 -0.1157 -1.0326 -0.2916
  309MPD2    C5 4703   0.719   1.021  17.273 -0.8493  0.0540 -0.1803
  309MPD2     H 4704   0.844   1.372  17.209 -0.7371 -0.4658 -0.4133
  309MPD2    H1 4705   0.574   1.109  17.390 -0.1441 -0.2479 -0.0957
  309MPD2    H2 4706   0.863   0.936  17.139  4.0847  0.5572  2.5796
  309MPD2    H3 4707   0.680   0.920  17.280  0.2780 -0.2671  1.6483
  309MPD2     N 4708   0.657   1.361  17.376  0.1562  0.1731 -0.0960
  309MPD2    H5 4709   0.565   1.354  17.418 -0.0731 -0.9230 -0.8028
  309MPD2    N1 4710   0.977   1.174  17.067  0.1051  0.1097 -0.4295
  309MPD2    H7 4711   0.979   1.265  17.023  0.1507  0.9028  1.2210
  310TMC3    C1 4712   1.124   1.097  16.898  0.0160 -0.6663 -0.4916
  310TMC3    C2 4713   1.081   1.206  16.833 -0.6339  0.3100  0.5088
  310TMC3    C3 4714   1.169   1.257  16.737 -0.1618 -0.1390 -0.3252
  310TMC3    C4 4715   1.233   1.029  16.873  0.5698 -0.5561 -0.3957
  310TMC3    C5 4716   1.312   1.080  16.775  0.0083 -0.1169 -0.3973
  310TMC3    C6 4717   1.276   1.184  16.700 -1.0348 -0.3549  0.3193
  310TMC3     C 4718   1.058   1.074  17.026  0.1469 -0.4933  0.4648
  310TMC3     O 4719   1.087   0.970  17.093 -0.4988  0.3455 -0.2293
  310TMC3     H 4720   0.975   1.226  16.835 -0.3685  1.6112  1.2532
  310TMC3    H1 4721   1.266   0.941  16.927 -0.9886  0.5337  2.3295
  310TMC3    H2 4722   1.323   1.209  16.605  2.7074 -2.1119  1.7224
  310TMC3    C7 4723   1.429   1.014  16.750  0.0377  0.0061  0.0854
  310TMC3    C8 4724   1.115   1.352  16.642  0.0883 -0.2373 -0.0252
  310TMC3    O1 4725   1.423   0.893  16.727  0.6870  0.0486  0.3544
  310TMC3    O2 4726   1.197   1.387  16.562 -0.1739  0.2128  0.3096
  311MPD2     C 4727   3.549   2.474  12.459 -0.5488 -0.2340  0.0307
  311MPD2    C1 4728   3.578   2.511  12.589 -0.1789  0.4763  0.3511
  311MPD2    C2 4729   3.484   2.498  12.687 -0.6828 -0.3541  0.1204
  311MPD2    C3 4730   3.362   2.449  12.650 -0.3256  0.0006 -0.2736
  311MPD2    C4 4731   3.338   2.406  12.525 -0.2773 -0.4506 -0.0953
  311MPD2    C5 4732   3.423   2.416  12.424 -0.3687  0.3433  0.1977
  311MPD2     H 4733   3.521   2.526  12.785  0.3858 -0.8604 -0.1489
  311MPD2    H1 4734   3.237   2.387  12.489 -0.2883  0.9578 -0.8059
  311MPD2    H2 4735   3.622   2.504  12.385  0.8310  0.7469  1.7734
  311MPD2    H3 4736   3.386   2.392  12.325  0.4482  0.3007 -0.0970
  311MPD2     N 4737   3.263   2.448  12.755  0.3162  0.0623  0.3649
  311MPD2    H5 4738   3.290   2.497  12.840  3.7875 -3.3698  1.2629
  311MPD2    N1 4739   3.705   2.559  12.624 -0.0806  0.2300 -0.5432
  311MPD2    H7 4740   3.715   2.596  12.718 -1.8675 -2.2045  0.5914
  312TMC3    C1 4741   3.040   2.412  12.851 -1.0253 -0.9395 -0.0774
  312TMC3    C2 4742   2.919   2.358  12.819 -0.9166 -0.3193 -0.2035
  312TMC3    C3 4743   2.814   2.443  12.836  0.1489  0.5068  0.2156
  312TMC3    C4 4744   3.060   2.533  12.915 -0.6507  0.2228  0.0538
  312TMC3    C5 4745   2.942   2.601  12.945 -0.0286  0.0457  0.2228
  312TMC3    C6 4746   2.824   2.563  12.895 -0.0267 -0.1048 -0.2167
  312TMC3     C 4747   3.141   2.394  12.743 -0.0445  0.2261  0.3824
  312TMC3     O 4748   3.097   2.326  12.652  0.1463 -0.3948  0.1065
  312TMC3     H 4749   2.916   2.264  12.764  1.7405 -0.4534 -0.1471
  312TMC3    H1 4750   3.154   2.586  12.914 -0.2353 -0.5176 -0.2989
  312TMC3    H2 4751   2.739   2.629  12.900 -1.1035 -1.5705  0.9971
  312TMC3    C7 4752   2.957   2.745  12.965  0.1853  0.4613 -0.6133
  312TMC3    C8 4753   2.684   2.390  12.793  0.7820 -0.0471  0.4459
  312TMC3    O1 4754   2.876   2.819  12.908 -0.2236  0.1107  0.2624
  312TMC3    O2 4755   2.676   2.272  12.771  0.2837 -0.1230 -0.0262
  313MPD2     C 4756   2.681   1.459  11.324 -0.0273  0.6916  0.2180
  313MPD2    C1 4757   2.569   1.408  11.261  0.6825 -0.1824 -0.6690
  313MPD2    C2 4758   2.581   1.355  11.134  0.5577  0.5459  0.6854
  313MPD2    C3 4759   2.692   1.372  11.059  0.7445  0.6648 -0.1768
  313MPD2    C4 4760   2.800   1.436  11.118 -0.0896  0.1784 -0.7478
  313MPD2    C5 4761   2.795   1.476  11.247  0.6807 -0.5949  0.6476
  313MPD2     H 4762   2.497   1.295  11.102  2.5068 -1.6111 -0.4466
  313MPD2    H1 4763   2.891   1.449  11.060  2.3824 -0.2439  3.0170
  313MPD2    H2 4764   2.676   1.507  11.421 -0.4627  2.1385 -0.5234
  313MPD2    H3 4765   2.880   1.530  11.288 -0.5176  1.5561  0.3274
  313MPD2     N 4766   2.686   1.316  10.928 -0.1516  0.4929  0.3142
  313MPD2    H5 4767   2.602   1.282  10.881 -0.6137 -0.1093  1.5747
  313MPD2    N1 4768   2.435   1.428  11.304 -0.0883  0.1129  0.3037
  313MPD2    H7 4769   2.360   1.389  11.247 -0.4996  1.2390  0.0661
  314TMC3    C1 4770   2.293   1.607  11.366 -0.0222 -0.3094 -0.1136
  314TMC3    C2 4771   2.310   1.729  11.423  0.2799 -0.2455 -0.2573
  314TMC3    C3 4772   2.332   1.837  11.334  0.3394  0.3899  0.4622
  314TMC3    C4 4773   2.266   1.589  11.231  0.1527 -0.5394 -0.3897
  314TMC3    C5 4774   2.267   1.701  11.150  0.1368  0.5597  0.1134
  314TMC3    C6 4775   2.294   1.832  11.199 -0.7175 -0.1012 -0.2712
  314TMC3     C 4776   2.404   1.517  11.402  0.3760 -0.1585  0.3300
  314TMC3     O 4777   2.474   1.562  11.490  0.0246  0.2296 -0.4632
  314TMC3     H 4778   2.335   1.742  11.528  1.6116  2.2767 -0.8832
  314TMC3    H1 4779   2.215   1.498  11.202  1.0560 -0.9064 -0.8274
  314TMC3    H2 4780   2.300   1.923  11.141  2.4997  1.2470  2.1375
  314TMC3    C7 4781   2.246   1.681  11.011 -0.1839  0.5079  0.0485
  314TMC3    C8 4782   2.454   1.912  11.357 -0.2620  0.0091  0.7192
  314TMC3    O1 4783   2.240   1.565  10.975  0.3437 -0.1838  0.2038
  314TMC3    O2 4784   2.481   2.012  11.289 -0.0716  0.1323  0.0370
  315MPD2     C 4785   2.441   1.120   0.556 -0.2999 -0.6036  0.3627
  315MPD2    C1 4786   2.569   1.130   0.512 -0.7111 -0.3572  0.0420
  315MPD2    C2 4787   2.590   1.214   0.402 -0.3863 -0.1427 -0.2406
  315MPD2    C3 4788   2.494   1.285   0.336  0.3135 -0.1003  0.0322
  315MPD2    C4 4789   2.364   1.275   0.380 -0.4337 -0.3458 -0.0216
  315MPD2    C5 4790   2.342   1.183   0.487 -0.3192  0.5363  0.1190
  315MPD2     H 4791   2.692   1.227   0.369  0.1564  1.4988  2.0709
  315MPD2    H1 4792   2.279   1.337   0.352  1.0864  2.2980  1.2502
  315MPD2    H2 4793   2.408   1.063   0.642 -0.0321  0.7993  1.3778
  315MPD2    H3 4794   2.243   1.178   0.532 -0.8578 -1.1788 -1.2494
  315MPD2     N 4795   2.529   1.370   0.232  1.0230 -0.5151 -0.3194
  315MPD2    H5 4796   2.626   1.374   0.203  0.9850 -2.5699 -0.7644
  315MPD2    N1 4797   2.681   1.070   0.575  0.2011 -0.4835 -0.0161
  315MPD2    H7 4798   2.775   1.087   0.541  0.5195  0.0286  1.1414
  316TMC3    C1 4799   2.495   1.543   0.083 -0.3922  0.5826  0.4733
  316TMC3    C2 4800   2.604   1.612   0.138 -0.0584  0.0928  0.1728
  316TMC3    C3 4801   2.634   1.737   0.088 -0.0437 -0.1119 -0.3747
  316TMC3    C4 4802   2.435   1.591  17.740 -0.4793  0.3151 -0.0124
  316TMC3    C5 4803   2.474   1.710  17.694 -0.3830  0.0481 -0.2465
  316TMC3    C6 4804   2.558   1.793  17.758  0.5971  0.7952  0.5091
  316TMC3     C 4805   2.433   1.440   0.157 -0.2938  0.1454 -0.5730
  316TMC3     O 4806   2.314   1.427   0.140  0.2805  0.1843  0.2528
  316TMC3     H 4807   2.658   1.576   0.226 -0.8478  0.2788  0.7288
  316TMC3    H1 4808   2.350   1.542  17.693 -1.5322  0.9431  1.2455
  316TMC3    H2 4809   2.587   1.885  17.710 -0.1678  0.4750 -0.5633
  316TMC3    C7 4810   2.430   1.764  17.566  0.5479 -0.2697 -0.0565
  316TMC3    C8 4811   2.745   1.806   0.139 -0.0231  0.5908 -0.1816
  316TMC3    O1 4812   2.442   1.884  17.549 -0.0467  0.4517  0.7431
  316TMC3    O2 4813   2.752   1.925   0.112 -0.3499 -0.3231 -0.6309
  317MPD2     C 4814   0.010   4.072  12.824 -0.1257 -0.4274  0.6113
  317MPD2    C1 4815   0.106   3.981  12.874  0.7925 -0.7147 -0.2096
  317MPD2    C2 4816   0.127   3.967  13.008 -0.0146 -0.4213  0.5310
  317MPD2    C3 4817   0.045   4.035  13.097 -0.8081 -0.2423  0.1221
  317MPD2    C4 4818   4.692   4.111  13.043 -0.8071  0.1287 -0.1550
  317MPD2    C5 4819   4.692   4.148  12.911  0.1327 -0.0396  0.2488
  317MPD2     H 4820   0.200   3.896  13.046  0.0801 -1.8423 -2.2990
  317MPD2    H1 4821   4.615   4.165  13.097 -3.0431  0.2752 -3.4885
  317MPD2    H2 4822   0.015   4.107  12.722  0.5528 -0.3012  0.6894
  317MPD2    H3 4823   4.632   4.236  12.888 -1.6670 -1.0326  1.1783
  317MPD2     N 4824   0.069   4.025  13.235 -0.4514 -0.2282 -0.3739
  317MPD2    H5 4825   0.136   3.950  13.251 -0.9116 -1.1095 -2.6034
  317MPD2    N1 4826   0.192   3.911  12.793  0.6081  0.0184  0.2947
  317MPD2    H7 4827   0.256   3.850  12.842 -1.2846 -3.2799 -1.3373
  318TMC3    C1 4828   0.015   4.011  13.458 -0.3188 -0.2473 -0.2682
  318TMC3    C2 4829   4.655   3.946  13.525  1.0089 -0.1627  0.4353
  318TMC3    C3 4830   4.687   3.869  13.629  0.1611 -0.4772 -0.0234
  318TMC3    C4 4831   0.150   3.994  13.482  0.0100 -0.8768 -0.0519
  318TMC3    C5 4832   0.180   3.910  13.582 -0.2861  0.6067 -0.1868
  318TMC3    C6 4833   0.078   3.847  13.659 -0.5565  0.0217  1.0088
  318TMC3     C 4834   4.718   4.059  13.328 -0.0662 -0.8380  0.3446
  318TMC3     O 4835   4.612   4.125  13.318 -0.2605 -0.5227 -0.0500
  318TMC3     H 4836   4.553   3.975  13.504  0.5933 -1.4344  0.7377
  318TMC3    H1 4837   0.227   4.047  13.427 -1.9934 -1.7962 -3.7097
  318TMC3    H2 4838   0.098   3.795  13.752 -0.9225 -0.0790  1.0317
  318TMC3    C7 4839   0.303   3.943  13.652 -0.0453  0.1698  0.1461
  318TMC3    C8 4840   4.597   3.756  13.659 -0.0747 -0.1941  0.7721
  318TMC3    O1 4841   0.331   4.060  13.665  0.0335 -0.1546  0.5294
  318TMC3    O2 4842   4.635   3.671  13.744  0.2518  0.6143 -0.3209
  319MPD2     C 4843   0.337   1.282  17.169 -0.3533  0.2079 -0.2934
  319MPD2    C1 4844   0.290   1.163  17.229  0.2892 -0.6358  0.0930
  319MPD2    C2 4845   0.279   1.055  17.143 -0.0829 -0.4902 -0.6470
  319MPD2    C3 4846   0.308   1.059  17.007  0.0956 -0.7694 -0.8029
  319MPD2    C4 4847   0.348   1.176  16.954 -0.2324 -0.1418 -0.8311
  319MPD2    C5 4848   0.363   1.285  17.037 -0.9036 -0.0031  0.7186
  319MPD2     H 4849   0.244   0.963  17.188 -1.4950 -0.4494 -1.6613
  319MPD2    H1 4850   0.374   1.195  16.850  2.2006 -0.1798 -0.2389
  319MPD2    H2 4851   0.352   1.371  17.229 -0.1653 -1.4716  2.1619
  319MPD2    H3 4852   0.386   1.380  16.991  0.5850 -0.2747  0.9007
  319MPD2     N 4853   0.292   0.954  16.915  0.4025 -0.3071 -0.5011
  319MPD2    H5 4854   0.307   0.986  16.820  1.1053  0.2635 -0.1953
  319MPD2    N1 4855   0.276   1.148  17.372  0.5193  0.4567  0.9775
  319MPD2    H7 4856   0.227   1.064  17.400  0.1063 -0.4569 -2.4617
  320TMC3    C1 4857   0.233   0.744  16.821  0.4775  0.0524 -0.3123
  320TMC3    C2 4858   0.153   0.800  16.722  0.1620  0.0735 -0.3777
  320TMC3    C3 4859   0.097   0.723  16.625 -0.3174 -0.5692 -0.0252
  320TMC3    C4 4860   0.255   0.617  16.812  0.6312 -0.3403 -0.5396
  320TMC3    C5 4861   0.201   0.534  16.713 -0.5097 -0.1122  0.6745
  320TMC3    C6 4862   0.109   0.583  16.620 -0.0714 -0.1269 -1.1186
  320TMC3     C 4863   0.270   0.818  16.941 -0.1899 -0.2220 -0.7762
  320TMC3     O 4864   0.284   0.752  17.045  0.1710  0.0008 -0.1131
  320TMC3     H 4865   0.142   0.908  16.721  0.8251  0.1658  1.5852
  320TMC3    H1 4866   0.323   0.574  16.885 -0.9435 -1.8126  0.0442
  320TMC3    H2 4867   0.064   0.514  16.549 -2.8332  1.4983 -0.9352
  320TMC3    C7 4868   0.223   0.392  16.711  1.0641  0.0236 -0.9256
  320TMC3    C8 4869   0.023   0.787  16.517  0.7292 -0.2873  0.0030
  320TMC3    O1 4870   0.145   0.330  16.638  0.0068 -0.0853  0.7564
  320TMC3    O2 4871   4.730   0.904  16.534 -0.4013  0.3001 -0.4621
  321TMC3    C1 4872   0.280   1.205  17.597 -0.5543  0.2191 -0.3653
  321TMC3    C2 4873   0.283   1.081  17.655  0.4370 -0.2362  0.2205
  321TMC3    C3 4874   0.322   1.081   0.020  0.0267  0.6670 -0.8924
  321TMC3    C4 4875   0.279   1.315  17.678 -0.8085 -0.0857  0.2781
  321TMC3    C5 4876   0.313   1.313   0.044 -1.0039  0.1904 -0.5695
  321TMC3    C6 4877   0.325   1.192   0.100 -0.2460 -0.4065  0.2931
  321TMC3     C 4878   0.311   1.240  17.462 -0.2583 -0.5556 -0.2763
  321TMC3     O 4879   0.376   1.345  17.448 -0.6059  0.2682 -0.0021
  321TMC3     H 4880   0.280   0.992  17.592 -0.5952  0.4794 -0.7470
  321TMC3    H1 4881   0.281   1.414  17.634 -2.5777 -1.1328 -2.1255
  321TMC3    H2 4882   0.331   1.184   0.208 -1.2231  0.5988  0.4111
  321TMC3    C7 4883   0.434   1.387   0.065  0.0677  0.2996  0.2228
  321TMC3    C8 4884   0.429   0.985   0.064 -0.4298 -0.1897  0.4049
  321TMC3    O1 4885   0.430   1.499   0.017  0.0676  0.0071  0.0731
  321TMC3    O2 4886   0.508   1.013   0.158 -0.4233  0.4403  0.5149
  322MPD2     C 4887   4.238   1.748  13.783  0.2992 -0.2727  0.2480
  322MPD2    C1 4888   4.364   1.724  13.829  0.2626  0.4959 -0.2331
  322MPD2    C2 4889   4.426   1.620  13.769 -0.0425  0.1318 -0.5307
  322MPD2    C3 4890   4.368   1.532  13.679 -0.7468  0.5786 -0.4739
  322MPD2    C4 4891   4.244   1.569  13.626  0.8842 -0.4468 -0.3632
  322MPD2    C5 4892   4.181   1.675  13.687 -0.7351 -0.0551  0.4481
  322MPD2     H 4893   4.526   1.605  13.808  0.4305  1.5376 -1.1964
  322MPD2    H1 4894   4.197   1.513  13.546  0.2420 -0.9436  0.3553
  322MPD2    H2 4895   4.174   1.831  13.812 -0.1140  0.1303 -1.8492
  322MPD2    H3 4896   4.081   1.701  13.651 -1.6571 -1.8833  1.7069
  322MPD2     N 4897   4.429   1.413  13.643  0.3740 -1.1688 -0.0485
  322MPD2    H5 4898   4.516   1.399  13.693 -0.3509 -0.0338  1.5131
  322MPD2    N1 4899   4.429   1.804  13.930  0.0963 -0.0444 -0.0502
  322MPD2    H7 4900   4.526   1.783  13.954  0.6441  1.6902 -0.7705
  323TMC3    C1 4901   4.476   1.955  14.099 -0.0710 -0.3316  0.1886
  323TMC3    C2 4902   4.585   1.998  14.041  0.3981 -0.4868  0.0574
  323TMC3    C3 4903   4.678   2.041  14.127  0.1535  0.0564 -0.5701
  323TMC3    C4 4904   4.462   1.951  14.237 -0.0196  0.3522 -0.1424
  323TMC3    C5 4905   4.566   1.982  14.323  0.6508 -0.2314  0.0811
  323TMC3    C6 4906   4.682   2.033  14.268 -0.4299 -0.0479 -0.2576
  323TMC3     C 4907   4.372   1.893  14.017 -0.4656  0.4259  0.4642
  323TMC3     O 4908   4.258   1.908  14.050  0.6089  0.0928  0.3793
  323TMC3     H 4909   4.586   2.008  13.933  3.6230  1.4005  0.2760
  323TMC3    H1 4910   4.378   1.901  14.283  0.5113  0.9371  1.4570
  323TMC3    H2 4911   0.027   2.053  14.329 -0.3001  1.0703 -0.7991
  323TMC3    C7 4912   4.592   1.888  14.432 -0.1003  0.2764 -0.3624
  323TMC3    C8 4913   0.058   2.087  14.077 -0.6117 -0.0673 -0.4662
  323TMC3    O1 4914   4.530   1.780  14.419  0.0831  0.2899  0.4429
  323TMC3    O2 4915   0.155   2.084  14.153 -0.1735  0.0727 -0.6193
  324MPD2     C 4916   1.306   2.915  14.773 -0.3502 -0.9229 -0.7519
  324MPD2    C1 4917   1.328   3.004  14.674 -0.3572  0.8565 -0.0886
  324MPD2    C2 4918   1.222   3.060  14.602 -0.2288  0.2808  0.3843
  324MPD2    C3 4919   1.092   3.017  14.630  0.2368 -0.5227  0.6382
  324MPD2    C4 4920   1.073   2.939  14.745 -0.6070 -0.0951  0.7171
  324MPD2    C5 4921   1.180   2.900  14.820  0.2650 -0.0372 -0.0393
  324MPD2     H 4922   1.241   3.126  14.518 -0.7927 -1.2376 -0.9338
  324MPD2    H1 4923   0.977   2.899  14.775 -1.2068  1.1357  0.4576
  324MPD2    H2 4924   1.390   2.878  14.830 -1.4182  0.6089  1.8058
  324MPD2    H3 4925   1.172   2.837  14.907 -1.9924  1.1090  0.6034
  324MPD2     N 4926   0.978   3.058  14.548  0.0664 -0.0693  0.8104
  324MPD2    H5 4927   0.887   3.037  14.588 -0.9118  0.9831 -0.8521
  324MPD2    N1 4928   1.459   3.031  14.624 -0.7143 -0.2632 -0.2304
  324MPD2    H7 4929   1.463   3.115  14.567  1.2998 -0.0648  0.1963
  325TMC3    C1 4930   0.845   3.198  14.424 -0.5628 -0.3871  0.3037
  325TMC3    C2 4931   0.749   3.100  14.429  0.8862  0.5204 -0.5960
  325TMC3    C3 4932   0.623   3.145  14.439 -0.4219 -0.5100  0.1747
  325TMC3    C4 4933   0.817   3.331  14.410  0.2332 -0.4358 -0.6132
  325TMC3    C5 4934   0.689   3.366  14.414  0.6536  0.4511 -0.4768
  325TMC3    C6 4935   0.586   3.272  14.432 -1.2708 -0.0851  0.4615
  325TMC3     C 4936   0.976   3.146  14.441 -0.6238  0.0273  0.3271
  325TMC3     O 4937   1.061   3.229  14.407 -0.4715  0.6871 -0.3156
  325TMC3     H 4938   0.767   2.994  14.422 -0.9177  0.0666  1.6195
  325TMC3    H1 4939   0.891   3.409  14.421  0.9177 -1.5950  2.9056
  325TMC3    H2 4940   0.483   3.302  14.424 -1.5969 -1.9750 -2.3871
  325TMC3    C7 4941   0.648   3.511  14.408  0.2629  0.8960 -0.0979
  325TMC3    C8 4942   0.501   3.064  14.405 -0.7343 -0.4961  0.1241
  325TMC3    O1 4943   0.722   3.590  14.348  0.0451 -0.6322 -0.5025
  325TMC3    O2 4944   0.404   3.107  14.459 -0.4034 -0.4360 -0.0443
  326MPD2     C 4945   1.932   4.108  10.565  0.6431 -0.2766 -0.0258
  326MPD2    C1 4946   2.069   4.109  10.570  0.1420  0.1152 -0.2350
  326MPD2    C2 4947   2.137   4.071  10.686 -0.0657  0.0142 -0.1062
  326MPD2    C3 4948   2.071   4.055  10.802  0.1184  0.4758  0.2832
  326MPD2    C4 4949   1.932   4.063  10.795  0.1510  0.1530  0.3581
  326MPD2    C5 4950   1.862   4.087  10.679 -0.3853  0.2853  0.1077
  326MPD2     H 4951   2.246   4.070  10.682 -0.0806  1.2665 -0.8214
  326MPD2    H1 4952   1.880   4.073  10.890 -1.0455  1.3289 -0.4114
  326MPD2    H2 4953   1.876   4.130  10.475 -0.8413  0.1786  1.0145
  326MPD2    H3 4954   1.754   4.088  10.682 -0.3218 -0.3332  2.6164
  326MPD2     N 4955   2.135   4.048  10.925  0.6696  0.0883  0.4718
  326MPD2    H5 4956   2.075   4.066  11.005  1.0848  1.1517  0.5380
  326MPD2    N1 4957   2.155   4.152  10.465  0.2324  0.2040 -0.5742
  326MPD2    H7 4958   2.253   4.169  10.485  0.1542  1.4019 -1.2179
  327TMC3    C1 4959   2.205   4.258  10.263 -0.7827 -0.7659  0.0269
  327TMC3    C2 4960   2.157   4.361  10.199 -0.1109 -0.0026  0.5637
  327TMC3    C3 4961   2.244   4.455  10.166 -0.2162 -0.5016 -1.0516
  327TMC3    C4 4962   2.334   4.247  10.312 -0.2795 -0.0064 -0.2457
  327TMC3    C5 4963   2.421   4.347  10.273  0.0571 -0.5107 -0.5285
  327TMC3    C6 4964   2.382   4.449  10.200  0.2542 -0.4925  0.1154
  327TMC3     C 4965   2.108   4.188  10.339 -0.9650 -0.3919 -0.3663
  327TMC3     O 4966   1.996   4.201  10.296  0.4784  0.1341 -0.7656
  327TMC3     H 4967   2.053   4.372  10.168  0.1476  3.2730  0.8661
  327TMC3    H1 4968   2.370   4.153  10.351  0.1984  0.5600  0.7122
  327TMC3    H2 4969   2.450   4.529  10.173 -0.1420 -0.3044 -0.3378
  327TMC3    C7 4970   2.570   4.323  10.281  0.7102 -0.4071  0.3603
  327TMC3    C8 4971   2.193   4.586  10.125 -0.0863 -0.5722  1.0506
  327TMC3    O1 4972   2.639   4.386  10.207 -0.0433  0.4064  0.4191
  327TMC3    O2 4973   2.270   4.657  10.062 -0.3760 -0.0863  0.3173
  328MPD2     C 4974   0.426   0.174  17.462 -0.2470 -0.6748  0.1536
  328MPD2    C1 4975   0.397   0.050  17.413  0.1851  0.4579  0.3904
  328MPD2    C2 4976   0.313   0.034  17.306 -0.2369 -0.2245 -0.3118
  328MPD2    C3 4977   0.258   0.147  17.247 -0.0713 -0.5223  0.0428
  328MPD2    C4 4978   0.283   0.267  17.301  0.1772  0.2045 -0.2214
  328MPD2    C5 4979   0.359   0.280  17.415 -0.2884 -0.4430  0.2400
  328MPD2     H 4980   0.279   4.680  17.266  0.1481 -0.7845  0.7195
  328MPD2    H1 4981   0.228   0.356  17.272 -0.2307 -0.1587 -0.5532
  328MPD2    H2 4982   0.502   0.199  17.536 -0.5355 -0.6074  0.4246
  328MPD2    H3 4983   0.358   0.376  17.465  0.8664  0.2168 -1.0287
  328MPD2     N 4984   0.172   0.149  17.132  0.3425  0.2736 -0.4096
  328MPD2    H5 4985   0.154   0.241  17.094 -2.1536  0.4944  1.3578
  328MPD2    N1 4986   0.451   4.673  17.474 -0.4132  0.4841 -0.6466
  328MPD2    H7 4987   0.434   4.580  17.438 -2.1469  0.5632 -0.0415
  329TMC3    C1 4988   0.516   4.537  17.630  0.5999 -0.5365 -0.5335
  329TMC3    C2 4989   0.463   4.512  17.757 -0.2615 -0.3284 -0.6828
  329TMC3    C3 4990   0.425   4.380   0.006  0.6405  0.1798 -0.2318
  329TMC3    C4 4991   0.547   4.442  17.539 -0.7153  0.0437  0.0307
  329TMC3    C5 4992   0.500   4.317  17.566 -0.1474 -0.3071 -0.1549
  329TMC3    C6 4993   0.440   4.281  17.685  0.3729 -0.4501  1.2762
  329TMC3     C 4994   0.499   4.675  17.601  0.0505  0.0227  0.0537
  329TMC3     O 4995   0.506   0.016  17.691  0.1720 -0.2090  0.0376
  329TMC3     H 4996   0.474   4.580   0.076  2.0465  0.2302 -1.4298
  329TMC3    H1 4997   0.581   4.472  17.440 -0.2253 -1.2760 -0.1950
  329TMC3    H2 4998   0.405   4.184  17.719 -1.0647 -0.9714 -1.6854
  329TMC3    C7 4999   0.505   4.236  17.445 -0.4227 -0.4619 -0.3066
  329TMC3    C8 5000   0.310   4.353   0.093 -0.0825 -0.7484  0.4366
  329TMC3    O1 5001   0.599   4.263  17.371  0.1457 -0.2834  0.4934
  329TMC3    O2 5002   0.310   4.249   0.153  0.0793 -0.1274 -0.2642
  330TMC3    C1 5003   2.508   3.252   9.906  0.1260 -0.8991 -0.2135
  330TMC3    C2 5004   2.393   3.181   9.884 -0.1507 -0.2108 -0.3556
  330TMC3    C3 5005   2.407   3.047   9.881 -0.0932 -0.4951  0.4575
  330TMC3    C4 5006   2.623   3.193   9.948  0.8922  0.6768 -0.9194
  330TMC3    C5 5007   2.628   3.059   9.930 -0.3719  0.2878 -0.1692
  330TMC3    C6 5008   2.522   2.979   9.895  0.0601  0.5720  0.1145
  330TMC3     C 5009   2.508   3.398   9.879  0.2496 -0.5848  0.0150
  330TMC3     O 5010   2.572   3.474   9.954 -0.1098 -0.0135 -0.2659
  330TMC3     H 5011   2.298   3.229   9.861  1.3646  2.3779 -1.1688
  330TMC3    H1 5012   2.709   3.251   9.980  1.0523 -0.6100  1.0123
  330TMC3    H2 5013   2.527   2.871   9.886 -0.4392  0.6503 -1.1411
  330TMC3    C7 5014   2.738   2.996  10.002  0.0673 -0.0587 -0.1412
  330TMC3    C8 5015   2.299   2.971   9.815  0.3895  0.1856  0.3527
  330TMC3    O1 5016   2.800   3.075  10.073 -0.2061  0.1235 -0.9317
  330TMC3    O2 5017   2.334   2.868   9.757  0.5827  0.0537  0.0996
  331MPD2     C 5018   1.316   2.630  13.278  0.0832  0.2550 -0.0646
  331MPD2    C1 5019   1.379   2.631  13.150 -0.1362  0.6148  0.1252
  331MPD2    C2 5020   1.305   2.569  13.046 -0.4548 -0.3382 -0.7682
  331MPD2    C3 5021   1.181   2.507  13.066 -0.9396  0.0986 -0.5643
  331MPD2    C4 5022   1.127   2.510  13.197 -0.5050  0.6715  0.8951
  331MPD2    C5 5023   1.195   2.570  13.296  0.0491 -0.4470  0.2152
  331MPD2     H 5024   1.350   2.550  12.949  0.0427  1.2707 -0.8481
  331MPD2    H1 5025   1.037   2.466  13.236  0.0310  0.8770  2.3747
  331MPD2    H2 5026   1.376   2.664  13.361  1.1528 -2.3841  0.2401
  331MPD2    H3 5027   1.149   2.567  13.394 -0.8918 -0.5537 -0.2366
  331MPD2     N 5028   1.120   2.434  12.957  0.1915  0.0704  0.2880
  331MPD2    H5 5029   1.173   2.437  12.870 -1.3813  0.6383 -0.6542
  331MPD2    N1 5030   1.511   2.686  13.135  0.4783 -0.2816  0.1371
  331MPD2    H7 5031   1.567   2.682  13.219 -0.0466 -0.3959  0.4798
  332TMC3    C1 5032   0.981   2.282  12.856  0.3913  0.2550 -0.1471
  332TMC3    C2 5033   1.031   2.327  12.737 -0.7735  0.1918 -0.1262
  332TMC3    C3 5034   1.036   2.236  12.641  0.3653  0.3720 -0.0734
  332TMC3    C4 5035   0.950   2.158  12.888  0.6447 -0.4705  0.2976
  332TMC3    C5 5036   0.952   2.064  12.782  0.8677 -0.4470  0.0104
  332TMC3    C6 5037   1.002   2.103  12.655 -1.0120  0.0210  0.6134
  332TMC3     C 5038   1.003   2.362  12.971  0.1253  0.0619 -0.6492
  332TMC3     O 5039   0.945   2.334  13.071 -0.0361 -0.4609 -0.0427
  332TMC3     H 5040   1.030   2.434  12.717 -0.1022  0.5963  1.9639
  332TMC3    H1 5041   0.928   2.127  12.989 -1.0845  0.3729  0.1871
  332TMC3    H2 5042   1.007   2.037  12.569 -2.0451  0.2883  0.3437
  332TMC3    C7 5043   1.006   1.943  12.833  0.1221  0.3773  0.1760
  332TMC3    C8 5044   1.032   2.296  12.509  0.4453 -0.0488 -0.4467
  332TMC3    O1 5045   0.955   1.895  12.934  0.0098 -0.6993  0.0044
  332TMC3    O2 5046   1.134   2.349  12.465 -0.1144 -0.1568 -0.1947
  333MPD2     C 5047   0.869   2.486  11.270 -0.2138  0.2312 -0.0683
  333MPD2    C1 5048   0.914   2.367  11.225 -0.8021  0.1164 -0.3628
  333MPD2    C2 5049   0.907   2.260  11.319 -0.2502  0.2533  0.6747
  333MPD2    C3 5050   0.867   2.275  11.451  0.6706  0.1622 -0.0315
  333MPD2    C4 5051   0.837   2.403  11.488  0.2959 -0.2632 -0.3894
  333MPD2    C5 5052   0.839   2.503  11.400  0.0516  0.1583  0.6905
  333MPD2     H 5053   0.924   2.158  11.287  2.6871  0.5371  1.3920
  333MPD2    H1 5054   0.789   2.428  11.583 -1.5282  1.5932 -1.7921
  333MPD2    H2 5055   0.872   2.578  11.212 -0.5149  0.1860 -0.1535
  333MPD2    H3 5056   0.810   2.600  11.437 -2.7886  0.5321 -2.4191
  333MPD2     N 5057   0.846   2.160  11.532 -0.8118 -0.3897 -0.3207
  333MPD2    H5 5058   0.858   2.071  11.487 -0.9509 -0.5090 -0.1240
  333MPD2    N1 5059   0.950   2.347  11.091  0.8026 -0.2601 -0.4247
  333MPD2    H7 5060   0.945   2.426  11.028  1.4454  0.9378  1.0360
  334TMC3    C1 5061   1.026   2.235  10.901  0.7060 -0.2758  0.1779
  334TMC3    C2 5062   1.123   2.153  10.848 -0.3672  0.1411  0.2736
  334TMC3    C3 5063   1.211   2.205  10.759 -1.0595  0.3679  0.2091
  334TMC3    C4 5064   1.004   2.355  10.833 -0.6948 -0.3297  0.0094
  334TMC3    C5 5065   1.088   2.396  10.732 -0.5237 -0.1608 -0.0454
  334TMC3    C6 5066   1.200   2.327  10.691  0.2010 -0.0262 -0.1742
  334TMC3     C 5067   0.989   2.229  11.038 -0.2322 -0.6446  0.3197
  334TMC3     O 5068   0.990   2.118  11.088  0.5405  0.6855 -0.6216
  334TMC3     H 5069   1.124   2.052  10.888  1.0152  1.0389  2.5727
  334TMC3    H1 5070   0.921   2.421  10.852 -1.3685 -1.8567  2.4199
  334TMC3    H2 5071   1.282   2.373  10.638 -0.8845  4.1566  1.7894
  334TMC3    C7 5072   1.051   2.520  10.673  0.4199 -0.6746 -0.7710
  334TMC3    C8 5073   1.341   2.138  10.745  0.3692 -0.2446  0.6505
  334TMC3    O1 5074   0.931   2.546  10.654 -0.1647  0.5530 -0.0737
  334TMC3    O2 5075   1.345   2.019  10.765  0.2562  0.5796 -0.1808
  335TMC3    C1 5076   1.071   4.576  17.474 -0.1293  0.5668  0.0121
  335TMC3    C2 5077   1.030   4.470  17.392 -0.3165 -0.4738 -0.5232
  335TMC3    C3 5078   1.117   4.421  17.302 -0.1803  0.8169 -0.0329
  335TMC3    C4 5079   1.197   4.629  17.478  0.3343 -0.1065 -0.1235
  335TMC3    C5 5080   1.280   4.570  17.381  0.0935  0.6594  0.0756
  335TMC3    C6 5081   1.245   4.469  17.299 -0.0376  0.2140  0.0925
  335TMC3     C 5082   0.979   4.627  17.571 -0.2415  0.4314  0.0501
  335TMC3     O 5083   0.864   4.636  17.532  0.3338 -0.3657  0.6029
  335TMC3     H 5084   0.933   4.432  17.420  0.9993 -4.2281 -1.0162
  335TMC3    H1 5085   1.231   4.716  17.533 -0.9169  0.4436 -0.2093
  335TMC3    H2 5086   1.309   4.454  17.212 -1.2214  0.4000 -0.8138
  335TMC3    C7 5087   1.427   4.573  17.405  0.0308 -0.0223  0.2741
  335TMC3    C8 5088   1.082   4.312  17.211 -0.1623  0.2080  0.1323
  335TMC3    O1 5089   1.480   4.464  17.392 -0.5768 -0.0240  0.1531
  335TMC3    O2 5090   1.171   4.284  17.130 -0.4483  0.0294 -0.6224
  336MPD2     C 5091   0.343   2.286  16.496  0.0737 -0.9190  0.4124
  336MPD2    C1 5092   0.315   2.264  16.363  0.0883  0.1466 -0.5043
  336MPD2    C2 5093   0.362   2.146  16.308 -0.1721 -0.1606 -0.2875
  336MPD2    C3 5094   0.430   2.053  16.390  0.1917  0.2260  0.4991
  336MPD2    C4 5095   0.467   2.082  16.517 -0.0634 -0.1524  0.0100
  336MPD2    C5 5096   0.425   2.204  16.568  0.5009 -0.3107  0.5109
  336MPD2     H 5097   0.331   2.122  16.206  1.2362  0.9766 -0.9838
  336MPD2    H1 5098   0.521   2.014  16.582  3.1311  2.2832 -0.0807
  336MPD2    H2 5099   0.298   2.370  16.547 -1.8935 -1.7648  0.0382
  336MPD2    H3 5100   0.439   2.227  16.673 -0.8104 -2.0124  1.0624
  336MPD2     N 5101   0.462   1.923  16.350 -0.1206  0.2415  0.0296
  336MPD2    H5 5102   0.473   1.854  16.423 -2.5634  0.2240  0.3852
  336MPD2    N1 5103   0.245   2.359  16.277 -0.1054 -1.2051 -0.0828
  336MPD2    H7 5104   0.243   2.337  16.178 -0.9735  1.3842 -0.6345
  337TMC3    C1 5105   0.136   2.560  16.212 -0.6360  0.3547 -0.1281
  337TMC3    C2 5106   0.034   2.500  16.149 -0.6548 -0.0110  0.2122
  337TMC3    C3 5107   4.680   2.574  16.084 -0.2351 -0.4046 -0.0172
  337TMC3    C4 5108   0.135   2.696  16.234  0.0479  0.3213  0.0387
  337TMC3    C5 5109   0.022   2.762  16.192  0.4360  0.4420 -0.6407
  337TMC3    C6 5110   4.667   2.704  16.120  0.2178 -0.2599  0.2717
  337TMC3     C 5111   0.192   2.484  16.315  0.0390 -0.2670 -0.6845
  337TMC3     O 5112   0.193   2.544  16.420  0.3793 -0.3625 -0.1097
  337TMC3     H 5113   0.014   2.394  16.154  2.1376 -0.5107  0.9956
  337TMC3    H1 5114   0.201   2.742  16.307  1.5356  2.0683 -2.4137
  337TMC3    H2 5115   4.577   2.748  16.078  2.0665  2.1403 -1.2055
  337TMC3    C7 5116   4.734   2.884  16.259  0.4855  0.4565 -0.0098
  337TMC3    C8 5117   4.553   2.514  16.085 -0.5421 -0.2093  1.0896
  337TMC3    O1 5118   0.071   2.935  16.334 -0.0257 -0.4178  0.1884
  337TMC3    O2 5119   4.495   2.529  16.192  0.0985 -0.2346  0.0437
  338MPD2     C 5120   0.699   1.900   1.113  0.1049  0.5600 -0.0396
  338MPD2    C1 5121   0.675   1.901   0.978 -0.7054  1.0263  0.2902
  338MPD2    C2 5122   0.570   1.836   0.921  0.0539 -0.3738  0.1504
  338MPD2    C3 5123   0.471   1.782   0.999 -0.0584  0.4159  0.0046
  338MPD2    C4 5124   0.489   1.775   1.134 -0.1598  0.3495 -0.0724
  338MPD2    C5 5125   0.595   1.842   1.188  0.2955  0.2969 -0.2969
  338MPD2     H 5126   0.561   1.843   0.813  1.9566  3.1332  0.2063
  338MPD2    H1 5127   0.416   1.723   1.194  0.5525  1.5620  1.8345
  338MPD2    H2 5128   0.787   1.934   1.164  0.7582 -0.4095 -0.5131
  338MPD2    H3 5129   0.619   1.823   1.293 -1.8725  0.7636  0.2700
  338MPD2     N 5130   0.357   1.742   0.923 -0.3928 -0.1874 -0.0148
  338MPD2    H5 5131   0.346   1.766   0.825  1.9097 -0.3343 -0.3120
  338MPD2    N1 5132   0.767   1.953   0.882  0.3186 -0.5982 -0.4404
  338MPD2    H7 5133   0.740   1.970   0.785  3.3549 -0.1532 -1.1915
  339TMC3    C1 5134   0.141   1.648   0.870  0.2531 -0.6693  0.7016
  339TMC3    C2 5135   0.083   1.528   0.861  0.4840 -0.2960 -0.1403
  339TMC3    C3 5136   0.007   1.495   0.754 -0.3296  0.2347  0.2986
  339TMC3    C4 5137   0.131   1.727   0.762 -0.1771 -0.3268 -0.1314
  339TMC3    C5 5138   0.060   1.690   0.645  0.4815 -0.3428 -0.4564
  339TMC3    C6 5139   4.737   1.572   0.639  0.6746  0.2149 -0.5473
  339TMC3     C 5140   0.254   1.662   0.966 -0.4183 -0.5685  0.6341
  339TMC3     O 5141   0.250   1.596   1.072 -0.0964 -0.1071 -0.0183
  339TMC3     H 5142   0.109   1.460   0.941  0.1690  0.2604  0.4231
  339TMC3    H1 5143   0.176   1.825   0.769 -1.5438  0.5284 -2.8292
  339TMC3    H2 5144   4.674   1.556   0.552 -0.9230 -4.4360  1.4801
  339TMC3    C7 5145   0.065   1.789   0.542  0.1998  0.0904  0.3060
  339TMC3    C8 5146   4.729   1.359   0.729 -0.2152  0.7687 -0.8320
  339TMC3    O1 5147   0.158   1.866   0.534  0.4594 -0.2787  0.0860
  339TMC3    O2 5148   4.644   1.327   0.651  0.3324  0.0520  0.6778
  340MPD2     C 5149   0.169   3.494   9.464  0.4017 -0.2176 -0.4387
  340MPD2    C1 5150   0.273   3.479   9.550  0.2541 -1.0510 -0.5136
  340MPD2    C2 5151   0.342   3.585   9.604  0.3546  0.0072 -0.4280
  340MPD2    C3 5152   0.299   3.712   9.582 -0.2605 -0.6747  0.7103
  340MPD2    C4 5153   0.192   3.730   9.498 -0.7316  0.6839  0.4409
  340MPD2    C5 5154   0.136   3.624   9.440  0.2473  0.0231  0.0075
  340MPD2     H 5155   0.420   3.559   9.675 -0.1989 -0.5924 -0.0335
  340MPD2    H1 5156   0.142   3.824   9.474 -1.4038  0.7542  2.1114
  340MPD2    H2 5157   0.105   3.421   9.415 -0.6014  1.3956 -1.5436
  340MPD2    H3 5158   0.050   3.641   9.376  0.9411  0.2748 -0.8692
  340MPD2     N 5159   0.355   3.821   9.655  0.1289 -0.6080 -0.2673
  340MPD2    H5 5160   0.336   3.917   9.628  2.1590  0.5258  2.3403
  340MPD2    N1 5161   0.319   3.347   9.578  0.1763 -0.2617 -0.3482
  340MPD2    H7 5162   0.265   3.267   9.547 -1.2546  1.0332 -1.1812
  341TMC3    C1 5163   0.469   3.164   9.618 -0.1518  0.5421 -0.7565
  341TMC3    C2 5164   0.373   3.065   9.648 -1.2492 -0.9723 -0.6749
  341TMC3    C3 5165   0.416   2.935   9.638 -0.2837 -0.0686  0.1130
  341TMC3    C4 5166   0.602   3.141   9.592  0.0120  0.0776  0.4913
  341TMC3    C5 5167   0.642   3.012   9.588  0.1553  0.1615 -0.2787
  341TMC3    C6 5168   0.551   2.915   9.612  0.3502 -0.2055  0.2015
  341TMC3     C 5169   0.444   3.308   9.632  0.1843 -0.1695 -0.1100
  341TMC3     O 5170   0.539   3.375   9.673  0.3991  0.0578  0.2921
  341TMC3     H 5171   0.273   3.097   9.677 -0.4089  0.4149  0.7076
  341TMC3    H1 5172   0.669   3.220   9.562  0.9764  0.2786  3.1845
  341TMC3    H2 5173   0.594   2.815   9.623 -0.1071 -0.0569  3.3216
  341TMC3    C7 5174   0.765   2.974   9.524  0.6235 -0.5333  0.1611
  341TMC3    C8 5175   0.335   2.827   9.687  0.3990  0.2942 -0.2143
  341TMC3    O1 5176   0.855   3.049   9.554 -0.0198  0.9592  0.4910
  341TMC3    O2 5177   0.392   2.735   9.738  0.8187 -0.6158  0.4774
  342MPD2     C 5178   3.295   2.453  17.675  0.7599 -0.0133 -0.2275
  342MPD2    C1 5179   3.397   2.477  17.584  0.1203  0.0375  0.0096
  342MPD2    C2 5180   3.445   2.604  17.566  0.1401  0.4776 -0.0754
  342MPD2    C3 5181   3.396   2.713  17.644 -0.0113 -0.5789 -0.0282
  342MPD2    C4 5182   3.291   2.689  17.727 -0.0303 -0.1059 -0.1240
  342MPD2    C5 5183   3.250   2.557  17.744  0.2545  0.3543  0.3910
  342MPD2     H 5184   3.512   2.617  17.482 -0.0181 -2.3954 -0.6365
  342MPD2    H1 5185   3.233   2.760   0.021 -0.2587 -1.0403  0.7669
  342MPD2    H2 5186   3.250   2.355  17.688  0.2755  0.2439  0.0487
  342MPD2    H3 5187   3.165   2.537   0.043 -1.4782  2.1384 -1.3422
  342MPD2     N 5188   3.436   2.847  17.619  0.0401  0.1427 -0.5557
  342MPD2    H5 5189   3.394   2.920  17.675  0.3871  1.0566 -1.4861
  342MPD2    N1 5190   3.456   2.370  17.507 -0.3297 -0.2235 -0.0559
  342MPD2    H7 5191   3.515   2.402  17.430  0.9824 -0.0042  1.0398
  343TMC3    C1 5192   3.504   2.170  17.427  0.2892  0.2228  0.3351
  343TMC3    C2 5193   3.628   2.220  17.393 -0.1460 -1.3273  0.7068
  343TMC3    C3 5194   3.695   2.150  17.294  0.3148  0.8834  0.0224
  343TMC3    C4 5195   3.442   2.072  17.361  0.3953 -0.1661  0.0553
  343TMC3    C5 5196   3.516   2.011  17.263  1.1142  0.2044 -0.2613
  343TMC3    C6 5197   3.640   2.054  17.225  0.2758  0.2700 -0.0665
  343TMC3     C 5198   3.441   2.239  17.526 -0.3171 -0.9304 -0.0017
  343TMC3     O 5199   3.366   2.177  17.599  0.1967  0.1018  0.7385
  343TMC3     H 5200   3.669   2.297  17.457  0.1854 -1.9310  1.2122
  343TMC3    H1 5201   3.358   2.019  17.404 -1.2455  1.1574 -1.5440
  343TMC3    H2 5202   3.698   2.009  17.146 -1.5209  0.2683 -1.3822
  343TMC3    C7 5203   3.456   1.903  17.185  0.2667  0.9111  0.0882
  343TMC3    C8 5204   3.807   2.206  17.237 -0.2093 -0.3400  0.3077
  343TMC3    O1 5205   3.541   1.845  17.115  0.2292 -0.1498  0.1161
  343TMC3    O2 5206   3.794   2.324  17.206 -0.1239 -0.1396 -0.2133
  344MPD2     C 5207   4.601   1.296  10.554  0.6377 -0.5138 -0.4754
  344MPD2    C1 5208   4.571   1.319  10.692 -0.2317 -0.2511  0.6428
  344MPD2    C2 5209   4.572   1.447  10.734  0.2675  0.7834 -0.6205
  344MPD2    C3 5210   4.619   1.548  10.652 -1.1668 -0.4592 -0.4722
  344MPD2    C4 5211   4.660   1.522  10.525 -0.1666 -0.1084 -0.4431
  344MPD2    C5 5212   4.650   1.400  10.482 -0.2616  0.5687 -0.0148
  344MPD2     H 5213   4.540   1.463  10.836 -0.7187  1.7713 -1.0880
  344MPD2    H1 5214   4.699   1.604  10.466 -1.1541  0.6798 -0.0153
  344MPD2    H2 5215   4.592   1.203  10.499  0.0666  0.1694 -1.5380
  344MPD2    H3 5216   4.691   1.380  10.383  0.2778 -0.3487  0.3990
  344MPD2     N 5217   4.640   1.681  10.707  0.4897 -0.0867  0.2477
  344MPD2    H5 5218   4.668   1.744  10.632  0.8878  0.1995  0.6358
  344MPD2    N1 5219   4.500   1.224  10.768 -0.1612 -0.2254 -0.2610
  344MPD2    H7 5220   4.448   1.255  10.849  1.2910 -0.2852  0.7040
  345TMC3    C1 5221   4.631   1.874  10.817  0.1167  0.3514 -0.3186
  345TMC3    C2 5222   4.714   1.938  10.903 -0.3750 -0.4388 -0.1024
  345TMC3    C3 5223   0.043   2.052  10.857  0.3932 -0.1651 -0.4065
  345TMC3    C4 5224   4.606   1.928  10.693 -0.0502 -0.8119 -0.0752
  345TMC3    C5 5225   4.667   2.046  10.650  0.7262 -0.5529  0.6822
  345TMC3    C6 5226   0.021   2.110  10.733  0.3532 -0.1507  0.9433
  345TMC3     C 5227   4.614   1.733  10.831 -0.3317  0.1710 -0.0199
  345TMC3     O 5228   4.588   1.684  10.941 -0.3398  0.2674  0.2687
  345TMC3     H 5229   4.738   1.885  10.994  0.0499 -0.7096 -0.3737
  345TMC3    H1 5230   4.518   1.900  10.637  0.6811 -1.5938 -0.8417
  345TMC3    H2 5231   0.067   2.205  10.705  0.2731 -0.8347 -1.4780
  345TMC3    C7 5232   4.606   2.114  10.534 -0.3785 -0.5112  0.6219
  345TMC3    C8 5233   0.115   2.136  10.952 -0.6993 -0.2768 -1.3232
  345TMC3    O1 5234   4.638   2.230  10.520  0.9779 -0.2598  0.0026
  345TMC3    O2 5235   0.186   2.218  10.896 -0.7260  0.2553 -0.0633
  346MPD2     C 5236   4.075   3.841  14.533  0.5602  1.0689 -0.5718
  346MPD2    C1 5237   4.188   3.770  14.485 -0.3170  0.1102  0.3730
  346MPD2    C2 5238   4.288   3.736  14.562 -0.0261 -0.5224 -0.2466
  346MPD2    C3 5239   4.290   3.776  14.693  0.1978 -0.0342 -0.2961
  346MPD2    C4 5240   4.184   3.856  14.737 -0.6879  0.0943  0.3018
  346MPD2    C5 5241   4.077   3.892  14.660  0.0216  0.6957 -0.3364
  346MPD2     H 5242   4.375   3.689  14.517  0.8600  0.8971 -0.0181
  346MPD2    H1 5243   4.183   3.898  14.837  2.0779  0.3952  0.1935
  346MPD2    H2 5244   3.989   3.854  14.468 -1.0886 -2.4646  0.9052
  346MPD2    H3 5245   3.998   3.956  14.698 -1.2128 -0.8103 -0.3694
  346MPD2     N 5246   4.403   3.739  14.768 -0.8179  0.1097  0.3206
  346MPD2    H5 5247   4.465   3.679  14.715 -1.6659 -0.3511 -0.1428
  346MPD2    N1 5248   4.188   3.717  14.356  0.1669 -0.0705  0.2258
  346MPD2    H7 5249   4.265   3.655  14.332  0.5670  0.7056 -0.4977
  347TMC3    C1 5250   4.580   3.758  14.928 -0.3186  0.1152  0.3828
  347TMC3    C2 5251   4.673   3.747  14.830 -0.4122  0.0765  0.4984
  347TMC3    C3 5252   0.063   3.731  14.873 -0.7000 -0.3150  0.4497
  347TMC3    C4 5253   4.604   3.745  15.066 -0.3016  0.0820 -0.3079
  347TMC3    C5 5254   4.732   3.713  15.094 -0.0368  0.8688  0.1359
  347TMC3    C6 5255   0.090   3.719  15.004  0.4642 -0.1558 -0.0897
  347TMC3     C 5256   4.440   3.783  14.892 -0.2051 -0.7111  0.4727
  347TMC3     O 5257   4.369   3.854  14.962 -0.5839 -0.3137  1.0671
  347TMC3     H 5258   4.641   3.781  14.732  1.1091 -1.0587 -0.3980
  347TMC3    H1 5259   4.522   3.748  15.136  0.3258  0.8235  0.3931
  347TMC3    H2 5260   0.196   3.714  15.025  0.1224 -1.2263  1.4180
  347TMC3    C7 5261   0.030   3.712  15.240  0.4955  0.3255  0.4553
  347TMC3    C8 5262   0.164   3.691  14.788  0.0543 -0.6418 -0.0656
  347TMC3    O1 5263   4.705   3.789  15.312  0.4957  0.1273  0.1516
  347TMC3    O2 5264   0.230   3.593  14.826  0.4789  0.5189  0.2178
  348MPD2     C 5265   3.232   2.956  12.078  0.4409  0.1122 -0.4612
  348MPD2    C1 5266   3.232   2.929  11.946  0.0593  0.1530  0.1050
  348MPD2    C2 5267   3.124   2.979  11.872 -0.5842 -0.4018  0.2579
  348MPD2    C3 5268   3.013   3.028  11.940 -0.1251  0.2534 -0.5151
  348MPD2    C4 5269   3.011   3.041  12.075  0.0645 -0.1142  0.2582
  348MPD2    C5 5270   3.120   3.004  12.144 -0.0434  0.4139  0.6741
  348MPD2     H 5271   3.128   2.978  11.763  1.3574  0.3870  0.3289
  348MPD2    H1 5272   2.926   3.090  12.122 -1.1914 -0.7144 -1.3520
  348MPD2    H2 5273   3.317   2.931  12.141 -0.3052  2.0524  1.3229
  348MPD2    H3 5274   3.128   3.011  12.252 -1.9472  0.1077  0.8438
  348MPD2     N 5275   2.909   3.076  11.853 -0.1524 -0.0606 -0.2544
  348MPD2    H5 5276   2.929   3.067  11.754  1.3469 -0.8205  0.1117
  348MPD2    N1 5277   3.338   2.881  11.868  0.4320 -0.2354  0.1177
  348MPD2    H7 5278   3.312   2.882  11.770 -1.1537  0.8427  0.5491
  349TMC3    C1 5279   3.529   2.755  11.824  0.0180  0.0679  0.4372
  349TMC3    C2 5280   3.585   2.645  11.891 -0.3434 -0.4165 -0.0339
  349TMC3    C3 5281   3.540   2.522  11.859  0.2063  0.6088  0.4642
  349TMC3    C4 5282   3.472   2.730  11.704 -0.5607 -1.1314 -0.7278
  349TMC3    C5 5283   3.420   2.603  11.678  0.9213  0.4064  0.2989
  349TMC3    C6 5284   3.450   2.498  11.761 -0.7039  0.7938  0.4521
  349TMC3     C 5285   3.463   2.843  11.911  0.0650  0.5689 -0.4345
  349TMC3     O 5286   3.514   2.854  12.022  0.9322 -0.0318 -0.0190
  349TMC3     H 5287   3.624   2.661  11.991  0.3184  0.2201 -0.4009
  349TMC3    H1 5288   3.445   2.820  11.650 -1.2339 -1.7224 -1.3842
  349TMC3    H2 5289   3.408   2.401  11.736 -1.0094  0.9826  0.2304
  349TMC3    C7 5290   3.289   2.587  11.616 -0.0009  0.0796 -0.1948
  349TMC3    C8 5291   3.603   2.413  11.931  0.5314  0.2645 -0.0364
  349TMC3    O1 5292   3.207   2.512  11.663  0.4811  0.1630 -0.2111
  349TMC3    O2 5293   3.706   2.430  11.995 -0.6149  0.5027  0.1267
  350MPD2     C 5294   3.112   1.047   9.932 -0.6113  0.1968  0.0820
  350MPD2    C1 5295   2.990   0.999   9.966 -1.0330 -0.6315 -0.7812
  350MPD2    C2 5296   2.924   1.037  10.078  0.8146  0.7445  0.1337
  350MPD2    C3 5297   2.980   1.118  10.173  0.3368  0.3159  0.1746
  350MPD2    C4 5298   3.111   1.158  10.153 -0.5829  0.4187 -0.7240
  350MPD2    C5 5299   3.174   1.120  10.035  0.0888 -0.0798 -0.3898
  350MPD2     H 5300   2.828   0.990  10.094  0.5426  1.8766  1.7166
  350MPD2    H1 5301   3.164   1.225  10.220 -0.0999 -0.9245  0.2280
  350MPD2    H2 5302   3.165   1.023   9.840 -1.4119  1.2994 -0.6634
  350MPD2    H3 5303   3.276   1.154  10.024  0.3309 -0.6451  0.1166
  350MPD2     N 5304   2.903   1.148  10.285 -0.2966 -0.5763 -0.3553
  350MPD2    H5 5305   2.811   1.108  10.300  1.5004 -3.9973  1.4041
  350MPD2    N1 5306   2.918   0.919   9.887 -0.0963 -0.0457  0.4157
  350MPD2    H7 5307   2.836   0.883   9.934  0.0958 -1.9937 -0.7373
  351TMC3    C1 5308   2.853   0.771   9.716  0.4054 -0.4566  0.2406
  351TMC3    C2 5309   2.887   0.644   9.674 -0.0925  0.0152 -0.0989
  351TMC3    C3 5310   2.788   0.554   9.655 -0.0913 -0.1617 -0.2771
  351TMC3    C4 5311   2.722   0.805   9.732 -0.5580 -0.1110  0.5140
  351TMC3    C5 5312   2.627   0.713   9.714 -0.2088 -0.4277 -0.3251
  351TMC3    C6 5313   2.664   0.583   9.682  0.4003  0.1522 -0.5129
  351TMC3     C 5314   2.959   0.860   9.767 -0.2938 -0.1668 -0.4381
  351TMC3     O 5315   3.067   0.858   9.706  0.0763  0.0982  0.2620
  351TMC3     H 5316   2.992   0.622   9.662  0.0645  1.4215 -1.3328
  351TMC3    H1 5317   2.709   0.913   9.731  0.9771  0.0584 -1.0300
  351TMC3    H2 5318   2.598   0.499   9.698  4.7315 -3.1527  0.0710
  351TMC3    C7 5319   2.491   0.746   9.704 -0.6972  0.0086  0.6649
  351TMC3    C8 5320   2.824   0.428   9.612  0.7787  0.8496  0.1114
  351TMC3    O1 5321   2.431   0.669   9.633  0.1603  0.5778  0.1515
  351TMC3    O2 5322   2.736   0.361   9.563 -0.0728 -0.1851 -0.0849
  352MPD2     C 5323   1.752   4.004   0.639  0.8239 -0.1939  0.2099
  352MPD2    C1 5324   1.628   3.950   0.639 -0.2912  0.1793  0.9641
  352MPD2    C2 5325   1.610   3.820   0.660 -0.2517 -0.2098  0.9419
  352MPD2    C3 5326   1.720   3.736   0.662  0.5082  0.1231  0.2296
  352MPD2    C4 5327   1.845   3.784   0.642  0.3193 -0.2600 -0.0463
  352MPD2    C5 5328   1.860   3.921   0.622 -0.2673  0.2640  0.6272
  352MPD2     H 5329   1.507   3.784   0.661 -1.1811  2.4681  2.4265
  352MPD2    H1 5330   1.933   3.722   0.636  2.1599  2.1358  2.4173
  352MPD2    H2 5331   1.777   4.109   0.636 -1.9853  0.4765 -0.5492
  352MPD2    H3 5332   1.959   3.967   0.615 -0.5030  1.0156  1.9953
  352MPD2     N 5333   1.716   3.592   0.678 -0.1278 -0.6728  0.1473
  352MPD2    H5 5334   1.811   3.555   0.676  0.1596  0.1343 -0.8438
  352MPD2    N1 5335   1.524   4.046   0.640 -0.3559  0.4489  0.1342
  352MPD2    H7 5336   1.554   4.142   0.647  0.4281  0.1946  0.2510
  353TMC3    C1 5337   1.609   3.378   0.699  0.7776  0.5004 -0.3964
  353TMC3    C2 5338   1.724   3.307   0.689  0.3063 -0.2645  0.0354
  353TMC3    C3 5339   1.722   3.176   0.673  0.2378  0.1072 -0.2749
  353TMC3    C4 5340   1.488   3.319   0.704  0.5360  0.0867  0.3596
  353TMC3    C5 5341   1.486   3.184   0.688  0.3653  0.5070 -0.5732
  353TMC3    C6 5342   1.603   3.109   0.676 -0.2089 -0.5015  1.0558
  353TMC3     C 5343   1.605   3.520   0.694  0.2439  0.8588 -0.0477
  353TMC3     O 5344   1.490   3.559   0.681  0.2283 -0.5214  0.0939
  353TMC3     H 5345   1.820   3.357   0.703  0.4504 -1.5539  3.6175
  353TMC3    H1 5346   1.403   3.373   0.744 -1.6830 -0.7552 -3.2211
  353TMC3    H2 5347   1.595   3.001   0.669 -0.8013 -0.2539 -2.0669
  353TMC3    C7 5348   1.362   3.104   0.670 -0.5634 -0.1621  0.3448
  353TMC3    C8 5349   1.838   3.099   0.721  0.2030 -0.4175  0.0576
  353TMC3    O1 5350   1.370   2.985   0.668 -0.4966 -0.6516 -0.7928
  353TMC3    O2 5351   1.936   3.168   0.731  0.6633  0.4355  0.2443
  354TMC3    C1 5352   2.377   3.852  13.080 -0.6600  0.1718 -1.3084
  354TMC3    C2 5353   2.298   3.944  13.025 -0.3103  0.1123  0.4493
  354TMC3    C3 5354   2.365   4.053  12.978  0.4173  0.1261  0.1960
  354TMC3    C4 5355   2.509   3.854  13.083  0.1489 -0.0496 -0.0241
  354TMC3    C5 5356   2.574   3.951  13.015 -0.0200  0.0282 -0.5337
  354TMC3    C6 5357   2.498   4.050  12.962 -0.5531  0.0195  0.3672
  354TMC3     C 5358   2.318   3.804  13.206 -0.0627  0.2758  0.1037
  354TMC3     O 5359   2.372   3.720  13.270 -0.1022 -0.4425 -0.1553
  354TMC3     H 5360   2.190   3.935  13.027 -0.2861 -0.0506  0.9601
  354TMC3    H1 5361   2.567   3.771  13.121 -0.0558 -0.9738 -1.7419
  354TMC3    H2 5362   2.539   4.117  12.887  1.3109  0.1198  1.4607
  354TMC3    C7 5363   2.713   3.978  13.059  0.4955 -0.1135  0.0478
  354TMC3    C8 5364   2.313   4.174  13.040  0.3834 -0.3636 -0.5376
  354TMC3    O1 5365   2.780   3.894  13.111 -0.8698 -0.1777  0.0334
  354TMC3    O2 5366   2.222   4.149  13.120  0.0220 -0.1165  1.2897
  355MPD2     C 5367   2.597   0.188  11.763  0.0971 -0.2774  0.0070
  355MPD2    C1 5368   2.617   0.310  11.706  0.6131  0.0457 -0.1766
  355MPD2    C2 5369   2.730   0.377  11.739  0.0681 -0.1970  0.2157
  355MPD2    C3 5370   2.810   0.335  11.840  0.3950 -0.6053 -0.7049
  355MPD2    C4 5371   2.785   0.217  11.901 -0.1775 -0.3823 -0.2480
  355MPD2    C5 5372   2.678   0.145  11.866 -0.9146 -0.5856  0.4236
  355MPD2     H 5373   2.762   0.474  11.704 -1.8129  0.3313 -0.0247
  355MPD2    H1 5374   2.855   0.174  11.971  1.7828  1.7655 -0.9071
  355MPD2    H2 5375   2.509   0.130  11.738 -0.2272  1.1817 -2.2961
  355MPD2    H3 5376   2.651   0.053  11.915  2.9953 -1.6122  0.6276
  355MPD2     N 5377   2.931   0.396  11.871  0.1519  0.3777 -0.1609
  355MPD2    H5 5378   2.973   0.346  11.949 -0.8947  1.4083  1.0741
  355MPD2    N1 5379   2.529   0.355  11.599 -0.7154  0.5467  0.7089
  355MPD2    H7 5380   2.448   0.299  11.576 -0.9817  1.1374  0.2184
  356TMC3    C1 5381   3.081   0.577  11.898  0.3276  0.1350  0.2612
  356TMC3    C2 5382   3.164   0.657  11.823 -0.8013 -0.1565  0.2598
  356TMC3    C3 5383   3.254   0.732  11.894  0.2026 -0.2472 -0.4652
  356TMC3    C4 5384   3.079   0.572  12.033 -0.1602 -0.1408 -0.2442
  356TMC3    C5 5385   3.157   0.655  12.104 -0.0571  0.5571 -0.3045
  356TMC3    C6 5386   3.246   0.734  12.030 -0.3786 -0.2446  0.4988
  356TMC3     C 5387   2.982   0.504  11.815  0.3232  0.4561 -0.2974
  356TMC3     O 5388   2.974   0.538  11.700  0.0237 -0.1522 -0.0920
  356TMC3     H 5389   3.175   0.645  11.716  1.7225 -1.4834  0.6615
  356TMC3    H1 5390   3.004   0.506  12.077  0.7272 -1.0661 -0.1204
  356TMC3    H2 5391   3.325   0.787  12.082  0.1573 -0.1634 -0.3961
  356TMC3    C7 5392   3.154   0.648  12.249  0.3652 -0.3073  0.0808
  356TMC3    C8 5393   3.340   0.818  11.819  0.6637 -0.7560  0.4689
  356TMC3    O1 5394   3.095   0.552  12.297 -1.0648 -0.3526 -0.2743
  356TMC3    O2 5395   3.349   0.798  11.700  0.1250  0.3166  0.0835
  357MPD2     C 5396   2.197   0.535   0.379  0.4359  0.0273  0.0985
  357MPD2    C1 5397   2.307   0.493   0.450  0.8371  0.0328  0.3492
  357MPD2    C2 5398   2.314   0.512   0.592 -0.2257  0.5351  0.6161
  357MPD2    C3 5399   2.197   0.550   0.658  0.0787  0.0406 -0.1167
  357MPD2    C4 5400   2.082   0.571   0.582  0.1391  0.2318 -0.5396
  357MPD2    C5 5401   2.081   0.570   0.445  0.6209 -0.2893  0.3259
  357MPD2     H 5402   2.403   0.485   0.649 -0.2000 -1.7123 -0.4818
  357MPD2    H1 5403   1.985   0.596   0.625  1.1980  0.0421  1.9754
  357MPD2    H2 5404   2.194   0.513   0.273  0.3628  0.8609 -0.0729
  357MPD2    H3 5405   1.989   0.584   0.389 -0.0918 -1.9862  1.0678
  357MPD2     N 5406   2.180   0.574   0.798 -0.1073  0.4079  0.3205
  357MPD2    H5 5407   2.088   0.605   0.826 -1.1243 -0.7557 -1.7882
  357MPD2    N1 5408   2.409   0.421   0.388 -0.5685  0.3276  0.0443
  357MPD2    H7 5409   2.404   0.424   0.287  0.8633 -1.5965 -0.0873
  358TMC3    C1 5410   2.574   0.251   0.354 -0.7811 -0.0343 -0.3740
  358TMC3    C2 5411   2.488   0.192   0.267  0.2190 -0.1074  0.1826
  358TMC3    C3 5412   2.493   0.059   0.244 -0.0818 -0.1559  0.2582
  358TMC3    C4 5413   2.660   0.175   0.430  0.5452 -0.0382 -0.4033
  358TMC3    C5 5414   2.659   0.039   0.409  0.3721 -0.6874 -0.2943
  358TMC3    C6 5415   2.575   4.714   0.315 -0.2791 -0.1982  0.9934
  358TMC3     C 5416   2.511   0.348   0.444  0.0835 -0.3974 -0.2148
  358TMC3     O 5417   2.553   0.346   0.561 -0.0728  0.3252 -0.9041
  358TMC3     H 5418   2.426   0.256   0.205 -0.8597 -0.6691  0.6789
  358TMC3    H1 5419   2.729   0.209   0.506 -0.8306 -1.2296  1.3961
  358TMC3    H2 5420   2.554   4.608   0.320 -0.1726 -0.3504 -1.7066
  358TMC3    C7 5421   2.733   4.700   0.507 -0.0864  0.5586  0.1558
  358TMC3    C8 5422   2.380   0.002   0.172 -0.8226 -0.5288  0.4386
  358TMC3    O1 5423   2.763   0.012   0.613  0.0960  0.3134  0.4546
  358TMC3    O2 5424   2.294   0.083   0.131 -0.3314  0.3933 -0.0214
  359MPD2     C 5425   2.248   3.421  12.456 -0.1687  0.3211  0.2294
  359MPD2    C1 5426   2.322   3.309  12.408 -0.6154 -0.5347 -0.3047
  359MPD2    C2 5427   2.337   3.199  12.490  0.1212  0.3265 -0.5860
  359MPD2    C3 5428   2.283   3.200  12.615 -0.1118  0.1855  0.0489
  359MPD2    C4 5429   2.198   3.301  12.654  0.1626 -0.3984 -1.2808
  359MPD2    C5 5430   2.179   3.412  12.575  0.2532  0.8591 -0.5703
  359MPD2     H 5431   2.393   3.117  12.446 -0.1512  1.0146 -2.2159
  359MPD2    H1 5432   2.151   3.300  12.752  0.7701 -0.6730 -0.9934
  359MPD2    H2 5433   2.239   3.515  12.404 -0.0517 -0.3295 -0.9529
  359MPD2    H3 5434   2.130   3.495  12.623 -0.4379 -0.2722  0.6882
  359MPD2     N 5435   2.308   3.100  12.715  0.1752 -0.3569 -0.0977
  359MPD2    H5 5436   2.245   3.110  12.794  0.7851 -0.9222  0.4650
  359MPD2    N1 5437   2.390   3.320  12.282  0.3408 -0.0869 -0.7831
  359MPD2    H7 5438   2.475   3.266  12.267  1.5356  0.8724  2.4790
  360TMC3    C1 5439   2.433   3.421  12.076  0.7160  0.7814 -0.5729
  360TMC3    C2 5440   2.567   3.421  12.103 -0.4960 -0.7252  0.5448
  360TMC3    C3 5441   2.638   3.487  12.008 -0.5032 -0.2618  0.1599
  360TMC3    C4 5442   2.377   3.466  11.959 -0.7233 -0.1955 -0.1052
  360TMC3    C5 5443   2.454   3.525  11.861 -0.1920  0.7263  0.0820
  360TMC3    C6 5444   2.591   3.529  11.885  0.5819  0.3466 -0.3137
  360TMC3     C 5445   2.333   3.393  12.180  0.4950  0.4410 -0.1738
  360TMC3     O 5446   2.225   3.442  12.173  0.0976 -0.0703 -0.0041
  360TMC3     H 5447   2.602   3.414  12.205  3.2506  1.3527 -0.5945
  360TMC3    H1 5448   2.269   3.458  11.954 -0.6360 -0.4726 -1.4129
  360TMC3    H2 5449   2.666   3.566  11.816 -1.2821  2.2769 -1.2756
  360TMC3    C7 5450   2.415   3.507  11.722 -0.5281  0.2040 -0.6082
  360TMC3    C8 5451   2.783   3.478  12.006 -0.1087 -0.0226  0.7691
  360TMC3    O1 5452   2.327   3.425  11.706 -0.0734  0.2698  1.1770
  360TMC3    O2 5453   2.856   3.535  11.926  0.8631  0.6075 -0.7502
  361MPD2     C 5454   4.558   3.303  16.930  0.1963  0.0421 -0.3248
  361MPD2    C1 5455   4.503   3.179  16.938  0.2062  0.2714  0.2289
  361MPD2    C2 5456   4.577   3.073  16.987  1.1835  0.3857 -0.6480
  361MPD2    C3 5457   4.716   3.090  17.010 -0.7570 -0.2548 -0.2656
  361MPD2    C4 5458   0.026   3.214  16.994  0.2671  0.3256  0.1531
  361MPD2    C5 5459   4.687   3.323  16.961 -0.2898 -0.0274  0.5014
  361MPD2     H 5460   4.527   2.981  17.013  1.9879 -0.0725 -0.7142
  361MPD2    H1 5461   0.129   3.228  17.026  0.8858 -0.2667 -1.5739
  361MPD2    H2 5462   4.495   3.389  16.917  0.9280  0.6529  0.1748
  361MPD2    H3 5463   4.731   3.422  16.960  0.5796 -0.3444  3.9747
  361MPD2     N 5464   0.060   2.981  17.058  0.0869 -0.6292 -0.1980
  361MPD2    H5 5465   0.156   3.011  17.074  0.1754 -0.8894 -0.2417
  361MPD2    N1 5466   4.368   3.170  16.899 -0.5649  0.5637  0.5577
  361MPD2    H7 5467   4.326   3.261  16.879 -0.7204  0.4181  0.2266
  362TMC3    C1 5468   4.169   3.091  16.828  0.1037 -0.3845  0.1866
  362TMC3    C2 5469   4.060   3.017  16.876 -0.2586 -0.5332 -0.3162
  362TMC3    C3 5470   3.936   3.070  16.850 -0.5141 -0.0595  1.2252
  362TMC3    C4 5471   4.161   3.195  16.739  0.2460  0.1939 -0.7397
  362TMC3    C5 5472   4.031   3.217  16.692  0.5569 -0.2484 -0.0662
  362TMC3    C6 5473   3.920   3.168  16.750 -0.0958 -0.5850 -0.3287
  362TMC3     C 5474   4.293   3.057  16.877  0.1552  0.0777 -0.4717
  362TMC3     O 5475   4.324   2.941  16.909 -0.2121 -0.4368 -0.2731
  362TMC3     H 5476   4.067   2.947  16.958  1.1818 -1.0369 -0.8661
  362TMC3    H1 5477   4.247   3.247  16.699 -1.1117  2.2046 -1.0392
  362TMC3    H2 5478   3.825   3.216  16.728  0.3671 -0.4952 -2.1336
  362TMC3    C7 5479   4.012   3.333  16.611  0.0055  0.0451 -0.1977
  362TMC3    C8 5480   3.826   3.043  16.942 -0.4730  0.7699  0.2149
  362TMC3    O1 5481   4.104   3.411  16.622 -0.1503  0.3055 -0.2287
  362TMC3    O2 5482   3.825   2.931  16.992  0.2162 -0.0417  0.5672
  363TMC3    C1 5483   2.288   3.886   8.980 -0.0914  0.1795 -0.1315
  363TMC3    C2 5484   2.388   3.928   9.067  0.2823  0.1100  0.6277
  363TMC3    C3 5485   2.375   4.047   9.123  0.5746 -0.2200  0.0029
  363TMC3    C4 5486   2.182   3.962   8.947  0.0092 -0.1636  0.3481
  363TMC3    C5 5487   2.167   4.078   9.022  0.0582 -0.1304  0.5485
  363TMC3    C6 5488   2.266   4.123   9.101  0.2039 -0.0720  0.3504
  363TMC3     C 5489   2.311   3.760   8.906 -0.3982 -0.7624  0.0931
  363TMC3     O 5490   2.392   3.688   8.954 -0.1063 -0.4356 -0.3877
  363TMC3     H 5491   2.481   3.873   9.080  1.9864  2.6041 -0.9212
  363TMC3    H1 5492   2.093   3.928   8.897 -0.0392  0.3387  0.0840
  363TMC3    H2 5493   2.245   4.207   9.166  0.8775  1.7545 -1.8314
  363TMC3    C7 5494   2.041   4.150   9.018 -0.8499 -0.1054 -0.4569
  363TMC3    C8 5495   2.497   4.127   9.149  1.4651 -0.3562  0.0772
  363TMC3    O1 5496   2.029   4.232   9.111 -0.6082 -0.4077  1.1102
  363TMC3    O2 5497   2.505   4.250   9.147  0.3665  0.2509  0.4152
  364MPD2     C 5498   1.861   0.223  10.229  0.4752 -0.2937  0.2201
  364MPD2    C1 5499   1.989   0.223  10.180  0.7583 -0.8567  0.4860
  364MPD2    C2 5500   2.054   0.106  10.152  0.2662 -0.5645 -0.9189
  364MPD2    C3 5501   1.988   4.727  10.155 -0.1268 -0.5881  0.6634
  364MPD2    C4 5502   1.856   4.734  10.197 -0.3399  0.6077 -0.0153
  364MPD2    C5 5503   1.790   0.104  10.232  0.1910  0.3574 -0.0568
  364MPD2     H 5504   2.155   0.113  10.113  0.5150  0.6642 -0.0676
  364MPD2    H1 5505   1.802   4.640  10.195  1.2498 -0.3135  0.2333
  364MPD2    H2 5506   1.807   0.313  10.255 -0.3153 -0.1451 -1.8957
  364MPD2    H3 5507   1.685   0.112  10.257 -0.1823 -1.1192 -1.1814
  364MPD2     N 5508   2.056   4.606  10.148  0.1665  0.0436  0.0520
  364MPD2    H5 5509   2.003   4.524  10.175 -1.4974  1.4976  1.1614
  364MPD2    N1 5510   2.069   0.342  10.176 -0.0140  0.1193 -0.3833
  364MPD2    H7 5511   2.168   0.330  10.156  0.4256  1.0819  1.2661
  365TMC3    C1 5512   2.145   0.547  10.219  0.2452 -0.3035  0.6640
  365TMC3    C2 5513   2.260   0.517  10.142 -0.2242 -0.0202 -0.2799
  365TMC3    C3 5514   2.379   0.569  10.194 -0.4311  0.2482 -0.4749
  365TMC3    C4 5515   2.155   0.628  10.327 -0.0765 -0.0095 -0.3693
  365TMC3    C5 5516   2.273   0.692  10.360  0.7505 -0.2084  0.1779
  365TMC3    C6 5517   2.388   0.664  10.298  0.6752 -0.4449 -0.1889
  365TMC3     C 5518   2.026   0.466  10.197 -0.1095  0.0112  0.9557
  365TMC3     O 5519   1.919   0.514  10.214 -0.3602 -0.4811 -1.1187
  365TMC3     H 5520   2.250   0.463  10.049  1.2344  0.0194 -0.4627
  365TMC3    H1 5521   2.063   0.657  10.378  0.4084  0.9880 -0.0581
  365TMC3    H2 5522   2.476   0.699  10.349  1.2433 -2.4490  0.2001
  365TMC3    C7 5523   2.288   0.785  10.467 -0.4111 -0.2722  1.0898
  365TMC3    C8 5524   2.503   0.498  10.156 -1.2433  0.0145  0.2910
  365TMC3    O1 5525   2.392   0.848  10.481  0.0618  0.1839 -0.3471
  365TMC3    O2 5526   2.601   0.533  10.218 -0.0325 -0.6874 -0.0067
  366MPD2     C 5527   0.051   1.059  15.610 -0.4271 -0.0018 -0.3620
  366MPD2    C1 5528   0.170   1.122  15.635  0.2394 -0.4082 -0.3805
  366MPD2    C2 5529   0.284   1.051  15.624  0.2656 -0.3818  0.4295
  366MPD2    C3 5530   0.280   0.927  15.575  0.5813  0.3586 -0.2929
  366MPD2    C4 5531   0.165   0.859  15.555  0.9841  0.2015 -0.2739
  366MPD2    C5 5532   0.048   0.928  15.579  1.2166 -0.3774 -0.6962
  366MPD2     H 5533   0.376   1.104  15.642  0.5388 -1.4610  2.1465
  366MPD2    H1 5534   0.155   0.756  15.523  0.8466  0.4963 -1.1726
  366MPD2    H2 5535   4.698   1.110  15.617  0.3185  1.0694  1.7471
  366MPD2    H3 5536   4.691   0.883  15.577  0.2786  1.6390 -0.2976
  366MPD2     N 5537   0.409   0.872  15.530 -0.2308 -0.2365 -0.1770
  366MPD2    H5 5538   0.496   0.922  15.541 -0.5540 -0.1995  2.1516
  366MPD2    N1 5539   0.187   1.257  15.635 -0.2755  0.4526 -0.2581
  366MPD2    H7 5540   0.283   1.291  15.632  0.3656 -1.4192 -0.9983
  367TMC3    C1 5541   0.149   1.476  15.576 -0.1582 -0.4559 -0.1416
  367TMC3    C2 5542   0.243   1.535  15.658 -0.1327  0.1401  0.8262
  367TMC3    C3 5543   0.284   1.657  15.620  0.0460 -0.4217  0.1133
  367TMC3    C4 5544   0.101   1.517  15.456  0.2299  0.3332  0.1176
  367TMC3    C5 5545   0.148   1.645  15.425  0.4323  0.1112 -0.1864
  367TMC3    C6 5546   0.237   1.717  15.502  0.1280 -0.1207  0.2561
  367TMC3     C 5547   0.091   1.351  15.610 -0.3366 -0.0069 -0.3394
  367TMC3     O 5548   4.715   1.347  15.578 -0.3945 -0.0761 -0.7402
  367TMC3     H 5549   0.257   1.492  15.756  1.5518 -0.1623  0.4387
  367TMC3    H1 5550   0.033   1.456  15.397  0.0101 -0.1287  0.8550
  367TMC3    H2 5551   0.282   1.811  15.472  1.0684 -0.5072  0.4468
  367TMC3    C7 5552   0.080   1.724  15.323  0.3482  0.4151  0.1903
  367TMC3    C8 5553   0.394   1.718  15.696  0.4944 -0.0645 -0.2161
  367TMC3    O1 5554   0.096   1.847  15.327 -0.2038 -0.1455 -0.3599
  367TMC3    O2 5555   0.454   1.645  15.773  0.2735 -0.5027 -0.3126
  368MPD2     C 5556   1.570   2.617  13.753  0.0547 -0.4259 -0.1477
  368MPD2    C1 5557   1.573   2.653  13.617  0.5760  0.1424  0.5522
  368MPD2    C2 5558   1.587   2.550  13.523  0.3172 -0.8813  0.0991
  368MPD2    C3 5559   1.597   2.419  13.563  0.1886  0.0453  0.2212
  368MPD2    C4 5560   1.605   2.387  13.699 -0.0842  0.4236 -0.1454
  368MPD2    C5 5561   1.590   2.489  13.791 -0.4695 -0.2848 -0.0903
  368MPD2     H 5562   1.584   2.581  13.420 -1.9507 -1.9007 -0.1517
  368MPD2    H1 5563   1.629   2.285  13.727  1.3864  1.7458  3.3846
  368MPD2    H2 5564   1.555   2.692  13.830 -0.3762  0.0773 -0.7265
  368MPD2    H3 5565   1.587   2.466  13.897  0.3943 -3.5893 -0.8071
  368MPD2     N 5566   1.598   2.309  13.473  0.5788 -0.1750  0.4568
  368MPD2    H5 5567   1.598   2.214  13.509  0.2131 -0.8811 -1.4181
  368MPD2    N1 5568   1.544   2.781  13.591 -0.1227  0.2376 -0.2272
  368MPD2    H7 5569   1.488   2.832  13.658  1.3195 -0.7344  1.7177
  369TMC3    C1 5570   1.492   2.949  13.424 -0.1040  0.0637  0.1854
  369TMC3    C2 5571   1.536   3.009  13.307 -0.0715 -0.4582  0.4903
  369TMC3    C3 5572   1.433   3.053  13.225  0.2768 -0.4247 -0.1219
  369TMC3    C4 5573   1.359   2.942  13.455  0.4862  0.4405  0.9043
  369TMC3    C5 5574   1.262   2.982  13.363  0.3265 -0.4204  0.1563
  369TMC3    C6 5575   1.298   3.031  13.243  0.5645 -0.0954 -0.8219
  369TMC3     C 5576   1.579   2.838  13.466  0.8515 -0.0423  0.5613
  369TMC3     O 5577   1.662   2.792  13.386  0.0504 -0.1042  0.0013
  369TMC3     H 5578   1.643   3.011  13.296 -0.1174 -2.4466 -0.2124
  369TMC3    H1 5579   1.333   2.891  13.547 -0.0235 -0.5415  0.2125
  369TMC3    H2 5580   1.225   3.084  13.182 -0.5072  0.3477  0.8188
  369TMC3    C7 5581   1.130   2.928  13.383 -1.0646  0.2235 -0.6446
  369TMC3    C8 5582   1.464   3.123  13.105 -0.1829 -0.1405 -0.9125
  369TMC3    O1 5583   1.110   2.900  13.498  0.0877 -0.2995 -0.4714
  369TMC3    O2 5584   1.380   3.204  13.068 -0.4915  0.3025 -0.5284
  370TMC3    C1 5585   1.192   3.895  16.235 -0.1501  0.1316 -0.1924
  370TMC3    C2 5586   1.104   3.841  16.322  0.1662  0.5593  0.5887
  370TMC3    C3 5587   1.029   3.738  16.270 -1.1542 -0.1547  0.0629
  370TMC3    C4 5588   1.191   3.861  16.103  0.3925 -0.0852  0.1304
  370TMC3    C5 5589   1.119   3.756  16.057 -0.0506 -0.6050 -0.6035
  370TMC3    C6 5590   1.040   3.688  16.139  0.0938  0.1149 -0.0272
  370TMC3     C 5591   1.319   3.933  16.296 -0.1206  0.1183  1.3474
  370TMC3     O 5592   1.335   3.901  16.413 -0.4202 -0.3022 -0.3422
  370TMC3     H 5593   1.118   3.867  16.426 -1.2631  2.5928  0.2663
  370TMC3    H1 5594   1.272   3.894  16.039 -0.0339  0.3980 -0.1618
  370TMC3    H2 5595   0.993   3.597  16.104 -1.3456  0.0916  1.9834
  370TMC3    C7 5596   1.163   3.710  15.926  0.0474  0.6420  0.5885
  370TMC3    C8 5597   0.954   3.653  16.370 -0.8334  0.1293  0.1240
  370TMC3    O1 5598   1.210   3.780  15.841 -0.3169  0.5068 -0.1259
  370TMC3    O2 5599   0.914   3.545  16.340  0.5544 -0.5006  1.4916
  371TMC3    C1 5600   2.115   1.794  15.723  0.4925 -1.0939 -0.6563
  371TMC3    C2 5601   1.980   1.821  15.701 -0.8633 -0.3907 -0.0625
  371TMC3    C3 5602   1.954   1.949  15.664  0.1807  0.1409 -0.1468
  371TMC3    C4 5603   2.205   1.890  15.721 -0.4405  0.4835 -0.2878
  371TMC3    C5 5604   2.174   2.020  15.691 -0.7227  0.2020 -0.1926
  371TMC3    C6 5605   2.048   2.051  15.663 -0.6852 -0.3918  1.0237
  371TMC3     C 5606   2.132   1.722  15.846  0.3021 -0.3449  0.1879
  371TMC3     O 5607   2.192   1.785  15.935 -0.4058  0.0556  0.4084
  371TMC3     H 5608   1.911   1.737  15.701  1.2941 -2.1627 -1.4081
  371TMC3    H1 5609   2.306   1.865  15.751 -1.6707 -1.2801  2.4818
  371TMC3    H2 5610   2.033   2.147  15.615 -1.3580 -1.1780 -0.3586
  371TMC3    C7 5611   2.275   2.110  15.637 -0.8528  0.2404 -0.1123
  371TMC3    C8 5612   1.822   1.981  15.620  0.0025 -0.2969 -0.5122
  371TMC3    O1 5613   2.246   2.229  15.640 -0.5401 -0.2245  0.1872
  371TMC3    O2 5614   1.753   1.891  15.575  0.0879  0.3521  0.3970
  372MPD2     C 5615   2.107   2.801  13.448  0.0522  0.0227 -0.0573
  372MPD2    C1 5616   2.211   2.725  13.409  0.5097 -0.6873  0.2104
  372MPD2    C2 5617   2.207   2.588  13.424  0.6442  0.2035  0.3277
  372MPD2    C3 5618   2.097   2.513  13.466  0.5665  0.0122 -0.2960
  372MPD2    C4 5619   1.989   2.591  13.501 -0.0573 -1.0237  0.6563
  372MPD2    C5 5620   1.995   2.724  13.493  0.4822  0.1836  0.4344
  372MPD2     H 5621   2.292   2.528  13.393  0.1543 -0.4493  0.2639
  372MPD2    H1 5622   1.890   2.556  13.528 -0.5225  0.4301  0.8398
  372MPD2    H2 5623   2.112   2.909  13.451  2.0484 -0.0660  0.0492
  372MPD2    H3 5624   1.907   2.771  13.535  1.4226  1.0874  1.3718
  372MPD2     N 5625   2.100   2.367  13.464  1.2676 -0.2627  0.3927
  372MPD2    H5 5626   2.190   2.323  13.446  0.6647 -1.6715  0.8429
  372MPD2    N1 5627   2.328   2.785  13.367  0.0808 -0.0714  0.4115
  372MPD2    H7 5628   2.407   2.722  13.364  0.5460  0.5304 -0.1017
  373TMC3    C1 5629   2.018   2.149  13.507  0.0827  0.4502 -0.6345
  373TMC3    C2 5630   1.946   2.079  13.603 -0.3192 -0.3633 -0.9107
  373TMC3    C3 5631   1.981   1.959  13.650  0.4856 -0.5920  1.0786
  373TMC3    C4 5632   2.135   2.098  13.459 -0.0795  0.2445  0.0735
  373TMC3    C5 5633   2.175   1.978  13.515 -0.3420  0.6676  0.4402
  373TMC3    C6 5634   2.105   1.911  13.611 -0.0669 -0.3988  0.4837
  373TMC3     C 5635   1.995   2.291  13.507  0.2619 -0.2922 -0.5176
  373TMC3     O 5636   1.886   2.320  13.537 -0.4342  0.5862  0.0234
  373TMC3     H 5637   1.863   2.123  13.656 -0.6735  0.1317 -1.8640
  373TMC3    H1 5638   2.204   2.150  13.394 -0.3456  1.3619  0.6770
  373TMC3    H2 5639   2.146   1.821  13.654  4.1528  0.2035 -2.2620
  373TMC3    C7 5640   2.303   1.911  13.480  0.7296 -0.0978 -0.0263
  373TMC3    C8 5641   1.953   1.959  13.790  0.7559  0.2269  0.2805
  373TMC3    O1 5642   2.325   1.811  13.540  0.1731 -0.2175  0.4306
  373TMC3    O2 5643   1.851   1.910  13.834 -0.2036  0.2892  0.0179
  374TMC3    C1 5644   1.607   3.419  10.215  0.3396  0.1495 -0.3812
  374TMC3    C2 5645   1.740   3.434  10.184 -0.3075  0.4033  0.2409
  374TMC3    C3 5646   1.795   3.334  10.109 -0.1998  0.1224 -0.2384
  374TMC3    C4 5647   1.533   3.327  10.155  0.1134 -0.6827  0.0267
  374TMC3    C5 5648   1.593   3.232  10.077  0.0545 -0.4648  0.2026
  374TMC3    C6 5649   1.727   3.236  10.047  0.2874 -0.1320 -0.6912
  374TMC3     C 5650   1.545   3.517  10.305  0.3246  0.8186  0.4771
  374TMC3     O 5651   1.448   3.473  10.364 -0.4121  0.4294  0.0998
  374TMC3     H 5652   1.799   3.510  10.234 -0.5059  1.1553 -0.6678
  374TMC3    H1 5653   1.425   3.332  10.154  0.1846  0.5027 -1.0699
  374TMC3    H2 5654   1.782   3.173   9.979 -1.3545 -0.4057 -1.7475
  374TMC3    C7 5655   1.512   3.133  10.020  0.5661 -0.2473  0.7032
  374TMC3    C8 5656   1.935   3.336  10.083  0.6004 -0.1884  0.0982
  374TMC3    O1 5657   1.426   3.084  10.090  0.0797  0.3369 -0.3911
  374TMC3    O2 5658   1.991   3.226  10.058 -0.2407 -0.1320 -0.1753
  375MPD2     C 5659   2.783   4.264  17.440  0.0094  0.3351  0.0710
  375MPD2    C1 5660   2.677   4.209  17.355 -0.4114 -0.9326  0.9397
  375MPD2    C2 5661   2.693   4.104  17.270 -0.0417  0.6176  0.1181
  375MPD2    C3 5662   2.825   4.060  17.243 -0.2569  0.2262 -0.2539
  375MPD2    C4 5663   2.925   4.109  17.324  0.0100  0.4660  0.0023
  375MPD2    C5 5664   2.907   4.210  17.417 -0.0178 -0.6394  0.4192
  375MPD2     H 5665   2.597   4.079  17.225 -0.9522  0.8052  1.9827
  375MPD2    H1 5666   3.023   4.063  17.315 -0.5517 -0.1466 -3.0852
  375MPD2    H2 5667   2.757   4.341  17.511 -0.5240  0.4363 -0.2331
  375MPD2    H3 5668   2.991   4.236  17.481 -2.1793  1.6473  2.3500
  375MPD2     N 5669   2.851   3.967  17.145 -0.3457 -0.5925 -0.1679
  375MPD2    H5 5670   2.946   3.931  17.152 -0.1128  0.3948  1.9947
  375MPD2    N1 5671   2.544   4.246  17.354 -0.3732 -0.0125 -0.6222
  375MPD2    H7 5672   2.482   4.203  17.285 -0.6718 -1.5234  0.5964
  376TMC3    C1 5673   2.815   3.833  16.950  0.0908  0.0722  1.2723
  376TMC3    C2 5674   2.903   3.732  16.966  0.1448  0.1562  0.1854
  376TMC3    C3 5675   2.942   3.665  16.858  0.0741  0.0116 -0.1261
  376TMC3    C4 5676   2.761   3.858  16.829 -0.0378 -0.4688 -0.2574
  376TMC3    C5 5677   2.788   3.775  16.726  0.2091 -0.0246  0.1772
  376TMC3    C6 5678   2.886   3.682  16.737  0.2117 -0.2511 -0.1008
  376TMC3     C 5679   2.760   3.917  17.052  0.0599  0.1909  0.4402
  376TMC3     O 5680   2.638   3.931  17.050  0.4067  0.0119 -0.3233
  376TMC3     H 5681   2.963   3.733  17.056 -1.1903 -2.0666  1.0905
  376TMC3    H1 5682   2.682   3.931  16.814 -0.5735 -0.7995  0.9378
  376TMC3    H2 5683   2.922   3.620  16.655  0.6577 -1.3774  0.9517
  376TMC3    C7 5684   2.719   3.790  16.603 -0.3230 -0.1469  0.8081
  376TMC3    C8 5685   3.077   3.608  16.869 -0.8601  0.4799  0.5961
  376TMC3    O1 5686   2.678   3.906  16.587  0.4920  0.4627  0.8108
  376TMC3    O2 5687   3.110   3.566  16.981 -0.5388 -0.2726  0.2160
  377MPD2     C 5688   0.945   3.241  13.194  0.5000  0.1427 -0.6725
  377MPD2    C1 5689   0.838   3.219  13.116 -0.3834 -0.0841 -0.4724
  377MPD2    C2 5690   0.742   3.135  13.165  0.6150 -0.0208 -0.0391
  377MPD2    C3 5691   0.749   3.082  13.290  0.6333 -0.3468  0.2011
  377MPD2    C4 5692   0.855   3.113  13.366 -0.0699  0.3023 -0.3361
  377MPD2    C5 5693   0.952   3.199  13.322  0.0173  0.0308 -0.0535
  377MPD2     H 5694   0.672   3.091  13.096  0.4207  0.4852 -0.1622
  377MPD2    H1 5695   0.871   3.064  13.461  3.6297  0.6059 -0.8154
  377MPD2    H2 5696   1.023   3.310  13.164 -0.2120 -0.0971 -3.0786
  377MPD2    H3 5697   1.034   3.230  13.385  0.1704  0.2797 -0.3790
  377MPD2     N 5698   0.654   2.990  13.339 -0.4857  0.5159 -0.1031
  377MPD2    H5 5699   0.669   2.955  13.433  1.2878  2.3941  0.2880
  377MPD2    N1 5700   0.849   3.261  12.983 -0.0096  0.0214  0.4355
  377MPD2    H7 5701   0.940   3.298  12.956 -0.0510  0.1697  0.5040
  378TMC3    C1 5702   0.746   3.365  12.533  0.2071 -0.5960 -0.0182
  378TMC3    C2 5703   0.707   3.344  12.663 -0.1895  0.4437 -0.5911
  378TMC3    C3 5704   0.803   3.318  12.760  1.0927  0.0761 -0.9893
  378TMC3    C4 5705   0.881   3.348  12.498 -0.3707  0.8919 -0.3485
  378TMC3    C5 5706   0.971   3.308  12.596  0.2184 -0.2344  0.5199
  378TMC3    C6 5707   0.937   3.292  12.728 -0.1309 -0.1135 -0.0342
  378TMC3     C 5708   0.647   3.319  12.437 -0.0812  1.0820  0.3758
  378TMC3     O 5709   0.558   3.255  12.479 -0.0553  1.0442 -0.2212
  378TMC3     H 5710   0.604   3.350  12.695 -0.5779  0.1687 -1.7892
  378TMC3    H1 5711   0.920   3.356  12.398 -2.3585 -1.5833 -1.3273
  378TMC3    H2 5712   1.003   3.240  12.797  1.3977  0.2587 -1.2113
  378TMC3    C7 5713   1.120   3.299  12.576  0.1819 -0.5561 -0.7114
  378TMC3    C8 5714   0.751   3.258  12.888  0.8808  0.1885 -0.0099
  378TMC3    O1 5715   1.191   3.301  12.674  0.0863 -0.0478  0.6643
  378TMC3    O2 5716   0.628   3.231  12.903  0.3594 -0.4427 -0.6318
  379MPD2     C 5717   0.801   1.714  16.431 -0.1561  0.0071  0.1080
  379MPD2    C1 5718   0.917   1.660  16.386  0.9690  1.0943 -0.6016
  379MPD2    C2 5719   0.982   1.559  16.454  0.5532  0.1623  0.2918
  379MPD2    C3 5720   0.921   1.502  16.570  0.6944 -0.0602 -0.4030
  379MPD2    C4 5721   0.803   1.553  16.612  0.4420 -0.0143 -0.1890
  379MPD2    C5 5722   0.747   1.654  16.543  0.4495  0.9527  0.1984
  379MPD2     H 5723   1.071   1.511  16.414  0.5425 -1.2584  1.9594
  379MPD2    H1 5724   0.744   1.524  16.698 -0.3776 -0.7494 -1.0032
  379MPD2    H2 5725   0.760   1.806  16.393  1.2299  0.2429 -0.8392
  379MPD2    H3 5726   0.649   1.689  16.574 -0.4820 -2.2241  0.9062
  379MPD2     N 5727   0.982   1.398  16.654  0.2899 -0.2437  0.4962
  379MPD2    H5 5728   0.930   1.371  16.736  0.4747 -1.2808  0.2713
  379MPD2    N1 5729   0.974   1.726  16.271  0.4247  0.2991  0.2914
  379MPD2    H7 5730   0.917   1.799  16.229 -1.6693 -1.7264 -0.4425
  380TMC3    C1 5731   1.110   1.757  16.096 -0.8528 -0.1107  0.0653
  380TMC3    C2 5732   1.236   1.749  16.038 -0.1757 -0.3314 -0.2711
  380TMC3    C3 5733   1.261   1.842  15.941 -0.8028  0.3568  0.0394
  380TMC3    C4 5734   1.012   1.841  16.053  0.0290  0.8436  0.6299
  380TMC3    C5 5735   1.050   1.936  15.960 -0.4401  0.1202  0.3196
  380TMC3    C6 5736   1.167   1.930  15.893  0.4328 -0.1997 -0.5256
  380TMC3     C 5737   1.093   1.698  16.219 -0.5731  0.6221  0.7759
  380TMC3     O 5738   1.174   1.608  16.244 -0.3022  0.4358  0.3657
  380TMC3     H 5739   1.319   1.705  16.092 -0.0131  1.0672  0.6127
  380TMC3    H1 5740   0.909   1.834  16.086  0.5779  0.4356  2.2579
  380TMC3    H2 5741   1.176   2.000  15.811 -1.9770  1.3405  0.5090
  380TMC3    C7 5742   0.942   2.014  15.900  0.5114  0.1689 -0.5714
  380TMC3    C8 5743   1.347   1.791  15.833  0.9037  0.0682 -0.1511
  380TMC3    O1 5744   0.968   2.137  15.882 -0.4603 -0.0054 -0.4535
  380TMC3    O2 5745   1.355   1.848  15.728 -0.1495  0.1815 -0.2227
  381TMC3    C1 5746   0.863   2.832  16.192 -0.1755  0.2086 -0.0212
  381TMC3    C2 5747   0.966   2.913  16.152  0.2827 -0.1873 -0.6802
  381TMC3    C3 5748   0.987   3.027  16.221 -0.6379  0.0048 -0.5825
  381TMC3    C4 5749   0.788   2.858  16.301  0.4004  0.1806 -0.5516
  381TMC3    C5 5750   0.816   2.963  16.375 -0.0080 -0.4133 -0.4549
  381TMC3    C6 5751   0.910   3.054  16.336  0.0541 -0.6897  0.8368
  381TMC3     C 5752   0.825   2.728  16.092 -0.6298  0.2722  0.6428
  381TMC3     O 5753   0.881   2.724  15.977 -0.0701 -0.0406 -0.0322
  381TMC3     H 5754   1.010   2.894  16.055 -0.5879  1.8772 -1.4812
  381TMC3    H1 5755   0.706   2.794  16.331  1.0222 -1.2661 -1.9374
  381TMC3    H2 5756   0.924   3.139  16.402  1.2475  1.5233 -2.2785
  381TMC3    C7 5757   0.794   2.933  16.519  0.6180 -0.0550 -0.1374
  381TMC3    C8 5758   1.099   3.112  16.177  0.0636  0.2065 -0.4553
  381TMC3    O1 5759   0.761   2.818  16.550 -0.0992 -0.2622  0.3369
  381TMC3    O2 5760   1.130   3.108  16.057 -0.0390  0.0569 -0.5530
  382MPD2     C 5761   4.590   1.073  16.910  0.5087 -0.1900  0.2387
  382MPD2    C1 5762   4.654   1.090  17.035  0.5996  0.1365 -0.2833
  382MPD2    C2 5763   4.689   0.979  17.102 -0.8688  0.5591  0.8095
  382MPD2    C3 5764   4.667   0.849  17.053  0.4866 -0.1611  0.2597
  382MPD2    C4 5765   4.602   0.839  16.929  0.0176 -0.0808 -0.2912
  382MPD2    C5 5766   4.578   0.952  16.851  0.0453  0.0670  0.4159
  382MPD2     H 5767   4.739   0.985  17.198 -0.2725  1.3786  0.4466
  382MPD2    H1 5768   4.573   0.741  16.894 -0.3547 -0.1749  0.2952
  382MPD2    H2 5769   4.548   1.161  16.863  0.5165 -0.7445 -0.8082
  382MPD2    H3 5770   4.534   0.943  16.752  1.8126 -1.8675 -0.1966
  382MPD2     N 5771   4.691   0.728  17.124  0.2559  0.1943  0.5318
  382MPD2    H5 5772   4.652   0.650  17.071 -0.9774 -0.5702  2.5848
  382MPD2    N1 5773   4.673   1.213  17.102 -0.1885 -0.2975  0.2516
  382MPD2    H7 5774   4.730   1.202  17.184  1.1664  1.1684 -0.4959
  383TMC3    C1 5775   4.710   0.594  17.314 -0.0891 -0.4891 -0.3781
  383TMC3    C2 5776   4.649   0.489  17.258 -0.1989 -0.1955  0.4092
  383TMC3    C3 5777   4.614   0.383  17.338 -0.4386 -0.1451 -0.1668
  383TMC3    C4 5778   0.013   0.591  17.441  0.3432  0.4289 -0.2311
  383TMC3    C5 5779   4.731   0.482  17.515 -0.4824  0.2226  0.5557
  383TMC3    C6 5780   4.664   0.377  17.467  0.3600  0.8538 -0.2662
  383TMC3     C 5781   0.003   0.719  17.247  0.3705 -0.1001 -0.0887
  383TMC3     O 5782   0.065   0.802  17.311 -0.2429 -0.0485  0.0968
  383TMC3     H 5783   4.614   0.498  17.156  2.2112  1.0558 -0.3183
  383TMC3    H1 5784   0.066   0.673  17.487  0.2508 -0.6055  1.7329
  383TMC3    H2 5785   4.635   0.302  17.540 -1.0209  3.0084  1.3752
  383TMC3    C7 5786   0.060   0.474  17.636  0.3532  0.1326  0.1727
  383TMC3    C8 5787   4.542   0.272  17.267 -0.1281  0.0268 -0.3714
  383TMC3    O1 5788   0.067   0.573  17.713  0.0719 -0.6296  0.8818
  383TMC3    O2 5789   4.474   0.297  17.169  0.3851  0.1739 -0.0784
  384MPD2     C 5790   1.547   1.743  12.006 -0.4739 -0.1427  0.3746
  384MPD2    C1 5791   1.447   1.659  12.059 -0.4360  0.2026 -0.4717
  384MPD2    C2 5792   1.440   1.526  12.016  0.5945  0.3914 -0.4201
  384MPD2    C3 5793   1.530   1.478  11.922 -0.2908  0.4587  0.0387
  384MPD2    C4 5794   1.641   1.559  11.885 -0.9778  0.1867  0.4529
  384MPD2    C5 5795   1.641   1.687  11.920  0.0487 -1.0280  0.1251
  384MPD2     H 5796   1.366   1.457  12.055 -0.4896  1.8385  0.1017
  384MPD2    H1 5797   1.727   1.511  11.839 -1.2957 -0.3570  0.4275
  384MPD2    H2 5798   1.558   1.845  12.040 -0.7814  0.4398 -1.2460
  384MPD2    H3 5799   1.722   1.754  11.893 -1.1195  0.4132  0.2011
  384MPD2     N 5800   1.540   1.338  11.902 -0.4384  0.2383 -0.1128
  384MPD2    H5 5801   1.629   1.296  11.878 -0.8597  0.9295 -2.8345
  384MPD2    N1 5802   1.366   1.708  12.159  0.5762  0.4812  0.8304
  384MPD2    H7 5803   1.375   1.803  12.194 -1.9653  1.3418 -0.8486
  385TMC3    C1 5804   1.524   1.129  12.000 -0.3422 -0.6680 -0.0650
  385TMC3    C2 5805   1.472   1.005  12.003 -0.0323 -0.6586 -0.3999
  385TMC3    C3 5806   1.500   0.919  12.107  0.3051  0.3559 -0.1514
  385TMC3    C4 5807   1.598   1.181  12.105 -0.4141 -0.4798 -0.5755
  385TMC3    C5 5808   1.604   1.100  12.215 -0.7727  0.1613 -0.4588
  385TMC3    C6 5809   1.567   0.967  12.217  0.3478 -0.0813 -0.1110
  385TMC3     C 5810   1.446   1.239  11.936  0.2504 -0.2819  0.1399
  385TMC3     O 5811   1.325   1.237  11.959  0.1659 -0.2752  0.0111
  385TMC3     H 5812   1.408   0.986  11.918 -2.0489  1.9724  0.5188
  385TMC3    H1 5813   1.649   1.277  12.104  2.6479 -2.0745  0.0303
  385TMC3    H2 5814   1.586   0.895  12.296  0.8506  1.9082  1.6040
  385TMC3    C7 5815   1.599   1.175  12.336 -0.3326  0.0067 -1.0655
  385TMC3    C8 5816   1.523   0.773  12.079 -0.2764  0.5425  0.1793
  385TMC3    O1 5817   1.642   1.289  12.345 -0.3283 -0.1706  0.1105
  385TMC3    O2 5818   1.560   0.701  12.167 -0.8008  0.6528 -0.4095
  386TMC3    C1 5819   2.168   3.158  11.791 -0.0591  0.4735  0.1071
  386TMC3    C2 5820   2.137   3.129  11.658 -1.0901 -0.3550 -0.1622
  386TMC3    C3 5821   2.060   3.224  11.591  0.3854  0.2568 -0.9419
  386TMC3    C4 5822   2.103   3.257  11.857  0.7494  0.1369 -0.6304
  386TMC3    C5 5823   2.020   3.349  11.790 -0.3007  0.1538 -0.6130
  386TMC3    C6 5824   2.004   3.331  11.656  0.9065  0.7913 -0.2790
  386TMC3     C 5825   2.256   3.074  11.867 -0.1446 -1.0230 -0.3561
  386TMC3     O 5826   2.288   3.103  11.979 -0.2350  0.1743 -0.6283
  386TMC3     H 5827   2.195   3.051  11.610 -0.8719  0.6753 -1.5456
  386TMC3    H1 5828   2.129   3.279  11.960 -0.7701 -0.5040 -0.1195
  386TMC3    H2 5829   1.938   3.389  11.593 -0.2478 -0.1824  0.0346
  386TMC3    C7 5830   1.926   3.429  11.873 -0.2857 -0.7452  0.5338
  386TMC3    C8 5831   2.020   3.199  11.454 -0.2575 -0.5293  1.0520
  386TMC3    O1 5832   1.951   3.447  11.990 -0.0126 -0.2474  0.1827
  386TMC3    O2 5833   1.995   3.292  11.379  0.2380  0.1975 -0.1423
  387MPD2     C 5834   3.850   3.339   9.991 -0.0396 -0.4130 -0.2250
  387MPD2    C1 5835   3.922   3.335  10.107 -0.5330 -0.3381 -0.8995
  387MPD2    C2 5836   3.993   3.220  10.138 -0.7175 -0.0377 -0.2767
  387MPD2    C3 5837   3.994   3.117  10.047 -0.8476 -0.2910  0.8478
  387MPD2    C4 5838   3.925   3.118   9.933  0.5799 -0.1822 -0.4747
  387MPD2    C5 5839   3.854   3.231   9.910  0.3232 -0.7774  0.4585
  387MPD2     H 5840   4.044   3.212  10.234  0.6495  0.2752 -0.9809
  387MPD2    H1 5841   3.919   3.038   9.859 -0.4240  1.3301 -2.0349
  387MPD2    H2 5842   3.791   3.425   9.960 -3.0846 -2.0707  0.9501
  387MPD2    H3 5843   3.783   3.229   9.828 -0.2765  0.0159  0.9499
  387MPD2     N 5844   4.065   3.005  10.082 -0.2323 -0.1663  0.1601
  387MPD2    H5 5845   4.089   2.998  10.180 -2.8179 -2.8952  0.5874
  387MPD2    N1 5846   3.932   3.444  10.195  0.2677 -0.6519  0.4002
  387MPD2    H7 5847   3.974   3.423  10.285  0.0873  0.7542  0.8166
  388TMC3    C1 5848   3.964   3.677  10.253  0.1561 -0.6983  0.7967
  388TMC3    C2 5849   3.982   3.797  10.193  0.3351  0.6875  0.5230
  388TMC3    C3 5850   4.090   3.870  10.222 -0.1162 -0.2707  0.1690
  388TMC3    C4 5851   4.054   3.628  10.344  0.6379 -0.2531  0.2354
  388TMC3    C5 5852   4.162   3.700  10.376 -0.3365  0.1122  0.5251
  388TMC3    C6 5853   4.187   3.817  10.305 -0.4568 -0.3183 -0.1960
  388TMC3     C 5854   3.929   3.576  10.154 -0.2404  0.2385  0.3751
  388TMC3     O 5855   3.924   3.614  10.037  0.6952 -0.4169 -0.2635
  388TMC3     H 5856   3.899   3.822  10.127 -1.8286 -1.1790  2.5507
  388TMC3    H1 5857   4.038   3.538  10.403 -1.2958 -0.4742 -0.6392
  388TMC3    H2 5858   4.274   3.880  10.320 -1.0078  0.9001 -2.1275
  388TMC3    C7 5859   4.284   3.623  10.416 -0.1927 -1.0612  1.0035
  388TMC3    C8 5860   4.091   4.012  10.174  0.5813 -0.0515  0.2259
  388TMC3    O1 5861   4.379   3.686  10.466  0.2102  0.0544  1.0390
  388TMC3    O2 5862   4.005   4.031  10.089  0.1011  0.6996  0.0823
  389MPD2     C 5863   3.153   1.871  11.876  0.1536 -0.3211 -0.2260
  389MPD2    C1 5864   3.197   1.771  11.786  0.4991  0.2801 -0.0865
  389MPD2    C2 5865   3.167   1.640  11.802 -0.0831  0.0669  0.1077
  389MPD2    C3 5866   3.098   1.597  11.913  0.3772  0.6856 -0.4944
  389MPD2    C4 5867   3.061   1.693  12.011 -0.1816  0.4728 -0.4774
  389MPD2    C5 5868   3.084   1.825  11.987 -0.1572  0.3089 -0.1951
  389MPD2     H 5869   3.198   1.569  11.727 -0.5523  0.2080 -0.2179
  389MPD2    H1 5870   3.001   1.672  12.099 -0.9017  1.8143 -0.6329
  389MPD2    H2 5871   3.168   1.977  11.859  1.1955 -0.8725 -2.8258
  389MPD2    H3 5872   3.053   1.902  12.057  2.2166 -0.1873  1.3962
  389MPD2     N 5873   3.061   1.464  11.944  0.0290  0.2372  0.1243
  389MPD2    H5 5874   3.015   1.455  12.034 -0.3757 -2.9265 -0.3834
  389MPD2    N1 5875   3.273   1.814  11.670 -0.5615  0.3589 -0.5480
  389MPD2    H7 5876   3.278   1.913  11.645 -1.5685  0.3102 -0.9370
  390TMC3    C1 5877   3.017   1.239  11.908  0.2508  0.0402  0.5982
  390TMC3    C2 5878   3.066   1.124  11.848  0.3087  0.2993  0.4624
  390TMC3    C3 5879   2.998   1.001  11.866 -1.1025  0.7275  0.1448
  390TMC3    C4 5880   2.903   1.236  11.983 -0.0076  0.3735 -0.0420
  390TMC3    C5 5881   2.852   1.117  12.023  0.0446  0.3684  0.3182
  390TMC3    C6 5882   2.901   1.003  11.963  0.5510  0.5483  0.3780
  390TMC3     C 5883   3.075   1.360  11.854 -0.8328  0.0886  0.0712
  390TMC3     O 5884   3.142   1.357  11.754  0.4566  0.1827  0.2696
  390TMC3     H 5885   3.150   1.129  11.781 -0.3117 -2.7925 -0.5572
  390TMC3    H1 5886   2.864   1.331  12.017 -0.9267  0.1435 -0.4501
  390TMC3    H2 5887   2.865   0.912  12.010 -0.1625  0.8380  0.3941
  390TMC3    C7 5888   2.705   1.116  12.033 -0.3917 -1.4305 -0.7931
  390TMC3    C8 5889   2.951   0.925  11.752 -1.3310  0.1622  0.1799
  390TMC3    O1 5890   2.656   1.163  12.138 -0.7742  0.4876  0.3335
  390TMC3    O2 5891   2.839   0.887  11.762 -0.4190 -0.5491 -0.0010
  391MPD2     C 5892   2.372   2.997  11.264  0.1853  0.8847 -0.4588
  391MPD2    C1 5893   2.472   3.091  11.254 -0.3728 -0.1104 -0.0171
  391MPD2    C2 5894   2.498   3.149  11.130 -0.1183 -0.5008 -0.6778
  391MPD2    C3 5895   2.444   3.096  11.013  0.4880  0.0332  0.1505
  391MPD2    C4 5896   2.366   2.978  11.022  0.1913 -0.2550 -0.2470
  391MPD2    C5 5897   2.332   2.932  11.149  0.3692 -0.0112  0.2578
  391MPD2     H 5898   2.575   3.225  11.120  0.9086 -1.4076  0.3252
  391MPD2    H1 5899   2.311   2.937  10.938 -1.1600  0.6120  0.2237
  391MPD2    H2 5900   2.340   2.954  11.358 -1.5755  4.2768  0.5111
  391MPD2    H3 5901   2.272   2.843  11.159 -0.0306  0.2034 -0.2102
  391MPD2     N 5902   2.490   3.156  10.884 -0.1496 -0.1862  0.0887
  391MPD2    H5 5903   2.563   3.226  10.883  1.1423 -1.5327  1.6055
  391MPD2    N1 5904   2.537   3.143  11.372 -0.2654  0.0651  0.3349
  391MPD2    H7 5905   2.613   3.208  11.359  2.0821 -1.8995  4.0759
  392TMC3    C1 5906   2.521   3.176  10.646 -0.0732  0.8951  0.1867
  392TMC3    C2 5907   2.486   3.153  10.517 -0.3403  0.7741 -0.4809
  392TMC3    C3 5908   2.535   3.220  10.406  0.7264  0.6368  0.2860
  392TMC3    C4 5909   2.621   3.273  10.667 -0.1474 -0.2511  0.0167
  392TMC3    C5 5910   2.683   3.329  10.556 -0.1090  0.2788  0.1928
  392TMC3    C6 5911   2.636   3.306  10.428 -0.9536 -0.1388 -1.0179
  392TMC3     C 5912   2.453   3.111  10.754  0.3780  0.6893  0.3673
  392TMC3     O 5913   2.377   3.022  10.724  0.2135  0.0408  0.7880
  392TMC3     H 5914   2.401   3.088  10.502 -0.8731  1.0060  1.5940
  392TMC3    H1 5915   2.647   3.299  10.769 -0.3048  0.0568 -0.0220
  392TMC3    H2 5916   2.691   3.348  10.345  0.4625 -1.7000 -0.8554
  392TMC3    C7 5917   2.796   3.418  10.578  0.1799 -0.2459 -0.0213
  392TMC3    C8 5918   2.423   3.260  10.320  0.8939  0.6289  0.5920
  392TMC3    O1 5919   2.828   3.419  10.696  0.0125  0.3690 -0.3510
  392TMC3    O2 5920   2.330   3.184  10.313 -0.3245 -0.2916 -0.3262
  393TMC3    C1 5921   1.580   1.125  10.467 -0.4047 -0.3477  0.2876
  393TMC3    C2 5922   1.484   1.032  10.461  0.1728 -0.0850  0.4195
  393TMC3    C3 5923   1.531   0.908  10.430  0.2055  0.7714 -0.2615
  393TMC3    C4 5924   1.711   1.104  10.442  0.3684 -0.6324 -0.3479
  393TMC3    C5 5925   1.753   0.975  10.417 -0.0476 -0.0303 -0.3575
  393TMC3    C6 5926   1.659   0.880  10.405 -0.5420  0.3969 -0.5182
  393TMC3     C 5927   1.539   1.257  10.505  0.1526  0.7946  0.3528
  393TMC3     O 5928   1.420   1.281  10.478  0.2589  0.9035  0.4658
  393TMC3     H 5929   1.381   1.046  10.493  0.6730  0.7252  1.7115
  393TMC3    H1 5930   1.790   1.178  10.438 -0.3407  0.2017  1.4892
  393TMC3    H2 5931   1.688   0.780  10.376 -1.2981 -0.4140  1.5129
  393TMC3    C7 5932   1.882   0.945  10.345  0.2616  0.9737 -0.4650
  393TMC3    C8 5933   1.431   0.805  10.453  0.0558 -0.3665  0.5632
  393TMC3    O1 5934   1.889   0.830  10.299  0.1747  0.3228  0.4688
  393TMC3    O2 5935   1.326   0.850  10.500 -0.1504  0.1946  0.0775
  394TMC3    C1 5936   3.366   1.786  11.459 -0.1585  1.1036 -0.6973
  394TMC3    C2 5937   3.262   1.758  11.370  0.0172  0.3606  0.0986
  394TMC3    C3 5938   3.296   1.751  11.239  0.7313  0.6339  0.1620
  394TMC3    C4 5939   3.497   1.779  11.422 -0.5253 -0.8740 -0.1156
  394TMC3    C5 5940   3.518   1.777  11.285 -0.1946 -0.0616  0.2080
  394TMC3    C6 5941   3.422   1.766  11.192 -0.2553  0.4142  0.4829
  394TMC3     C 5942   3.350   1.733  11.591  0.3820  0.2223  0.1362
  394TMC3     O 5943   3.389   1.620  11.610 -0.5403 -0.0515  0.4139
  394TMC3     H 5944   3.159   1.737  11.394  0.6299 -0.3360  2.1530
  394TMC3    H1 5945   3.577   1.803  11.491  0.2045  0.9007 -1.5899
  394TMC3    H2 5946   3.444   1.781  11.087 -1.5218  0.0817  0.1712
  394TMC3    C7 5947   3.649   1.803  11.234 -0.2971  0.7039 -0.1358
  394TMC3    C8 5948   3.186   1.734  11.137  0.4973 -0.7341 -0.4786
  394TMC3    O1 5949   3.654   1.858  11.125 -0.2463 -0.1181  0.0399
  394TMC3    O2 5950   3.070   1.760  11.168 -0.4852 -0.0164 -0.2464
  395TMC3    C1 5951   2.848   3.512  14.991 -0.8833  0.0324  0.6760
  395TMC3    C2 5952   2.859   3.456  14.868 -0.2131  0.2635 -0.4652
  395TMC3    C3 5953   2.935   3.525  14.765 -0.0418  0.1135  0.9483
  395TMC3    C4 5954   2.894   3.640  15.018 -0.0810 -0.1813 -0.1886
  395TMC3    C5 5955   2.977   3.690  14.926  0.3326 -0.4995 -0.2672
  395TMC3    C6 5956   2.998   3.638  14.803 -0.1492  0.9756 -0.0972
  395TMC3     C 5957   2.842   3.419  15.103  0.3594 -0.3429 -0.1015
  395TMC3     O 5958   2.785   3.466  15.202  0.0097 -0.1832  0.1468
  395TMC3     H 5959   2.817   3.357  14.850  0.0138 -0.1420  1.2422
  395TMC3    H1 5960   2.889   3.668  15.122  0.2687  2.1899 -0.8158
  395TMC3    H2 5961   3.074   3.679  14.737 -0.1585 -1.3411 -1.5332
  395TMC3    C7 5962   3.075   3.785  14.984  0.0410  0.1266  0.1997
  395TMC3    C8 5963   3.013   3.431  14.688  0.2137 -0.0670  0.3297
  395TMC3    O1 5964   3.062   3.800  15.105  0.0876  0.8288 -0.3354
  395TMC3    O2 5965   3.132   3.424  14.726 -0.6344 -0.3433 -0.2298
  396MPD2     C 5966   3.096   0.361  17.539  0.1014 -0.3920 -0.7440
  396MPD2    C1 5967   3.224   0.357  17.502 -0.1639 -0.2428 -0.2221
  396MPD2    C2 5968   3.293   0.471  17.459  0.7938  0.2537 -0.4941
  396MPD2    C3 5969   3.215   0.593  17.443 -0.4862  0.0545  0.2916
  396MPD2    C4 5970   3.078   0.591  17.475 -0.9406  0.7859 -0.0304
  396MPD2    C5 5971   3.017   0.476  17.525 -0.2535 -0.2964  0.1529
  396MPD2     H 5972   3.399   0.479  17.442  1.2716  2.5193  3.5622
  396MPD2    H1 5973   3.010   0.674  17.457  0.0497  1.2131 -1.7503
  396MPD2    H2 5974   3.042   0.276  17.578 -0.6649 -0.3641 -1.7355
  396MPD2    H3 5975   2.911   0.466  17.545 -0.3423  0.5882  0.0984
  396MPD2     N 5976   3.278   0.713  17.389 -0.2382  0.4612 -0.1997
  396MPD2    H5 5977   3.378   0.700  17.395 -0.8252 -4.7755 -1.7594
  396MPD2    N1 5978   3.282   0.231  17.505 -0.1756 -0.5987 -0.2512
  396MPD2    H7 5979   3.220   0.158  17.541 -2.7069  1.4355 -0.4977
  397TMC3    C1 5980   3.419   0.037  17.449  0.6271  0.7784  0.2861
  397TMC3    C2 5981   3.457   4.736  17.324  0.3515  0.1997 -0.6005
  397TMC3    C3 5982   3.423   4.601  17.298 -0.2760  0.4195 -0.5848
  397TMC3    C4 5983   3.335   4.712  17.535  0.1687  0.4622 -0.2922
  397TMC3    C5 5984   3.286   4.594  17.493  0.0583 -0.4663  0.5672
  397TMC3    C6 5985   3.335   4.538  17.379 -0.0139 -0.4645 -0.4268
  397TMC3     C 5986   3.410   0.182  17.463 -0.4284  0.6841  0.3988
  397TMC3     O 5987   3.485   0.250  17.392 -0.4881 -0.1295  0.3703
  397TMC3     H 5988   3.542   0.045  17.281  0.4166  1.5027  1.0818
  397TMC3    H1 5989   3.297   0.017  17.624 -2.1403  3.3324 -2.7757
  397TMC3    H2 5990   3.300   4.436  17.365  1.7997 -1.2543  0.7859
  397TMC3    C7 5991   3.229   4.511  17.601  0.5471 -0.0640  0.9168
  397TMC3    C8 5992   3.462   4.530  17.172 -0.1005 -0.4290 -0.3688
  397TMC3    O1 5993   3.164   4.411  17.567 -0.1699  0.8989 -0.2986
  397TMC3    O2 5994   3.393   4.438  17.135  0.0220 -0.2036 -0.0001
  398MPD2     C 5995   1.237   1.720   0.254  0.7853 -0.1120  0.0072
  398MPD2    C1 5996   1.342   1.674   0.334 -0.3767 -0.1920  0.3989
  398MPD2    C2 5997   1.454   1.753   0.355 -0.7349  0.2982  0.2813
  398MPD2    C3 5998   1.458   1.886   0.311 -0.9696 -0.3721  0.3893
  398MPD2    C4 5999   1.355   1.922   0.232  0.5291  0.4699  0.9187
  398MPD2    C5 6000   1.255   1.840   0.195 -0.2973  0.2191  0.4138
  398MPD2     H 6001   1.534   1.709   0.415  1.3456  0.8896 -2.0470
  398MPD2    H1 6002   1.362   2.015   0.178  0.1771  1.9948  3.5194
  398MPD2    H2 6003   1.158   1.658   0.214 -1.4281  1.9167  1.2181
  398MPD2    H3 6004   1.192   1.878   0.115 -0.0625  1.0984  0.6460
  398MPD2     N 6005   1.555   1.986   0.349 -0.1782  0.2376 -0.4724
  398MPD2    H5 6006   1.549   2.079   0.310 -1.2789 -0.1331 -1.2089
  398MPD2    N1 6007   1.347   1.543   0.377 -0.3839 -0.4237  0.4548
  398MPD2    H7 6008   1.431   1.507   0.419  1.4265  2.1366 -0.9754
  399TMC3    C1 6009   1.253   1.339   0.460 -0.1454  0.2139  0.2001
  399TMC3    C2 6010   1.374   1.270   0.463  0.0778  0.1195 -0.1957
  399TMC3    C3 6011   1.371   1.145   0.515 -0.4139  0.3273  0.1808
  399TMC3    C4 6012   1.140   1.286   0.525 -0.3382 -0.3367  0.9583
  399TMC3    C5 6013   1.144   1.157   0.564  0.2464  0.0244 -0.0736
  399TMC3    C6 6014   1.258   1.087   0.572 -0.3414 -0.2080  0.0574
  399TMC3     C 6015   1.238   1.460   0.390  0.0135  0.3199  0.0382
  399TMC3     O 6016   1.122   1.490   0.395  0.3054 -0.3855 -0.3211
  399TMC3     H 6017   1.467   1.313   0.426  0.0942  0.1423 -0.1281
  399TMC3    H1 6018   1.044   1.336   0.527  0.4748  1.5104 -4.1162
  399TMC3    H2 6019   1.249   0.985   0.608 -0.8982 -0.9606 -2.2305
  399TMC3    C7 6020   1.024   1.092   0.619  0.0963  0.3189  0.3413
  399TMC3    C8 6021   1.488   1.069   0.508  0.2642  0.3461  0.1143
  399TMC3    O1 6022   1.016   0.969   0.610  0.7216  0.0437 -0.1813
  399TMC3    O2 6023   1.579   1.135   0.459 -0.0728 -0.7708  0.1505
  400TMC3    C1 6024   0.055   0.070  16.944  0.4696  0.3220  0.2518
  400TMC3    C2 6025   4.738   4.706  16.886 -0.2189  0.7220 -0.7527
  400TMC3    C3 6026   4.632   4.736  16.802  0.1209 -0.9575 -0.2816
  400TMC3    C4 6027   0.008   0.198  16.935 -0.7956  0.0466 -0.1263
  400TMC3    C5 6028   4.646   0.227  16.861 -0.6091 -0.0873  0.3472
  400TMC3    C6 6029   4.587   0.124  16.790  0.4274 -0.2871 -0.1845
  400TMC3     C 6030   0.122   0.038  17.068  0.3084 -0.6937 -0.0239
  400TMC3     O 6031   0.142   4.661  17.097  0.5425  0.3770 -0.2778
  400TMC3     H 6032   0.039   4.608  16.907 -0.8117  0.4706 -0.7197
  400TMC3    H1 6033   0.064   0.283  16.973 -3.0079  2.2360 -1.7624
  400TMC3    H2 6034   4.489   0.140  16.747  1.0980 -0.8380 -1.9227
  400TMC3    C7 6035   4.611   0.364  16.847  0.5254 -0.3619  0.2722
  400TMC3    C8 6036   4.536   4.637  16.774  1.3587  0.0416  0.7979
  400TMC3    O1 6037   4.642   0.444  16.931 -0.0326  0.4346 -0.0347
  400TMC3    O2 6038   4.460   4.669  16.680  0.6941 -0.2785  0.1622
  401MPD2     C 6039   2.957   3.390   0.895 -0.1267  0.7429  0.7162
  401MPD2    C1 6040   3.077   3.335   0.929 -0.0876 -0.2558  0.6750
  401MPD2    C2 6041   3.104   3.206   0.900  0.0673 -0.3277 -0.3373
  401MPD2    C3 6042   3.016   3.131   0.834 -0.9846  0.0057  0.2351
  401MPD2    C4 6043   2.895   3.181   0.802  1.0294  0.2103 -0.5152
  401MPD2    C5 6044   2.865   3.314   0.831 -0.3653  0.1032  0.2136
  401MPD2     H 6045   3.204   3.172   0.922 -0.2800 -1.5487 -0.6443
  401MPD2    H1 6046   2.823   3.116   0.755 -1.0022  1.3680  0.9908
  401MPD2    H2 6047   2.925   3.492   0.910 -0.1191  0.6623  1.2909
  401MPD2    H3 6048   2.765   3.352   0.817  0.3370  2.0339  0.4633
  401MPD2     N 6049   3.057   3.002   0.781  0.2560  0.3988 -0.5483
  401MPD2    H5 6050   3.136   2.950   0.819  0.3058  0.6494 -0.3104
  401MPD2    N1 6051   3.183   3.404   0.995  0.1803 -0.4399 -0.3418
  401MPD2    H7 6052   3.269   3.352   1.012  1.4399  1.5366 -0.7152
  402TMC3    C1 6053   3.014   2.795   0.680 -0.0057  0.2645 -0.4442
  402TMC3    C2 6054   3.091   2.732   0.776 -0.0975  0.2402  0.2136
  402TMC3    C3 6055   3.104   2.597   0.751 -0.0018 -0.2191  0.3451
  402TMC3    C4 6056   2.964   2.732   0.569 -1.0680  0.1827 -0.5243
  402TMC3    C5 6057   2.975   2.596   0.552 -0.6652  0.1454  0.5260
  402TMC3    C6 6058   3.048   2.537   0.646  0.5134  0.6920 -0.0848
  402TMC3     C 6059   2.990   2.940   0.681 -0.0828  0.2638  1.0483
  402TMC3     O 6060   2.913   2.982   0.597 -0.5442  0.1619 -0.6982
  402TMC3     H 6061   3.116   2.784   0.868  0.2337 -0.0168  0.2673
  402TMC3    H1 6062   2.894   2.784   0.503 -0.7641  0.4253 -0.6552
  402TMC3    H2 6063   3.073   2.432   0.646 -1.5535  0.1880  0.0688
  402TMC3    C7 6064   2.952   2.538   0.424  0.7385  0.0080 -0.2307
  402TMC3    C8 6065   3.194   2.515   0.834 -0.6091 -0.3292 -0.1429
  402TMC3    O1 6066   2.865   2.591   0.359  0.3279  0.8386  0.1116
  402TMC3    O2 6067   3.200   2.394   0.817  0.3987 -0.1854  0.0711
  403MPD2     C 6068   1.452   1.001  13.274  0.2705 -0.0792  0.4360
  403MPD2    C1 6069   1.474   0.917  13.380 -0.3882  0.3770  0.2239
  403MPD2    C2 6070   1.598   0.930  13.448  0.3323 -0.4846 -0.2068
  403MPD2    C3 6071   1.690   1.017  13.403  0.2505 -0.5967  0.2780
  403MPD2    C4 6072   1.668   1.091  13.291 -0.4542  0.3992  0.2594
  403MPD2    C5 6073   1.551   1.084  13.229 -0.3084 -0.1258 -0.0269
  403MPD2     H 6074   1.623   0.870  13.535 -1.5497 -0.5922  0.2726
  403MPD2    H1 6075   1.736   1.161  13.243  0.8035 -0.9309  0.1249
  403MPD2    H2 6076   1.357   0.998  13.222 -0.6644 -1.1614  2.2052
  403MPD2    H3 6077   1.552   1.144  13.138 -3.3667 -0.0340  0.0060
  403MPD2     N 6078   1.815   1.035  13.479  0.5234  0.1349 -0.0427
  403MPD2    H5 6079   1.820   0.973  13.560 -2.8948 -0.4428 -0.3027
  403MPD2    N1 6080   1.366   0.831  13.413 -0.3347 -0.5480  0.2528
  403MPD2    H7 6081   1.276   0.853  13.371  1.3162  1.8511 -2.0687
  404TMC3    C1 6082   1.246   0.665  13.537 -0.4659 -0.4180 -0.3629
  404TMC3    C2 6083   1.226   0.628  13.667 -0.1012  0.1682  0.1916
  404TMC3    C3 6084   1.103   0.586  13.704 -0.7102 -0.0730 -1.1470
  404TMC3    C4 6085   1.149   0.652  13.436  0.4144 -0.3646  0.2207
  404TMC3    C5 6086   1.030   0.613  13.485 -1.0469 -0.5805 -0.0610
  404TMC3    C6 6087   0.998   0.584  13.617 -1.0874  0.2899 -0.6074
  404TMC3     C 6088   1.374   0.724  13.506 -0.6220  0.3550 -0.2780
  404TMC3     O 6089   1.462   0.670  13.570  0.3035 -0.0976 -0.1244
  404TMC3     H 6090   1.306   0.662  13.733 -0.0501 -0.5974  0.5239
  404TMC3    H1 6091   1.159   0.684  13.333  1.5409  1.5705  0.9285
  404TMC3    H2 6092   0.896   0.552  13.635 -1.1908  1.8850  1.5436
  404TMC3    C7 6093   0.913   0.609  13.396 -0.4997 -0.3552  0.9468
  404TMC3    C8 6094   1.071   0.580  13.851  0.3902  0.2074 -0.2041
  404TMC3    O1 6095   0.810   0.628  13.452 -0.6398 -0.4628  0.4410
  404TMC3    O2 6096   0.952   0.572  13.884  0.0344  0.0201  0.2450
  405MPD2     C 6097   1.980   1.870  14.776 -0.6660  0.4335  0.4074
  405MPD2    C1 6098   1.880   1.781  14.765 -0.6475 -0.1239 -1.4243
  405MPD2    C2 6099   1.770   1.817  14.686  0.1218 -0.4792 -0.5295
  405MPD2    C3 6100   1.773   1.927  14.601 -0.4489 -0.2813  0.4997
  405MPD2    C4 6101   1.879   2.016  14.615  0.7537 -0.5822 -0.5969
  405MPD2    C5 6102   1.978   1.984  14.701  0.2216  0.3344  0.0811
  405MPD2     H 6103   1.689   1.748  14.670  0.3657 -0.3710 -2.1419
  405MPD2    H1 6104   1.898   2.112  14.568  0.7509 -0.1817  0.2311
  405MPD2    H2 6105   2.071   1.861  14.833  0.9311 -1.4786 -2.4897
  405MPD2    H3 6106   2.058   2.058  14.708  0.4438  0.1248 -0.2383
  405MPD2     N 6107   1.661   1.952  14.522 -0.2378 -0.0141  1.2029
  405MPD2    H5 6108   1.585   1.885  14.523  0.2639 -0.5894  0.4499
  405MPD2    N1 6109   1.893   1.652  14.823 -0.2045 -0.2084 -0.6147
  405MPD2    H7 6110   1.986   1.633  14.859 -1.0733  0.4662  2.0130
  406TMC3    C1 6111   1.376   2.096  14.203  0.3218  0.1603 -0.7604
  406TMC3    C2 6112   1.356   1.965  14.168  0.5369  0.1737 -0.0432
  406TMC3    C3 6113   1.459   1.876  14.194  0.0860 -0.6536  0.1782
  406TMC3    C4 6114   1.477   2.134  14.286  0.3105 -0.5321  0.0396
  406TMC3    C5 6115   1.555   2.033  14.333  0.6800 -0.3316 -0.1707
  406TMC3    C6 6116   1.558   1.910  14.290 -0.1051  0.0369  0.5311
  406TMC3     C 6117   1.258   2.177  14.207  0.5015 -0.4097 -0.1055
  406TMC3     O 6118   1.280   2.291  14.167  0.1258 -0.1049 -0.3751
  406TMC3     H 6119   1.277   1.938  14.098 -1.2029 -0.2834  2.0902
  406TMC3    H1 6120   1.484   2.234  14.326 -1.5431  0.0900 -1.1681
  406TMC3    H2 6121   1.655   1.862  14.292  0.0179  0.3276  1.7862
  406TMC3    C7 6122   1.643   2.064  14.443 -0.4197  0.0281  0.1591
  406TMC3    C8 6123   1.414   1.735  14.192 -0.2694 -0.4984  0.4943
  406TMC3    O1 6124   1.708   2.165  14.431 -0.1730  0.0360  0.1620
  406TMC3    O2 6125   1.300   1.705  14.156 -0.4856  0.1602 -0.4614
  407MPD2     C 6126   3.543   2.703   9.883  0.3072 -0.0573  0.5298
  407MPD2    C1 6127   3.661   2.768   9.911  0.1936  0.0582 -0.6667
  407MPD2    C2 6128   3.680   2.840  10.029 -0.4166  0.3686 -0.8551
  407MPD2    C3 6129   3.581   2.845  10.122  0.4008  0.0396 -0.4258
  407MPD2    C4 6130   3.459   2.783  10.093 -0.2216 -0.8637 -0.4488
  407MPD2    C5 6131   3.440   2.714   9.981 -0.9224  0.4534 -0.3263
  407MPD2     H 6132   3.767   2.905  10.032 -1.9961  2.3636  2.4916
  407MPD2    H1 6133   3.381   2.776  10.169 -1.3432  1.5039 -1.3791
  407MPD2    H2 6134   3.523   2.648   9.792  0.1735 -0.4756  0.8136
  407MPD2    H3 6135   3.344   2.669   9.959 -0.5035 -0.2857 -0.6607
  407MPD2     N 6136   3.584   2.926  10.237  0.1242  0.0464 -0.6083
  407MPD2    H5 6137   3.498   2.953  10.284  1.4351  0.6720  1.4197
  407MPD2    N1 6138   3.777   2.751   9.822  0.2353  0.4007 -0.2602
  407MPD2    H7 6139   3.862   2.802   9.845 -0.9126  2.3138 -0.3195
  408TMC3    C1 6140   3.908   2.660   9.648 -0.1935 -0.6784  0.3891
  408TMC3    C2 6141   3.984   2.549   9.647 -0.4380  0.1928  0.1273
  408TMC3    C3 6142   4.112   2.560   9.610 -0.7634  0.5791 -0.4436
  408TMC3    C4 6143   3.952   2.790   9.622 -0.2878  0.3119 -0.7458
  408TMC3    C5 6144   4.084   2.794   9.594 -0.2512 -0.0966 -0.3983
  408TMC3    C6 6145   4.168   2.683   9.589  0.2268  0.0371  0.4178
  408TMC3     C 6146   3.785   2.654   9.722  0.4117  0.0850  0.6021
  408TMC3     O 6147   3.716   2.554   9.699  0.0965 -0.2312 -0.3814
  408TMC3     H 6148   3.941   2.457   9.685 -0.9321 -0.0539 -1.0155
  408TMC3    H1 6149   3.888   2.873   9.648  0.6851  0.5796  0.7334
  408TMC3    H2 6150   4.268   2.694   9.549  0.4700 -2.6911  0.2677
  408TMC3    C7 6151   4.147   2.912   9.650  0.5707  0.2075  0.2807
  408TMC3    C8 6152   4.192   2.475   9.693 -0.1546  0.5822 -0.0813
  408TMC3    O1 6153   4.264   2.892   9.683 -0.1220  0.1258  0.4928
  408TMC3    O2 6154   4.160   2.361   9.716 -0.6569  0.6767 -0.3633
  409MPD2     C 6155   3.478   4.099  16.891  0.1302 -0.2688  0.4228
  409MPD2    C1 6156   3.578   4.096  16.983 -0.4551  0.0659 -0.4524
  409MPD2    C2 6157   3.686   4.181  16.955 -0.6302 -0.5523  0.5929
  409MPD2    C3 6158   3.696   4.249  16.834 -0.0820 -0.1429 -0.1555
  409MPD2    C4 6159   3.606   4.231  16.733  0.7419  0.1924 -0.2324
  409MPD2    C5 6160   3.491   4.162  16.768  0.0198 -0.6022  0.2472
  409MPD2     H 6161   3.758   4.173  17.035 -0.4119 -0.0142  0.4504
  409MPD2    H1 6162   3.609   4.283  16.638  1.4394  0.8050  0.1217
  409MPD2    H2 6163   3.386   4.042  16.902 -0.0374 -0.3036 -1.1231
  409MPD2    H3 6164   3.416   4.149  16.690  1.4587  0.9359 -1.4027
  409MPD2     N 6165   3.804   4.333  16.800  0.1828  0.4288  0.2606
  409MPD2    H5 6166   3.798   4.383  16.712  1.4095  1.7396  0.9042
  409MPD2    N1 6167   3.578   4.030  17.110  0.2657 -0.2207  0.0665
  409MPD2    H7 6168   3.661   4.041  17.167 -0.5604 -2.2408  1.6469
  410TMC3    C1 6169   3.978   4.472  16.835 -0.1185 -0.3379 -0.0230
  410TMC3    C2 6170   4.050   4.541  16.928 -0.2123 -0.9373 -0.5551
  410TMC3    C3 6171   4.104   4.662  16.882  0.3824 -0.5952 -0.1863
  410TMC3    C4 6172   3.967   4.510  16.704 -0.6191  0.1693 -0.1198
  410TMC3    C5 6173   4.046   4.620  16.661  0.1073 -0.0300 -0.5929
  410TMC3    C6 6174   4.117   4.693  16.747  0.7244 -0.4975  0.8857
  410TMC3     C 6175   3.896   4.372  16.893 -0.3755  0.4153 -0.1833
  410TMC3     O 6176   3.920   4.335  17.004  0.1103  0.4051  0.2875
  410TMC3     H 6177   4.055   4.514  17.033  1.6263 -1.0437 -0.6822
  410TMC3    H1 6178   3.912   4.458  16.626  0.1261 -2.5866  1.2003
  410TMC3    H2 6179   4.178   0.032  16.710 -1.2586  0.5019 -0.2008
  410TMC3    C7 6180   4.044   4.644  16.519 -0.6124  0.6729  0.6966
  410TMC3    C8 6181   4.215   4.710  16.972 -1.0093 -0.1554  0.7945
  410TMC3    O1 6182   4.033   4.544  16.449 -0.1103 -0.6610  0.1206
  410TMC3    O2 6183   4.239   0.084  16.948  0.6192  0.5183 -0.1399
  411MPD2     C 6184   3.292   4.488  14.147 -0.1700  0.0402 -0.8309
  411MPD2    C1 6185   3.328   4.457  14.277 -0.5565  0.5176 -0.3044
  411MPD2    C2 6186   3.270   4.359  14.349 -0.4116  0.1948 -0.5065
  411MPD2    C3 6187   3.158   4.295  14.294 -0.4811  0.9169 -0.1453
  411MPD2    C4 6188   3.124   4.324  14.162 -0.2261 -0.1506  0.4105
  411MPD2    C5 6189   3.189   4.425  14.090 -0.8685  0.2458  0.0655
  411MPD2     H 6190   3.295   4.345  14.454 -0.8455 -0.7687 -0.5311
  411MPD2    H1 6191   3.030   4.295  14.117 -0.8804  2.9929 -0.3035
  411MPD2    H2 6192   3.336   4.570  14.092  1.4254  0.9221  1.7370
  411MPD2    H3 6193   3.158   4.466  13.995  0.5416 -3.3062 -1.9267
  411MPD2     N 6194   3.068   4.208  14.366  0.1483  0.5955  0.1057
  411MPD2    H5 6195   2.989   4.174  14.312  0.5318  0.1679 -0.1838
  411MPD2    N1 6196   3.425   4.549  14.334 -0.0947  0.3922 -0.5043
  411MPD2    H7 6197   3.470   4.618  14.275  1.2198  0.2545  0.3369
  412TMC3    C1 6198   2.995   4.081  14.542 -0.2924 -0.3694 -0.2242
  412TMC3    C2 6199   2.917   4.083  14.660  0.4018  0.7580  0.6260
  412TMC3    C3 6200   2.842   3.969  14.684 -0.9236 -0.3304 -0.0151
  412TMC3    C4 6201   2.989   3.976  14.462 -0.1316 -0.1570  0.7225
  412TMC3    C5 6202   2.919   3.865  14.491 -0.1057  0.0147  1.1325
  412TMC3    C6 6203   2.848   3.860  14.603 -0.5527  0.3619 -0.1472
  412TMC3     C 6204   3.068   4.197  14.501 -0.1605 -0.0809 -0.2057
  412TMC3     O 6205   3.100   4.275  14.588  0.4084 -0.1346  0.2510
  412TMC3     H 6206   2.930   4.159  14.736 -0.6030  0.8326  0.7123
  412TMC3    H1 6207   3.046   3.976  14.370  1.0586 -1.4016  1.4592
  412TMC3    H2 6208   2.791   3.773  14.631  0.1340 -0.5456 -1.5480
  412TMC3    C7 6209   2.850   3.797  14.384  0.3575  0.6521  0.3022
  412TMC3    C8 6210   2.704   4.003  14.733  0.7361  0.6206  0.5851
  412TMC3    O1 6211   2.738   3.759  14.415 -0.3916 -0.5375  0.3098
  412TMC3    O2 6212   2.691   4.091  14.821 -0.3705 -0.0125  0.1585
  413MPD2     C 6213   0.684   3.105  15.525  0.2672 -0.3668  0.2103
  413MPD2    C1 6214   0.627   3.044  15.414  0.8631 -0.3768  0.2432
  413MPD2    C2 6215   0.706   2.964  15.333 -0.4263  0.2408  0.2077
  413MPD2    C3 6216   0.837   2.931  15.369 -0.1789  0.4083 -0.1572
  413MPD2    C4 6217   0.893   2.993  15.475  0.0979 -0.8527  0.2377
  413MPD2    C5 6218   0.813   3.072  15.555  0.5830  0.1219 -0.1714
  413MPD2     H 6219   0.655   2.914  15.251 -0.7679  1.3164 -0.2333
  413MPD2    H1 6220   0.994   2.979  15.512  0.4310 -0.9101 -0.6818
  413MPD2    H2 6221   0.642   3.181  15.591 -0.8406 -1.2616  0.5435
  413MPD2    H3 6222   0.867   3.132  15.628  0.7111  0.0027 -0.1689
  413MPD2     N 6223   0.910   2.839  15.288  0.0781 -0.0111  0.3006
  413MPD2    H5 6224   0.853   2.793  15.217 -1.6847  0.5796  1.3226
  413MPD2    N1 6225   0.500   3.080  15.385 -0.4036  0.0973  0.3419
  413MPD2    H7 6226   0.457   3.142  15.454 -0.9256  2.3876 -2.0385
  414TMC3    C1 6227   1.061   2.684  15.214 -0.2611 -0.0304  0.2881
  414TMC3    C2 6228   1.148   2.580  15.247 -0.3384 -0.1688  0.8857
  414TMC3    C3 6229   1.166   2.475  15.155  0.1657 -0.2871 -0.2434
  414TMC3    C4 6230   0.995   2.684  15.093  0.1233  0.0593  0.2080
  414TMC3    C5 6231   1.025   2.585  14.996 -0.1550 -0.7810 -0.2439
  414TMC3    C6 6232   1.096   2.477  15.036 -0.3111 -0.1290  0.4078
  414TMC3     C 6233   1.032   2.793  15.310 -0.0132 -0.1319  0.4262
  414TMC3     O 6234   1.103   2.796  15.407 -0.2618 -0.7106  0.0623
  414TMC3     H 6235   1.196   2.585  15.345  1.2116  1.1859  0.0738
  414TMC3    H1 6236   0.936   2.771  15.065  0.7600  0.6042  0.5695
  414TMC3    H2 6237   1.105   2.391  14.972  3.2760  0.2845  0.3634
  414TMC3    C7 6238   0.954   2.608  14.872 -0.1528  0.6972  0.1327
  414TMC3    C8 6239   1.294   2.405  15.165  0.1224  0.5707  0.7032
  414TMC3    O1 6240   0.859   2.683  14.881 -0.4586  0.0266  0.2081
  414TMC3    O2 6241   1.313   2.322  15.077 -0.3232  0.2909 -0.2606
  415TMC3    C1 6242   1.144   0.549  10.197  0.4246 -0.2682  0.0218
  415TMC3    C2 6243   1.266   0.561  10.150  0.1909  0.0570  0.2405
  415TMC3    C3 6244   1.290   0.677  10.079  0.0760  1.4440 -0.2277
  415TMC3    C4 6245   1.040   0.628  10.168  0.3284  0.2341  0.1926
  415TMC3    C5 6246   1.070   0.732  10.093  0.1518 -0.2312  0.2256
  415TMC3    C6 6247   1.196   0.762  10.050 -0.5569 -0.1128 -0.1524
  415TMC3     C 6248   1.115   0.427  10.279  0.3500 -0.2387 -0.2329
  415TMC3     O 6249   1.191   0.333  10.264  0.0886 -0.4049 -0.5071
  415TMC3     H 6250   1.346   0.495  10.180  1.3863  1.0753 -0.6822
  415TMC3    H1 6251   0.940   0.598  10.198 -0.9145  4.3387  0.1342
  415TMC3    H2 6252   1.224   0.835   9.975 -1.0480 -0.8930 -1.0978
  415TMC3    C7 6253   0.970   0.783   9.998 -0.4999 -0.1929 -0.8513
  415TMC3    C8 6254   1.429   0.711  10.053 -0.2839 -0.1799 -0.3181
  415TMC3    O1 6255   1.020   0.853   9.908 -0.2132 -0.3963 -0.2631
  415TMC3    O2 6256   1.502   0.612  10.032  0.1567 -0.0459  0.4669
  416MPD2     C 6257   2.980   4.388  11.622  0.0846  0.7040  1.0697
  416MPD2    C1 6258   2.872   4.303  11.611 -0.8845  0.2668 -0.2024
  416MPD2    C2 6259   2.877   4.203  11.511 -0.2296 -0.6084  0.1250
  416MPD2    C3 6260   2.967   4.216  11.411  0.0697 -0.5303  0.8910
  416MPD2    C4 6261   3.057   4.318  11.408  0.1298 -0.2224 -0.4583
  416MPD2    C5 6262   3.076   4.392  11.525  0.4796  0.1820  0.3426
  416MPD2     H 6263   2.804   4.125  11.495  2.2393 -2.4818 -2.2383
  416MPD2    H1 6264   3.128   4.341  11.330  0.2010  0.8834 -0.0738
  416MPD2    H2 6265   2.986   4.458  11.705  0.3803  2.2866 -0.2884
  416MPD2    H3 6266   3.164   4.454  11.533 -1.4443  2.7629  1.2214
  416MPD2     N 6267   2.959   4.117  11.313  0.2790 -0.1622 -1.1247
  416MPD2    H5 6268   2.894   4.039  11.323  0.6985 -0.4634 -0.7452
  416MPD2    N1 6269   2.763   4.321  11.694 -0.5584  0.1444  0.1574
  416MPD2    H7 6270   2.773   4.379  11.777 -0.5537 -2.8540  2.2772
  417TMC3    C1 6271   2.539   4.275  11.789 -0.6031  0.2827 -0.1805
  417TMC3    C2 6272   2.578   4.362  11.888 -0.3030  0.0627  0.1247
  417TMC3    C3 6273   2.485   4.447  11.937  0.3158 -0.0927  0.2777
  417TMC3    C4 6274   2.410   4.259  11.752  0.4025 -0.0102 -0.6354
  417TMC3    C5 6275   2.320   4.353  11.795  0.3152 -0.2773  0.0952
  417TMC3    C6 6276   2.354   4.443  11.887 -0.3536 -0.6042  0.3034
  417TMC3     C 6277   2.640   4.249  11.682  0.2408  0.2271 -0.1400
  417TMC3     O 6278   2.608   4.188  11.582  0.6756  0.0437  0.6034
  417TMC3     H 6279   2.676   4.340  11.929 -0.8719  0.5311  1.7370
  417TMC3    H1 6280   2.383   4.195  11.669 -0.2110 -1.2496  0.5181
  417TMC3    H2 6281   2.285   4.511  11.935 -1.5762 -1.5300 -0.1604
  417TMC3    C7 6282   2.220   4.390  11.694  0.2974 -0.2875 -0.5773
  417TMC3    C8 6283   2.507   4.562  12.030 -0.3548  0.3951  0.6954
  417TMC3    O1 6284   2.213   4.507  11.654 -0.7637 -0.4088  0.4316
  417TMC3    O2 6285   2.407   4.613  12.083 -0.3102  0.9796 -0.5157
  418TMC3    C1 6286   1.926   2.156   0.347  0.6328 -0.6294 -0.0286
  418TMC3    C2 6287   1.792   2.111   0.347 -0.7865  0.6656 -0.6801
  418TMC3    C3 6288   1.748   2.048   0.460 -0.5410 -0.2114 -0.5375
  418TMC3    C4 6289   2.010   2.127   0.453  0.6829 -0.4514 -1.1099
  418TMC3    C5 6290   1.959   2.071   0.565 -0.4168 -0.5015  0.3916
  418TMC3    C6 6291   1.830   2.026   0.570  0.1015  0.3883 -0.4250
  418TMC3     C 6292   1.973   2.166   0.210 -0.1209 -0.9470 -0.3307
  418TMC3     O 6293   1.923   2.250   0.136  0.0718  0.0000 -0.0057
  418TMC3     H 6294   1.719   2.142   0.273 -1.4469  1.4655  0.3083
  418TMC3    H1 6295   2.116   2.146   0.444  1.1437 -1.5321  2.1397
  418TMC3    H2 6296   1.796   1.981   0.662 -0.9881  0.4789 -0.7852
  418TMC3    C7 6297   2.059   2.015   0.660  0.1950 -0.2466  0.1832
  418TMC3    C8 6298   1.644   1.955   0.446 -0.2970 -0.1672  0.8033
  418TMC3    O1 6299   2.172   2.050   0.649 -0.2301 -0.3490 -0.2988
  418TMC3    O2 6300   1.647   1.857   0.520  0.0845 -0.2151 -0.0616
  419MPD2     C 6301   0.515   4.008  12.268 -0.1222 -0.3644 -0.1186
  419MPD2    C1 6302   0.415   4.098  12.262 -1.2364  0.7413  0.2466
  419MPD2    C2 6303   0.376   4.145  12.388  0.4279 -0.0573  0.6283
  419MPD2    C3 6304   0.433   4.104  12.508  0.1403  0.6043 -0.0992
  419MPD2    C4 6305   0.527   4.008  12.511 -0.2956 -0.6559 -0.9316
  419MPD2    C5 6306   0.564   3.962  12.392 -0.2484  0.2601  0.3764
  419MPD2     H 6307   0.299   4.221  12.392  0.4197  0.1333 -2.7934
  419MPD2    H1 6308   0.579   3.965  12.596  1.1327 -0.3773 -1.6624
  419MPD2    H2 6309   0.568   3.973  12.181 -1.3850 -2.0755 -0.1877
  419MPD2    H3 6310   0.634   3.879  12.388 -2.1150 -1.3661  1.8205
  419MPD2     N 6311   0.376   4.160  12.624 -0.0812 -0.8575 -0.0635
  419MPD2    H5 6312   0.316   4.241  12.612  0.2785 -0.7021 -0.7700
  419MPD2    N1 6313   0.355   4.154  12.149 -0.0630 -0.8323 -0.5289
  419MPD2    H7 6314   0.276   4.216  12.166  1.6835  1.9728 -2.6236
  420TMC3    C1 6315   0.352   4.230  12.856 -0.5494  0.1300  0.1391
  420TMC3    C2 6316   0.266   4.330  12.821 -0.0450  0.0012 -0.2050
  420TMC3    C3 6317   0.213   4.412  12.917  0.5268 -0.4405  0.2646
  420TMC3    C4 6318   0.382   4.211  12.991 -0.0795  0.0154 -0.1885
  420TMC3    C5 6319   0.316   4.284  13.088  0.2954  1.0504 -0.0382
  420TMC3    C6 6320   0.231   4.390  13.051 -0.0583  0.3556  0.4453
  420TMC3     C 6321   0.413   4.140  12.756  0.1310 -0.3190  0.3363
  420TMC3     O 6322   0.479   4.046  12.796  0.1986 -0.1043 -0.4338
  420TMC3     H 6323   0.242   4.348  12.716  2.1897 -1.2296 -0.9289
  420TMC3    H1 6324   0.450   4.129  13.012 -0.3622 -0.2527 -0.3180
  420TMC3    H2 6325   0.182   4.453  13.124 -1.6519  0.8050 -1.0162
  420TMC3    C7 6326   0.362   4.266  13.222 -0.1416  1.0241 -0.0935
  420TMC3    C8 6327   0.168   4.546  12.877  0.0001 -0.9949  0.4879
  420TMC3    O1 6328   0.275   4.296  13.303 -0.2667 -0.8545  0.1129
  420TMC3    O2 6329   0.111   4.608  12.967  0.6905  0.4833  0.9527
  421TMC3    C1 6330   2.026   1.107  13.528 -0.3228 -0.6280 -0.5595
  421TMC3    C2 6331   2.083   1.226  13.559 -0.5687 -0.3437 -0.1656
  421TMC3    C3 6332   2.202   1.224  13.624 -0.0440 -1.2152 -0.3514
  421TMC3    C4 6333   2.093   0.990  13.544 -0.2890  0.0991 -0.2718
  421TMC3    C5 6334   2.217   0.990  13.600  0.4681 -0.2418 -0.5131
  421TMC3    C6 6335   2.274   1.110  13.634  0.5722  0.0834 -0.3739
  421TMC3     C 6336   1.914   1.122  13.446 -0.3470  0.4971  0.4073
  421TMC3     O 6337   1.929   1.205  13.357  0.4047  0.2610  0.3034
  421TMC3     H 6338   2.027   1.318  13.549  0.4642  0.3884  0.7490
  421TMC3    H1 6339   2.053   0.899  13.501 -2.0030  1.2880 -1.1630
  421TMC3    H2 6340   2.373   1.114  13.679  1.3579 -1.3465 -2.0162
  421TMC3    C7 6341   2.278   0.876  13.670 -0.1041  0.1888 -0.0116
  421TMC3    C8 6342   2.248   1.341  13.696 -0.0253 -0.1398  0.0797
  421TMC3    O1 6343   2.391   0.897  13.717 -0.2053  0.4988  0.3063
  421TMC3    O2 6344   2.364   1.374  13.687  0.0461 -0.3165  0.6495
  422TMC3    C1 6345   4.124   2.760  12.634  0.6185  0.3411  0.2881
  422TMC3    C2 6346   4.071   2.850  12.723 -0.2764  0.0262  0.9457
  422TMC3    C3 6347   3.938   2.856  12.744 -0.2587 -0.2498 -0.1368
  422TMC3    C4 6348   4.043   2.664  12.576 -0.2242 -0.0862 -0.0671
  422TMC3    C5 6349   3.910   2.667  12.612  0.0146  0.0255 -0.0955
  422TMC3    C6 6350   3.853   2.764  12.689  1.1928 -0.3279 -0.0906
  422TMC3     C 6351   4.267   2.755  12.624 -0.4070  0.0434  0.4136
  422TMC3     O 6352   4.345   2.783  12.719  0.1500 -0.0275  0.7814
  422TMC3     H 6353   4.144   2.921  12.762 -0.0087  1.1041 -1.4797
  422TMC3    H1 6354   4.077   2.592  12.503 -0.0068  2.5818 -2.5782
  422TMC3    H2 6355   3.746   2.775  12.703  1.4163 -0.9637  2.0545
  422TMC3    C7 6356   3.823   2.566  12.553 -0.9566  0.3382 -0.3136
  422TMC3    C8 6357   3.892   2.946  12.847 -0.4345 -0.6723 -0.2881
  422TMC3    O1 6358   3.868   2.495  12.463  0.1520 -0.3369 -0.3649
  422TMC3    O2 6359   3.951   3.048  12.874  0.1651 -0.3470 -0.4343
  423MPD2     C 6360   0.730   3.865   0.553 -0.5245 -0.1869  1.0236
  423MPD2    C1 6361   0.835   3.896   0.472 -0.5728 -0.0056  0.0832
  423MPD2    C2 6362   0.862   3.818   0.359 -0.2155  0.3010 -0.1731
  423MPD2    C3 6363   0.766   3.717   0.325  0.2389 -0.3627 -0.6999
  423MPD2    C4 6364   0.664   3.692   0.417  0.2990 -0.4878  0.2935
  423MPD2    C5 6365   0.647   3.767   0.526  0.2622  0.7811  0.1662
  423MPD2     H 6366   0.945   3.846   0.295  0.6110 -0.1989  0.6829
  423MPD2    H1 6367   0.594   3.610   0.404  1.5433 -1.2556 -1.6619
  423MPD2    H2 6368   0.714   3.925   0.642 -1.2962  1.1906 -0.0424
  423MPD2    H3 6369   0.564   3.748   0.593  1.4265 -1.5098  0.9652
  423MPD2     N 6370   0.768   3.642   0.209 -0.0811  0.4480 -0.0884
  423MPD2    H5 6371   0.687   3.587   0.183  0.6975 -0.5561 -0.4060
  423MPD2    N1 6372   0.925   4.005   0.497  0.5416 -0.7883  0.3281
  423MPD2    H7 6373   1.009   4.002   0.440  0.9570 -2.9702  1.0599
  424TMC3    C1 6374   1.062   4.149   0.617  0.2605  0.4526 -0.5269
  424TMC3    C2 6375   1.178   4.085   0.566 -0.1502  0.8097  0.1661
  424TMC3    C3 6376   1.295   4.123   0.619  0.6556  0.4718  0.5831
  424TMC3    C4 6377   1.071   4.256   0.706 -0.2385 -0.3068 -0.6255
  424TMC3    C5 6378   1.198   4.284   0.754  0.6992  0.2216  0.3032
  424TMC3    C6 6379   1.307   4.217   0.713  0.4082  0.4612 -0.3201
  424TMC3     C 6380   0.926   4.099   0.600  0.2752  0.2330 -0.0366
  424TMC3     O 6381   0.828   4.140   0.662 -0.5293  0.1445  0.4568
  424TMC3     H 6382   1.162   4.007   0.492 -0.5931  1.3742 -0.3312
  424TMC3    H1 6383   0.984   4.302   0.751  1.0037  2.5258 -1.1563
  424TMC3    H2 6384   1.402   4.248   0.755 -0.3066  1.0654  0.8572
  424TMC3    C7 6385   1.194   4.314   0.891  0.7115  0.5273  0.4349
  424TMC3    C8 6386   1.390   4.013   0.621 -0.1724 -0.1077 -0.0577
  424TMC3    O1 6387   1.174   4.433   0.919 -0.2666 -0.8132 -0.5604
  424TMC3    O2 6388   1.348   3.905   0.574  0.8471  0.0712 -0.6408
  425MPD2     C 6389   4.289   3.149  17.232  0.4222  0.1201  0.6114
  425MPD2    C1 6390   4.226   3.028  17.252  0.5712  0.3092  0.5986
  425MPD2    C2 6391   4.098   3.033  17.311 -0.4134  0.2650 -0.7475
  425MPD2    C3 6392   4.042   3.153  17.341  0.5396 -0.0545  0.0267
  425MPD2    C4 6393   4.109   3.274  17.329  0.2487  0.0488  0.6648
  425MPD2    C5 6394   4.230   3.268  17.267 -0.4505  0.0158  0.1099
  425MPD2     H 6395   4.045   2.939  17.316 -1.7027  0.9442 -1.5417
  425MPD2    H1 6396   4.064   3.372  17.332 -0.8478 -0.4036 -0.7703
  425MPD2    H2 6397   4.388   3.155  17.188 -0.0207 -2.9270 -0.7488
  425MPD2    H3 6398   4.287   3.357  17.241  0.1551 -0.3962  0.0180
  425MPD2     N 6399   3.910   3.149  17.383 -0.1023 -0.4800 -0.0494
  425MPD2    H5 6400   3.865   3.060  17.365  1.1640 -1.0332 -0.5442
  425MPD2    N1 6401   4.295   2.905  17.235  0.0600  0.4323 -0.1046
  425MPD2    H7 6402   4.390   2.913  17.201  0.3158 -1.3588  0.1868
  426TMC3    C1 6403   4.361   2.682  17.271  0.0848  0.1933  0.9394
  426TMC3    C2 6404   4.408   2.669  17.146 -0.1051  0.5194  0.1946
  426TMC3    C3 6405   4.436   2.537  17.107 -0.1218  0.2145  0.9603
  426TMC3    C4 6406   4.348   2.575  17.357  0.5210  0.1663 -0.7647
  426TMC3    C5 6407   4.385   2.455  17.321  0.2081 -0.1307  0.1666
  426TMC3    C6 6408   4.430   2.427  17.191 -0.4420  0.0838  0.0038
  426TMC3     C 6409   4.259   2.781  17.286  0.7287 -0.0347 -0.1120
  426TMC3     O 6410   4.167   2.754  17.364 -0.0864  0.3202  0.4387
  426TMC3     H 6411   4.406   2.756  17.082  2.9036 -0.2717 -0.9883
  426TMC3    H1 6412   4.322   2.599  17.460  0.9687  0.9871 -0.8380
  426TMC3    H2 6413   4.458   2.326  17.167 -1.0823 -0.1686  0.3222
  426TMC3    C7 6414   4.322   2.352  17.390 -1.0056 -0.4480 -0.2546
  426TMC3    C8 6415   4.484   2.503  16.970  0.0207 -0.2596 -0.8309
  426TMC3    O1 6416   4.384   2.244  17.397 -0.2159  0.3438  0.0263
  426TMC3    O2 6417   4.498   2.385  16.943  0.0606  0.8372  0.5037
  427MPD2     C 6418   2.346   4.102  15.221  0.0430  0.4501  0.0461
  427MPD2    C1 6419   2.464   4.170  15.239  0.0657  0.4385 -0.1421
  427MPD2    C2 6420   2.484   4.291  15.172  0.8176 -0.1611 -0.0290
  427MPD2    C3 6421   2.403   4.331  15.070 -0.0685  0.2631  0.4478
  427MPD2    C4 6422   2.287   4.260  15.044  0.7227  0.5582  0.1598
  427MPD2    C5 6423   2.259   4.151  15.120 -0.6213  0.0065  0.3543
  427MPD2     H 6424   2.580   4.338  15.188  1.1802  0.1083 -3.0394
  427MPD2    H1 6425   2.226   4.284  14.958 -1.4377  3.0004  2.4130
  427MPD2    H2 6426   2.318   4.003  15.256 -0.0837  0.5072  0.1033
  427MPD2    H3 6427   2.166   4.098  15.099  0.5386 -1.6432 -0.6831
  427MPD2     N 6428   2.408   4.457  15.003  0.2540  0.0261  1.1072
  427MPD2    H5 6429   2.315   4.487  14.974 -0.1929 -1.9453  0.4670
  427MPD2    N1 6430   2.551   4.137  15.340  0.1927 -0.1730  0.2760
  427MPD2    H7 6431   2.621   4.208  15.358 -0.3785  1.0060 -2.2481
  428TMC3    C1 6432   2.655   4.045  15.518 -0.3626 -0.4575  0.2815
  428TMC3    C2 6433   2.636   3.983  15.635  0.7017  0.3717  0.1618
  428TMC3    C3 6434   2.729   3.999  15.732  0.0429  0.1514 -0.1958
  428TMC3    C4 6435   2.772   4.103  15.486  0.1617 -0.7156  0.0177
  428TMC3    C5 6436   2.864   4.112  15.584 -0.5659 -0.1619 -0.2930
  428TMC3    C6 6437   2.847   4.073  15.714  0.5063 -0.1088 -0.0446
  428TMC3     C 6438   2.534   4.048  15.440  0.6473 -0.1487  0.4284
  428TMC3     O 6439   2.440   3.968  15.458 -0.0612 -0.4724  0.2291
  428TMC3     H 6440   2.546   3.929  15.663  0.1526  1.0919 -0.2206
  428TMC3    H1 6441   2.781   4.143  15.385 -2.3546 -2.4301 -0.8937
  428TMC3    H2 6442   2.914   4.084  15.799  0.1412 -0.1663  0.2544
  428TMC3    C7 6443   2.979   4.189  15.563 -0.2966 -0.3711  1.1782
  428TMC3    C8 6444   2.737   3.880  15.809 -0.2553  0.7834 -0.9875
  428TMC3    O1 6445   3.028   4.246  15.659 -0.3460  0.2821  0.9393
  428TMC3    O2 6446   2.682   3.781  15.755 -0.5374  0.3721  0.0648
  429MPD2     C 6447   3.715   0.269  17.122  0.9166  0.2478 -0.0296
  429MPD2    C1 6448   3.851   0.283  17.138 -0.3922 -0.5219  0.2788
  429MPD2    C2 6449   3.905   0.404  17.111 -0.9663  0.3222  0.7322
  429MPD2    C3 6450   3.833   0.512  17.067  0.4584  0.2309  0.1036
  429MPD2    C4 6451   3.692   0.502  17.057 -0.5570 -1.0671  0.0902
  429MPD2    C5 6452   3.641   0.383  17.088 -0.4584  0.6178  0.4633
  429MPD2     H 6453   4.006   0.427  17.143 -0.7638 -1.5568  1.4316
  429MPD2    H1 6454   3.629   0.582  17.021 -0.6263 -1.0416  0.2693
  429MPD2    H2 6455   3.665   0.179  17.156 -1.4625  1.5841 -0.0048
  429MPD2    H3 6456   3.535   0.365  17.082  0.1198 -1.9778 -1.6587
  429MPD2     N 6457   3.906   0.634  17.050 -0.0096  0.1619  0.5020
  429MPD2    H5 6458   4.007   0.620  17.046 -0.2661 -1.6269  0.3515
  429MPD2    N1 6459   3.939   0.182  17.175 -0.5526  0.6859  0.6633
  429MPD2    H7 6460   4.035   0.213  17.188 -0.2782 -0.9677  2.6796
  430TMC3    C1 6461   3.951   0.855  16.990  0.8799 -0.1134  0.3665
  430TMC3    C2 6462   3.908   0.949  16.907 -0.5952  0.6841  0.0004
  430TMC3    C3 6463   4.003   1.007  16.825 -0.7083 -0.6471  0.3663
  430TMC3    C4 6464   4.083   0.813  16.997 -0.3647  0.3875  0.2665
  430TMC3    C5 6465   4.176   0.872  16.916  0.2197 -0.7074  0.0404
  430TMC3    C6 6466   4.138   0.973  16.828  0.4491 -0.0346  0.0131
  430TMC3     C 6467   3.851   0.754  17.026 -0.4374 -0.1548  0.3173
  430TMC3     O 6468   3.737   0.782  17.016 -0.0296 -0.4284 -0.5242
  430TMC3     H 6469   3.801   0.962  16.898 -1.0121 -1.9623  1.2311
  430TMC3    H1 6470   4.121   0.735  17.061  1.0666  0.4130 -0.5561
  430TMC3    H2 6471   4.194   1.022  16.749 -0.8394  3.4500  1.2531
  430TMC3    C7 6472   4.257   0.758  16.860  0.1006  0.3261  0.3607
  430TMC3    C8 6473   3.943   1.022  16.698  0.1948  0.2832 -0.0176
  430TMC3    O1 6474   4.261   0.660  16.936 -0.1607  0.3151 -0.1129
  430TMC3    O2 6475   4.005   0.970  16.605  0.4307 -0.0754  0.8889
  431MPD2     C 6476   0.661   4.536  12.478 -0.3054 -0.7858  0.8538
  431MPD2    C1 6477   0.630   4.635  12.383  0.0607  0.2673  0.8823
  431MPD2    C2 6478   0.577   4.600  12.263 -0.6437  0.1231 -0.2845
  431MPD2    C3 6479   0.564   4.466  12.229  0.3985  0.1688  0.0885
  431MPD2    C4 6480   0.615   4.368  12.313 -0.0136 -0.3573  0.4881
  431MPD2    C5 6481   0.656   4.404  12.439  0.1140  0.1002  0.7770
  431MPD2     H 6482   0.549   4.683  12.198  0.8964 -0.8805 -2.2186
  431MPD2    H1 6483   0.611   4.262  12.290  0.2974 -0.1751 -0.4129
  431MPD2    H2 6484   0.689   4.558  12.580  2.0484  1.3418 -0.2559
  431MPD2    H3 6485   0.680   4.326  12.510 -0.9001 -0.7649  0.1741
  431MPD2     N 6486   0.501   4.427  12.111  0.0121 -0.2271 -0.0829
  431MPD2    H5 6487   0.518   4.328  12.100 -0.7758 -0.4155  0.4502
  431MPD2    N1 6488   0.649   0.035  12.404  0.3454 -0.5031 -0.1364
  431MPD2    H7 6489   0.620   0.098  12.329  0.8804 -1.1683 -0.9086
  432TMC3    C1 6490   0.395   4.443  11.907 -0.4331 -0.1855 -0.2506
  432TMC3    C2 6491   0.480   4.423  11.803  0.0631 -0.3194  0.1136
  432TMC3    C3 6492   0.489   4.301  11.748 -0.2632  0.4800 -0.4233
  432TMC3    C4 6493   0.329   4.338  11.965  0.7019 -0.5863 -0.0256
  432TMC3    C5 6494   0.355   4.213  11.924  0.1378 -0.4246  0.2633
  432TMC3    C6 6495   0.426   4.196  11.805 -0.1910  0.0796  0.1312
  432TMC3     C 6496   0.450   4.518  12.015  0.6660 -0.5537  0.3249
  432TMC3     O 6497   0.437   4.637  12.007  0.2665  0.0429 -0.0782
  432TMC3     H 6498   0.552   4.497  11.772 -0.4691  0.0791 -0.1615
  432TMC3    H1 6499   0.254   4.367  12.038  0.9041 -0.9331  0.3240
  432TMC3    H2 6500   0.442   4.098  11.759  1.3191  0.5559 -0.3637
  432TMC3    C7 6501   0.387   4.117  12.022 -0.2393 -0.4132  0.1732
  432TMC3    C8 6502   0.628   4.277  11.704  0.0469 -0.3984  0.6215
  432TMC3    O1 6503   0.473   4.034  11.987 -0.0432  0.1595  0.0040
  432TMC3    O2 6504   0.650   4.258  11.585  0.5102 -0.3435  0.1013
  433MPD2     C 6505   3.346   3.047  11.010  0.3200  0.1258  0.5256
  433MPD2    C1 6506   3.468   3.013  11.073 -0.3048  0.1490 -0.1419
  433MPD2    C2 6507   3.494   3.071  11.190  0.6268 -0.9633 -0.2394
  433MPD2    C3 6508   3.412   3.157  11.259 -0.0745 -0.4026  0.0034
  433MPD2    C4 6509   3.294   3.187  11.204  0.2742 -0.3509  0.5400
  433MPD2    C5 6510   3.262   3.131  11.079  0.3598  1.3361  0.4203
  433MPD2     H 6511   3.588   3.040  11.236  0.2764 -2.8654 -0.8071
  433MPD2    H1 6512   3.222   3.243  11.262 -0.7289 -1.5886  0.4905
  433MPD2    H2 6513   3.309   3.008  10.916 -1.8049  0.4932  1.2234
  433MPD2    H3 6514   3.164   3.154  11.038 -0.3545  0.7131  1.7636
  433MPD2     N 6515   3.458   3.201  11.384  0.6027 -0.6032  0.0287
  433MPD2    H5 6516   3.548   3.167  11.416 -0.6234 -0.1879  3.9246
  433MPD2    N1 6517   3.558   2.923  11.006  0.0299  0.5509 -0.8542
  433MPD2    H7 6518   3.540   2.909  10.907  1.5220 -3.2285 -0.6109
  434TMC3    C1 6519   3.733   2.768  10.971 -0.3220  0.4257  0.6353
  434TMC3    C2 6520   3.801   2.660  11.023 -0.1457  0.4186  0.5128
  434TMC3    C3 6521   3.920   2.630  10.963  0.4721  0.9459 -1.0052
  434TMC3    C4 6522   3.776   2.833  10.853  0.4145  0.2269  0.3971
  434TMC3    C5 6523   3.893   2.792  10.792 -0.1778  0.3103 -0.2411
  434TMC3    C6 6524   3.968   2.689  10.850  0.1118 -0.4857 -0.3781
  434TMC3     C 6525   3.663   2.852  11.067 -0.5022  0.2021 -0.1523
  434TMC3     O 6526   3.690   2.838  11.186  0.5085 -0.4445  0.3650
  434TMC3     H 6527   3.776   2.622  11.121  1.2206 -0.4914  0.5103
  434TMC3    H1 6528   3.724   2.922  10.819 -0.5978  0.8017  3.4982
  434TMC3    H2 6529   4.052   2.640  10.800  1.2231  1.2530 -0.2046
  434TMC3    C7 6530   3.886   2.767  10.649  0.0857  0.3015 -0.3766
  434TMC3    C8 6531   4.012   2.580  11.058  0.0372 -0.3267  0.3478
  434TMC3    O1 6532   3.988   2.735  10.586  0.5133  0.0183  0.0555
  434TMC3    O2 6533   3.964   2.524  11.150  0.1240 -0.1289  0.1697
  435MPD2     C 6534   1.407   3.959  15.419  0.0709  0.1706  0.1568
  435MPD2    C1 6535   1.367   3.929  15.548  0.2141  0.0604  0.4590
  435MPD2    C2 6536   1.438   3.840  15.624 -0.6969  0.7614  0.0121
  435MPD2    C3 6537   1.553   3.775  15.573 -0.1220 -0.0289 -0.4243
  435MPD2    C4 6538   1.590   3.813  15.445 -0.0951  0.2728  0.0774
  435MPD2    C5 6539   1.524   3.905  15.373  0.4279  0.5225  0.0551
  435MPD2     H 6540   1.415   3.828  15.729  0.6418 -1.4848  0.0314
  435MPD2    H1 6541   1.684   3.781  15.401 -0.1852 -0.7808  0.6344
  435MPD2    H2 6542   1.358   4.028  15.350 -1.2758  0.0390  0.9801
  435MPD2    H3 6543   1.561   3.922  15.272 -1.4752 -0.6087 -0.8352
  435MPD2     N 6544   1.612   3.680  15.656  0.2773  0.0450  0.2267
  435MPD2    H5 6545   1.575   3.667  15.750  1.6856 -1.5267  0.5691
  435MPD2    N1 6546   1.245   3.971  15.610  0.7263 -0.2322  0.3493
  435MPD2    H7 6547   1.220   3.928  15.698  1.9226 -0.8373  0.3789
  436TMC3    C1 6548   0.897   4.052  15.833 -0.6086 -0.1665  0.1251
  436TMC3    C2 6549   0.998   4.009  15.748  0.5828  0.1170 -0.2153
  436TMC3    C3 6550   1.060   4.099  15.668  0.6075 -0.4066  1.0284
  436TMC3    C4 6551   0.854   4.181  15.828 -0.2779  0.6094  0.4305
  436TMC3    C5 6552   0.915   4.270  15.747 -0.7194 -0.2454 -1.0184
  436TMC3    C6 6553   1.017   4.228  15.662 -0.3477 -0.9428  0.2303
  436TMC3     C 6554   0.828   3.952  15.912 -0.6542 -0.1556 -0.8515
  436TMC3     O 6555   0.845   3.834  15.878 -0.5421 -0.1160  0.2957
  436TMC3     H 6556   1.030   3.906  15.741 -1.6940 -0.8497  3.5264
  436TMC3    H1 6557   0.785   4.213  15.905  1.2727  0.3322  1.9542
  436TMC3    H2 6558   1.060   4.303  15.597  1.7941  0.0909  2.8339
  436TMC3    C7 6559   0.863   4.407  15.733  0.0692 -0.2553 -0.2540
  436TMC3    C8 6560   1.152   4.057  15.565 -0.2784 -0.4819  0.0695
  436TMC3    O1 6561   0.875   4.454  15.622  0.6497  0.1826  0.9943
  436TMC3    O2 6562   1.146   4.114  15.459 -0.0789  0.3046  0.2991
  437TMC3    C1 6563   4.191   1.059  12.783  0.3746  0.0745 -0.4278
  437TMC3    C2 6564   4.072   1.094  12.726 -0.3754  0.3456  0.4945
  437TMC3    C3 6565   4.071   1.194  12.627  0.4222 -0.2186 -0.0087
  437TMC3    C4 6566   4.315   1.119  12.758 -0.3689 -0.4695  0.0374
  437TMC3    C5 6567   4.306   1.214  12.661  0.3880 -0.8267  0.5315
  437TMC3    C6 6568   4.192   1.252  12.601  0.2035 -0.0547  1.2235
  437TMC3     C 6569   4.191   0.963  12.892 -0.3013 -0.4197  0.7331
  437TMC3     O 6570   4.298   0.907  12.911 -0.4462  0.2776  0.0775
  437TMC3     H 6571   3.982   1.034  12.739 -0.7909  1.0429  0.8683
  437TMC3    H1 6572   4.411   1.083  12.791 -0.9026 -2.0959 -0.1948
  437TMC3    H2 6573   4.194   1.323  12.519  2.7477 -0.4760  0.9109
  437TMC3    C7 6574   4.419   1.292  12.626 -0.0759  0.8995  0.5076
  437TMC3    C8 6575   3.967   1.192  12.527  0.0595 -0.1169 -0.7674
  437TMC3    O1 6576   4.384   1.395  12.574 -0.7664  0.2961 -0.3162
  437TMC3    O2 6577   3.855   1.158  12.569  0.6782 -0.5192  0.5065
  438MPD2     C 6578   1.944   1.797  16.715  0.4946 -0.7769 -0.0997
  438MPD2    C1 6579   1.994   1.726  16.817 -0.0302 -0.1012  0.9514
  438MPD2    C2 6580   1.959   1.757  16.947  0.0048  0.6864  0.6434
  438MPD2    C3 6581   1.892   1.882  16.979 -0.3216 -0.2314 -0.9855
  438MPD2    C4 6582   1.854   1.959  16.869 -0.5631  0.3607  0.3635
  438MPD2    C5 6583   1.869   1.908  16.744 -0.4107 -0.1610  0.3418
  438MPD2     H 6584   1.991   1.701  17.034  0.3448 -0.2845 -0.1003
  438MPD2    H1 6585   1.790   2.046  16.884  1.2209  1.4192  1.7975
  438MPD2    H2 6586   1.945   1.764  16.611  1.7028  3.0587 -1.2952
  438MPD2    H3 6587   1.829   1.957  16.656  0.8732  1.1753  0.5189
  438MPD2     N 6588   1.851   1.924  17.108  0.3591  0.5317 -0.4762
  438MPD2    H5 6589   1.807   2.016  17.107 -0.7150  0.0221  0.4004
  438MPD2    N1 6590   2.066   1.611  16.788 -0.4426 -0.0957  0.1006
  438MPD2    H7 6591   2.074   1.545  16.865 -3.3441 -0.7651 -0.1396
  439TMC3    C1 6592   2.159   1.430  16.670  0.0305 -0.4018  0.4465
  439TMC3    C2 6593   2.193   1.370  16.552  0.1334  0.3633 -0.2928
  439TMC3    C3 6594   2.230   1.242  16.554  0.1108  0.4073 -0.3202
  439TMC3    C4 6595   2.159   1.353  16.786 -0.4724 -0.0286  0.1218
  439TMC3    C5 6596   2.207   1.227  16.782 -0.4997  0.2252 -0.5173
  439TMC3    C6 6597   2.234   1.162  16.664 -0.0996 -0.3623 -0.0679
  439TMC3     C 6598   2.112   1.565  16.666 -0.4657  0.7968  0.3408
  439TMC3     O 6599   2.114   1.620  16.559 -0.3065 -0.1902  0.2126
  439TMC3     H 6600   2.193   1.424  16.458 -0.0564 -2.2981 -1.8213
  439TMC3    H1 6601   2.150   1.391  16.887  1.5271  1.3508 -0.2243
  439TMC3    H2 6602   2.262   1.057  16.669  0.2702 -0.1551  1.9105
  439TMC3    C7 6603   2.305   1.182  16.879  0.4706 -0.3495 -0.2496
  439TMC3    C8 6604   2.329   1.197  16.459  0.5337  0.0753  0.1333
  439TMC3    O1 6605   2.353   1.263  16.951  0.1918  0.1498 -0.8485
  439TMC3    O2 6606   2.418   1.133  16.508 -0.1735 -0.3756 -0.3862
  440MPD2     C 6607   1.100   1.746  14.716 -0.7897 -0.0294 -0.0592
  440MPD2    C1 6608   1.137   1.856  14.786 -0.2835  0.6850  0.4599
  440MPD2    C2 6609   1.258   1.861  14.851  0.3914 -0.1097 -0.3612
  440MPD2    C3 6610   1.345   1.749  14.855  0.2954  0.3363  0.8831
  440MPD2    C4 6611   1.306   1.634  14.785  0.7050  0.7277 -0.7904
  440MPD2    C5 6612   1.182   1.633  14.718  0.5023 -0.0741  0.0783
  440MPD2     H 6613   1.288   1.952  14.902  1.8737 -0.8365  0.0675
  440MPD2    H1 6614   1.356   1.538  14.798 -1.0047 -0.0000  0.3563
  440MPD2    H2 6615   1.001   1.739  14.672 -1.5892 -3.4196  2.3154
  440MPD2    H3 6616   1.144   1.544  14.670  0.3538  0.7781 -1.4114
  440MPD2     N 6617   1.454   1.737  14.941  0.3763 -0.2956 -0.0303
  440MPD2    H5 6618   1.516   1.658  14.926 -1.6336 -1.7290 -0.7724
  440MPD2    N1 6619   1.056   1.970  14.794  0.7746 -0.0308  0.2733
  440MPD2    H7 6620   1.078   2.045  14.859  0.6089  1.0459 -0.9136
  441TMC3    C1 6621   1.659   1.793  15.051  0.1505  0.2657 -0.4092
  441TMC3    C2 6622   1.744   1.897  15.068  0.3309 -0.1950 -0.5413
  441TMC3    C3 6623   1.819   1.901  15.184 -0.5119  0.6738  0.3700
  441TMC3    C4 6624   1.649   1.681  15.136 -0.1183 -1.2270  0.9668
  441TMC3    C5 6625   1.736   1.690  15.242 -0.5204 -0.6064  0.4865
  441TMC3    C6 6626   1.820   1.797  15.270 -0.2593 -0.6644 -0.4792
  441TMC3     C 6627   1.532   1.834  15.002  0.1633 -0.0599  0.6454
  441TMC3     O 6628   1.503   1.951  15.011  0.1180  0.0150  0.3727
  441TMC3     H 6629   1.729   1.978  14.997  2.0703  0.3956 -0.2182
  441TMC3    H1 6630   1.577   1.600  15.122  0.9258 -1.8649 -0.6883
  441TMC3    H2 6631   1.880   1.785  15.359 -0.2702  0.8705 -0.2614
  441TMC3    C7 6632   1.715   1.588  15.341  0.6459 -0.9437 -0.2802
  441TMC3    C8 6633   1.839   2.030  15.251  0.2872  0.1807 -1.0780
  441TMC3    O1 6634   1.704   1.470  15.308 -0.1698 -0.3392 -0.4025
  441TMC3    O2 6635   1.936   2.060  15.317  0.1467  0.1233 -0.2677
  442MPD2     C 6636   3.957   2.173  16.755  0.4863  0.1545 -0.0576
  442MPD2    C1 6637   3.826   2.155  16.726  0.0043 -0.4421 -0.1927
  442MPD2    C2 6638   3.782   2.069  16.628  0.1444  0.4413 -0.4360
  442MPD2    C3 6639   3.876   2.005  16.547  0.6507 -0.7686  0.2168
  442MPD2    C4 6640   4.011   2.027  16.574  0.3352 -0.8502  0.3263
  442MPD2    C5 6641   4.053   2.109  16.678 -0.3304  0.0452 -0.3372
  442MPD2     H 6642   3.675   2.059  16.615  0.2442 -1.7908  0.4126
  442MPD2    H1 6643   4.078   1.967  16.513  1.1568 -0.1264  0.5077
  442MPD2    H2 6644   3.991   2.236  16.836 -2.1008 -0.2816  1.3591
  442MPD2    H3 6645   4.159   2.122  16.699 -0.7658  1.3097  0.9992
  442MPD2     N 6646   3.844   1.920  16.440 -0.6964 -0.1791  0.2486
  442MPD2    H5 6647   3.925   1.898  16.382 -1.7767 -0.6250 -1.0844
  442MPD2    N1 6648   3.729   2.224  16.802 -0.1699 -0.4870  0.4753
  442MPD2    H7 6649   3.636   2.186  16.802 -1.0365  1.5997 -0.1396
  443TMC3    C1 6650   3.641   2.399  16.920 -0.0921  0.3403 -0.2361
  443TMC3    C2 6651   3.624   2.531  16.910 -0.4101  0.3084  0.1853
  443TMC3    C3 6652   3.490   2.575  16.937 -0.2341 -0.8546 -0.3413
  443TMC3    C4 6653   3.545   2.318  16.972  0.6063  1.7763  0.0372
  443TMC3    C5 6654   3.439   2.375  17.035  0.3028 -0.2324 -0.1844
  443TMC3    C6 6655   3.401   2.505  17.005 -0.1663 -0.0178 -0.2200
  443TMC3     C 6656   3.758   2.344  16.869  0.6203  0.1131 -0.1120
  443TMC3     O 6657   3.857   2.413  16.859  0.0201  0.2090 -0.0402
  443TMC3     H 6658   3.699   2.590  16.859 -0.1803 -0.6318 -0.5360
  443TMC3    H1 6659   3.567   2.216  17.002 -0.3586  1.1704 -1.3335
  443TMC3    H2 6660   3.301   2.541  17.027  0.4750  1.7261 -0.1607
  443TMC3    C7 6661   3.345   2.298  17.102  1.0125  0.2857 -0.3900
  443TMC3    C8 6662   3.462   2.718  16.923 -0.1903  0.2686 -0.1366
  443TMC3    O1 6663   3.325   2.182  17.059  1.0308 -0.3893  0.5274
  443TMC3    O2 6664   3.429   2.773  17.031 -0.0132  0.1912  0.5549
  444MPD2     C 6665   4.071   2.263  17.094  1.0147 -0.2281 -0.1706
  444MPD2    C1 6666   4.032   2.140  17.147 -0.3850 -0.3197  0.5209
  444MPD2    C2 6667   4.102   2.026  17.116 -0.8424  0.6675  0.3883
  444MPD2    C3 6668   4.202   2.036  17.020 -0.5558  0.0102  0.0290
  444MPD2    C4 6669   4.246   2.165  16.969  0.0700 -0.7171  0.1312
  444MPD2    C5 6670   4.179   2.271  17.010  0.5093  0.1994 -0.4455
  444MPD2     H 6671   4.065   1.929  17.147 -0.5437  1.5570  3.4847
  444MPD2    H1 6672   4.327   2.177  16.899  0.7245 -1.3567  0.7728
  444MPD2    H2 6673   4.031   2.353  17.139  1.3052  1.6408 -3.6796
  444MPD2    H3 6674   4.221   2.367  16.984 -0.0383  0.6556  0.3816
  444MPD2     N 6675   4.261   1.917  16.968 -0.4351 -0.3726 -0.2049
  444MPD2    H5 6676   4.219   1.826  16.987 -0.1540 -0.3983  0.2670
  444MPD2    N1 6677   3.907   2.119  17.214  0.7538  0.0543  0.2147
  444MPD2    H7 6678   3.891   2.024  17.248 -0.7978  1.1147  2.3909
  445TMC3    C1 6679   4.377   1.773  16.829 -0.0783 -0.1570 -0.1697
  445TMC3    C2 6680   4.268   1.690  16.826 -0.0001 -1.2227  0.4076
  445TMC3    C3 6681   4.297   1.561  16.804 -0.0254 -0.8960 -0.0958
  445TMC3    C4 6682   4.504   1.737  16.785 -1.0035  0.7278  0.4169
  445TMC3    C5 6683   4.517   1.610  16.747  0.4832  0.0935 -0.4154
  445TMC3    C6 6684   4.423   1.515  16.773 -0.3129  0.5584  0.4614
  445TMC3     C 6685   4.360   1.910  16.874 -0.4012 -0.0379 -0.5967
  445TMC3     O 6686   4.434   1.999  16.830 -0.3083 -0.5039  0.1348
  445TMC3     H 6687   4.168   1.726  16.848  0.7564  0.1114  1.7323
  445TMC3    H1 6688   4.579   1.812  16.765  0.7497 -0.7768  1.3373
  445TMC3    H2 6689   4.442   1.415  16.737  1.9555  0.2223  2.5965
  445TMC3    C7 6690   4.635   1.569  16.674  0.4419 -0.3975  0.3825
  445TMC3    C8 6691   4.209   1.468  16.865 -0.0946 -0.0930 -0.7370
  445TMC3    O1 6692   4.691   1.660  16.614 -0.2070  0.5457  0.1591
  445TMC3    O2 6693   4.096   1.513  16.875 -0.6906 -0.1353  0.2868
  446MPD2     C 6694   3.598   2.384  11.496  0.3738 -0.0415 -0.6233
  446MPD2    C1 6695   3.558   2.464  11.392  0.6026  1.0299  0.3991
  446MPD2    C2 6696   3.641   2.572  11.370  0.1862 -0.5360 -0.1876
  446MPD2    C3 6697   3.762   2.593  11.434  0.0920 -0.2557  0.1389
  446MPD2    C4 6698   3.787   2.517  11.546  0.2264 -0.2793 -0.0440
  446MPD2    C5 6699   3.709   2.412  11.570  0.5034  0.0561  0.2524
  446MPD2     H 6700   3.609   2.638  11.291 -1.1863  0.4230  1.1491
  446MPD2    H1 6701   3.875   2.521  11.610  0.2731 -0.7622 -0.0839
  446MPD2    H2 6702   3.541   2.297  11.526  0.9182  0.0036  0.5816
  446MPD2    H3 6703   3.726   2.339  11.648 -0.1786 -0.7989 -0.3971
  446MPD2     N 6704   3.842   2.710  11.399  0.5688 -1.0219  0.2901
  446MPD2    H5 6705   3.803   2.773  11.330 -0.2470  0.5254  2.1581
  446MPD2    N1 6706   3.435   2.439  11.323 -0.6624 -0.1374  0.0393
  446MPD2    H7 6707   3.406   2.499  11.246  0.2872  2.0211  1.3946
  447TMC3    C1 6708   4.032   2.864  11.407 -0.5372 -0.5027  0.0910
  447TMC3    C2 6709   4.014   2.886  11.276  0.3681  0.5722  0.2074
  447TMC3    C3 6710   4.123   2.922  11.206 -0.5481 -0.4009 -0.1384
  447TMC3    C4 6711   4.154   2.883  11.474  0.5480  0.1717 -0.1423
  447TMC3    C5 6712   4.254   2.929  11.396 -0.2308 -0.0557 -0.2370
  447TMC3    C6 6713   4.243   2.946  11.263 -0.7566  0.0578  0.9199
  447TMC3     C 6714   3.956   2.754  11.463  0.4158  0.1491 -0.4021
  447TMC3     O 6715   4.011   2.702  11.561 -0.4770  0.2684 -0.9413
  447TMC3     H 6716   3.916   2.876  11.231  0.9438  2.3402 -1.4516
  447TMC3    H1 6717   4.170   2.856  11.578  0.7269  1.1569  0.0806
  447TMC3    H2 6718   4.334   2.968  11.209 -0.0492 -0.9208  1.7053
  447TMC3    C7 6719   4.386   2.920  11.462 -0.5813  0.8263 -0.3806
  447TMC3    C8 6720   4.100   2.976  11.072  0.4570  0.4607  0.0587
  447TMC3    O1 6721   4.488   2.930  11.393  0.4686  0.5170  0.2926
  447TMC3    O2 6722   3.983   2.965  11.040 -0.4570 -0.7062 -0.0052
  448TMC3    C1 6723   2.235   3.379  17.156 -0.4095 -0.3127 -0.5806
  448TMC3    C2 6724   2.198   3.257  17.107  0.4475  0.1950 -0.5929
  448TMC3    C3 6725   2.244   3.149  17.181  0.3363  0.4970  0.6687
  448TMC3    C4 6726   2.304   3.397  17.269  0.2619 -0.7790 -0.2598
  448TMC3    C5 6727   2.339   3.290  17.344  0.2388 -0.4666 -0.1657
  448TMC3    C6 6728   2.314   3.162  17.299  0.5215 -0.1719 -0.1814
  448TMC3     C 6729   2.158   3.485  17.098 -0.3397  0.2084  0.2598
  448TMC3     O 6730   2.136   3.474  16.973  1.0888 -0.3182 -0.1596
  448TMC3     H 6731   2.152   3.246  17.010  0.7101 -0.3694 -0.6514
  448TMC3    H1 6732   2.345   3.494  17.293 -0.3256 -0.6415  0.2009
  448TMC3    H2 6733   2.345   3.071  17.349 -1.5870 -1.3089 -0.9610
  448TMC3    C7 6734   2.414   3.305  17.470 -0.1204  0.5471  0.7517
  448TMC3    C8 6735   2.206   3.019  17.141 -0.1172 -0.1533  0.0722
  448TMC3    O1 6736   2.462   3.416  17.494 -0.0567  0.4487 -0.3234
  448TMC3    O2 6737   2.240   2.920  17.196  0.0547  0.1376  0.1805
  449MPD2     C 6738   3.502   1.119  14.341  0.0694 -0.0799  0.3157
  449MPD2    C1 6739   3.429   1.224  14.289 -0.1670 -0.4767  0.7960
  449MPD2    C2 6740   3.305   1.189  14.250  0.4708  0.1141 -0.7459
  449MPD2    C3 6741   3.251   1.059  14.261 -0.8956  0.8170 -0.0550
  449MPD2    C4 6742   3.323   0.964  14.328 -0.3013  0.6860 -0.3145
  449MPD2    C5 6743   3.451   0.997  14.356  0.1152 -0.2859 -0.2147
  449MPD2     H 6744   3.250   1.265  14.195 -2.7781 -0.7211  1.3766
  449MPD2    H1 6745   3.287   0.863  14.340 -0.7768  0.6778 -1.8575
  449MPD2    H2 6746   3.595   1.139  14.392  0.0388  0.1096  0.2961
  449MPD2    H3 6747   3.512   0.922  14.406 -2.4199 -3.0720 -1.3349
  449MPD2     N 6748   3.117   1.045  14.206 -0.1883  1.1416  0.4634
  449MPD2    H5 6749   3.073   1.119  14.152 -0.7179  0.2393 -0.3471
  449MPD2    N1 6750   3.477   1.354  14.271  0.1176 -0.7855  0.0566
  449MPD2    H7 6751   3.406   1.419  14.239  0.7975 -0.8715 -1.6435
  450TMC3    C1 6752   3.599   1.528  14.195  0.3687  0.1525 -0.1878
  450TMC3    C2 6753   3.636   1.544  14.063 -0.0461 -0.5938 -0.4187
  450TMC3    C3 6754   3.571   1.641  13.996 -0.2132 -0.5336  0.0293
  450TMC3    C4 6755   3.484   1.595  14.250 -0.2075  0.2747 -0.9094
  450TMC3    C5 6756   3.421   1.688  14.173 -0.4284 -0.4334 -0.4962
  450TMC3    C6 6757   3.462   1.708  14.044 -0.4055  0.2432  0.5591
  450TMC3     C 6758   3.606   1.386  14.232 -0.5898  0.3718  0.2416
  450TMC3     O 6759   3.698   1.313  14.210 -0.4222  0.4705 -0.3216
  450TMC3     H 6760   3.736   1.506  14.044  0.1199  1.2258 -3.2441
  450TMC3    H1 6761   3.463   1.582  14.355 -0.0198  0.6926 -0.8165
  450TMC3    H2 6762   3.408   1.782  13.986  2.2327  2.5655  1.0702
  450TMC3    C7 6763   3.286   1.642  14.170  0.7975 -0.0867  0.3377
  450TMC3    C8 6764   3.631   1.695  13.874 -0.8504  0.0414  0.3294
  450TMC3    O1 6765   3.263   1.530  14.209 -0.0529  0.0706  0.6112
  450TMC3    O2 6766   3.600   1.811  13.845 -0.0549 -0.1949  0.2921
  451MPD2     C 6767   0.738   4.648   1.012 -0.5120  0.0726 -0.2684
  451MPD2    C1 6768   0.617   4.639   0.948  0.7359 -0.3746  0.3190
  451MPD2    C2 6769   0.588   4.520   0.878 -0.7606  0.7305  0.0177
  451MPD2    C3 6770   0.683   4.419   0.862 -0.2848  0.2620  0.0369
  451MPD2    C4 6771   0.807   4.431   0.923 -0.2370 -0.0995 -0.4436
  451MPD2    C5 6772   0.831   4.547   0.999  0.4715  0.2525  0.7739
  451MPD2     H 6773   0.490   4.512   0.832 -0.6906  0.1151 -0.0293
  451MPD2    H1 6774   0.882   4.353   0.920 -0.0268  0.1120 -0.7969
  451MPD2    H2 6775   0.763   4.740   1.064 -3.4258  0.2235  0.8267
  451MPD2    H3 6776   0.926   4.557   1.051  0.7195  0.9372  0.1925
  451MPD2     N 6777   0.656   4.304   0.787 -0.3678  0.0519  0.0303
  451MPD2    H5 6778   0.737   4.254   0.751 -0.4940 -0.1777  0.0701
  451MPD2    N1 6779   0.533   0.009   0.941 -0.5487  0.0697 -0.5382
  451MPD2    H7 6780   0.567   0.084   1.000  1.4439 -0.7294 -0.6783
  452TMC3    C1 6781   0.509   4.208   0.619  0.2643 -0.0406  0.4265
  452TMC3    C2 6782   0.375   4.187   0.614  0.6561 -0.3595 -0.1384
  452TMC3    C3 6783   0.295   4.271   0.540  0.1592  0.1315  0.5886
  452TMC3    C4 6784   0.563   4.296   0.529 -0.4831  0.3832 -0.4907
  452TMC3    C5 6785   0.482   4.384   0.470 -0.1637 -0.3869 -0.0105
  452TMC3    C6 6786   0.347   4.373   0.466  0.4982  0.4493  1.1950
  452TMC3     C 6787   0.527   4.259   0.754 -0.0467  0.1637  0.6458
  452TMC3     O 6788   0.421   4.286   0.808  0.5213 -0.3999 -0.2707
  452TMC3     H 6789   0.329   4.112   0.677 -0.5436  2.3081  2.1679
  452TMC3    H1 6790   0.667   4.320   0.542 -1.1573  2.8946  0.2910
  452TMC3    H2 6791   0.285   4.437   0.404  1.3572 -0.8163 -0.9679
  452TMC3    C7 6792   0.516   4.529   0.483 -0.2089 -0.2689  0.0435
  452TMC3    C8 6793   0.160   4.275   0.597  0.0485 -0.2956  0.4455
  452TMC3    O1 6794   0.434   4.608   0.450 -0.7130  0.1284  0.0797
  452TMC3    O2 6795   0.092   4.175   0.614  0.0294  0.3202 -0.6041
  453TMC3    C1 6796   1.134   1.646  11.850 -0.3557 -0.1674  0.6761
  453TMC3    C2 6797   1.052   1.576  11.936  0.3732 -0.7535  0.5631
  453TMC3    C3 6798   1.043   1.440  11.911  0.1225  0.1460  0.6477
  453TMC3    C4 6799   1.201   1.586  11.738  0.6190  0.1639  0.4641
  453TMC3    C5 6800   1.169   1.452  11.711 -0.3791  0.1161  0.6227
  453TMC3    C6 6801   1.113   1.379  11.808 -0.0034  0.0890 -0.7224
  453TMC3     C 6802   1.153   1.786  11.856 -0.4297  0.1768  0.0059
  453TMC3     O 6803   1.213   1.826  11.755  0.0265 -0.0685  0.6909
  453TMC3     H 6804   0.999   1.619  12.020 -2.8158 -2.9769 -0.3601
  453TMC3    H1 6805   1.274   1.636  11.675 -0.6411  0.0157 -1.1226
  453TMC3    H2 6806   1.088   1.275  11.791 -1.2474  0.8227 -3.4029
  453TMC3    C7 6807   1.245   1.391  11.600  0.4770  0.7046 -0.2027
  453TMC3    C8 6808   0.979   1.346  12.006 -0.4112 -0.1544  0.5642
  453TMC3    O1 6809   1.345   1.458  11.552 -0.1516 -0.3838  0.8456
  453TMC3    O2 6810   0.898   1.397  12.091 -0.0276  0.3937 -0.0480
  454MPD2     C 6811   0.149   1.692  16.241  0.2565  0.7934 -0.8110
  454MPD2    C1 6812   0.065   1.708  16.130 -0.0886 -0.6079  0.1022
  454MPD2    C2 6813   4.726   1.819  16.119  0.5186 -0.4638  0.2388
  454MPD2    C3 6814   4.731   1.920  16.217 -0.1815 -0.2768 -0.4454
  454MPD2    C4 6815   0.062   1.902  16.329  0.3490  0.0234 -0.1663
  454MPD2    C5 6816   0.143   1.793  16.332 -0.2168  0.8574 -0.3533
  454MPD2     H 6817   4.670   1.835  16.027 -1.0063 -0.2862  1.2019
  454MPD2    H1 6818   0.058   1.977  16.407  0.5544  0.2667 -0.3902
  454MPD2    H2 6819   0.210   1.604  16.257  0.3226  0.7698 -1.1959
  454MPD2    H3 6820   0.215   1.785  16.412  2.2041  4.5710 -2.2116
  454MPD2     N 6821   4.640   2.024  16.201  0.3056 -0.5377 -0.1387
  454MPD2    H5 6822   4.618   2.081  16.282 -3.1562 -0.5097 -1.0825
  454MPD2    N1 6823   0.056   1.607  16.024 -0.0335  0.1294 -0.0736
  454MPD2    H7 6824   0.011   1.639  15.939  0.8732 -0.9428 -0.9544
  455TMC3    C1 6825   4.446   2.125  16.156  0.4559 -0.2870  0.5580
  455TMC3    C2 6826   4.475   2.199  16.265 -0.3249  0.0106  0.6577
  455TMC3    C3 6827   4.392   2.195  16.378  0.5371  1.1321 -0.7696
  455TMC3    C4 6828   4.343   2.032  16.168 -0.3099 -0.0029  0.5405
  455TMC3    C5 6829   4.268   2.024  16.281  0.3966 -0.2707  0.8511
  455TMC3    C6 6830   4.288   2.112  16.376 -0.6610 -0.5581 -0.4958
  455TMC3     C 6831   4.559   2.061  16.099 -0.2831 -0.2545 -0.7250
  455TMC3     O 6832   4.563   2.020  15.984 -0.9789  0.2029 -0.1402
  455TMC3     H 6833   4.563   2.262  16.260 -1.7412  1.8848 -0.6462
  455TMC3    H1 6834   4.336   1.961  16.087  0.9798 -0.9307  1.2495
  455TMC3    H2 6835   4.235   2.108  16.471  0.0090 -0.9832 -0.1438
  455TMC3    C7 6836   4.248   1.887  16.319 -0.0803  0.1239  0.1850
  455TMC3    C8 6837   4.387   2.300  16.484  0.5226  0.1356 -0.6531
  455TMC3    O1 6838   4.131   1.843  16.324 -0.3778 -0.0210  0.3229
  455TMC3    O2 6839   4.334   2.274  16.590  0.1765 -0.4727 -0.4293
  456MPD2     C 6840   2.121   1.918  16.220  0.6917  0.8158 -0.0994
  456MPD2    C1 6841   2.249   1.908  16.271 -0.7140 -0.0141 -0.6100
  456MPD2    C2 6842   2.270   1.951  16.400  1.0854 -0.6679  0.5862
  456MPD2    C3 6843   2.165   2.012  16.481  0.0607  0.4788  0.2225
  456MPD2    C4 6844   2.042   1.997  16.431 -0.0710  0.7046 -0.4696
  456MPD2    C5 6845   2.021   1.947  16.300  0.2987 -0.7874  0.1695
  456MPD2     H 6846   2.372   1.947  16.438  0.7502  1.4587  1.7325
  456MPD2    H1 6847   1.957   2.028  16.491  1.7982  1.6544  1.6980
  456MPD2    H2 6848   2.091   1.899  16.118  2.2508 -1.6068 -0.1123
  456MPD2    H3 6849   1.916   1.941  16.274  0.9179  2.5195 -3.0479
  456MPD2     N 6850   2.195   2.061  16.608  0.1761  0.2751  0.4290
  456MPD2    H5 6851   2.291   2.055  16.640  0.5372  0.0097 -0.7243
  456MPD2    N1 6852   2.347   1.852  16.191  0.6030  0.5381  0.0265
  456MPD2    H7 6853   2.317   1.841  16.095  1.1919 -0.1129 -0.0829
  457TMC3    C1 6854   2.143   2.173  16.807 -0.0108 -0.1197 -0.0232
  457TMC3    C2 6855   2.096   2.296  16.848  0.4267 -0.1574  0.0267
  457TMC3    C3 6856   2.126   2.336  16.975  0.0978 -0.2727  0.4088
  457TMC3    C4 6857   2.207   2.084  16.890 -0.0846 -0.7431 -0.5561
  457TMC3    C5 6858   2.227   2.127  17.019 -0.3408 -0.6863 -0.1796
  457TMC3    C6 6859   2.196   2.256  17.065 -0.3300  0.0402 -0.1046
  457TMC3     C 6860   2.097   2.131  16.680  0.0664  0.3424 -0.1045
  457TMC3     O 6861   2.003   2.190  16.632 -0.4747 -0.9423  0.2436
  457TMC3     H 6862   2.055   2.358  16.769 -0.1518 -0.1457  0.3338
  457TMC3    H1 6863   2.229   1.986  16.851 -0.0827 -1.1258  0.4097
  457TMC3    H2 6864   2.224   2.285  17.165  1.4629 -0.8342 -0.3556
  457TMC3    C7 6865   2.286   2.032  17.117 -0.1968 -0.3643  0.1891
  457TMC3    C8 6866   2.111   2.483  17.013  0.6885 -0.7290 -0.0423
  457TMC3    O1 6867   2.271   2.073  17.233  0.2218  0.5552 -0.5137
  457TMC3    O2 6868   2.173   2.534  17.105  0.2065 -0.0580  0.8098
  458MPD2     C 6869   0.168   1.403  12.621  0.1498  0.2626 -1.0671
  458MPD2    C1 6870   0.154   1.284  12.685  0.3167  0.5420 -0.2236
  458MPD2    C2 6871   0.027   1.228  12.695  0.2805  0.7282  0.5712
  458MPD2    C3 6872   4.664   1.295  12.639  0.3689  0.2373  0.8111
  458MPD2    C4 6873   4.679   1.412  12.571  0.6239  0.1681  0.1733
  458MPD2    C5 6874   0.064   1.463  12.560 -0.0919 -0.5272 -0.3951
  458MPD2     H 6875   0.024   1.129  12.741  0.2464  1.0113  1.1742
  458MPD2    H1 6876   4.599   1.478  12.540 -0.7632 -1.8698 -0.5579
  458MPD2    H2 6877   0.268   1.445  12.617  0.3284  0.0939  1.8209
  458MPD2    H3 6878   0.076   1.558  12.508 -0.7239  1.1984  2.6382
  458MPD2     N 6879   4.538   1.231  12.648 -0.0794 -0.3927  0.1643
  458MPD2    H5 6880   4.539   1.136  12.685  3.2603 -0.0408  0.9825
  458MPD2    N1 6881   0.275   1.223  12.738 -0.1652 -0.5393 -0.2004
  458MPD2    H7 6882   0.363   1.251  12.697 -0.6532  2.2344  0.6943
  459TMC3    C1 6883   0.410   1.098  12.898  0.9191  0.3439  0.5107
  459TMC3    C2 6884   0.519   1.180  12.884 -0.0425 -0.7755 -1.0379
  459TMC3    C3 6885   0.628   1.166  12.964 -0.6685  0.2660 -0.3213
  459TMC3    C4 6886   0.417   1.004  12.994  0.1119 -0.6633  0.0005
  459TMC3    C5 6887   0.529   0.996  13.078 -0.4914 -0.1850  0.0660
  459TMC3    C6 6888   0.641   1.073  13.063  0.2274  0.5188 -0.4832
  459TMC3     C 6889   0.284   1.113  12.821 -0.0901  0.1635  0.6501
  459TMC3     O 6890   0.198   1.026  12.851  0.5346 -0.1445  0.2450
  459TMC3     H 6891   0.511   1.263  12.816 -1.1750 -1.5492 -1.8504
  459TMC3    H1 6892   0.331   0.939  13.005  1.5687 -2.6907 -0.4831
  459TMC3    H2 6893   0.734   1.070  13.119  0.8355  2.3483 -1.3637
  459TMC3    C7 6894   0.540   0.899  13.185 -0.4911 -0.5362  0.0774
  459TMC3    C8 6895   0.746   1.229  12.901 -0.1976 -0.2344 -0.8640
  459TMC3    O1 6896   0.652   0.857  13.223 -0.1369  0.5565 -0.2717
  459TMC3    O2 6897   0.737   1.350  12.883 -0.1975 -0.4377 -0.0601
  460MPD2     C 6898   4.313   3.128  10.828 -0.3841 -0.2658 -0.3985
  460MPD2    C1 6899   4.190   3.095  10.888 -0.2276 -0.1330  0.3972
  460MPD2    C2 6900   4.065   3.131  10.826 -0.2742 -0.0655  0.7458
  460MPD2    C3 6901   4.067   3.203  10.710 -0.0987  0.4203  0.5684
  460MPD2    C4 6902   4.188   3.240  10.651  0.6898 -0.6543  0.2836
  460MPD2    C5 6903   4.309   3.203  10.711  0.0354 -0.4277 -0.5231
  460MPD2     H 6904   3.972   3.111  10.878  0.8135 -1.7719  2.0659
  460MPD2    H1 6905   4.191   3.276  10.549  3.1464  2.0374  1.3116
  460MPD2    H2 6906   4.413   3.109  10.866 -0.0727  4.2579  1.0710
  460MPD2    H3 6907   4.401   3.218  10.656  0.5260 -0.5990  0.2545
  460MPD2     N 6908   3.935   3.217  10.646 -0.0822 -0.4820  0.1823
  460MPD2    H5 6909   3.852   3.190  10.699 -0.9875  1.3456 -0.3019
  460MPD2    N1 6910   4.207   3.025  11.013 -0.0946  0.5908  0.2078
  460MPD2    H7 6911   4.298   3.004  11.051 -0.5657  0.4938  1.2780
  461TMC3    C1 6912   3.786   3.247  10.485 -0.7888  0.0234  0.1076
  461TMC3    C2 6913   3.758   3.118  10.470  0.2415 -0.6225 -0.1162
  461TMC3    C3 6914   3.657   3.086  10.382 -0.2473 -0.2853  1.2399
  461TMC3    C4 6915   3.727   3.342  10.409 -0.4423  0.1647 -0.1461
  461TMC3    C5 6916   3.619   3.312  10.329 -0.3349  0.2772  0.1106
  461TMC3    C6 6917   3.581   3.182  10.320  0.7537 -0.2567  0.4589
  461TMC3     C 6918   3.922   3.271  10.527 -0.4033 -0.0214  0.2190
  461TMC3     O 6919   3.993   3.326  10.444 -0.1266 -0.1811 -0.2296
  461TMC3     H 6920   3.822   3.039  10.505 -0.2502 -1.8436 -1.9702
  461TMC3    H1 6921   3.770   3.442  10.416  1.1460 -0.6558  1.5144
  461TMC3    H2 6922   3.493   3.161  10.260  0.0956  0.6404  1.1136
  461TMC3    C7 6923   3.569   3.401  10.224  0.1587  0.0394  0.0857
  461TMC3    C8 6924   3.692   2.988  10.283 -0.4826 -0.0757 -0.9863
  461TMC3    O1 6925   3.507   3.343  10.137 -0.2437 -0.6586  0.8288
  461TMC3    O2 6926   3.812   2.968  10.264 -0.3312 -0.1164 -0.4642
  462TMC3    C1 6927   4.374   0.326  17.763 -0.6056 -0.7525  0.3040
  462TMC3    C2 6928   4.494   0.272   0.049 -0.0056  0.2466 -0.6861
  462TMC3    C3 6929   4.474   0.157   0.121  0.2883  0.6149  0.3251
  462TMC3    C4 6930   4.251   0.266   0.002 -0.2162 -0.0380  0.1223
  462TMC3    C5 6931   4.244   0.157   0.082  1.1533  0.3990  0.1663
  462TMC3    C6 6932   4.348   0.110   0.157  0.4033  0.7148 -0.5031
  462TMC3     C 6933   4.389   0.455  17.700  0.4299 -0.2636  0.0227
  462TMC3     O 6934   4.476   0.528  17.745 -0.2460  0.3390 -0.5591
  462TMC3     H 6935   4.590   0.305   0.012  0.5721 -1.6185 -0.8692
  462TMC3    H1 6936   4.169   0.311  17.713  0.0573 -2.0300 -1.9151
  462TMC3    H2 6937   4.349   0.005   0.183 -2.8471  0.7624 -0.2284
  462TMC3    C7 6938   4.128   0.072   0.081  0.2031  0.0977 -0.5566
  462TMC3    C8 6939   4.585   0.061   0.127  0.3502  0.3326  0.4060
  462TMC3    O1 6940   4.140   4.704   0.133  0.3831  0.5251 -0.2487
  462TMC3    O2 6941   4.664   0.065   0.035  0.1412 -0.1175  0.2467
  463MPD2     C 6942   1.432   3.250   1.038  0.0638  0.4890  0.6179
  463MPD2    C1 6943   1.326   3.334   1.013  0.2525 -0.0017 -0.5386
  463MPD2    C2 6944   1.352   3.474   1.003  1.1235  0.3813 -0.4433
  463MPD2    C3 6945   1.480   3.524   1.022 -0.3017 -0.2017 -0.4691
  463MPD2    C4 6946   1.581   3.436   1.035 -0.3457  0.9663 -0.5599
  463MPD2    C5 6947   1.559   3.298   1.050  0.3616  0.4024 -0.5137
  463MPD2     H 6948   1.274   3.548   0.988 -0.3795 -0.9807  0.5582
  463MPD2    H1 6949   1.686   3.464   1.039 -0.5959  1.5695  1.4621
  463MPD2    H2 6950   1.421   3.142   1.040 -2.5201  0.6807 -1.8832
  463MPD2    H3 6951   1.648   3.237   1.060  3.0245  4.4957  0.5941
  463MPD2     N 6952   1.516   3.662   1.015  0.4744 -0.4088  0.3255
  463MPD2    H5 6953   1.616   3.680   1.014  0.2376  0.7450 -2.2360
  463MPD2    N1 6954   1.184   3.297   1.007 -0.0551  0.5174 -0.5776
  463MPD2    H7 6955   1.115   3.367   0.979  1.7913  1.0345 -3.8035
  464TMC3    C1 6956   0.992   3.178   0.976  0.1232  0.1658 -0.4689
  464TMC3    C2 6957   0.923   3.294   0.996 -0.0305 -0.0678  0.2236
  464TMC3    C3 6958   0.789   3.290   0.973  0.4572 -0.1843  0.0509
  464TMC3    C4 6959   0.934   3.059   0.958 -0.0454 -0.2952  0.4199
  464TMC3    C5 6960   0.796   3.059   0.952 -0.0177 -0.2002  0.3375
  464TMC3    C6 6961   0.721   3.172   0.952 -0.8047  0.1775  0.8839
  464TMC3     C 6962   1.128   3.172   1.024  0.2315  0.1054 -0.0437
  464TMC3     O 6963   1.176   3.063   1.050  0.1335 -0.0312 -0.3585
  464TMC3     H 6964   0.966   3.389   1.026 -0.5251  0.7607 -1.6628
  464TMC3    H1 6965   0.986   2.967   0.932 -0.0794 -0.6866  1.7038
  464TMC3    H2 6966   0.613   3.183   0.955 -1.0592 -2.1977 -0.0365
  464TMC3    C7 6967   0.737   2.936   0.987 -0.7899  0.0744 -0.1187
  464TMC3    C8 6968   0.716   3.416   0.974 -0.4118 -0.3027  0.1735
  464TMC3    O1 6969   0.812   2.848   1.029  0.1734  0.0093  0.1388
  464TMC3    O2 6970   0.594   3.409   0.994 -0.3016 -0.0973  0.5446
  465MPD2     C 6971   1.597   1.706  17.005 -0.0416 -0.2296  0.4675
  465MPD2    C1 6972   1.467   1.739  17.042  0.2788  0.3884  0.4392
  465MPD2    C2 6973   1.385   1.794  16.943 -0.0319 -1.1143  0.0920
  465MPD2    C3 6974   1.428   1.797  16.815  0.2038  0.2418 -0.0517
  465MPD2    C4 6975   1.549   1.759  16.776  0.5911 -0.1841  0.2886
  465MPD2    C5 6976   1.628   1.706  16.875  0.0064  0.6655 -0.1272
  465MPD2     H 6977   1.287   1.824  16.979 -0.8871 -1.0603 -2.2677
  465MPD2    H1 6978   1.583   1.758  16.673  1.2717 -2.3454  0.5467
  465MPD2    H2 6979   1.668   1.662  17.075  0.5891  0.2518  0.1335
  465MPD2    H3 6980   1.709   1.641  16.843  1.2604  1.6453  1.0655
  465MPD2     N 6981   1.337   1.836  16.713  0.5015  0.2246  0.4407
  465MPD2    H5 6982   1.253   1.877  16.754 -0.9228 -1.6024 -0.6815
  465MPD2    N1 6983   1.416   1.725  17.176  0.4488 -0.2490 -0.1814
  465MPD2    H7 6984   1.319   1.755  17.186  0.9285  1.3204 -0.1941
  466TMC3    C1 6985   1.010   1.966  16.546 -0.1752 -0.6096  0.9169
  466TMC3    C2 6986   1.023   2.054  16.440  0.2712  0.1688  0.0089
  466TMC3    C3 6987   1.139   2.052  16.373  0.4023 -0.5014 -0.3362
  466TMC3    C4 6988   1.108   1.882  16.585  0.0950  0.7458 -0.0097
  466TMC3    C5 6989   1.225   1.894  16.515  0.4216 -0.4330 -0.2418
  466TMC3    C6 6990   1.244   1.982  16.412 -0.7998 -0.1469  0.8135
  466TMC3     C 6991   0.924   2.010  16.658  0.4308 -0.2032  0.8197
  466TMC3     O 6992   0.939   1.952  16.768 -0.1425 -0.0476  0.0232
  466TMC3     H 6993   0.950   2.129  16.411  3.3377  1.8883 -3.1577
  466TMC3    H1 6994   1.090   1.812  16.665  0.6308  1.5690  0.8291
  466TMC3    H2 6995   1.332   1.992  16.350 -1.1154  0.9485  0.5449
  466TMC3    C7 6996   1.351   1.843  16.578  0.4696 -0.3914 -0.0991
  466TMC3    C8 6997   1.169   2.180  16.315  0.9192 -1.2529  0.6376
  466TMC3    O1 6998   1.446   1.830  16.502 -0.2236 -0.5412  0.3748
  466TMC3    O2 6999   1.248   2.179  16.220  0.2336 -0.0713 -0.3882
  467TMC3    C1 7000   2.561   0.020  14.278  0.1919  0.9554 -0.6230
  467TMC3    C2 7001   2.511   4.741  14.151 -0.2327  0.1558  0.1826
  467TMC3    C3 7002   2.376   4.721  14.131  0.5285 -0.0890  0.2533
  467TMC3    C4 7003   2.474   0.027  14.381 -0.0826 -0.2910  0.2896
  467TMC3    C5 7004   2.339   0.023  14.356  0.3076  0.2753  0.1754
  467TMC3    C6 7005   2.285   4.742  14.232  0.5760 -0.5716 -0.1056
  467TMC3     C 7006   2.669   0.109  14.272 -0.1605  0.6571  1.0630
  467TMC3     O 7007   2.746   0.122  14.368 -0.7117  0.0959 -0.1568
  467TMC3     H 7008   2.571   4.708  14.067 -2.1319 -1.7147 -0.4409
  467TMC3    H1 7009   2.509   0.055  14.480  0.3790  0.5253 -0.1079
  467TMC3    H2 7010   2.181   4.714  14.217  0.4060 -0.9091  1.6722
  467TMC3    C7 7011   2.253   4.740  14.471  0.2331 -0.2500  0.1058
  467TMC3    C8 7012   2.350   0.040  14.001 -0.1747  0.0875 -0.4539
  467TMC3    O1 7013   2.308   4.698  14.572  0.1894  0.1408  0.0699
  467TMC3    O2 7014   2.442   0.105  13.953 -0.1024 -0.3604 -0.4143
  468MPD2     C 7015   1.240   2.955  10.453 -0.1505 -0.5758 -0.1437
  468MPD2    C1 7016   1.332   2.902  10.541 -0.6993  0.7193 -0.1054
  468MPD2    C2 7017   1.304   2.779  10.602  0.0088 -0.3024  0.0198
  468MPD2    C3 7018   1.176   2.723  10.597  0.7561 -0.0668  0.4628
  468MPD2    C4 7019   1.084   2.775  10.512  0.2442 -0.0460 -0.5083
  468MPD2    C5 7020   1.117   2.888  10.438  0.0674 -0.3408  0.4597
  468MPD2     H 7021   1.373   2.741  10.676  0.2593 -2.5241 -1.3717
  468MPD2    H1 7022   0.991   2.726  10.486  0.0560 -0.0094  0.0854
  468MPD2    H2 7023   1.270   3.034  10.386 -1.4691 -0.3434 -0.4529
  468MPD2    H3 7024   1.041   2.926  10.370  1.5326 -0.6271 -1.3244
  468MPD2     N 7025   1.158   2.601  10.667 -0.0104 -0.2477  0.4329
  468MPD2    H5 7026   1.242   2.566  10.712  1.2867 -0.1689 -1.8871
  468MPD2    N1 7027   1.455   2.962  10.569  0.0274  0.1574  0.0769
  468MPD2    H7 7028   1.493   2.929  10.658  0.7765 -0.4800 -0.4734
  469TMC3    C1 7029   1.614   3.131  10.600  0.1631  0.0052  0.1934
  469TMC3    C2 7030   1.669   3.043  10.696  0.2482 -0.1006 -0.6258
  469TMC3    C3 7031   1.779   3.092  10.761 -0.2438 -0.0298  0.1365
  469TMC3    C4 7032   1.658   3.257  10.572  0.1494 -1.1551  0.2681
  469TMC3    C5 7033   1.763   3.299  10.656  0.0239  0.7701 -0.2050
  469TMC3    C6 7034   1.832   3.220  10.745  0.4929  0.1181  0.2634
  469TMC3     C 7035   1.504   3.077  10.518 -0.4538  0.5489  0.2688
  469TMC3     O 7036   1.491   3.128  10.407 -0.2987 -0.0018 -0.2430
  469TMC3     H 7037   1.649   2.937  10.707  0.2131  0.2832  3.0305
  469TMC3    H1 7038   1.617   3.315  10.491 -0.3160 -1.1418  0.5106
  469TMC3    H2 7039   1.923   3.249  10.796 -0.1533  1.8381  0.4366
  469TMC3    C7 7040   1.769   3.445  10.676  0.5935 -0.4473 -0.4179
  469TMC3    C8 7041   1.848   3.001  10.847  0.4464  0.3594 -0.2973
  469TMC3    O1 7042   1.706   3.508  10.592 -0.1866 -0.3250 -0.0091
  469TMC3    O2 7043   1.828   2.882  10.825 -0.2795  0.1550 -0.0367
  470TMC3    C1 7044   3.592   0.013   1.269  0.0653  0.1440 -0.5980
  470TMC3    C2 7045   3.660   0.121   1.208  0.3325 -1.0364 -0.4444
  470TMC3    C3 7046   3.701   0.222   1.299  0.4569  0.1199 -0.6801
  470TMC3    C4 7047   3.592   4.737   1.404 -0.0148 -0.6812  0.4265
  470TMC3    C5 7048   3.643   0.098   1.485 -0.1095  0.6620  0.5367
  470TMC3    C6 7049   3.693   0.212   1.432  0.3380  0.1908 -0.5547
  470TMC3     C 7050   3.588   4.640   1.190  0.0625 -0.6033 -0.0623
  470TMC3     O 7051   3.673   4.623   1.104  0.3186 -0.0715 -0.0175
  470TMC3     H 7052   3.654   0.139   1.102 -0.0219 -1.4882 -0.5007
  470TMC3    H1 7053   3.568   4.640   1.445  0.3364 -1.1330 -0.4297
  470TMC3    H2 7054   3.742   0.285   1.495  1.1625 -1.9454  1.2627
  470TMC3    C7 7055   3.663   0.075   1.628 -0.4022  0.5309 -0.2410
  470TMC3    C8 7056   3.817   0.303   1.271  0.3010 -0.4049  0.0533
  470TMC3    O1 7057   3.630   4.705   1.663  0.1396  0.3244  0.2701
  470TMC3    O2 7058   3.830   0.409   1.326  0.4423 -0.4452 -0.4398
  471MPD2     C 7059   3.566   1.085  16.364  0.6485 -0.5590 -0.7563
  471MPD2    C1 7060   3.659   0.982  16.381  0.6033 -0.6453  0.2858
  471MPD2    C2 7061   3.754   0.984  16.480  0.0770 -1.0183  0.7682
  471MPD2    C3 7062   3.739   1.084  16.578  0.1923  0.6233  0.4261
  471MPD2    C4 7063   3.641   1.178  16.567  0.2322 -0.3697 -0.2065
  471MPD2    C5 7064   3.557   1.186  16.455  0.3095 -0.6295  0.1647
  471MPD2     H 7065   3.838   0.915  16.476  0.7382 -0.1964  0.4725
  471MPD2    H1 7066   3.619   1.255  16.641  2.3877  0.5556 -0.5240
  471MPD2    H2 7067   3.502   1.089  16.277  0.9336  1.3584 -0.8746
  471MPD2    H3 7068   3.479   1.261  16.456 -1.0753 -2.0446 -1.9916
  471MPD2     N 7069   3.818   1.076  16.693  0.4309 -0.1335 -0.2521
  471MPD2    H5 7070   3.790   1.127  16.777 -0.1517 -1.1031  0.1488
  471MPD2    N1 7071   3.674   0.875  16.292 -0.6817  0.0826 -0.7604
  471MPD2    H7 7072   3.751   0.814  16.318 -2.8247 -0.6015  3.9187
  472TMC3    C1 7073   3.598   0.706  16.153 -0.6270 -1.4431 -0.7778
  472TMC3    C2 7074   3.489   0.640  16.107  0.5872 -0.1499  0.1102
  472TMC3    C3 7075   3.497   0.504  16.082  0.5766  1.1629 -0.3435
  472TMC3    C4 7076   3.716   0.640  16.181  0.1241  0.6573  0.5106
  472TMC3    C5 7077   3.717   0.507  16.169  0.9375 -0.5378 -0.5523
  472TMC3    C6 7078   3.610   0.435  16.114  0.0682 -0.1827  0.0923
  472TMC3     C 7079   3.581   0.844  16.195  0.4161  0.1324  0.1658
  472TMC3     O 7080   3.509   0.923  16.131  0.3064 -0.0831 -0.1734
  472TMC3     H 7081   3.401   0.699  16.085  0.7227 -0.1122 -0.3390
  472TMC3    H1 7082   3.811   0.689  16.198  0.3308  0.9922 -1.6491
  472TMC3    H2 7083   3.609   0.327  16.104  0.8381 -0.0953 -0.9843
  472TMC3    C7 7084   3.831   0.437  16.224 -0.6201 -0.4954 -0.2671
  472TMC3    C8 7085   3.377   0.419  16.067  0.6389 -0.1435  0.5526
  472TMC3    O1 7086   3.883   0.483  16.324 -0.1439  0.0673  0.4038
  472TMC3    O2 7087   3.391   0.305  16.025  0.0304  0.2943  0.2817
  473MPD2     C 7088   4.094   2.748  14.164 -0.8905  0.8562 -0.2031
  473MPD2    C1 7089   4.026   2.869  14.125 -0.2218 -0.2973  0.1902
  473MPD2    C2 7090   4.041   2.972  14.209 -0.0268  0.2040 -0.7337
  473MPD2    C3 7091   4.135   2.970  14.312 -0.5546 -0.5528 -0.7390
  473MPD2    C4 7092   4.216   2.856  14.331 -0.5140 -0.5472 -0.6986
  473MPD2    C5 7093   4.188   2.748  14.251  0.3041  0.1990 -0.5562
  473MPD2     H 7094   3.981   3.057  14.181 -0.0543 -0.3619 -2.4315
  473MPD2    H1 7095   4.294   2.837  14.404 -0.2310 -0.8267 -1.0760
  473MPD2    H2 7096   4.075   2.654  14.114 -1.2375 -1.1269  3.7303
  473MPD2    H3 7097   4.245   2.662  14.284  1.0192  0.0686 -2.1323
  473MPD2     N 7098   4.150   3.075  14.410 -0.0036  0.1231  0.2311
  473MPD2    H5 7099   4.213   3.060  14.489  0.0722 -0.0650  0.1356
  473MPD2    N1 7100   3.922   2.872  14.022  0.1593  0.3963  0.3923
  473MPD2    H7 7101   3.856   2.949  14.021  2.2984  2.1672 -3.3285
  474TMC3    C1 7102   4.123   3.286  14.514 -0.8160 -0.4924  0.0057
  474TMC3    C2 7103   4.020   3.363  14.555 -0.3000  0.5103  0.2710
  474TMC3    C3 7104   4.010   3.405  14.690  0.4968 -0.1943  0.0475
  474TMC3    C4 7105   4.231   3.275  14.597  0.2268 -0.2211 -0.4514
  474TMC3    C5 7106   4.227   3.335  14.719 -0.5333 -0.0317  0.2672
  474TMC3    C6 7107   4.114   3.388  14.777  0.2818 -0.4121 -0.7918
  474TMC3     C 7108   4.087   3.198  14.403  0.6450 -0.9624 -0.1737
  474TMC3     O 7109   3.996   3.226  14.333 -0.0436  0.1878  0.1316
  474TMC3     H 7110   3.930   3.365  14.496 -0.5106 -1.3295  0.5307
  474TMC3    H1 7111   4.323   3.230  14.562  0.9163  0.6599  0.2119
  474TMC3    H2 7112   4.105   3.405  14.884  1.3203  0.4525 -0.8361
  474TMC3    C7 7113   4.344   3.316  14.797  0.0830  0.3663 -0.2876
  474TMC3    C8 7114   3.893   3.483  14.717  0.3038 -0.6967  0.0479
  474TMC3    O1 7115   4.433   3.239  14.755  0.1879  0.1526  0.2048
  474TMC3    O2 7116   3.856   3.485  14.832 -0.0757  0.6156  0.6250
  475MPD2     C 7117   2.350   1.056  10.185  0.4190 -0.0649  0.5475
  475MPD2    C1 7118   2.332   1.108  10.312 -0.4894  0.4943  0.4628
  475MPD2    C2 7119   2.207   1.106  10.374 -0.6709  0.1598  0.2427
  475MPD2    C3 7120   2.106   1.031  10.313 -0.2400 -0.2562  0.0961
  475MPD2    C4 7121   2.128   0.959  10.197 -0.5843  0.8603 -0.5143
  475MPD2    C5 7122   2.250   0.974  10.135 -0.0412 -0.0714 -0.8980
  475MPD2     H 7123   2.184   1.157  10.467  0.8072  1.0655  0.1210
  475MPD2    H1 7124   2.050   0.901  10.148 -0.1523  2.2057 -2.7739
  475MPD2    H2 7125   2.446   1.071  10.139 -1.1518 -0.2074 -2.7491
  475MPD2    H3 7126   2.271   0.927  10.040  1.9772  0.8327 -0.8961
  475MPD2     N 7127   1.982   1.033  10.378  0.0761  0.0784  0.0434
  475MPD2    H5 7128   1.962   1.100  10.452 -0.6838  0.0271 -0.1130
  475MPD2    N1 7129   2.452   1.158  10.375  0.3245 -0.9442  0.4229
  475MPD2    H7 7130   2.533   1.123  10.325  0.5893  0.6715 -0.2871
  476TMC3    C1 7131   2.601   1.235  10.541  0.1669 -0.6762  0.3663
  476TMC3    C2 7132   2.699   1.229  10.442  0.0796  0.4610  0.2444
  476TMC3    C3 7133   2.831   1.243  10.485 -0.1072 -0.5871  0.3385
  476TMC3    C4 7134   2.632   1.255  10.678  0.2354  0.0337  0.1051
  476TMC3    C5 7135   2.764   1.269  10.710  0.3273  0.6016 -0.1375
  476TMC3    C6 7136   2.865   1.261  10.617  0.7169  0.7868  0.4647
  476TMC3     C 7137   2.459   1.216  10.498 -0.2852 -0.0631 -0.0544
  476TMC3     O 7138   2.379   1.264  10.575  0.1556 -0.2292 -0.2431
  476TMC3     H 7139   2.678   1.229  10.335 -1.3737 -0.5451  0.5422
  476TMC3    H1 7140   2.546   1.263  10.743  0.9729  0.2455  1.0461
  476TMC3    H2 7141   2.969   1.270  10.645  0.3981 -1.8741  2.5518
  476TMC3    C7 7142   2.797   1.298  10.848 -0.4312 -0.3603 -0.2171
  476TMC3    C8 7143   2.938   1.242  10.387 -0.2517  0.1229 -0.4597
  476TMC3    O1 7144   2.916   1.316  10.874 -0.3774  0.1674 -0.6329
  476TMC3    O2 7145   3.036   1.317  10.401 -0.1568 -0.4787  0.1992
  477MPD2     C 7146   0.046   2.537  11.970 -0.8378 -0.6417 -0.5315
  477MPD2    C1 7147   4.682   2.475  12.022  0.3537 -0.2670 -0.0334
  477MPD2    C2 7148   4.688   2.431  12.162 -0.6297  0.3834  0.6682
  477MPD2    C3 7149   0.056   2.477  12.238 -0.0691 -0.0677  1.0231
  477MPD2    C4 7150   0.156   2.548  12.185  0.6285 -0.1417 -0.0679
  477MPD2    C5 7151   0.155   2.566  12.049 -0.0889  0.5907 -0.2625
  477MPD2     H 7152   4.623   2.362  12.214  0.4979 -0.2268  1.2817
  477MPD2    H1 7153   0.243   2.585  12.238  0.2623  1.3626 -0.4966
  477MPD2    H2 7154   0.047   2.549  11.862 -0.6924 -3.2482 -0.8113
  477MPD2    H3 7155   0.236   2.616  11.998  0.3318 -0.1604 -0.3304
  477MPD2     N 7156   0.056   2.432  12.367 -0.6738  0.1024  0.2819
  477MPD2    H5 7157   4.712   2.386  12.393  0.0056 -0.5700  1.3321
  477MPD2    N1 7158   4.587   2.432  11.929 -0.0463  0.0387  0.4164
  477MPD2    H7 7159   4.592   2.456  11.831  0.0044 -0.5352  0.2769
  478TMC3    C1 7160   4.362   2.366  11.874 -0.3020 -0.2151  0.0477
  478TMC3    C2 7161   4.261   2.446  11.914 -0.1886  0.0809  0.6786
  478TMC3    C3 7162   4.215   2.545  11.834 -0.2829  0.7483 -0.0864
  478TMC3    C4 7163   4.417   2.386  11.753  0.8090 -0.2988 -0.1227
  478TMC3    C5 7164   4.360   2.473  11.670 -0.0361 -0.2747  0.7090
  478TMC3    C6 7165   4.259   2.554  11.707 -0.7555  0.6566 -0.4314
  478TMC3     C 7166   4.467   2.371  11.971  0.8008 -0.0815  0.9439
  478TMC3     O 7167   4.438   2.341  12.089 -0.5529 -0.6437 -0.3708
  478TMC3     H 7168   4.229   2.439  12.017  0.1953  2.3417  0.9335
  478TMC3    H1 7169   4.481   2.313  11.705  2.0407  0.8956 -0.2855
  478TMC3    H2 7170   4.215   2.629  11.642  1.1310  1.7383 -0.4644
  478TMC3    C7 7171   4.422   2.497  11.541  0.5811 -0.2367  0.0579
  478TMC3    C8 7172   4.190   2.668  11.905  0.0165  0.2204  0.0223
  478TMC3    O1 7173   4.538   2.525  11.542  0.2387 -0.3070 -0.4819
  478TMC3    O2 7174   4.246   2.680  12.016  0.5233  0.4233  0.4557
  479MPD2     C 7175   3.117   4.260  15.230 -0.1515 -0.0964  0.6683
  479MPD2    C1 7176   3.104   4.281  15.362 -0.1901  0.8371  0.2023
  479MPD2    C2 7177   3.181   4.386  15.419  0.2571  0.1700 -0.8791
  479MPD2    C3 7178   3.275   4.466  15.353 -0.3307  0.0282  0.4123
  479MPD2    C4 7179   3.288   4.434  15.222  0.1448 -0.3106  0.3845
  479MPD2    C5 7180   3.214   4.331  15.165  0.8630 -0.1683 -0.2257
  479MPD2     H 7181   3.173   4.406  15.526  3.3091 -0.7421 -0.4765
  479MPD2    H1 7182   3.367   4.486  15.170  1.0379 -1.6086  0.4442
  479MPD2    H2 7183   3.075   4.176  15.176 -1.0486  0.0375  1.1572
  479MPD2    H3 7184   3.238   4.310  15.061  1.8418 -0.9217  0.1575
  479MPD2     N 7185   3.366   4.557  15.410  0.3109  0.4028  0.0449
  479MPD2    H5 7186   3.435   4.597  15.347 -0.4418 -0.4817 -1.3447
  479MPD2    N1 7187   3.015   4.193  15.429  0.1350 -0.6587 -0.0720
  479MPD2    H7 7188   2.984   4.114  15.374  0.7500 -2.3296  1.9459
  480TMC3    C1 7189   3.592   0.070  15.736  0.1783 -0.4408  0.7129
  480TMC3    C2 7190   3.604   0.177  15.657 -0.2307 -0.3738 -0.8741
  480TMC3    C3 7191   3.560   0.160  15.528  0.5188  0.0910 -0.1823
  480TMC3    C4 7192   3.523   4.700  15.700  1.1711 -0.2407  0.5501
  480TMC3    C5 7193   3.474   4.686  15.574  0.8622  0.5619 -0.3683
  480TMC3    C6 7194   3.497   0.051  15.485 -0.1654  0.5806 -0.7647
  480TMC3     C 7195   3.658   0.080  15.865  0.4834  0.3173  0.1762
  480TMC3     O 7196   3.723   0.184  15.887  0.2598 -0.0255 -0.1980
  480TMC3     H 7197   3.646   0.270  15.695  0.0041 -0.5715 -0.6457
  480TMC3    H1 7198   3.497   4.620  15.768 -1.1253 -0.1389 -0.2255
  480TMC3    H2 7199   3.442   0.052  15.391 -1.3445  0.6551 -0.0652
  480TMC3    C7 7200   3.383   4.575  15.542 -1.0683 -0.4979  0.0794
  480TMC3    C8 7201   3.562   0.273  15.436 -0.6102  0.4874 -0.3928
  480TMC3    O1 7202   3.350   4.507  15.638  0.0156 -0.1200  0.1231
  480TMC3    O2 7203   3.567   0.382  15.487 -0.1094 -0.1238  0.4032
  481MPD2     C 7204   0.278   4.570  14.520 -0.1578 -0.0736  0.1186
  481MPD2    C1 7205   0.324   4.448  14.485 -0.1835 -0.2773  0.4433
  481MPD2    C2 7206   0.391   4.378  14.585  0.1733  0.0894 -0.1076
  481MPD2    C3 7207   0.406   4.431  14.708  0.0247  0.5304 -0.4243
  481MPD2    C4 7208   0.360   4.558  14.737  0.8656  0.3294 -0.3756
  481MPD2    C5 7209   0.287   4.630  14.641 -0.1159  0.7148  0.3603
  481MPD2     H 7210   0.405   4.271  14.573  2.7859  0.4876 -0.5289
  481MPD2    H1 7211   0.372   4.593  14.839  1.9120  0.1233 -0.4328
  481MPD2    H2 7212   0.226   4.626  14.443 -0.7962 -0.1595  0.4852
  481MPD2    H3 7213   0.238   4.724  14.663 -0.0468  0.3758  1.9975
  481MPD2     N 7214   0.452   4.342  14.807  0.4676  0.0921 -0.1386
  481MPD2    H5 7215   0.476   4.247  14.779  1.5446  0.3614 -0.1073
  481MPD2    N1 7216   0.313   4.400  14.346 -0.0352  0.2095  0.3779
  481MPD2    H7 7217   0.249   4.458  14.292 -2.8859 -0.0284  3.5380
  482TMC3    C1 7218   0.360   4.317  14.147 -0.3207 -0.3302  0.2201
  482TMC3    C2 7219   0.226   4.324  14.112  0.6039 -0.0569 -0.8217
  482TMC3    C3 7220   0.196   4.303  13.982 -0.7202  0.0843 -0.2222
  482TMC3    C4 7221   0.468   4.308  14.063 -0.2932 -0.2282 -0.1509
  482TMC3    C5 7222   0.437   4.303  13.932  1.1936  0.2570  0.2986
  482TMC3    C6 7223   0.304   4.289  13.894  0.0369 -0.2254 -0.0544
  482TMC3     C 7224   0.387   4.304  14.286  0.1657  0.1014 -0.2658
  482TMC3     O 7225   0.497   4.258  14.322  0.0080 -0.2216  0.1816
  482TMC3     H 7226   0.146   4.327  14.185  1.1002 -0.6731 -0.2483
  482TMC3    H1 7227   0.566   4.305  14.110 -0.4703 -2.4615  0.0625
  482TMC3    H2 7228   0.272   4.285  13.791  0.4439 -0.4059 -0.1767
  482TMC3    C7 7229   0.547   4.312  13.838  0.2691 -0.1253  0.0512
  482TMC3    C8 7230   0.067   4.242  13.953  0.2371  0.3495 -0.3182
  482TMC3    O1 7231   0.662   4.308  13.875 -0.5838 -0.0668 -0.9666
  482TMC3    O2 7232   0.012   4.197  14.055  0.3816 -0.3890 -0.1234
  483TMC3    C1 7233   3.318   3.583   1.071 -0.1633 -0.0301 -0.0571
  483TMC3    C2 7234   3.336   3.708   1.029 -0.1871 -0.0675  0.3818
  483TMC3    C3 7235   3.467   3.749   1.034  0.5986  0.5143  0.1081
  483TMC3    C4 7236   3.418   3.495   1.113 -0.4832 -0.0969  0.6080
  483TMC3    C5 7237   3.541   3.545   1.116  0.2222 -0.8751 -0.1449
  483TMC3    C6 7238   3.569   3.671   1.075  0.7483 -0.3597  0.1295
  483TMC3     C 7239   3.183   3.534   1.036 -0.1852  0.1660 -0.3368
  483TMC3     O 7240   3.090   3.618   1.028  0.5714  0.0061 -0.2672
  483TMC3     H 7241   3.262   3.782   1.002  0.7149  0.3252 -0.9980
  483TMC3    H1 7242   3.394   3.395   1.147  1.7485 -0.3564  1.4444
  483TMC3    H2 7243   3.675   3.696   1.071  0.3864  1.2519  0.4366
  483TMC3    C7 7244   3.652   3.451   1.124  0.6188 -0.4991  0.3394
  483TMC3    C8 7245   3.495   3.861   0.940 -0.1380 -0.0533  0.2810
  483TMC3    O1 7246   3.735   3.457   1.038  0.3536 -0.5511  0.1725
  483TMC3    O2 7247   3.412   3.870   0.849 -0.2096  0.2362  0.4163
  484MPD2     C 7248   0.973   1.041  12.684  0.3522 -0.5585  0.2105
  484MPD2    C1 7249   0.901   1.152  12.729 -0.0645 -0.1817 -0.2163
  484MPD2    C2 7250   0.908   1.271  12.661  0.1915 -0.9253 -0.2000
  484MPD2    C3 7251   0.996   1.273  12.548  0.3285 -0.1027 -0.8949
  484MPD2    C4 7252   1.065   1.167  12.508 -0.3982 -0.2742  0.3153
  484MPD2    C5 7253   1.053   1.053  12.572 -0.4615 -0.2128 -0.4335
  484MPD2     H 7254   0.848   1.358  12.686  0.3928 -0.9841  0.4950
  484MPD2    H1 7255   1.143   1.184  12.435 -1.5214  0.0935 -0.7883
  484MPD2    H2 7256   0.972   0.943  12.731 -0.1778 -0.7732 -0.2410
  484MPD2    H3 7257   1.118   0.972  12.542  0.9778  0.9418 -0.4315
  484MPD2     N 7258   1.033   1.401  12.498 -1.1160  0.9940 -0.2170
  484MPD2    H5 7259   1.114   1.412  12.437 -1.5706 -0.4551 -1.0867
  484MPD2    N1 7260   0.812   1.134  12.836  0.4592 -0.2860  0.1727
  484MPD2    H7 7261   0.801   1.037  12.862  1.8313 -0.4467  0.1516
  485TMC3    C1 7262   1.071   1.628  12.507  0.4530  0.1359 -0.3558
  485TMC3    C2 7263   1.165   1.648  12.600 -0.0265 -0.4131 -0.1800
  485TMC3    C3 7264   1.289   1.676  12.556  0.3193  0.1394  0.4857
  485TMC3    C4 7265   1.095   1.653  12.378  0.8289  0.2631 -0.3785
  485TMC3    C5 7266   1.215   1.702  12.340  0.0367  0.5347 -0.7443
  485TMC3    C6 7267   1.318   1.718  12.433 -0.3402 -0.1820  0.5775
  485TMC3     C 7268   0.976   1.522  12.527  0.2198 -0.0389 -0.0249
  485TMC3     O 7269   0.868   1.562  12.575  0.6752 -0.4659  0.1101
  485TMC3     H 7270   1.144   1.612  12.700 -0.2664 -1.1061 -0.4793
  485TMC3    H1 7271   1.024   1.622  12.302 -0.1214 -0.1643  0.6900
  485TMC3    H2 7272   1.410   1.759  12.392  0.1235  1.3696  3.1020
  485TMC3    C7 7273   1.262   1.641  12.219  0.1476  0.7424  0.0820
  485TMC3    C8 7274   1.398   1.600  12.602 -0.5287  0.3756  0.3495
  485TMC3    O1 7275   1.225   1.527  12.199 -0.1900 -0.5797 -0.0244
  485TMC3    O2 7276   1.502   1.607  12.536 -0.2879  0.4455 -0.2301
  486MPD2     C 7277   2.141   0.285  13.236 -0.6766  1.2842  1.1209
  486MPD2    C1 7278   2.275   0.278  13.219 -0.0582  0.9692 -0.9023
  486MPD2    C2 7279   2.335   0.359  13.128 -0.9840  0.6950  0.5220
  486MPD2    C3 7280   2.254   0.431  13.045  0.2800  0.1499 -0.1104
  486MPD2    C4 7281   2.110   0.431  13.060  0.3984  0.0176  0.9113
  486MPD2    C5 7282   2.058   0.359  13.161  0.3005  0.5711  0.3926
  486MPD2     H 7283   2.443   0.370  13.123 -0.7809 -1.5523 -0.0398
  486MPD2    H1 7284   2.033   0.487  13.009  0.0387 -0.2780  1.1215
  486MPD2    H2 7285   2.102   0.226  13.319  2.8197 -0.6694  1.4161
  486MPD2    H3 7286   1.951   0.361  13.171  0.0748  1.1371 -2.1504
  486MPD2     N 7287   2.313   0.515  12.953  0.0428  0.0705  0.1920
  486MPD2    H5 7288   2.414   0.508  12.951 -0.0820 -1.6852  0.1321
  486MPD2    N1 7289   2.346   0.194  13.303  0.8715 -0.4422  0.0813
  486MPD2    H7 7290   2.286   0.136  13.360 -0.2525  0.6157 -0.0447
  487TMC3    C1 7291   2.524   0.045  13.365 -0.0855  0.1829  0.2143
  487TMC3    C2 7292   2.655   0.011  13.339  0.8213  0.8012  0.0927
  487TMC3    C3 7293   2.709   4.662  13.420  0.2338  0.1875 -0.1825
  487TMC3    C4 7294   2.448   4.734  13.471  0.3486 -0.2378  0.0813
  487TMC3    C5 7295   2.508   4.642  13.548  0.4121  0.0315 -0.4269
  487TMC3    C6 7296   2.635   4.596  13.516  0.6158  0.5779 -0.8947
  487TMC3     C 7297   2.479   0.173  13.304  0.2986 -0.5043  0.4349
  487TMC3     O 7298   2.572   0.244  13.266 -0.4797  0.7147  0.7462
  487TMC3     H 7299   2.707   0.045  13.250 -1.2344  1.2466 -0.9440
  487TMC3    H1 7300   2.361   0.048  13.505  0.8420  1.2563 -1.1018
  487TMC3    H2 7301   2.689   4.548  13.597  1.1894  0.1356 -1.5358
  487TMC3    C7 7302   2.424   4.562  13.638 -0.0873 -0.2619  0.0943
  487TMC3    C8 7303   2.827   4.582  13.391  0.0588 -0.1990  0.7361
  487TMC3    O1 7304   2.486   4.504  13.727  0.1276  0.4427 -0.1250
  487TMC3    O2 7305   2.899   4.557  13.486  0.2825  0.2540  0.3010
  488MPD2     C 7306   3.006   1.715  16.464  0.4690  0.0586 -0.1171
  488MPD2    C1 7307   3.066   1.800  16.555  0.2336  0.0243 -0.3403
  488MPD2    C2 7308   3.039   1.788  16.691  0.0529  0.1869  0.3852
  488MPD2    C3 7309   2.942   1.696  16.732 -0.2249 -0.0154 -0.4617
  488MPD2    C4 7310   2.884   1.602  16.646 -0.2783  0.0807  0.3176
  488MPD2    C5 7311   2.918   1.620  16.512  0.0208  0.0740 -0.3764
  488MPD2     H 7312   3.079   1.863  16.757  0.0771  0.0537  0.5226
  488MPD2    H1 7313   2.814   1.524  16.675  0.6046 -0.5769  0.6790
  488MPD2    H2 7314   3.024   1.716  16.357  3.0000 -0.0000  0.3028
  488MPD2    H3 7315   2.881   1.550  16.438  1.2162 -2.1931  1.1479
  488MPD2     N 7316   2.900   1.712  16.870  0.1344  0.2591 -0.4065
  488MPD2    H5 7317   2.930   1.798  16.914 -0.4162  0.0108  0.4341
  488MPD2    N1 7318   3.157   1.902  16.518 -0.5162  0.7989  0.7727
  488MPD2    H7 7319   3.196   1.955  16.595  0.8431  1.3908 -0.3169
  489TMC3    C1 7320   2.784   1.692  17.075 -0.7730 -0.4367 -0.7103
  489TMC3    C2 7321   2.819   1.820  17.100 -0.1333 -0.1993 -0.6469
  489TMC3    C3 7322   2.854   1.843  17.231 -0.3004  0.1738  0.3220
  489TMC3    C4 7323   2.746   1.600  17.174  0.4390  0.3000  0.0317
  489TMC3    C5 7324   2.782   1.634  17.299 -0.1998 -0.7300  0.0572
  489TMC3    C6 7325   2.829   1.755  17.338  0.0343 -0.8952  0.0736
  489TMC3     C 7326   2.813   1.633  16.945  0.1761 -0.4071 -0.8921
  489TMC3     O 7327   2.759   1.528  16.921 -0.1019 -0.5436  0.1128
  489TMC3     H 7328   2.842   1.893  17.023 -0.8778 -0.5438 -1.1993
  489TMC3    H1 7329   2.743   1.493  17.154  1.5671  0.2645  0.0774
  489TMC3    H2 7330   2.858   1.789  17.437 -1.9278  2.8525 -0.6341
  489TMC3    C7 7331   2.752   1.539  17.410 -1.1236 -0.0604 -0.1791
  489TMC3    C8 7332   2.951   1.954  17.229  0.6930 -0.2154 -0.2439
  489TMC3    O1 7333   2.795   1.567  17.522 -0.3047  0.0463  0.0514
  489TMC3    O2 7334   3.021   1.968  17.131 -0.4347 -0.4777  0.6836
  490MPD2     C 7335   4.401   1.584  17.319 -0.4252 -0.1909 -0.5539
  490MPD2    C1 7336   4.368   1.593  17.452 -0.1799 -0.0571 -0.0050
  490MPD2    C2 7337   4.357   1.723  17.507  0.4608  0.6871 -0.1757
  490MPD2    C3 7338   4.401   1.833  17.438  0.2072  0.2612  0.5951
  490MPD2    C4 7339   4.442   1.824  17.308  0.1758  0.3024 -0.2044
  490MPD2    C5 7340   4.438   1.698  17.244  0.0516 -0.3259  0.0058
  490MPD2     H 7341   4.324   1.730  17.610  0.1908 -0.1851 -0.1982
  490MPD2    H1 7342   4.486   1.906  17.252  1.8428 -0.4045  0.0554
  490MPD2    H2 7343   4.410   1.490  17.265 -0.2025 -2.0385  2.6795
  490MPD2    H3 7344   4.471   1.690  17.141 -0.4626  0.3865 -0.2130
  490MPD2     N 7345   4.413   1.962  17.500 -0.3531  0.4035  0.0814
  490MPD2    H5 7346   4.469   2.030  17.449  0.9742  0.0777  1.0985
  490MPD2    N1 7347   4.348   1.482  17.537  0.5460  0.0198  0.1219
  490MPD2    H7 7348   4.305   1.511  17.623  0.0466  0.6323 -0.3389
  491TMC3    C1 7349   4.347   1.265  17.620 -0.1077  0.4190 -0.4278
  491TMC3    C2 7350   4.329   1.300  17.748  0.0419  1.1567 -0.6276
  491TMC3    C3 7351   4.267   1.206   0.063 -0.0099 -0.2629  0.8320
  491TMC3    C4 7352   4.318   1.140  17.577  0.1535 -0.0934 -0.3133
  491TMC3    C5 7353   4.269   1.044  17.664  0.0828  0.0512 -0.3186
  491TMC3    C6 7354   4.232   1.086   0.023  0.2901 -0.4736 -0.6154
  491TMC3     C 7355   4.393   1.353  17.516  0.2328 -0.4536 -0.2675
  491TMC3     O 7356   4.454   1.302  17.423  0.5165 -0.4546  0.3405
  491TMC3     H 7357   4.349   1.400   0.019 -2.1532  1.6801 -0.8616
  491TMC3    H1 7358   4.332   1.122  17.471 -2.7704  1.2200 -0.9252
  491TMC3    H2 7359   4.164   1.031   0.087  0.4463  2.2317  1.8937
  491TMC3    C7 7360   4.167   0.967  17.597 -0.4840  0.6009  0.1052
  491TMC3    C8 7361   4.194   1.254   0.184  1.0151 -0.1772 -0.5892
  491TMC3    O1 7362   4.118   1.022  17.500  0.0822  0.2257 -0.2310
  491TMC3    O2 7363   4.118   1.178   0.245  0.3881 -0.1928  0.8089
  492MPD2     C 7364   4.296   1.301  11.358 -0.0809 -0.0900  0.1863
  492MPD2    C1 7365   4.255   1.171  11.319 -0.6723  0.5224 -0.0566
  492MPD2    C2 7366   4.204   1.092  11.413 -0.1428  0.3988  0.0136
  492MPD2    C3 7367   4.190   1.140  11.539  0.0486  0.0811  0.4497
  492MPD2    C4 7368   4.235   1.266  11.576  0.1194  0.6031  0.1185
  492MPD2    C5 7369   4.295   1.346  11.485  0.7279 -0.9380 -0.3348
  492MPD2     H 7370   4.156   0.996  11.397 -1.3110  0.9349  0.2630
  492MPD2    H1 7371   4.210   1.300  11.676 -2.1188  2.0308 -0.9369
  492MPD2    H2 7372   4.328   1.372  11.283 -1.2447  0.5017  0.2443
  492MPD2    H3 7373   4.322   1.448  11.510  0.1567 -1.5016  2.6050
  492MPD2     N 7374   4.132   1.070  11.645  0.2708 -0.3727 -0.0993
  492MPD2    H5 7375   4.126   1.120  11.734 -2.1708  0.2606 -0.5991
  492MPD2    N1 7376   4.275   1.128  11.184 -0.0504 -0.2006 -0.4672
  492MPD2    H7 7377   4.313   1.196  11.120  1.5049 -2.3419 -1.8076
  493TMC3    C1 7378   4.241   0.994  10.991  0.0529 -1.1683  0.7031
  493TMC3    C2 7379   4.347   1.058  10.934 -0.3883  0.3915  0.1867
  493TMC3    C3 7380   4.369   1.033  10.804  0.2080 -0.7057 -0.5684
  493TMC3    C4 7381   4.157   0.913  10.926  0.2328  0.0252  0.5000
  493TMC3    C5 7382   4.175   0.900  10.792  0.5808 -0.4532  0.3471
  493TMC3    C6 7383   4.292   0.953  10.729 -0.1612  0.2197 -0.6464
  493TMC3     C 7384   4.223   1.016  11.131 -0.1280  0.7965  0.2488
  493TMC3     O 7385   4.168   0.921  11.181  0.3531  0.0634  0.3375
  493TMC3     H 7386   4.420   1.115  10.990  0.1254 -0.7529  0.6805
  493TMC3    H1 7387   4.068   0.867  10.967  1.4638 -2.1490  0.7637
  493TMC3    H2 7388   4.281   0.973  10.623 -0.3649 -1.3742 -0.9226
  493TMC3    C7 7389   4.055   0.867  10.713 -0.5857 -0.0767 -0.6195
  493TMC3    C8 7390   4.475   1.099  10.727  0.3805  0.2250 -0.4425
  493TMC3    O1 7391   3.950   0.903  10.762  0.2512 -0.3403 -0.2955
  493TMC3    O2 7392   4.531   1.043  10.637 -0.3094  0.6326  0.9999
  494TMC3    C1 7393   4.624   3.361   0.368  0.5013 -0.3816  0.2466
  494TMC3    C2 7394   4.659   3.234   0.377  0.5565 -0.1082 -0.6880
  494TMC3    C3 7395   0.031   3.195   0.319  0.2809  0.2419 -1.0429
  494TMC3    C4 7396   4.683   3.453   0.284  0.1161  0.9809 -0.0928
  494TMC3    C5 7397   0.050   3.405   0.221 -0.3827  0.1480 -0.4310
  494TMC3    C6 7398   0.104   3.280   0.244  0.6507 -0.2031 -0.0817
  494TMC3     C 7399   4.591   3.433   0.485  0.6684  1.2365  1.2112
  494TMC3     O 7400   4.674   3.425   0.578 -0.5044 -0.1283 -0.0071
  494TMC3     H 7401   4.607   3.171   0.449 -2.2506  1.5237 -1.2845
  494TMC3    H1 7402   4.652   3.555   0.267  0.8910  0.9387 -1.7670
  494TMC3    H2 7403   0.197   3.243   0.202  0.3818 -1.6678  0.6128
  494TMC3    C7 7404   0.137   3.495   0.142  0.4579 -0.2101 -0.0409
  494TMC3    C8 7405   0.106   3.079   0.368  0.4827 -0.1358  0.1501
  494TMC3    O1 7406   0.255   3.464   0.127 -0.2081 -0.7161 -0.6305
  494TMC3    O2 7407   0.226   3.074   0.367  0.1981  0.1847  0.0915
  495TMC3    C1 7408   3.502   4.691  14.492 -0.4738  0.3077 -0.2755
  495TMC3    C2 7409   3.507   0.041  14.391 -0.7087  0.5770  0.5423
  495TMC3    C3 7410   3.471   0.168  14.431  0.5050  0.2630 -0.2450
  495TMC3    C4 7411   3.500   4.726  14.622 -0.1165  0.0343  0.4058
  495TMC3    C5 7412   3.504   0.115  14.650 -0.0380  0.6796  0.1181
  495TMC3    C6 7413   3.483   0.212  14.557  0.6968  0.3031 -0.2429
  495TMC3     C 7414   3.456   4.559  14.465 -0.2298 -0.4399 -0.0293
  495TMC3     O 7415   3.431   4.486  14.558 -0.6953 -0.6520  0.5336
  495TMC3     H 7416   3.509   0.011  14.287 -0.1948  0.4229  0.5985
  495TMC3    H1 7417   3.502   4.649  14.698 -0.8699 -0.0613  0.3296
  495TMC3    H2 7418   3.484   0.318  14.580  0.8458  0.3156 -0.3074
  495TMC3    C7 7419   3.513   0.157  14.786 -0.1670  0.0599 -0.0746
  495TMC3    C8 7420   3.471   0.267  14.324 -1.2522 -0.8156 -0.0898
  495TMC3    O1 7421   3.542   0.068  14.862  0.0951  0.3030 -0.1461
  495TMC3    O2 7422   3.536   0.367  14.349 -0.1456  0.2866  0.0219
  496MPD2     C 7423   0.628   0.442  15.272 -0.1943  0.3191 -0.1423
  496MPD2    C1 7424   0.646   0.444  15.410 -0.1349  0.0989 -0.6566
  496MPD2    C2 7425   0.571   0.356  15.490  0.4018 -0.3230 -0.0942
  496MPD2    C3 7426   0.466   0.281  15.431  0.1074  0.1579 -0.1569
  496MPD2    C4 7427   0.440   0.286  15.292  0.3063 -0.1015  0.4712
  496MPD2    C5 7428   0.529   0.364  15.213 -0.4487  0.1940  0.9042
  496MPD2     H 7429   0.601   0.341  15.593  0.9726  2.4573  0.1430
  496MPD2    H1 7430   0.368   0.221  15.245  0.4838 -1.0792  1.5480
  496MPD2    H2 7431   0.688   0.508  15.211  0.5807  0.8197  1.1719
  496MPD2    H3 7432   0.514   0.375  15.106 -0.9990 -0.4370  0.9098
  496MPD2     N 7433   0.395   0.192  15.518 -0.4103 -0.0326 -0.2609
  496MPD2    H5 7434   0.368   0.102  15.481 -0.1983 -1.2521  2.5766
  496MPD2    N1 7435   0.765   0.511  15.459 -0.5404  0.3834 -0.3859
  496MPD2    H7 7436   0.825   0.545  15.385  1.7761 -1.1040  0.8243
  497TMC3    C1 7437   0.344   0.102  15.729 -0.9324  0.2207 -0.4087
  497TMC3    C2 7438   0.404   4.723  15.686 -0.7109 -0.2385  0.3238
  497TMC3    C3 7439   0.425   4.627  15.780 -0.2759  0.7349  0.5326
  497TMC3    C4 7440   0.313   0.125  15.864 -0.1523 -0.0552  0.1843
  497TMC3    C5 7441   0.347   0.025  15.948  0.7122 -0.6655 -0.3519
  497TMC3    C6 7442   0.395   4.643  15.913 -0.2650  0.0989 -0.5840
  497TMC3     C 7443   0.371   0.220  15.653  0.1890 -0.2013 -0.3486
  497TMC3     O 7444   0.366   0.327  15.711  0.5374 -0.0581  0.1360
  497TMC3     H 7445   0.440   4.699  15.586 -1.5282  2.1415 -0.5288
  497TMC3    H1 7446   0.273   0.220  15.897 -2.4246 -0.6373 -0.9184
  497TMC3    H2 7447   0.415   4.565  15.986  1.9036  1.8905  0.7619
  497TMC3    C7 7448   0.368   0.067  16.082  0.0580 -0.2303  0.4418
  497TMC3    C8 7449   0.449   4.490  15.724 -0.4371 -0.0553 -0.0069
  497TMC3    O1 7450   0.346   4.722  16.166  0.0128  0.5168  0.2307
  497TMC3    O2 7451   0.484   4.482  15.605 -0.4532 -0.3013 -0.2992
  498MPD2     C 7452   1.813   1.049  10.021  0.3584 -0.3977  0.0707
  498MPD2    C1 7453   1.710   1.113  10.079  0.5975  0.1554  0.0929
  498MPD2    C2 7454   1.589   1.043  10.099  0.1432 -0.0273 -0.6273
  498MPD2    C3 7455   1.569   0.916  10.048 -0.6130 -0.1108  0.2784
  498MPD2    C4 7456   1.674   0.853   9.993 -0.2581  0.2701  0.0405
  498MPD2    C5 7457   1.789   0.922   9.971 -0.0346  1.5982  0.2268
  498MPD2     H 7458   1.512   1.082  10.164  0.5968 -1.9066  1.0385
  498MPD2    H1 7459   1.669   0.751   9.956  0.9776  1.0967 -2.4015
  498MPD2    H2 7460   1.914   1.087  10.011 -0.1189  0.3825 -1.8898
  498MPD2    H3 7461   1.880   0.868   9.945 -0.9218  0.0498  0.3562
  498MPD2     N 7462   1.443   0.846  10.065  0.2573  0.5477 -0.0707
  498MPD2    H5 7463   1.357   0.893  10.092  0.2801  0.6263 -0.1363
  498MPD2    N1 7464   1.721   1.246  10.132  0.0805  0.3702 -0.3553
  498MPD2    H7 7465   1.634   1.293  10.156 -0.6204 -0.5359 -1.1023
  499TMC3    C1 7466   1.817   1.457  10.205  0.4959 -0.5982  0.6499
  499TMC3    C2 7467   1.926   1.533  10.222  0.4260  0.5905  0.1292
  499TMC3    C3 7468   1.914   1.666  10.259  0.4728 -0.0316  0.0720
  499TMC3    C4 7469   1.694   1.505  10.243  0.3277 -0.3608 -0.1735
  499TMC3    C5 7470   1.684   1.636  10.292 -0.5874  0.4795 -0.4434
  499TMC3    C6 7471   1.794   1.721  10.285  0.0148  0.3505 -0.3647
  499TMC3     C 7472   1.842   1.316  10.152 -0.0776  0.2061  0.4116
  499TMC3     O 7473   1.954   1.285  10.123  0.3815  0.0967 -0.2015
  499TMC3     H 7474   2.029   1.498  10.214  0.5253  0.2876  2.5766
  499TMC3    H1 7475   1.614   1.438  10.267  0.5200 -0.2191  0.8397
  499TMC3    H2 7476   1.791   1.819  10.331 -3.9270 -0.5823  1.3334
  499TMC3    C7 7477   1.558   1.700  10.290  0.2938  0.5198 -0.0795
  499TMC3    C8 7478   2.020   1.757  10.224  0.3447 -0.0122  0.6586
  499TMC3    O1 7479   1.559   1.821  10.279  0.4374  0.1098 -0.0137
  499TMC3    O2 7480   2.133   1.712  10.221 -0.0384  0.3920  0.0279
  500MPD2     C 7481   2.666   2.829  10.325 -0.3623  0.0137  0.8105
  500MPD2    C1 7482   2.674   2.711  10.389  0.2354  0.0015  0.1772
  500MPD2    C2 7483   2.557   2.640  10.407  0.6112 -0.4379  0.0971
  500MPD2    C3 7484   2.427   2.685  10.377 -0.7710 -0.1878  0.2209
  500MPD2    C4 7485   2.420   2.810  10.318  0.2431  0.1817  0.7338
  500MPD2    C5 7486   2.537   2.878  10.293 -0.3706  0.0233  0.0400
  500MPD2     H 7487   2.560   2.537  10.443 -0.7585 -0.9535 -1.2477
  500MPD2    H1 7488   2.326   2.856  10.292  0.9051 -0.0601 -2.0364
  500MPD2    H2 7489   2.754   2.886  10.298  0.4453 -1.1524  0.9799
  500MPD2    H3 7490   2.514   2.979  10.261 -0.4208  0.6297  2.0087
  500MPD2     N 7491   2.310   2.604  10.376 -0.5977 -0.5125  0.6118
  500MPD2    H5 7492   2.224   2.639  10.337 -1.8790 -1.9919  2.1333
  500MPD2    N1 7493   2.803   2.656  10.425 -0.3304 -0.6184 -0.2034
  500MPD2    H7 7494   2.886   2.697  10.383  1.0991 -1.8633  1.4292
  501TMC3    C1 7495   2.964   2.504  10.518 -0.6523 -0.0807  0.6868
  501TMC3    C2 7496   3.052   2.580  10.452  0.4048 -0.1791 -0.7105
  501TMC3    C3 7497   3.177   2.523  10.431  0.5977  0.8912  0.5690
  501TMC3    C4 7498   2.997   2.386  10.586 -0.5860  0.0179  0.0741
  501TMC3    C5 7499   3.122   2.334  10.566 -0.5499 -0.1405  0.1561
  501TMC3    C6 7500   3.212   2.396  10.488 -0.1131 -0.3509 -0.0449
  501TMC3     C 7501   2.824   2.543  10.508  0.0845  0.4195  0.2864
  501TMC3     O 7502   2.745   2.476  10.574  0.3489 -1.1666 -0.0419
  501TMC3     H 7503   3.048   2.687  10.438  2.4360 -0.3239 -2.4470
  501TMC3    H1 7504   2.919   2.339  10.644 -1.0067 -1.6143 -1.8384
  501TMC3    H2 7505   3.304   2.352  10.451 -0.7760 -2.2329  0.5589
  501TMC3    C7 7506   3.188   2.280  10.682  0.0788  0.5683 -0.2937
  501TMC3    C8 7507   3.286   2.613  10.415  0.1498 -1.4172 -0.2947
  501TMC3    O1 7508   3.312   2.277  10.683 -0.0808  0.0646  0.3142
  501TMC3    O2 7509   3.284   2.720  10.474 -0.5160 -0.4371  0.4075
  502TMC3    C1 7510   3.268   1.517  15.416 -0.3951 -0.1084 -0.8244
  502TMC3    C2 7511   3.207   1.638  15.409 -0.4352  0.1844 -0.5058
  502TMC3    C3 7512   3.099   1.663  15.331  0.5392 -0.1318  0.8418
  502TMC3    C4 7513   3.201   1.408  15.361  0.4316  0.5140  0.0160
  502TMC3    C5 7514   3.086   1.432  15.285 -0.5301 -0.4072  0.3693
  502TMC3    C6 7515   3.035   1.557  15.269  0.1320  0.0147  0.2201
  502TMC3     C 7516   3.355   1.494  15.528  0.3999  0.0229 -0.6303
  502TMC3     O 7517   3.439   1.576  15.564 -0.1880 -0.1891  0.2457
  502TMC3     H 7518   3.258   1.711  15.470 -1.5840 -1.8948  2.9168
  502TMC3    H1 7519   3.238   1.306  15.362  0.9223  0.6981  0.7152
  502TMC3    H2 7520   2.950   1.581  15.206  0.0845 -1.3116 -0.2228
  502TMC3    C7 7521   3.025   1.322  15.216  0.3808 -0.0607  0.2209
  502TMC3    C8 7522   3.072   1.790  15.280 -0.1597 -0.6539  0.2130
  502TMC3    O1 7523   3.094   1.223  15.183  0.7038 -0.3692  0.1137
  502TMC3    O2 7524   3.020   1.793  15.168  0.2259 -0.1250 -0.3467
  503MPD2     C 7525   0.301   2.162  16.875  0.1826 -0.5874 -0.4623
  503MPD2    C1 7526   0.300   2.200  17.007 -0.0160 -0.3568  0.0237
  503MPD2    C2 7527   0.330   2.104  17.105 -0.0052 -0.0611 -0.0131
  503MPD2    C3 7528   0.378   1.976  17.074 -0.1412 -0.3630  0.6584
  503MPD2    C4 7529   0.375   1.939  16.937  0.1812 -0.4360  0.0866
  503MPD2    C5 7530   0.332   2.032  16.849  0.1185 -0.2933  0.9426
  503MPD2     H 7531   0.338   2.136  17.208  0.4372  1.6598 -0.5895
  503MPD2    H1 7532   0.399   1.839  16.903 -0.2169 -0.3014 -0.5830
  503MPD2    H2 7533   0.264   2.229  16.799 -1.4975 -1.1699 -0.1440
  503MPD2    H3 7534   0.329   2.010  16.743  1.3820 -1.4739  1.1685
  503MPD2     N 7535   0.436   1.904  17.175 -0.2642 -0.4890 -0.2893
  503MPD2    H5 7536   0.446   1.947  17.267 -2.4646  2.0069 -1.2191
  503MPD2    N1 7537   0.261   2.328  17.047  0.8260 -0.7919 -0.0113
  503MPD2    H7 7538   0.266   2.347  17.147  0.9556 -0.5908 -0.0565
  504TMC3    C1 7539   0.552   1.739  17.293  0.4620  0.2293 -0.2386
  504TMC3    C2 7540   0.609   1.840  17.366  0.0174 -0.1683  0.6689
  504TMC3    C3 7541   0.696   1.816  17.474  0.4532  0.7747 -0.7374
  504TMC3    C4 7542   0.562   1.611  17.338 -0.3209 -0.1647  0.7262
  504TMC3    C5 7543   0.644   1.586  17.447 -0.3042 -0.0127 -0.0755
  504TMC3    C6 7544   0.709   1.682  17.521 -0.5182  0.2466  0.2024
  504TMC3     C 7545   0.475   1.769  17.175  0.0873 -0.5722 -0.3528
  504TMC3     O 7546   0.462   1.680  17.093  0.4442 -0.4089 -0.5865
  504TMC3     H 7547   0.607   1.945  17.340  3.0732 -0.3909 -0.5050
  504TMC3    H1 7548   0.521   1.530  17.279  2.8549  1.0419 -3.1174
  504TMC3    H2 7549   0.790   1.657  17.588  0.3103 -0.0545 -0.9109
  504TMC3    C7 7550   0.725   1.468  17.418  0.2435 -0.3019 -0.1983
  504TMC3    C8 7551   0.669   1.921  17.574  0.7663 -0.1019 -0.0833
  504TMC3    O1 7552   0.849   1.487  17.418 -0.1123 -0.0348  0.4271
  504TMC3    O2 7553   0.593   2.012  17.544 -0.9482  0.4314 -0.3314
  505MPD2     C 7554   0.314   0.038  10.285  0.4175 -0.0562 -0.4421
  505MPD2    C1 7555   0.331   4.699  10.179  0.2334 -0.4741 -0.4493
  505MPD2    C2 7556   0.408   4.581  10.186 -0.7254 -0.1373 -0.3016
  505MPD2    C3 7557   0.473   4.561  10.306  0.3464 -0.0520  0.2289
  505MPD2    C4 7558   0.459   4.640  10.413  0.3844  0.0249  0.4572
  505MPD2    C5 7559   0.381   0.014  10.400 -0.0131 -0.0584 -0.1779
  505MPD2     H 7560   0.435   4.512  10.107 -0.1779 -0.2250 -0.0389
  505MPD2    H1 7561   0.513   4.620  10.505  0.9519 -0.6481 -0.0200
  505MPD2    H2 7562   0.269   0.135  10.269  0.4095  0.6231  3.6975
  505MPD2    H3 7563   0.381   0.082  10.484  0.9976  0.6155 -0.7302
  505MPD2     N 7564   0.568   4.454  10.308  0.0633 -0.4714  0.5033
  505MPD2    H5 7565   0.580   4.409  10.218  0.2442 -1.8855  1.2369
  505MPD2    N1 7566   0.284   0.013  10.057  0.2217  0.1158  0.0779
  505MPD2    H7 7567   0.229   0.098  10.059 -0.3885 -0.3032  0.9997
  506TMC3    C1 7568   0.289   0.061   9.832  0.2604  0.9412 -0.3048
  506TMC3    C2 7569   0.331   0.188   9.867 -0.7696 -0.2603 -0.2074
  506TMC3    C3 7570   0.402   0.257   9.768  0.9715 -0.2359 -0.5109
  506TMC3    C4 7571   0.319   0.013   9.702 -0.0997  0.6571 -0.5177
  506TMC3    C5 7572   0.398   0.086   9.615  0.7260  0.0634 -0.8531
  506TMC3    C6 7573   0.430   0.214   9.638 -0.4102 -0.3673  0.3995
  506TMC3     C 7574   0.309   4.703   9.938 -0.1013 -0.4753 -0.2351
  506TMC3     O 7575   0.378   4.608   9.910  0.8751 -0.7683  0.0791
  506TMC3     H 7576   0.331   0.231   9.967 -0.7675  0.7327 -0.6317
  506TMC3    H1 7577   0.305   4.652   9.670  2.7624  0.3699 -0.8089
  506TMC3    H2 7578   0.484   0.279   9.570 -0.0043 -2.5681 -1.3865
  506TMC3    C7 7579   0.518   0.024   9.562  0.4264  0.0337 -0.9255
  506TMC3    C8 7580   0.472   0.372   9.819 -0.6461 -0.3994 -0.0272
  506TMC3    O1 7581   0.583   0.071   9.470  0.6076 -0.2227 -0.0067
  506TMC3    O2 7582   0.469   0.400   9.937  0.2121 -1.2349  0.2715
  507TMC3    C1 7583   1.711   1.238  14.858 -0.1789 -0.2702  0.5044
  507TMC3    C2 7584   1.751   1.195  14.733  0.9363  0.2922 -0.3009
  507TMC3    C3 7585   1.837   1.277  14.674 -0.5941  0.0800  0.1655
  507TMC3    C4 7586   1.756   1.341  14.926  0.1490 -0.3730 -0.0347
  507TMC3    C5 7587   1.843   1.426  14.860  0.1296  0.1915  0.4042
  507TMC3    C6 7588   1.898   1.386  14.741  0.6884 -0.3651  0.1453
  507TMC3     C 7589   1.565   1.228  14.862 -0.0636  0.9377 -0.3210
  507TMC3     O 7590   1.508   1.193  14.760 -0.4401 -0.2062  0.3636
  507TMC3     H 7591   1.716   1.101  14.691 -0.5709  0.2292  1.0836
  507TMC3    H1 7592   1.701   1.397  15.001 -1.9522 -1.6973 -0.5824
  507TMC3    H2 7593   1.945   1.463  14.680 -0.1694  0.0650  0.0107
  507TMC3    C7 7594   1.789   1.559  14.841 -0.4159  0.6898  0.7428
  507TMC3    C8 7595   1.773   1.325  14.549 -0.1601  0.0217  0.2358
  507TMC3    O1 7596   1.665   1.568  14.840 -0.4493  0.3917  0.5186
  507TMC3    O2 7597   1.835   1.400  14.474 -0.0643  0.0353  0.0929
  508MPD2     C 7598   2.602   3.536  16.362 -0.2783 -1.6397 -0.0623
  508MPD2    C1 7599   2.627   3.663  16.416  0.4367  0.3897  0.2827
  508MPD2    C2 7600   2.578   3.773  16.347 -0.4093  0.2133  0.5405
  508MPD2    C3 7601   2.522   3.757  16.221  1.2319  0.6378 -0.6887
  508MPD2    C4 7602   2.505   3.628  16.169  0.2590 -0.2067  0.1953
  508MPD2    C5 7603   2.543   3.521  16.239 -0.1566  0.4054  0.0400
  508MPD2     H 7604   2.585   3.874  16.385  6.1368 -1.0473  2.7135
  508MPD2    H1 7605   2.476   3.619  16.065  0.3532 -1.5162  0.2820
  508MPD2    H2 7606   2.623   3.441  16.410  1.8099 -0.7521  0.8251
  508MPD2    H3 7607   2.538   3.422  16.195  1.2302  0.2660  0.1885
  508MPD2     N 7608   2.484   3.876  16.152 -0.3893  0.1657 -0.1684
  508MPD2    H5 7609   2.501   3.962  16.204  0.1894 -1.0732  1.6840
  508MPD2    N1 7610   2.696   3.677  16.533 -0.4312  0.4416  0.0807
  508MPD2    H7 7611   2.736   3.592  16.571 -1.0852 -0.3670 -1.0323
  509TMC3    C1 7612   2.345   4.183  15.841  0.2375 -0.2316 -0.1199
  509TMC3    C2 7613   2.453   4.268  15.874  0.2564 -0.6522  0.3766
  509TMC3    C3 7614   2.542   4.222  15.972 -1.0973 -0.2955 -0.0510
  509TMC3    C4 7615   2.338   4.063  15.888  0.2787 -0.1262  0.5373
  509TMC3    C5 7616   2.425   4.025  15.987 -0.1559 -0.2800  0.6501
  509TMC3    C6 7617   2.526   4.101  16.039 -0.1798  0.0804  0.9565
  509TMC3     C 7618   2.258   4.200  15.729 -0.5276  0.4868  0.4663
  509TMC3     O 7619   2.153   4.137  15.733  0.1767 -0.6896 -0.1550
  509TMC3     H 7620   2.463   4.367  15.831 -1.1589 -0.0794  1.3506
  509TMC3    H1 7621   2.265   3.993  15.848  1.0527 -0.4703 -0.2557
  509TMC3    H2 7622   2.600   4.066  16.111  1.6088 -1.0858 -1.4436
  509TMC3    C7 7623   2.426   3.885  16.030 -0.4242 -0.3734 -0.5486
  509TMC3    C8 7624   2.666   4.284  15.988 -0.3481 -0.1542 -0.8003
  509TMC3    O1 7625   2.367   3.812  15.956 -0.2012 -0.1555 -0.4328
  509TMC3    O2 7626   2.758   4.213  16.027  0.1867 -0.4614 -0.0463
  510MPD2     C 7627   0.131   0.662  14.964 -0.2934 -0.2896  0.1714
  510MPD2    C1 7628   0.166   0.539  15.007  0.4590 -0.5073  0.0713
  510MPD2    C2 7629   0.253   0.467  14.926 -0.2003 -0.5807 -0.7446
  510MPD2    C3 7630   0.326   0.526  14.823 -0.2466 -0.5245 -0.4695
  510MPD2    C4 7631   0.301   0.657  14.792  0.8386 -0.7291  0.0287
  510MPD2    C5 7632   0.200   0.723  14.865 -0.3226 -0.3129 -0.0839
  510MPD2     H 7633   0.277   0.365  14.951  2.1368  0.2459  0.4221
  510MPD2    H1 7634   0.357   0.711  14.716 -1.7277  0.2071 -1.2097
  510MPD2    H2 7635   0.052   0.723  15.007  0.0083  1.1537 -1.3187
  510MPD2    H3 7636   0.178   0.828  14.847  1.1518 -0.1901 -1.1282
  510MPD2     N 7637   0.441   0.460  14.770 -0.1720  0.9666  0.3185
  510MPD2    H5 7638   0.460   0.369  14.811  1.2952 -0.0358 -2.5309
  510MPD2    N1 7639   0.107   0.484  15.124 -0.0885  0.0376  0.0908
  510MPD2    H7 7640   0.118   0.384  15.138 -1.4910 -0.3085 -1.3554
  511TMC3    C1 7641   4.712   0.460  15.315  0.2773  0.0925 -0.0119
  511TMC3    C2 7642   4.603   0.512  15.372 -0.0094 -0.1638 -0.7153
  511TMC3    C3 7643   4.521   0.428  15.439 -0.0693  0.3730 -0.4483
  511TMC3    C4 7644   0.015   0.328  15.328 -0.1088 -0.5623 -0.2114
  511TMC3    C5 7645   4.673   0.253  15.408 -0.3956  0.1933  0.0090
  511TMC3    C6 7646   4.552   0.301  15.461 -0.5917 -0.1787  0.6300
  511TMC3     C 7647   0.037   0.551  15.219  0.5490 -0.0403 -0.2951
  511TMC3     O 7648   0.017   0.671  15.228  0.5507 -0.3146 -0.2482
  511TMC3     H 7649   4.585   0.618  15.369 -1.4682 -0.3643  0.9541
  511TMC3    H1 7650   0.100   0.284  15.278  1.6386  1.4676  1.0054
  511TMC3    H2 7651   4.481   0.226  15.493  0.7164 -0.7401  2.2381
  511TMC3    C7 7652   4.689   0.106  15.389 -0.3336  0.0584  0.1519
  511TMC3    C8 7653   4.444   0.493  15.543 -0.5032 -0.0687  0.7282
  511TMC3    O1 7654   0.026   0.071  15.300 -0.7054  0.4986  0.2799
  511TMC3    O2 7655   4.487   0.601  15.595 -0.0657  0.2679 -0.0978
  512TMC3    C1 7656   3.629   0.074  13.596  0.9234 -0.3363 -0.3843
  512TMC3    C2 7657   3.726   0.050  13.683 -0.2718 -0.0307 -0.3656
  512TMC3    C3 7658   3.805   4.685  13.662 -0.0510 -0.4160  0.1898
  512TMC3    C4 7659   3.604   4.742  13.486  0.1247 -0.3578 -0.6916
  512TMC3    C5 7660   3.668   4.622  13.478  0.5695  0.5366  0.0470
  512TMC3    C6 7661   3.769   4.599  13.567  0.0479 -0.6802  0.3130
  512TMC3     C 7662   3.526   0.166  13.638  0.6785 -0.4228 -0.3982
  512TMC3     O 7663   3.555   0.254  13.717  0.4711  0.2973  0.2179
  512TMC3     H 7664   3.745   0.121  13.763 -2.5579 -2.4896  2.3336
  512TMC3    H1 7665   3.533   0.024  13.409  0.3132 -0.9286 -1.0433
  512TMC3    H2 7666   3.826   4.506  13.563  0.4584 -0.3987 -0.3448
  512TMC3    C7 7667   3.666   4.543  13.352 -0.0125  0.7764 -0.5760
  512TMC3    C8 7668   3.897   4.643  13.759  0.6423  0.0547  0.1286
  512TMC3    O1 7669   3.610   4.599  13.258 -0.0403  0.6122  0.1166
  512TMC3    O2 7670   3.918   4.521  13.764 -0.1525  0.5438  0.0325
  513MPD2     C 7671   0.753   4.600  13.617  0.4580  0.1853  0.0276
  513MPD2    C1 7672   0.885   4.629  13.599 -0.4189  0.3952  0.0444
  513MPD2    C2 7673   0.965   4.644  13.708 -0.1987 -0.0111  0.5060
  513MPD2    C3 7674   0.927   4.634  13.839  0.6167  0.3432  0.3621
  513MPD2    C4 7675   0.798   4.609  13.861 -0.1693 -0.0652  0.0184
  513MPD2    C5 7676   0.713   4.594  13.749  0.1755 -0.3138  1.0275
  513MPD2     H 7677   1.073   4.648  13.698 -0.2028 -1.3405  0.0284
  513MPD2    H1 7678   0.756   4.582  13.958 -0.0205 -2.1746 -0.5119
  513MPD2    H2 7679   0.681   4.580  13.539 -0.1744  1.6487  0.2297
  513MPD2    H3 7680   0.610   4.560  13.756 -0.7847  1.9775 -1.7231
  513MPD2     N 7681   1.029   4.641  13.938 -0.1772  0.3682  0.1458
  513MPD2    H5 7682   1.124   4.657  13.907  0.2440 -0.4229  1.0312
  513MPD2    N1 7683   0.927   4.639  13.463  0.5998  0.1462 -0.2516
  513MPD2    H7 7684   0.860   4.633  13.386 -0.1906  0.7947  0.3809
  514TMC3    C1 7685   1.075   4.679  13.287 -0.7071  1.1767  0.5218
  514TMC3    C2 7686   1.048   4.558  13.233 -0.0865 -0.4875  0.1033
  514TMC3    C3 7687   1.128   4.495  13.145 -0.2019  0.3849  0.1958
  514TMC3    C4 7688   1.198   4.730  13.263 -0.1858 -0.2604 -0.4108
  514TMC3    C5 7689   1.292   4.663  13.188 -0.3611  0.2030  0.3646
  514TMC3    C6 7690   1.255   4.544  13.120  0.4813  0.1773  0.3164
  514TMC3     C 7691   1.051   4.676  13.428 -1.2951  0.5653 -0.1939
  514TMC3     O 7692   1.152   4.695  13.494 -0.4749 -0.3459  0.4350
  514TMC3     H 7693   0.948   4.518  13.246  0.2755 -1.2472  0.5466
  514TMC3    H1 7694   1.219   0.077  13.321 -2.0247 -0.1804  0.1151
  514TMC3    H2 7695   1.323   4.502  13.047  0.7130  1.1034 -0.0093
  514TMC3    C7 7696   1.423   4.674  13.247 -0.2981 -0.2294 -0.5242
  514TMC3    C8 7697   1.071   4.419  13.039 -0.6359  0.0142  0.2383
  514TMC3    O1 7698   1.523   4.632  13.188 -0.2403 -0.1286 -0.6019
  514TMC3    O2 7699   0.966   4.356  13.066  0.8664 -0.2739 -0.2439
  515MPD2     C 7700   3.679   1.484  15.353  0.2945 -0.1010  0.4928
  515MPD2    C1 7701   3.691   1.545  15.230 -0.3659 -0.3804 -0.3522
  515MPD2    C2 7702   3.758   1.668  15.223  0.7249 -0.5333  0.3783
  515MPD2    C3 7703   3.826   1.715  15.336 -0.2606 -0.2738 -0.1666
  515MPD2    C4 7704   3.803   1.658  15.460 -0.0424 -0.3425  0.3321
  515MPD2    C5 7705   3.732   1.542  15.463  0.5560 -0.3964 -0.2955
  515MPD2     H 7706   3.764   1.704  15.121  1.6821 -1.2400  0.1850
  515MPD2    H1 7707   3.859   1.695  15.545 -2.3753  1.6076  1.0132
  515MPD2    H2 7708   3.629   1.390  15.373 -0.4751  0.0973 -0.5367
  515MPD2    H3 7709   3.726   1.492  15.559 -1.7992 -0.4133 -0.4526
  515MPD2     N 7710   3.902   1.831  15.339 -1.0021  0.2312 -0.5332
  515MPD2    H5 7711   3.931   1.857  15.433 -1.5480  0.7317 -0.5078
  515MPD2    N1 7712   3.645   1.496  15.110 -1.2557 -0.4570  0.0801
  515MPD2    H7 7713   3.639   1.551  15.024  1.4490  0.8337  0.7330
  516TMC3    C1 7714   3.576   1.322  14.955  0.3287 -0.1898  0.2953
  516TMC3    C2 7715   3.509   1.408  14.869 -0.2979 -0.4562 -0.4734
  516TMC3    C3 7716   3.489   1.361  14.742  0.4973  0.3541 -0.1964
  516TMC3    C4 7717   3.615   1.194  14.916 -0.0099  0.5779 -0.0804
  516TMC3    C5 7718   3.579   1.147  14.787  0.2161  0.3494 -0.0761
  516TMC3    C6 7719   3.518   1.234  14.701 -0.0180 -0.0019 -1.1091
  516TMC3     C 7720   3.615   1.365  15.094 -0.0534 -0.3870  0.0896
  516TMC3     O 7721   3.608   1.275  15.178  0.2863  0.0185  0.0329
  516TMC3     H 7722   3.474   1.506  14.898 -3.1560 -2.2162  1.9287
  516TMC3    H1 7723   3.660   1.129  14.990  2.5091  2.0309 -0.3376
  516TMC3    H2 7724   3.485   1.190  14.608 -0.8078  2.3430 -1.9473
  516TMC3    C7 7725   3.627   1.017  14.739  0.3479  0.3615  0.0414
  516TMC3    C8 7726   3.402   1.435  14.652  0.3633  0.0750  0.1108
  516TMC3    O1 7727   3.635   0.994  14.620  0.0918 -0.0671 -0.6165
  516TMC3    O2 7728   3.310   1.371  14.598  0.0662  0.3255 -0.3188
  517MPD2     C 7729   3.279   3.588  17.565  0.5245 -0.3386 -0.0048
  517MPD2    C1 7730   3.386   3.570  17.654 -1.0039  0.0068 -0.0345
  517MPD2    C2 7731   3.429   3.686  17.719 -0.2336 -0.1173  0.5823
  517MPD2    C3 7732   3.368   3.809  17.704  0.2669 -0.0016 -0.1760
  517MPD2    C4 7733   3.261   3.812  17.616  0.1636 -0.8813  0.5354
  517MPD2    C5 7734   3.217   3.707  17.549 -0.2124  0.1232  0.2389
  517MPD2     H 7735   3.519   3.681   0.014 -0.1911  1.2505  0.6457
  517MPD2    H1 7736   3.203   3.902  17.598  3.3772  1.4817  1.9456
  517MPD2    H2 7737   3.247   3.513  17.494  1.7251 -2.2627  1.4735
  517MPD2    H3 7738   3.135   3.714  17.478 -0.6288  1.3929  0.8499
  517MPD2     N 7739   3.412   3.928   0.012  0.6794  0.2993  0.7743
  517MPD2    H5 7740   3.384   4.020  17.744 -0.9443 -0.0169  1.2763
  517MPD2    N1 7741   3.448   3.447  17.680  0.4626  0.5183  0.0948
  517MPD2    H7 7742   3.532   3.439  17.737  1.6094 -0.7286 -1.7496
  518TMC3    C1 7743   3.517   3.238  17.605 -0.8165 -0.3556  0.3476
  518TMC3    C2 7744   3.470   3.109  17.588  0.3457 -0.6829 -0.0366
  518TMC3    C3 7745   3.542   3.028  17.511  0.0972 -0.3216 -0.7179
  518TMC3    C4 7746   3.632   3.286  17.551  0.2624  0.9373  0.1913
  518TMC3    C5 7747   3.706   3.198  17.479  0.1782 -0.2444 -0.3575
  518TMC3    C6 7748   3.660   3.071  17.452  0.1753 -0.9540 -0.7151
  518TMC3     C 7749   3.412   3.329  17.620 -0.0250 -1.0068 -0.0752
  518TMC3     O 7750   3.296   3.298  17.595 -0.0554  0.0427  0.7532
  518TMC3     H 7751   3.376   3.083  17.635  0.7480 -1.7011  0.2117
  518TMC3    H1 7752   3.658   3.392  17.550 -2.6583  1.6545 -0.2193
  518TMC3    H2 7753   3.727   2.995  17.416  0.3371 -0.8176 -0.7006
  518TMC3    C7 7754   3.844   3.242  17.458 -0.6088  0.0908  0.2829
  518TMC3    C8 7755   3.534   2.888  17.526 -0.2691 -0.4474  0.0454
  518TMC3    O1 7756   3.891   3.344  17.507  0.3154 -0.3248 -0.1752
  518TMC3    O2 7757   3.590   2.830  17.437 -0.4063  0.5308 -0.2789
  519MPD2     C 7758   0.559   1.354  14.542 -0.1001  0.4774 -0.3942
  519MPD2    C1 7759   0.529   1.374  14.413  0.4460  0.4106 -0.2782
  519MPD2    C2 7760   0.574   1.286  14.321  0.1195 -0.2545  0.0542
  519MPD2    C3 7761   0.647   1.169  14.354  0.2576  0.0452  0.7486
  519MPD2    C4 7762   0.675   1.148  14.487  0.2457  0.6996  0.3439
  519MPD2    C5 7763   0.623   1.239  14.581  0.3385  1.0044  0.2054
  519MPD2     H 7764   0.539   1.296  14.219  1.0734  1.5757 -0.0985
  519MPD2    H1 7765   0.734   1.059  14.508 -1.5402 -0.6474 -0.3166
  519MPD2    H2 7766   0.526   1.424  14.617 -0.8984 -0.2098 -0.0956
  519MPD2    H3 7767   0.605   1.220  14.686  1.5109 -1.2536 -0.0062
  519MPD2     N 7768   0.696   1.076  14.262  0.6908  0.7182  0.8596
  519MPD2    H5 7769   0.753   0.999  14.295  0.4905 -0.3400 -1.3158
  519MPD2    N1 7770   0.454   1.491  14.379 -0.7602 -0.3081 -0.3365
  519MPD2    H7 7771   0.393   1.533  14.448  2.1544  1.5156  1.1163
  520TMC3    C1 7772   0.758   0.983  14.049  0.5078 -0.4423 -0.0046
  520TMC3    C2 7773   0.713   0.967  13.921  0.3399  0.1930 -0.3570
  520TMC3    C3 7774   0.800   0.916  13.824  0.3066 -0.9441 -0.0326
  520TMC3    C4 7775   0.892   0.975  14.067  0.4898 -0.6159  0.2096
  520TMC3    C5 7776   0.976   0.953  13.964  0.1362  0.1289 -0.2977
  520TMC3    C6 7777   0.933   0.918  13.843  0.5543  0.0178 -0.7075
  520TMC3     C 7778   0.682   1.082  14.124  0.8081 -0.2796  0.5356
  520TMC3     O 7779   0.628   1.171  14.055 -0.6372  0.5304  0.0524
  520TMC3     H 7780   0.607   0.990  13.912  0.8001  0.8929 -4.0701
  520TMC3    H1 7781   0.934   0.984  14.166 -0.6532  0.1539  0.6219
  520TMC3    H2 7782   1.004   0.882  13.769 -1.0586 -1.3961 -1.5605
  520TMC3    C7 7783   1.121   0.947  13.996  0.1905  0.5897  0.1345
  520TMC3    C8 7784   0.754   0.947  13.691 -0.4431  0.3360 -0.0915
  520TMC3    O1 7785   1.149   0.942  14.115 -0.1665  0.5293 -0.1971
  520TMC3    O2 7786   0.825   0.997  13.606  0.0046 -0.0119 -0.4764
  521MPD2     C 7787   1.651   0.112  17.401  0.0099 -0.5061 -0.7053
  521MPD2    C1 7788   1.612   4.726  17.400 -0.3073  0.3375  0.5157
  521MPD2    C2 7789   1.709   4.621  17.409  0.0553 -0.0749  0.0440
  521MPD2    C3 7790   1.839   4.657  17.427  0.4670 -0.8569  0.0139
  521MPD2    C4 7791   1.882   0.048  17.423  0.5305 -0.2209  0.5145
  521MPD2    C5 7792   1.789   0.143  17.403  0.0860  0.4803 -0.6820
  521MPD2     H 7793   1.691   4.514  17.415  0.8339 -0.3050 -1.9100
  521MPD2    H1 7794   1.985   0.066  17.452  0.5507  1.3351 -0.5433
  521MPD2    H2 7795   1.578   0.191  17.390  0.4555  0.1580  1.0083
  521MPD2    H3 7796   1.826   0.245  17.396 -0.4691  0.8097  1.1161
  521MPD2     N 7797   1.931   4.550  17.440 -0.5969  0.2260 -0.6148
  521MPD2    H5 7798   1.897   4.455  17.433 -2.8446  1.0366 -0.8145
  521MPD2    N1 7799   1.475   4.703  17.403 -0.4847  0.0004 -0.5049
  521MPD2    H7 7800   1.412   0.037  17.380  0.6365  1.1680  0.3346
  522TMC3    C1 7801   2.127   4.424  17.434 -0.0715  0.4209  0.5018
  522TMC3    C2 7802   2.256   4.416  17.478  0.1216 -0.0846  0.4109
  522TMC3    C3 7803   2.332   4.325  17.418 -1.2793  0.1392 -0.0396
  522TMC3    C4 7804   2.066   4.343  17.340  0.4824 -0.0210 -0.2674
  522TMC3    C5 7805   2.152   4.248  17.289 -0.0888  0.6703  0.5121
  522TMC3    C6 7806   2.283   4.239  17.322  0.3053  0.8013  0.2762
  522TMC3     C 7807   2.072   4.559  17.452 -0.9907 -0.1651 -0.7522
  522TMC3     O 7808   2.149   4.651  17.474  0.0667  0.1162 -0.7652
  522TMC3     H 7809   2.300   4.494  17.540  3.3921 -0.3408 -1.5914
  522TMC3    H1 7810   1.962   4.360  17.317  1.0840  1.3018 -2.0439
  522TMC3    H2 7811   2.342   4.174  17.258 -2.5919 -3.0567  1.5178
  522TMC3    C7 7812   2.107   4.186  17.165  0.4102 -0.0430  0.8286
  522TMC3    C8 7813   2.483   4.329  17.441  0.0546  0.1887 -0.0594
  522TMC3    O1 7814   2.188   4.112  17.110 -0.0949  0.2797  0.0444
  522TMC3    O2 7815   2.526   4.404  17.527  0.3531 -0.5658 -0.6672
  523MPD2     C 7816   3.622   3.763  10.189  0.5724  0.0948 -0.0992
  523MPD2    C1 7817   3.575   3.642  10.144 -0.2012  0.0757  0.5772
  523MPD2    C2 7818   3.521   3.628  10.020 -0.0558  0.5212 -0.5712
  523MPD2    C3 7819   3.519   3.738   9.930  0.3919 -0.2416  0.4565
  523MPD2    C4 7820   3.569   3.861   9.971 -0.5128 -0.0467 -0.4987
  523MPD2    C5 7821   3.616   3.869  10.099  0.4664 -0.1005 -0.3851
  523MPD2     H 7822   3.498   3.526   9.992  2.0400 -0.2655  0.6387
  523MPD2    H1 7823   3.563   3.949   9.908 -0.2668  0.6557  0.4527
  523MPD2    H2 7824   3.655   3.779  10.291  0.6461 -2.0722  0.2092
  523MPD2    H3 7825   3.661   3.964  10.124  1.6365 -0.4314 -1.2393
  523MPD2     N 7826   3.455   3.731   9.801  0.3658  0.1126  0.0764
  523MPD2    H5 7827   3.442   3.817   9.748  0.8867  0.6032  0.7473
  523MPD2    N1 7828   3.591   3.537  10.241  0.2799 -0.3860 -0.8246
  523MPD2    H7 7829   3.644   3.560  10.325 -0.8809 -1.4954  0.2136
  524TMC3    C1 7830   3.322   3.640   9.636 -0.1495  0.0323 -0.7398
  524TMC3    C2 7831   3.281   3.522   9.576 -0.0627 -0.6051  0.1362
  524TMC3    C3 7832   3.181   3.535   9.485 -0.3248  0.1695 -0.0021
  524TMC3    C4 7833   3.262   3.760   9.614  0.2493 -0.3790  0.8311
  524TMC3    C5 7834   3.149   3.767   9.534  0.7024  1.3523  0.0338
  524TMC3    C6 7835   3.098   3.650   9.475 -0.7754  0.1671 -0.0377
  524TMC3     C 7836   3.399   3.616   9.753 -0.1913  0.0877 -0.7016
  524TMC3     O 7837   3.407   3.499   9.793  0.5708 -0.6186 -0.0904
  524TMC3     H 7838   3.351   3.439   9.574 -0.7207 -1.1872  0.9426
  524TMC3    H1 7839   3.287   3.844   9.678 -0.5081 -1.0009  1.9495
  524TMC3    H2 7840   3.014   3.652   9.407 -0.5427  1.8572 -0.2707
  524TMC3    C7 7841   3.108   3.899   9.486 -0.7610 -0.0411  0.2295
  524TMC3    C8 7842   3.156   3.407   9.418  0.6542  0.0819 -0.0420
  524TMC3    O1 7843   3.201   3.981   9.482 -0.0696  0.7109 -0.4670
  524TMC3    O2 7844   3.220   3.308   9.454  0.4791  0.2222 -0.0958
  525MPD2     C 7845   2.082   1.009  14.525 -0.4246  0.6265 -0.0730
  525MPD2    C1 7846   2.182   1.021  14.616 -0.9284  0.6395  0.4476
  525MPD2    C2 7847   2.257   1.135  14.614 -0.2095  0.4812  0.2702
  525MPD2    C3 7848   2.236   1.243  14.532  0.0493 -0.7467  0.1476
  525MPD2    C4 7849   2.124   1.239  14.454 -0.4521  0.0862  0.6914
  525MPD2    C5 7850   2.051   1.123  14.445  0.3181 -0.4762 -0.0130
  525MPD2     H 7851   2.332   1.141  14.692  2.4751  0.0296 -2.2921
  525MPD2    H1 7852   2.096   1.326  14.395  0.7017 -0.3851 -0.5463
  525MPD2    H2 7853   2.024   0.917  14.517 -1.9189  1.5736 -0.1154
  525MPD2    H3 7854   1.963   1.126  14.383  0.1056  1.2116  0.3663
  525MPD2     N 7855   2.309   1.361  14.534  0.2670  0.1864 -0.6990
  525MPD2    H5 7856   2.278   1.437  14.475  3.0104  1.8617  0.0373
  525MPD2    N1 7857   2.218   0.915  14.707 -0.5348  0.0209  0.4199
  525MPD2    H7 7858   2.306   0.921  14.757 -0.5547 -1.4707  0.6410
  526TMC3    C1 7859   2.188   0.722  14.832 -0.7837  0.1679 -0.0023
  526TMC3    C2 7860   2.094   0.643  14.909  0.2992 -0.8968 -0.1340
  526TMC3    C3 7861   2.148   0.581  15.016 -0.2465 -0.2193 -0.5715
  526TMC3    C4 7862   2.324   0.717  14.848  0.0114 -0.0573  0.5174
  526TMC3    C5 7863   2.370   0.635  14.949 -0.1239  0.1286 -0.0075
  526TMC3    C6 7864   2.282   0.568  15.032  0.2476  0.4955 -0.1507
  526TMC3     C 7865   2.136   0.811  14.732 -0.8177  0.3329  0.6004
  526TMC3     O 7866   2.021   0.794  14.700 -0.6699 -0.1306  0.1099
  526TMC3     H 7867   1.986   0.655  14.902  0.5534  2.6452  2.3544
  526TMC3    H1 7868   2.393   0.757  14.775  0.3452  0.3946  1.0814
  526TMC3    H2 7869   2.323   0.520  15.120  0.5739 -0.4607 -0.8205
  526TMC3    C7 7870   2.510   0.590  14.947 -0.4331  0.4146 -0.3575
  526TMC3    C8 7871   2.078   0.593  15.141 -0.6355  0.8262  0.5785
  526TMC3    O1 7872   2.602   0.673  14.959 -0.5073 -0.7466 -0.2548
  526TMC3    O2 7873   2.156   0.625  15.230  0.1056 -0.1979 -0.0984
  527MPD2     C 7874   0.927   4.220   1.314 -0.3092  0.4051 -0.2324
  527MPD2    C1 7875   0.927   4.099   1.242  0.4167 -0.2864 -0.8107
  527MPD2    C2 7876   1.015   4.086   1.134 -0.6271  0.3888 -0.0255
  527MPD2    C3 7877   1.087   4.203   1.089  0.2630 -0.1553  0.6808
  527MPD2    C4 7878   1.081   4.321   1.163 -0.0313  1.1337  0.3092
  527MPD2    C5 7879   0.994   4.325   1.267  0.3919 -0.1222 -0.0355
  527MPD2     H 7880   1.019   3.998   1.071  0.5422  0.5629 -0.2009
  527MPD2    H1 7881   1.125   4.415   1.132 -0.5481  0.9306 -1.0442
  527MPD2    H2 7882   0.855   4.240   1.392 -1.6108  0.7386 -1.5098
  527MPD2    H3 7883   0.979   4.420   1.315 -1.9786 -0.1152 -0.8062
  527MPD2     N 7884   1.151   4.208   0.959  0.0667  0.1062 -0.7460
  527MPD2    H5 7885   1.139   4.125   0.901 -0.1548 -0.4581  0.0985
  527MPD2    N1 7886   0.838   3.989   1.264  0.1707  0.1525  0.0321
  527MPD2    H7 7887   0.854   3.902   1.214 -1.0331  1.0898 -1.9770
  528TMC3    C1 7888   0.617   3.902   1.323  0.4881 -0.2560 -0.7641
  528TMC3    C2 7889   0.484   3.923   1.319 -0.7706 -0.2453  0.7792
  528TMC3    C3 7890   0.394   3.815   1.317  0.8412  0.5995 -0.0398
  528TMC3    C4 7891   0.666   3.777   1.307  0.2322  0.0534  0.1010
  528TMC3    C5 7892   0.575   3.676   1.286  0.0852 -0.0085 -0.1905
  528TMC3    C6 7893   0.436   3.687   1.288  0.3432 -0.2599  0.5316
  528TMC3     C 7894   0.711   4.010   1.333 -0.3697 -0.2322  0.4382
  528TMC3     O 7895   0.670   4.119   1.378 -0.1434 -0.1063 -1.0436
  528TMC3     H 7896   0.452   4.024   1.340 -0.2520  0.2002 -0.5644
  528TMC3    H1 7897   0.770   3.750   1.322  1.0910  1.6797 -2.9473
  528TMC3    H2 7898   0.371   3.608   1.252 -0.1424  0.3862  0.0076
  528TMC3    C7 7899   0.632   3.540   1.308  0.2794  0.1825  0.6832
  528TMC3    C8 7900   0.249   3.841   1.321 -0.0074  0.7122  0.1145
  528TMC3    O1 7901   0.756   3.524   1.306 -0.9340  0.2325 -0.2508
  528TMC3    O2 7902   0.223   3.961   1.314  0.4000  0.0573  0.2816
  529MPD2     C 7903   2.856   2.788   1.063 -0.6445  0.4439  0.3501
  529MPD2    C1 7904   2.839   2.657   1.017 -0.2975 -0.6068 -0.3088
  529MPD2    C2 7905   2.753   2.639   0.910  0.7586  0.2083  0.3701
  529MPD2    C3 7906   2.700   2.745   0.846  0.6135 -0.0819 -0.6492
  529MPD2    C4 7907   2.726   2.872   0.887  0.2655 -0.3834  0.3232
  529MPD2    C5 7908   2.801   2.897   0.999  0.1783  0.3832 -0.1049
  529MPD2     H 7909   2.728   2.543   0.865  1.0239  0.0680  0.5225
  529MPD2    H1 7910   2.684   2.962   0.845 -0.1727  0.0629  1.7050
  529MPD2    H2 7911   2.906   2.804   1.159  0.2702 -0.3091 -0.0015
  529MPD2    H3 7912   2.818   2.996   1.040  1.1516 -0.0301  0.5018
  529MPD2     N 7913   2.624   2.734   0.732 -0.5737  0.2501  0.1725
  529MPD2    H5 7914   2.587   2.812   0.680 -0.1794  0.0231 -0.4555
  529MPD2    N1 7915   2.905   2.547   1.068  0.1734  0.3791  0.5448
  529MPD2    H7 7916   2.885   2.463   1.015  2.1781  1.0092 -1.2260
  530TMC3    C1 7917   3.039   2.408   1.206 -0.6636 -0.2886 -0.2941
  530TMC3    C2 7918   3.128   2.396   1.317 -0.0948  0.3340 -0.6143
  530TMC3    C3 7919   3.211   2.283   1.321 -0.1614 -0.1937 -0.6057
  530TMC3    C4 7920   3.024   2.304   1.113 -0.7059 -0.5361 -0.6023
  530TMC3    C5 7921   3.110   2.205   1.139  0.7208 -0.1576  0.0157
  530TMC3    C6 7922   3.198   2.183   1.237 -0.1132 -0.3275  0.0213
  530TMC3     C 7923   2.979   2.538   1.181 -0.3111  0.4414  0.5729
  530TMC3     O 7924   3.019   2.632   1.248 -0.1221  0.3014  0.3007
  530TMC3     H 7925   3.144   2.482   1.380  0.7761 -0.4471  0.2524
  530TMC3    H1 7926   2.953   2.304   1.032  0.3468 -0.4350 -1.5253
  530TMC3    H2 7927   3.262   2.096   1.245 -0.9593 -0.8294  1.3868
  530TMC3    C7 7928   3.072   2.073   1.082  0.0956  0.4421  0.4274
  530TMC3    C8 7929   3.321   2.283   1.423 -0.1221  0.2530  0.4898
  530TMC3    O1 7930   3.163   1.996   1.057  0.2623 -0.0971  0.3659
  530TMC3    O2 7931   3.322   2.386   1.494  0.1948 -0.1739 -0.0149
  531MPD2     C 7932   1.695   4.633  13.681 -0.1888  0.1085 -0.0540
  531MPD2    C1 7933   1.564   4.648  13.717 -0.5858 -0.1023 -0.5182
  531MPD2    C2 7934   1.472   4.658  13.616  0.2989  0.0691  0.2943
  531MPD2    C3 7935   1.507   4.661  13.481  0.4396 -1.0564  0.5025
  531MPD2    C4 7936   1.639   4.650  13.445 -0.5014  0.0517 -0.1063
  531MPD2    C5 7937   1.721   4.641  13.548  0.5815  0.2643  0.4582
  531MPD2     H 7938   1.366   4.666  13.639 -0.0227 -0.1222 -1.1182
  531MPD2    H1 7939   1.675   4.639  13.343 -0.5320  0.0699 -0.1191
  531MPD2    H2 7940   1.775   4.634  13.755  1.3171 -0.9135 -1.6615
  531MPD2    H3 7941   1.824   4.632  13.516  0.7730  1.4463  0.7384
  531MPD2     N 7942   1.400   4.669  13.384  0.0673 -0.1868 -0.0313
  531MPD2    H5 7943   1.307   4.683  13.421  0.4407  1.5369  0.2758
  531MPD2    N1 7944   1.524   4.654  13.854 -0.8937 -0.2175  0.1634
  531MPD2    H7 7945   1.591   4.630  13.927  1.5783  1.3352 -1.5871
  532TMC3    C1 7946   1.366   4.643  14.033  0.1728 -0.0229  0.0587
  532TMC3    C2 7947   1.241   4.683  14.083  0.4263 -0.3518  0.3314
  532TMC3    C3 7948   1.155   4.584  14.127 -0.0765  0.3449 -0.8095
  532TMC3    C4 7949   1.412   4.520  14.048 -0.1991 -0.3419 -0.5536
  532TMC3    C5 7950   1.326   4.428  14.101 -0.0009  0.2310  0.6710
  532TMC3    C6 7951   1.196   4.459  14.136  0.1646  0.2767  0.5362
  532TMC3     C 7952   1.394   4.683  13.894 -0.1449  0.1415 -0.5783
  532TMC3     O 7953   1.288   4.704  13.838 -0.1090  0.1123  0.0574
  532TMC3     H 7954   1.211   0.044  14.066 -2.4567 -1.2325  0.0631
  532TMC3    H1 7955   1.502   4.480  14.001  1.6501  0.8971  1.9142
  532TMC3    H2 7956   1.118   4.387  14.157  0.8699 -0.2263  1.4128
  532TMC3    C7 7957   1.362   4.285  14.111  0.5969  0.1832 -0.0902
  532TMC3    C8 7958   1.021   4.594  14.065  0.2906 -0.7466  0.0880
  532TMC3    O1 7959   1.302   4.214  14.188  0.1723  0.5551 -0.1836
  532TMC3    O2 7960   0.931   4.532  14.120 -0.7056  0.3574  1.0886
  533TMC3    C1 7961   2.441   1.533  14.628  0.6758  0.6832  0.1024
  533TMC3    C2 7962   2.562   1.567  14.686  0.0605 -0.3802  0.6487
  533TMC3    C3 7963   2.581   1.676  14.763 -1.1616 -0.0961 -0.2977
  533TMC3    C4 7964   2.337   1.616  14.655 -0.2323 -0.0719  0.3449
  533TMC3    C5 7965   2.352   1.717  14.746 -0.2086 -0.2378  0.9492
  533TMC3    C6 7966   2.473   1.751  14.796  0.2242  0.4807 -0.4151
  533TMC3     C 7967   2.411   1.389  14.619  0.2012  0.6804  0.6200
  533TMC3     O 7968   2.489   1.313  14.673  0.0825  0.3218 -0.4726
  533TMC3     H 7969   2.631   1.484  14.676  0.4483 -0.0522  0.5916
  533TMC3    H1 7970   2.238   1.584  14.622 -0.7179 -1.2466  2.9486
  533TMC3    H2 7971   2.493   1.842  14.851  2.2030  0.5033 -1.1464
  533TMC3    C7 7972   2.267   1.682  14.854 -0.7052 -0.2233 -0.0296
  533TMC3    C8 7973   2.717   1.734  14.781  0.0905 -0.1755  0.4138
  533TMC3    O1 7974   2.187   1.597  14.827  0.4708  0.2394 -0.6169
  533TMC3    O2 7975   2.726   1.854  14.796  0.3447  0.2747 -0.5651
  534MPD2     C 7976   0.560   2.713   1.079  0.0942  0.2562  0.0237
  534MPD2    C1 7977   0.518   2.816   1.003 -0.2844 -0.4873  0.1100
  534MPD2    C2 7978   0.384   2.820   0.969 -0.1395 -0.2824  0.1104
  534MPD2    C3 7979   0.298   2.714   1.005  0.1090 -0.3049  0.6950
  534MPD2    C4 7980   0.350   2.612   1.080  0.0887  0.5093  0.1201
  534MPD2    C5 7981   0.480   2.608   1.108  0.3747 -0.0827  0.5360
  534MPD2     H 7982   0.338   2.903   0.916  1.0502  1.6558  2.1033
  534MPD2    H1 7983   0.296   2.521   1.104 -2.9933  2.9790  2.6752
  534MPD2    H2 7984   0.659   2.700   1.123  0.6665  0.9283 -1.0558
  534MPD2    H3 7985   0.523   2.522   1.159 -2.7395 -2.5811 -1.0133
  534MPD2     N 7986   0.159   2.708   0.972  0.0564 -0.1103 -0.1403
  534MPD2    H5 7987   0.117   2.616   0.982  0.0443 -0.1601 -0.6947
  534MPD2    N1 7988   0.605   2.928   0.962  0.3642  0.6720  0.3301
  534MPD2    H7 7989   0.559   2.997   0.904  1.9968 -0.0752 -1.8838
  535TMC3    C1 7990   4.685   2.774   0.877 -0.0667 -0.0601  0.2207
  535TMC3    C2 7991   4.649   2.641   0.893 -0.2445  0.1085  0.1164
  535TMC3    C3 7992   4.538   2.599   0.821  0.2635 -0.2037  0.3352
  535TMC3    C4 7993   4.609   2.866   0.803 -0.0000  0.0978 -0.1750
  535TMC3    C5 7994   4.509   2.816   0.734 -0.1614 -0.4060 -0.0382
  535TMC3    C6 7995   4.468   2.683   0.738  0.8430 -0.5308 -0.2573
  535TMC3     C 7996   0.082   2.809   0.914  0.0135 -0.2553 -0.7525
  535TMC3     O 7997   0.112   2.928   0.897  0.6140 -0.4772 -0.0723
  535TMC3     H 7998   4.696   2.582   0.970 -3.2701 -0.2465  1.7110
  535TMC3    H1 7999   4.645   2.967   0.796 -2.5937  1.1802  1.9017
  535TMC3    H2 8000   4.376   2.660   0.685 -0.5169  3.2512  0.4780
  535TMC3    C7 8001   4.439   2.899   0.648  1.1697 -0.2284 -0.5191
  535TMC3    C8 8002   4.475   2.467   0.839 -0.1449 -0.1004 -0.0405
  535TMC3    O1 8003   4.396   2.847   0.548 -0.1996 -0.0251 -0.4277
  535TMC3    O2 8004   4.372   2.451   0.781  0.4901  0.3235 -0.0164
  536MPD2     C 8005   3.564   0.749  16.712 -0.6708  0.2780  0.0996
  536MPD2    C1 8006   3.470   0.840  16.766  0.2801  0.0245  0.1287
  536MPD2    C2 8007   3.355   0.864  16.689  0.1604 -0.1173  0.3812
  536MPD2    C3 8008   3.339   0.811  16.557 -0.7229 -0.4613  0.1451
  536MPD2    C4 8009   3.437   0.729  16.502 -0.2675  0.7919 -0.2958
  536MPD2    C5 8010   3.547   0.701  16.579  0.2018  0.0123 -0.6085
  536MPD2     H 8011   3.271   0.926  16.717  0.3153  0.1168  0.3223
  536MPD2    H1 8012   3.429   0.698  16.399 -0.8865  0.6124 -0.1951
  536MPD2    H2 8013   3.662   0.729  16.754 -0.1768  2.7602  0.1418
  536MPD2    H3 8014   3.624   0.651  16.521  0.6622 -1.1394  1.0001
  536MPD2     N 8015   3.230   0.855  16.484 -0.0886 -0.0978  0.0338
  536MPD2    H5 8016   3.172   0.927  16.526  0.4958  0.9588 -0.9654
  536MPD2    N1 8017   3.493   0.889  16.895  0.3967  0.0197  0.0032
  536MPD2    H7 8018   3.576   0.858  16.945 -0.0682 -2.0973 -0.5350
  537TMC3    C1 8019   3.421   0.980  17.110 -0.7031  0.2406  0.6666
  537TMC3    C2 8020   3.541   0.979  17.174 -0.3788  0.0093  0.7741
  537TMC3    C3 8021   3.548   0.950  17.310  0.1470  0.2208 -0.2703
  537TMC3    C4 8022   3.301   0.965  17.181 -0.6083  0.0196  0.6600
  537TMC3    C5 8023   3.314   0.928  17.313 -0.0489  0.7023 -0.3350
  537TMC3    C6 8024   3.436   0.912  17.376 -0.1754  0.4109  0.0901
  537TMC3     C 8025   3.403   0.975  16.966  0.0038  0.0878  0.2889
  537TMC3     O 8026   3.301   1.028  16.925  0.7018  0.3659  0.1848
  537TMC3     H 8027   3.632   0.988  17.115 -1.0820  1.5550 -0.0862
  537TMC3    H1 8028   3.210   0.953  17.124  0.0214  0.4694 -0.4388
  537TMC3    H2 8029   3.436   0.896  17.483 -2.6104  0.4543  0.0938
  537TMC3    C7 8030   3.215   0.835  17.357 -0.2815  0.2944 -0.4883
  537TMC3    C8 8031   3.679   0.927  17.368  0.2651 -0.4058 -0.0723
  537TMC3    O1 8032   3.093   0.845  17.328  0.1070  0.6866 -0.0310
  537TMC3    O2 8033   3.781   0.954  17.307 -0.0055  0.0158 -0.3812
  538TMC3    C1 8034   4.203   3.346  11.174  0.0990  0.0042 -0.2775
  538TMC3    C2 8035   4.338   3.354  11.147 -0.9209 -0.3797  0.4938
  538TMC3    C3 8036   4.374   3.416  11.025 -0.3352  0.0427  0.1280
  538TMC3    C4 8037   4.111   3.403  11.089 -0.0422  0.4379  0.3256
  538TMC3    C5 8038   4.162   3.458  10.971  0.2932  0.0696  0.2488
  538TMC3    C6 8039   4.290   3.458  10.930  0.1730  0.3459 -0.0631
  538TMC3     C 8040   4.148   3.278  11.294 -0.1210  0.2252  1.1989
  538TMC3     O 8041   4.033   3.231  11.289  0.1252  0.7058  0.0629
  538TMC3     H 8042   4.414   3.328  11.219 -0.1424  0.5537 -0.0031
  538TMC3    H1 8043   4.003   3.409  11.098  0.1316  1.2214  2.1319
  538TMC3    H2 8044   4.317   3.501  10.834  0.7291 -2.4651 -1.1730
  538TMC3    C7 8045   4.072   3.529  10.883  0.5553  0.2744 -0.3310
  538TMC3    C8 8046   4.505   3.368  10.976 -0.4555  0.4315  0.4349
  538TMC3    O1 8047   3.955   3.490  10.893  0.0864 -0.2846 -0.3642
  538TMC3    O2 8048   4.552   3.270  11.039 -0.5397  0.4111 -0.1816
  539MPD2     C 8049   4.085   2.904  12.025 -0.0316  0.2894 -0.6241
  539MPD2    C1 8050   4.027   2.844  11.915 -0.0533 -0.4096  0.0901
  539MPD2    C2 8051   3.912   2.896  11.867  0.1534 -0.0710  0.1221
  539MPD2    C3 8052   3.845   2.994  11.939 -0.1501 -0.2362  0.2604
  539MPD2    C4 8053   3.894   3.040  12.059  0.4667 -0.3998 -0.3500
  539MPD2    C5 8054   4.014   2.999  12.099  0.1041 -0.1279 -0.2928
  539MPD2     H 8055   3.886   2.858  11.768 -0.1374  0.7090 -0.0984
  539MPD2    H1 8056   3.840   3.116  12.114  1.6216  0.6502 -0.6757
  539MPD2    H2 8057   4.190   2.892  12.051 -0.4227  1.1537  1.3715
  539MPD2    H3 8058   4.050   3.043  12.191 -3.7826  0.3317  1.0061
  539MPD2     N 8059   3.739   3.066  11.891 -0.5932  0.1263 -0.7451
  539MPD2    H5 8060   3.720   3.154  11.937 -2.0464  0.3376 -1.7261
  539MPD2    N1 8061   4.082   2.736  11.843 -0.0528 -0.2381  0.0352
  539MPD2    H7 8062   4.049   2.704  11.752  1.3514 -0.1254 -0.5190
  540TMC3    C1 8063   3.587   3.174  11.751  0.4492  0.3328 -1.1075
  540TMC3    C2 8064   3.580   3.228  11.625  1.4190 -0.1447 -0.3837
  540TMC3    C3 8065   3.479   3.309  11.593 -0.0425 -0.1657  0.2498
  540TMC3    C4 8066   3.488   3.207  11.848 -0.2504  0.2967 -0.0490
  540TMC3    C5 8067   3.386   3.289  11.805 -0.5709 -0.1179 -0.7383
  540TMC3    C6 8068   3.389   3.349  11.687  0.0138  0.5203  0.3870
  540TMC3     C 8069   3.679   3.055  11.774 -0.0333 -0.1710  1.2201
  540TMC3     O 8070   3.698   2.977  11.683 -0.2428 -0.6945  0.4255
  540TMC3     H 8071   3.652   3.192  11.553  1.3873  3.6013 -2.3299
  540TMC3    H1 8072   3.481   3.161  11.946  2.1609  1.1861  0.5579
  540TMC3    H2 8073   3.307   3.414  11.660 -1.1142  0.1997  3.0946
  540TMC3    C7 8074   3.265   3.301  11.878 -0.6935 -0.1469  0.1215
  540TMC3    C8 8075   3.414   3.303  11.461 -0.5967 -0.1462 -0.3800
  540TMC3    O1 8076   3.160   3.318  11.812 -0.2789  0.2418 -0.3399
  540TMC3    O2 8077   3.318   3.375  11.438 -0.2442  0.5082 -0.2411
  541MPD2     C 8078   2.250   4.429  13.177  0.9931 -0.6476 -0.1641
  541MPD2    C1 8079   2.336   4.418  13.067  0.2283 -0.4463 -1.1217
  541MPD2    C2 8080   2.361   4.535  13.003 -0.1745 -0.7336  0.3897
  541MPD2    C3 8081   2.306   4.661  13.043 -0.0094 -0.3941 -0.2840
  541MPD2    C4 8082   2.235   4.660  13.158  0.5687  0.1255 -0.5504
  541MPD2    C5 8083   2.209   4.547  13.223 -0.3750 -0.4359 -0.0470
  541MPD2     H 8084   2.408   4.529  12.905  1.4051  3.1959  0.9054
  541MPD2    H1 8085   2.195   0.010  13.198  1.0837 -0.4244  1.2419
  541MPD2    H2 8086   2.212   4.347  13.237 -1.7344  1.6187  1.2053
  541MPD2    H3 8087   2.136   4.543  13.303 -1.5696  1.5265 -1.0303
  541MPD2     N 8088   2.313   0.042  12.966 -0.6990  0.0707 -0.2066
  541MPD2    H5 8089   2.255   0.121  12.992  0.1140  1.2530 -2.0153
  541MPD2    N1 8090   2.371   4.292  13.011  0.5019  0.5770  0.4148
  541MPD2    H7 8091   2.428   4.295  12.927 -0.4184  2.5149 -0.1176
  542TMC3    C1 8092   2.374   0.185  12.785  1.1881  0.5151 -0.2354
  542TMC3    C2 8093   2.461   0.196  12.672 -0.6839  0.1019  0.3478
  542TMC3    C3 8094   2.422   0.264  12.561  0.3482  0.2691 -0.3727
  542TMC3    C4 8095   2.240   0.221  12.766 -0.6011  0.8442  0.1816
  542TMC3    C5 8096   2.209   0.281  12.649 -1.1077 -0.2979 -0.7042
  542TMC3    C6 8097   2.295   0.311  12.553  0.8205 -0.7557  0.5491
  542TMC3     C 8098   2.394   0.059  12.853  0.2870 -0.5775  0.2136
  542TMC3     O 8099   2.460   4.724  12.784  0.1238  0.0549 -0.4174
  542TMC3     H 8100   2.562   0.161  12.692 -1.3913 -1.8896  0.5127
  542TMC3    H1 8101   2.163   0.192  12.836  0.3767 -0.4269  0.7135
  542TMC3    H2 8102   2.258   0.366  12.467 -0.6748 -1.0086  1.0336
  542TMC3    C7 8103   2.065   0.305  12.624 -0.3198 -0.1196  0.2530
  542TMC3    C8 8104   2.460   0.202  12.437 -0.1304  0.4006  0.6783
  542TMC3    O1 8105   2.038   0.398  12.553  0.1814 -0.0308  0.5137
  542TMC3    O2 8106   2.373   0.182  12.354  0.1455  0.8407  0.7646
  543TMC3    C1 8107   1.822   1.898  17.350 -0.5922  0.0438  0.1241
  543TMC3    C2 8108   1.771   1.807  17.440  0.0496  0.1594  0.5341
  543TMC3    C3 8109   1.716   1.854  17.553 -1.0098  0.1524 -0.0417
  543TMC3    C4 8110   1.822   2.033  17.369 -0.2744 -0.0535  0.8214
  543TMC3    C5 8111   1.777   2.074  17.498  0.5691  0.1883  0.1481
  543TMC3    C6 8112   1.728   1.989  17.592  0.8287 -0.0751  0.8022
  543TMC3     C 8113   1.872   1.845  17.224  0.0046  0.0792  0.3445
  543TMC3     O 8114   1.913   1.731  17.236 -0.7116 -0.8430  0.0000
  543TMC3     H 8115   1.770   1.705  17.404  1.4009  0.4301 -0.2650
  543TMC3    H1 8116   1.866   2.108  17.304 -1.2416  0.7246  1.0632
  543TMC3    H2 8117   1.695   2.017  17.691 -0.2961  0.3200  0.3177
  543TMC3    C7 8118   1.744   2.215  17.508  0.3401 -0.3077 -0.3948
  543TMC3    C8 8119   1.661   1.759  17.649 -0.4639  0.1153 -0.3286
  543TMC3    O1 8120   1.742   2.277  17.404 -0.1846  0.0813 -0.2275
  543TMC3    O2 8121   1.643   1.809  17.763  0.3271  0.1334 -0.4287
  544MPD2     C 8122   1.465   1.297  17.759 -0.1940 -0.0980 -0.1042
  544MPD2    C1 8123   1.554   1.276  17.659  0.2033 -0.2278 -0.6465
  544MPD2    C2 8124   1.621   1.387  17.611 -1.2772  0.4951 -0.8047
  544MPD2    C3 8125   1.606   1.511  17.667  0.2237  0.3913  0.2023
  544MPD2    C4 8126   1.519   1.532   0.012 -0.7548  0.3863 -0.0199
  544MPD2    C5 8127   1.447   1.421   0.044 -0.0208 -0.8264 -0.0362
  544MPD2     H 8128   1.683   1.390  17.521  1.1858 -1.3331  0.8435
  544MPD2    H1 8129   1.496   1.628   0.056  0.5532  0.8277 -0.2789
  544MPD2    H2 8130   1.416   1.215   0.044  0.6333  0.2565  1.2695
  544MPD2    H3 8131   1.372   1.417   0.122  0.6768  0.8279  0.7011
  544MPD2     N 8132   1.660   1.628  17.600  0.0546  0.1519  0.3926
  544MPD2    H5 8133   1.693   1.609  17.506 -1.4508 -0.2378 -0.0537
  544MPD2    N1 8134   1.573   1.144  17.624 -0.3025 -0.9741 -0.3329
  544MPD2    H7 8135   1.522   1.072  17.674  0.6671 -0.4206  1.4664
  545TMC3    C1 8136   1.698   0.962  17.544  0.1937  0.5231 -0.1943
  545TMC3    C2 8137   1.812   0.904  17.506 -0.0752  0.2696  0.0907
  545TMC3    C3 8138   1.819   0.767  17.495 -0.2726 -0.0757  0.1881
  545TMC3    C4 8139   1.586   0.882  17.552  0.9008  0.7494  0.4239
  545TMC3    C5 8140   1.596   0.748  17.527 -0.3516 -0.3327  0.9160
  545TMC3    C6 8141   1.710   0.688  17.497  0.7146  0.2131 -0.9647
  545TMC3     C 8142   1.681   1.103  17.547 -0.8582  0.4454 -0.1226
  545TMC3     O 8143   1.770   1.176  17.504 -0.1323 -0.4467 -0.1991
  545TMC3     H 8144   1.899   0.966  17.490 -1.1662  1.3526 -1.6500
  545TMC3    H1 8145   1.501   0.918  17.608  0.5036 -1.5545  1.3159
  545TMC3    H2 8146   1.708   0.589  17.454 -0.6465 -0.2330  0.1328
  545TMC3    C7 8147   1.485   0.659  17.567 -0.4689 -0.3358  0.2694
  545TMC3    C8 8148   1.941   0.703  17.448 -0.5605  0.4042 -0.3053
  545TMC3    O1 8149   1.372   0.711  17.579 -0.3798 -0.1040  0.2244
  545TMC3    O2 8150   1.929   0.581  17.426  0.4640 -0.5074  0.2152
  546MPD2     C 8151   3.165   1.544  16.999 -0.2238 -0.3861 -0.0362
  546MPD2    C1 8152   3.132   1.558  17.134  0.4199 -0.2661 -0.3510
  546MPD2    C2 8153   3.179   1.665  17.201 -0.0639 -0.3765  0.1298
  546MPD2    C3 8154   3.257   1.762  17.136  0.1841 -0.2650 -0.1974
  546MPD2    C4 8155   3.287   1.751  17.002  0.3257 -0.3995  0.3916
  546MPD2    C5 8156   3.254   1.636  16.940  0.5016  0.1605  0.9639
  546MPD2     H 8157   3.159   1.691  17.304  2.1833  0.5041  0.3354
  546MPD2    H1 8158   3.342   1.825  16.945  1.0347 -2.0082 -1.0008
  546MPD2    H2 8159   3.130   1.457  16.944  0.5127  0.6737 -2.1696
  546MPD2    H3 8160   3.272   1.630  16.833  0.7922 -2.3885  1.1711
  546MPD2     N 8161   3.328   1.864  17.213  0.5742  0.3145  0.2658
  546MPD2    H5 8162   3.287   1.892  17.302 -3.4127  0.9610 -1.7464
  546MPD2    N1 8163   3.090   1.438  17.197 -0.2524  0.6881 -0.0944
  546MPD2    H7 8164   3.075   1.353  17.144 -1.5888  1.2781 -0.6403
  547TMC3    C1 8165   3.008   1.293  17.358 -0.3407 -0.3798  0.4362
  547TMC3    C2 8166   2.931   1.248  17.247 -0.5877 -0.1842  0.4308
  547TMC3    C3 8167   2.864   1.141  17.274  0.1817 -0.1196 -0.4230
  547TMC3    C4 8168   3.012   1.234  17.482  0.0793  0.2404  0.3281
  547TMC3    C5 8169   2.934   1.127  17.501 -0.4387 -0.4112 -0.8304
  547TMC3    C6 8170   2.870   1.071  17.390 -1.2332  0.9026 -0.4980
  547TMC3     C 8171   3.076   1.420  17.329  0.3859  0.5613 -0.3855
  547TMC3     O 8172   3.082   1.501  17.422  0.1039 -0.3972 -0.0225
  547TMC3     H 8173   2.910   1.313  17.164 -0.2910 -0.5596  0.0610
  547TMC3    H1 8174   3.070   1.277  17.563  0.3399 -0.2094  0.3779
  547TMC3    H2 8175   2.792   0.998  17.409  1.9734 -1.9267  1.6443
  547TMC3    C7 8176   2.929   1.057  17.625 -0.4202 -0.1703 -0.1189
  547TMC3    C8 8177   2.751   1.119  17.187 -0.3633 -0.7258  0.2611
  547TMC3    O1 8178   2.972   1.110  17.729 -0.4084 -0.2650 -0.2024
  547TMC3    O2 8179   2.704   1.216  17.136  0.3093 -0.9400  0.0126
  548MPD2     C 8180   2.781   2.001  12.606 -0.4688 -0.0310 -0.3681
  548MPD2    C1 8181   2.723   1.878  12.593 -0.2725 -0.0102 -0.7779
  548MPD2    C2 8182   2.807   1.768  12.607 -0.1891 -0.3314 -0.9740
  548MPD2    C3 8183   2.940   1.778  12.643  0.1628  0.2051  0.2281
  548MPD2    C4 8184   2.995   1.909  12.639 -0.3815 -0.1050 -0.9258
  548MPD2    C5 8185   2.914   2.018  12.617  0.2800 -0.1361  0.2410
  548MPD2     H 8186   2.769   1.667  12.597 -2.4062  0.6556 -2.5875
  548MPD2    H1 8187   3.102   1.916  12.655  0.0903  0.7061 -4.5362
  548MPD2    H2 8188   2.716   2.086  12.587 -1.1495 -0.9712 -2.2868
  548MPD2    H3 8189   2.967   2.112  12.609 -0.5133  0.3785  1.0596
  548MPD2     N 8190   3.019   1.665  12.669  0.6659 -0.9698  0.1417
  548MPD2    H5 8191   2.969   1.580  12.693 -0.2983 -0.6225 -0.6672
  548MPD2    N1 8192   2.585   1.874  12.556  0.1636 -0.0173 -0.3249
  548MPD2    H7 8193   2.540   1.962  12.533  0.6169  0.3834  0.3164
  549TMC3    C1 8194   2.368   1.780  12.516  0.5117 -0.1070  0.0114
  549TMC3    C2 8195   2.323   1.900  12.464  0.1806 -0.1446 -0.3298
  549TMC3    C3 8196   2.187   1.919  12.465 -0.3061 -0.0217 -0.6067
  549TMC3    C4 8197   2.281   1.691  12.572 -0.1849  0.5773 -0.0096
  549TMC3    C5 8198   2.149   1.714  12.570  0.2906  0.2438  0.0288
  549TMC3    C6 8199   2.097   1.831  12.518  0.6899  0.7250 -0.1894
  549TMC3     C 8200   2.511   1.761  12.538 -0.5063  0.4194  0.0116
  549TMC3     O 8201   2.553   1.646  12.567  0.7521  0.2681  0.3573
  549TMC3     H 8202   2.396   1.959  12.410  0.6113 -0.2631  0.1179
  549TMC3    H1 8203   2.333   1.618  12.633 -0.5231  0.0982 -0.2939
  549TMC3    H2 8204   1.992   1.857  12.520  0.2109 -1.1360 -1.7216
  549TMC3    C7 8205   2.054   1.603  12.560  0.1838 -0.3344  0.5785
  549TMC3    C8 8206   2.126   2.044  12.417 -0.5192  0.1819 -0.2765
  549TMC3    O1 8207   1.939   1.620  12.527 -0.1276 -0.1760  0.4280
  549TMC3    O2 8208   2.008   2.040  12.386  0.1869  0.2809 -0.0932
  550TMC3    C1 8209   2.251   4.366  12.423  0.2353 -0.5966  0.5967
  550TMC3    C2 8210   2.227   4.402  12.557  0.2342 -0.4750  0.3068
  550TMC3    C3 8211   2.221   4.537  12.594 -0.0072  0.1839  0.2555
  550TMC3    C4 8212   2.263   4.456  12.327  0.3079  0.9563 -0.4918
  550TMC3    C5 8213   2.258   4.585  12.362 -0.5991  0.0617  0.3051
  550TMC3    C6 8214   2.253   4.629  12.494 -0.0199 -0.8110  0.0129
  550TMC3     C 8215   2.185   4.252  12.376 -0.4896 -0.2305 -0.3721
  550TMC3     O 8216   2.196   4.151  12.447 -0.2025 -0.4929 -0.3406
  550TMC3     H 8217   2.207   4.325  12.630 -1.4773  0.8761  1.2319
  550TMC3    H1 8218   2.304   4.427  12.230  0.5111 -0.4530  0.0126
  550TMC3    H2 8219   2.261   4.735  12.513 -0.0629 -0.1144 -3.8741
  550TMC3    C7 8220   2.148   4.642  12.286  0.6071  0.6562 -0.1518
  550TMC3    C8 8221   2.138   4.582  12.704  0.5050 -0.2101 -0.0183
  550TMC3    O1 8222   2.076   4.563  12.223  0.4316  0.3927 -0.5585
  550TMC3    O2 8223   2.122   4.702  12.717 -0.2412 -0.4554 -0.3795
  551TMC3    C1 8224   4.298   1.982  13.449 -0.6534  0.0320  0.5325
  551TMC3    C2 8225   4.414   1.965  13.374  0.4493  0.1180  0.4116
  551TMC3    C3 8226   4.531   2.024  13.420 -0.1443  0.3882 -0.1339
  551TMC3    C4 8227   4.308   2.044  13.570 -0.7732 -0.2550  0.2860
  551TMC3    C5 8228   4.428   2.105  13.612 -0.2587  0.0241 -0.2814
  551TMC3    C6 8229   4.545   2.094  13.537  0.4936 -0.8054 -0.5655
  551TMC3     C 8230   4.183   1.983  13.373 -0.6882  0.1743  1.1554
  551TMC3     O 8231   4.182   1.925  13.265  0.3628 -0.6549  0.7074
  551TMC3     H 8232   4.405   1.944  13.268  0.4567  1.1685  0.1981
  551TMC3    H1 8233   4.219   2.063  13.629  0.6393 -1.4172  2.7814
  551TMC3    H2 8234   4.639   2.122  13.582 -0.1885 -1.4187  1.2430
  551TMC3    C7 8235   4.433   2.179  13.737 -0.0869  0.0652 -0.4954
  551TMC3    C8 8236   4.620   2.069  13.313  0.5455 -0.6826  0.0080
  551TMC3    O1 8237   4.545   2.201  13.785  0.7366 -1.0473  0.5105
  551TMC3    O2 8238   4.617   2.008  13.209 -0.4453  0.0445  0.5700
  552MPD2     C 8239   1.044   4.452  14.532  0.0681 -0.5759  0.2677
  552MPD2    C1 8240   1.133   4.374  14.467 -0.3059  0.5720 -0.0613
  552MPD2    C2 8241   1.270   4.389  14.487  0.1110 -1.1293  0.5244
  552MPD2    C3 8242   1.315   4.475  14.584  0.2038  0.0952  0.5179
  552MPD2    C4 8243   1.220   4.559  14.638 -0.0825 -0.3890  0.3462
  552MPD2    C5 8244   1.089   4.554  14.600  0.6214  0.0576 -0.0608
  552MPD2     H 8245   1.340   4.320  14.440  0.3098 -0.7954  0.3351
  552MPD2    H1 8246   1.247   4.637  14.709 -4.2342 -2.6491  4.4114
  552MPD2    H2 8247   0.939   4.432  14.516  0.1921 -0.1237 -1.1018
  552MPD2    H3 8248   1.029   4.635  14.642  0.0931 -0.5696  0.3894
  552MPD2     N 8249   1.440   4.479  14.632 -0.4567  1.1574 -0.1267
  552MPD2    H5 8250   1.467   4.540  14.709 -0.1706 -0.5394  1.1034
  552MPD2    N1 8251   1.102   4.258  14.391  0.0999  0.0182  0.9311
  552MPD2    H7 8252   1.181   4.200  14.365 -0.6024 -0.3433 -0.3800
  553TMC3    C1 8253   0.996   4.078  14.292 -0.1421  0.0683  0.1254
  553TMC3    C2 8254   0.974   4.060  14.154 -0.0459  0.4245 -0.0719
  553TMC3    C3 8255   1.049   3.968  14.088 -0.1904 -0.1153 -0.1482
  553TMC3    C4 8256   1.106   4.015  14.350  0.5696 -0.4850 -0.3293
  553TMC3    C5 8257   1.181   3.924  14.280  0.0823 -0.5733 -0.3176
  553TMC3    C6 8258   1.139   3.885  14.156 -0.1148  0.1304 -0.1279
  553TMC3     C 8259   0.980   4.211  14.350 -0.1269 -0.0465 -0.2637
  553TMC3     O 8260   0.872   4.269  14.352  0.4306  0.7296 -0.7152
  553TMC3     H 8261   0.906   4.132  14.109  0.0167  0.2705 -0.4102
  553TMC3    H1 8262   1.121   4.034  14.456  0.4770  1.7085 -0.7170
  553TMC3    H2 8263   1.195   3.802  14.114  0.4819  0.4355  0.0732
  553TMC3    C7 8264   1.294   3.864  14.353  0.3285 -0.5098  0.6145
  553TMC3    C8 8265   1.074   3.973  13.944  0.2046  0.0331 -0.0223
  553TMC3    O1 8266   1.282   3.873  14.474 -0.4397 -0.1265  0.1596
  553TMC3    O2 8267   1.108   3.872  13.888  0.1958 -0.6491 -0.5569
  554TMC3    C1 8268   2.729   3.209  11.787  0.3918  0.5187 -0.0442
  554TMC3    C2 8269   2.622   3.156  11.722 -0.2125 -0.1794 -0.0417
  554TMC3    C3 8270   2.599   3.189  11.593  0.0592  0.2116  0.2438
  554TMC3    C4 8271   2.818   3.284  11.723 -0.4574  0.1436  0.0211
  554TMC3    C5 8272   2.780   3.347  11.600  1.0277  0.3092  0.1262
  554TMC3    C6 8273   2.672   3.297  11.533  0.5811  0.3656  0.4955
  554TMC3     C 8274   2.788   3.129  11.898  0.1471 -0.0500 -0.8785
  554TMC3     O 8275   2.742   3.121  12.009  0.8242  0.6677 -0.2516
  554TMC3     H 8276   2.570   3.070  11.763 -0.0513 -1.4670 -2.4837
  554TMC3    H1 8277   2.909   3.309  11.777  0.5999 -0.0577 -1.6576
  554TMC3    H2 8278   2.646   3.349  11.442 -0.8349 -1.0011  0.1295
  554TMC3    C7 8279   2.864   3.452  11.535  0.2870  0.2377 -0.6510
  554TMC3    C8 8280   2.523   3.101  11.502  0.0482 -0.1143  0.0294
  554TMC3    O1 8281   2.844   3.465  11.417 -0.1535  0.6802  0.1100
  554TMC3    O2 8282   2.447   3.021  11.556 -0.2396 -0.7014  0.0637
  555TMC3    C1 8283   2.539   2.794  15.237  0.2920 -0.2665 -0.4726
  555TMC3    C2 8284   2.495   2.891  15.324 -0.2740  0.1455  0.5474
  555TMC3    C3 8285   2.514   2.873  15.464 -0.6392  0.1364  0.1656
  555TMC3    C4 8286   2.597   2.679  15.283 -0.3832  0.1251 -0.3032
  555TMC3    C5 8287   2.604   2.662  15.420  0.1534  0.4563 -0.0574
  555TMC3    C6 8288   2.560   2.757  15.510  0.0725 -0.3339 -0.1792
  555TMC3     C 8289   2.546   2.820  15.095  0.4180 -0.3634  0.5012
  555TMC3     O 8290   2.632   2.751  15.040 -0.1054  0.0146  0.1305
  555TMC3     H 8291   2.454   2.985  15.289 -2.4884 -0.5202  1.3512
  555TMC3    H1 8292   2.628   2.604  15.210 -1.8437 -1.0492  0.2783
  555TMC3    H2 8293   2.577   2.735  15.615  2.5696 -0.3632 -0.5920
  555TMC3    C7 8294   2.574   2.533  15.470  0.4166 -0.1777 -0.0111
  555TMC3    C8 8295   2.485   2.989  15.550  0.4937 -0.0621  0.3904
  555TMC3    O1 8296   2.507   2.515  15.571  0.4895 -0.2813  1.0517
  555TMC3    O2 8297   2.455   3.100  15.511 -0.4887 -0.0729  0.4546
  556MPD2     C 8298   0.079   4.614  10.659  0.0617  0.3069  0.0340
  556MPD2    C1 8299   0.091   4.513  10.745  0.1986  0.2717  0.3965
  556MPD2    C2 8300   0.105   4.388  10.685 -0.1978 -0.7814 -0.1954
  556MPD2    C3 8301   0.120   4.369  10.552  0.1770 -0.0501  0.2923
  556MPD2    C4 8302   0.130   4.471  10.467  0.7928 -0.4119  0.3288
  556MPD2    C5 8303   0.109   4.597  10.526  0.4329  0.5485  0.1849
  556MPD2     H 8304   0.107   4.295  10.741  0.8283 -0.6792 -0.0617
  556MPD2    H1 8305   0.137   4.459  10.360 -1.1176  1.3150  0.0107
  556MPD2    H2 8306   0.061   4.717  10.690  0.9439  0.6030 -0.4314
  556MPD2    H3 8307   0.110   4.682  10.459  1.8465  0.2251 -0.1914
  556MPD2     N 8308   0.123   4.239  10.499  0.0169  0.6947 -0.1050
  556MPD2    H5 8309   0.105   4.169  10.571  2.1142  1.3315  1.0333
  556MPD2    N1 8310   0.078   4.537  10.886 -0.6333 -0.5993 -0.1101
  556MPD2    H7 8311   0.070   4.635  10.914  1.9712 -0.3602 -0.1718
  557TMC3    C1 8312   0.171   4.056  10.373 -0.2554  0.4376  0.6495
  557TMC3    C2 8313   0.218   4.010  10.256  0.0254  0.0664  0.4521
  557TMC3    C3 8314   0.216   3.875  10.235 -0.3387  0.5703  0.1817
  557TMC3    C4 8315   0.136   3.975  10.480 -0.1507 -0.7449 -0.6725
  557TMC3    C5 8316   0.149   3.840  10.459  0.5398  0.3794  0.5925
  557TMC3    C6 8317   0.182   3.786  10.336  0.2567  0.0666 -0.1338
  557TMC3     C 8318   0.160   4.195  10.374 -0.0781  0.0949  0.2746
  557TMC3     O 8319   0.193   4.257  10.272 -0.0200 -0.6185 -0.5122
  557TMC3     H 8320   0.246   4.074  10.173 -1.5798 -1.3348 -1.1630
  557TMC3    H1 8321   0.130   4.006  10.584 -3.2293 -0.2319 -1.0095
  557TMC3    H2 8322   0.163   3.679  10.330  1.0366 -0.0998  0.3939
  557TMC3    C7 8323   0.082   3.758  10.554  0.2448 -0.6861  0.4660
  557TMC3    C8 8324   0.221   3.823  10.104  0.8562  0.7370 -0.0318
  557TMC3    O1 8325   0.002   3.811  10.626  0.1852 -0.4199 -0.4362
  557TMC3    O2 8326   0.226   3.898  10.009  0.1820 -0.4436 -0.7123
  558TMC3    C1 8327   2.144   2.447  10.433  0.0991  0.2397  0.5835
  558TMC3    C2 8328   2.115   2.336  10.506  0.8058 -0.1161 -0.0717
  558TMC3    C3 8329   2.000   2.265  10.471  0.3295 -0.5179 -0.3818
  558TMC3    C4 8330   2.069   2.486  10.321  0.3542 -0.2614 -0.0523
  558TMC3    C5 8331   1.953   2.422  10.302  0.3879 -0.1491 -0.0394
  558TMC3    C6 8332   1.914   2.319  10.381 -0.1149 -0.1731 -0.5587
  558TMC3     C 8333   2.287   2.484  10.441  0.0943 -0.2225  0.2966
  558TMC3     O 8334   2.367   2.421  10.509 -0.8224 -1.1081  0.2757
  558TMC3     H 8335   2.195   2.287  10.561  0.2963  1.0890  1.7329
  558TMC3    H1 8336   2.106   2.562  10.253 -0.0632  0.5111  0.5854
  558TMC3    H2 8337   1.839   2.248  10.347  0.1712 -1.6037  1.8392
  558TMC3    C7 8338   1.879   2.458  10.180 -0.7256 -0.1482 -0.3143
  558TMC3    C8 8339   1.980   2.126  10.502 -0.3671  0.1140 -0.0045
  558TMC3    O1 8340   1.928   2.544  10.112  0.3282  0.2649 -0.5715
  558TMC3    O2 8341   1.901   2.061  10.432  0.4926  0.2931 -0.0248
  559MPD2     C 8342   2.709   2.857  10.806 -0.7446  0.3981 -0.8320
  559MPD2    C1 8343   2.650   2.736  10.847  0.1179  0.8230  0.1476
  559MPD2    C2 8344   2.730   2.634  10.897 -0.1914 -0.4672 -0.4418
  559MPD2    C3 8345   2.867   2.655  10.914  0.4597  0.4350  0.1983
  559MPD2    C4 8346   2.928   2.776  10.876  0.4060  0.3965  0.2301
  559MPD2    C5 8347   2.849   2.876  10.828  0.6976 -0.7402 -0.7332
  559MPD2     H 8348   2.685   2.542  10.931  0.5776 -0.8517 -0.4580
  559MPD2    H1 8349   3.035   2.796  10.884  0.6911 -0.7156 -0.9157
  559MPD2    H2 8350   2.649   2.937  10.763 -0.2548  0.9389 -0.5061
  559MPD2    H3 8351   2.892   2.972  10.801 -0.1499 -0.1279  0.0634
  559MPD2     N 8352   2.943   2.554  10.979 -0.0406  0.0847 -0.5740
  559MPD2    H5 8353   2.887   2.476  11.010 -0.0525  0.7321  1.0167
  559MPD2    N1 8354   2.513   2.724  10.813  0.8646 -0.6683 -0.6789
  559MPD2    H7 8355   2.461   2.799  10.768  0.1009 -0.1157  1.0909
  560TMC3    C1 8356   3.085   2.440  11.125  0.1523 -0.5867  0.7307
  560TMC3    C2 8357   2.975   2.393  11.185 -0.2352  0.4379  0.3489
  560TMC3    C3 8358   2.991   2.338  11.306 -0.3458  0.3073 -0.2981
  560TMC3    C4 8359   3.206   2.424  11.182  0.3633  0.0969 -0.5102
  560TMC3    C5 8360   3.221   2.362  11.301 -0.1449  0.2422 -0.6993
  560TMC3    C6 8361   3.111   2.314  11.364 -0.4002  0.7160  0.7819
  560TMC3     C 8362   3.072   2.551  11.027 -0.1613  1.1086 -0.6128
  560TMC3     O 8363   3.166   2.624  11.002  0.5456  0.0366  0.1981
  560TMC3     H 8364   2.872   2.417  11.163 -0.4458 -0.2204  0.6239
  560TMC3    H1 8365   3.291   2.472  11.134  0.8515 -0.6981 -0.4545
  560TMC3    H2 8366   3.124   2.266  11.460  2.5551 -1.2427 -0.5872
  560TMC3    C7 8367   3.349   2.339  11.362  0.2913  0.2929  0.8877
  560TMC3    C8 8368   2.884   2.247  11.338  0.4696 -0.3816 -0.2326
  560TMC3    O1 8369   3.364   2.248  11.439  0.3593 -0.4219 -0.0185
  560TMC3    O2 8370   2.762   2.274  11.319  0.2199  0.2471 -0.4533
  561TMC3    C1 8371   0.841   1.803  11.715  0.1395 -0.4635 -0.8749
  561TMC3    C2 8372   0.814   1.780  11.852  0.0984 -0.4139  0.1384
  561TMC3    C3 8373   0.781   1.897  11.925  0.3308  0.1823 -0.4397
  561TMC3    C4 8374   0.832   1.917  11.655 -0.5428  0.1760  0.7138
  561TMC3    C5 8375   0.800   2.032  11.727  0.3144  0.4592  0.4299
  561TMC3    C6 8376   0.779   2.017  11.859  0.5960  0.1913  0.6608
  561TMC3     C 8377   0.846   1.679  11.639 -1.2573  0.1251 -0.0610
  561TMC3     O 8378   0.812   1.577  11.694 -0.8217  0.0859 -0.8519
  561TMC3     H 8379   0.803   1.680  11.894  1.0197 -0.1531  1.0031
  561TMC3    H1 8380   0.838   1.929  11.548  1.6487 -1.1536  0.6870
  561TMC3    H2 8381   0.739   2.105  11.908  3.2741  0.7175  1.8809
  561TMC3    C7 8382   0.815   2.164  11.667 -0.5879  0.0208  0.1088
  561TMC3    C8 8383   0.788   1.889  12.072 -0.2558  0.0723 -0.2122
  561TMC3    O1 8384   0.822   2.255  11.749 -0.5031 -0.3195 -0.4086
  561TMC3    O2 8385   0.848   1.794  12.112 -0.7115 -0.3591  0.5214
  562TMC3    C1 8386   2.334   3.467  16.565 -0.6239  0.3985 -0.1192
  562TMC3    C2 8387   2.290   3.592  16.545  0.1673  0.4726  0.4577
  562TMC3    C3 8388   2.215   3.612  16.429  0.0966 -0.6224  0.0691
  562TMC3    C4 8389   2.306   3.366  16.478  0.1487 -0.2187 -0.1055
  562TMC3    C5 8390   2.234   3.394  16.363  0.6454  0.9786  0.1224
  562TMC3    C6 8391   2.183   3.515  16.341  0.0775  0.3633 -0.4293
  562TMC3     C 8392   2.434   3.436  16.670  0.1891 -0.4266 -0.5615
  562TMC3     O 8393   2.475   3.320  16.668 -0.1858 -0.4517 -0.0641
  562TMC3     H 8394   2.325   3.672  16.609  3.2935  2.3901 -3.5989
  562TMC3    H1 8395   2.357   3.271  16.488 -0.9105 -0.5861  1.7316
  562TMC3    H2 8396   2.116   3.536  16.258 -1.8311  0.6031  1.1829
  562TMC3    C7 8397   2.206   3.281  16.272 -0.7066 -0.9053 -0.4494
  562TMC3    C8 8398   2.190   3.755  16.404  0.1380 -0.3785 -0.3659
  562TMC3    O1 8399   2.172   3.307  16.154  0.5718 -0.0406 -0.1438
  562TMC3    O2 8400   2.248   3.829  16.484 -0.4421  0.2501 -0.1114
  563MPD2     C 8401   4.717   4.677  15.892 -0.6304 -0.4531 -0.2659
  563MPD2    C1 8402   0.012   0.010  15.999 -0.2311 -0.4237 -0.3427
  563MPD2    C2 8403   0.069   4.680  16.102 -0.0375  0.4363  0.8179
  563MPD2    C3 8404   0.091   4.544  16.101  0.6471  0.3893  0.3775
  563MPD2    C4 8405   0.031   4.473  16.001  0.0293 -0.6445 -0.2439
  563MPD2    C5 8406   4.731   4.542  15.889  0.4414  0.4044 -0.4593
  563MPD2     H 8407   0.111   4.735  16.186  1.1041 -0.8688  1.1123
  563MPD2    H1 8408   0.049   4.366  15.992  3.3812 -0.0291 -0.9430
  563MPD2    H2 8409   4.669   4.706  15.799 -0.2922  0.1184 -0.2619
  563MPD2    H3 8410   4.704   4.485  15.801 -0.6613 -1.2216  0.9076
  563MPD2     N 8411   0.179   4.491  16.201  0.1214  0.0892 -0.6073
  563MPD2    H5 8412   0.215   4.563  16.263 -2.2129  0.3137  0.4835
  563MPD2    N1 8413   0.017   0.155  15.983  0.7461  0.7780  0.3657
  563MPD2    H7 8414   0.018   0.196  15.891 -1.3118 -0.4205 -0.2065
  564TMC3    C1 8415   4.731   0.220  16.206 -0.0279 -0.3693  0.9593
  564TMC3    C2 8416   4.602   0.208  16.199 -0.4461  0.5209 -0.1880
  564TMC3    C3 8417   4.526   0.155  16.298  0.5540  0.6478  0.0832
  564TMC3    C4 8418   0.055   0.178  16.315  0.3487  0.2172 -0.1919
  564TMC3    C5 8419   4.727   0.119  16.423 -0.7521 -0.5890 -0.0699
  564TMC3    C6 8420   4.591   0.114  16.413 -0.6101 -0.6470  0.1459
  564TMC3     C 8421   0.066   0.231  16.087 -0.2195 -0.2969 -0.2074
  564TMC3     O 8422   0.121   0.339  16.079  0.0767 -0.3788  0.7618
  564TMC3     H 8423   4.558   0.251  16.110  1.2026 -0.4842 -1.4914
  564TMC3    H1 8424   0.162   0.183  16.329  0.5294  1.5795 -2.0811
  564TMC3    H2 8425   4.541   0.078  16.502  0.4702 -1.9543  0.2267
  564TMC3    C7 8426   0.045   4.726  16.451 -0.0694 -0.0143 -0.0586
  564TMC3    C8 8427   4.449   0.045  16.243 -0.0574 -0.4417 -0.3299
  564TMC3    O1 8428   0.164   4.703  16.445  0.4997 -0.1630 -0.4235
  564TMC3    O2 8429   4.438   4.701  16.329  0.1109  0.2518 -0.6481
  565TMC3    C1 8430   0.535   0.713  10.404 -0.2627  0.4480 -0.0484
  565TMC3    C2 8431   0.450   0.665  10.494 -0.1963  0.3526 -0.2880
  565TMC3    C3 8432   0.419   0.531  10.475  0.1766  0.2091  0.0325
  565TMC3    C4 8433   0.601   0.638  10.315  0.0731 -0.4805 -0.3403
  565TMC3    C5 8434   0.589   0.507  10.318 -0.0424  0.3819 -0.1188
  565TMC3    C6 8435   0.495   0.440  10.396 -0.0869  0.6061  0.4535
  565TMC3     C 8436   0.554   0.855  10.393  0.0540  0.3127 -0.4239
  565TMC3     O 8437   0.579   0.906  10.280 -0.2182 -0.8257 -0.0258
  565TMC3     H 8438   0.388   0.739  10.542  0.9285  0.6169  0.7811
  565TMC3    H1 8439   0.659   0.682  10.234 -1.1573 -0.0687 -1.0083
  565TMC3    H2 8440   0.494   0.335  10.423 -0.0731  0.1355 -1.4296
  565TMC3    C7 8441   0.671   0.432  10.228  0.1037 -0.3161 -0.8512
  565TMC3    C8 8442   0.297   0.479  10.535  0.4597  0.1726 -0.6369
  565TMC3    O1 8443   0.755   0.497  10.167  0.1167 -0.1328  0.0209
  565TMC3    O2 8444   0.244   0.525  10.636 -0.1516  0.1796 -0.0706
  566MPD2     C 8445   2.080   2.122  14.263  0.0975  0.3244  0.5235
  566MPD2    C1 8446   2.187   2.156  14.179 -0.4138 -0.1972  0.3627
  566MPD2    C2 8447   2.170   2.122  14.044 -0.9293  0.5024 -0.1389
  566MPD2    C3 8448   2.057   2.056  13.999  0.0450 -0.1264  0.7543
  566MPD2    C4 8449   1.966   2.009  14.091  0.3667  0.0390  1.0312
  566MPD2    C5 8450   1.974   2.046  14.218  0.5060 -0.2489 -0.9122
  566MPD2     H 8451   2.238   2.155  13.966  0.7155  0.4589  1.2784
  566MPD2    H1 8452   1.891   1.934  14.069  0.5532  0.2476 -0.3276
  566MPD2    H2 8453   2.087   2.163  14.363 -0.9435 -0.8569  1.0945
  566MPD2    H3 8454   1.904   1.997  14.284 -0.1137  0.1034 -1.3055
  566MPD2     N 8455   2.052   2.031  13.859  0.0252  0.2387  0.2642
  566MPD2    H5 8456   2.122   2.082  13.807  0.3231  0.3671  0.7890
  566MPD2    N1 8457   2.301   2.226  14.222 -0.4274 -0.0627  0.2310
  566MPD2    H7 8458   2.319   2.232  14.322  0.2921 -0.4072  0.1204
  567TMC3    C1 8459   2.473   2.388  14.205  0.4817  0.8019  0.1022
  567TMC3    C2 8460   2.570   2.435  14.118 -0.1533 -0.7006 -0.0290
  567TMC3    C3 8461   2.624   2.556  14.135  0.1655 -1.2303  0.2428
  567TMC3    C4 8462   2.428   2.476  14.306  0.0236 -1.1370  0.0805
  567TMC3    C5 8463   2.480   2.602  14.318  0.5185 -0.6295 -0.1530
  567TMC3    C6 8464   2.576   2.644  14.230 -0.2896 -0.1394  0.7482
  567TMC3     C 8465   2.376   2.312  14.142 -0.5959 -0.2861  0.1181
  567TMC3     O 8466   2.356   2.347  14.031  0.1881  0.0965  0.1330
  567TMC3     H 8467   2.594   2.362  14.042  0.5313  0.0791 -0.5648
  567TMC3    H1 8468   2.341   2.450  14.365 -1.1576  0.4601 -0.9559
  567TMC3    H2 8469   2.617   2.744  14.227 -1.2578  0.2420  0.2113
  567TMC3    C7 8470   2.382   2.705  14.344 -0.2010  0.8758  0.1148
  567TMC3    C8 8471   2.692   2.618  14.017 -0.3647 -0.3440 -0.8963
  567TMC3    O1 8472   2.384   2.798  14.264 -0.6861 -0.1471 -0.7878
  567TMC3    O2 8473   2.682   2.738  14.002 -0.2536 -0.1401 -0.5317
  568MPD2     C 8474   3.839   3.367  16.281  0.5928  0.0245  0.6546
  568MPD2    C1 8475   3.911   3.410  16.396  0.1759  0.3487  0.8637
  568MPD2    C2 8476   3.945   3.537  16.401 -0.3872  0.1097 -0.2195
  568MPD2    C3 8477   3.926   3.625  16.295 -0.1472  0.3627  0.4267
  568MPD2    C4 8478   3.849   3.588  16.190  1.0398 -0.3242 -0.6904
  568MPD2    C5 8479   3.804   3.457  16.180  1.0692 -0.1203 -0.0227
  568MPD2     H 8480   3.985   3.571  16.496 -1.1712 -0.9815  0.5029
  568MPD2    H1 8481   3.810   3.653  16.112  0.6621 -1.3249 -1.3373
  568MPD2    H2 8482   3.805   3.266  16.262 -2.1620  0.8182  1.4233
  568MPD2    H3 8483   3.745   3.426  16.095 -0.6386  2.2350  0.3186
  568MPD2     N 8484   3.970   3.758  16.316  0.4205 -0.3928 -0.4462
  568MPD2    H5 8485   3.998   3.788  16.409 -2.4059 -1.2667  0.7207
  568MPD2    N1 8486   3.925   3.315  16.503 -0.4264 -0.2935  0.2276
  568MPD2    H7 8487   3.875   3.229  16.490  0.6163 -0.8871  0.1521
  569TMC3    C1 8488   4.012   3.983  16.275  0.3289 -0.2050 -0.6632
  569TMC3    C2 8489   4.043   4.001  16.408 -0.7200  0.5353  0.3415
  569TMC3    C3 8490   4.084   4.130  16.440  0.5699  1.0400 -0.1916
  569TMC3    C4 8491   4.008   4.087  16.184  0.5153 -0.1117  0.0578
  569TMC3    C5 8492   4.050   4.210  16.215  0.5363 -0.2367  0.0061
  569TMC3    C6 8493   4.090   4.234  16.346 -0.3207 -0.1065  0.2867
  569TMC3     C 8494   3.985   3.855  16.216 -0.3730 -0.7250 -0.5189
  569TMC3     O 8495   3.973   3.845  16.099 -0.1720  0.0420  0.4951
  569TMC3     H 8496   4.064   3.917  16.473 -0.3280  0.0660 -0.3950
  569TMC3    H1 8497   3.974   4.066  16.083 -0.3398  0.9884  0.1195
  569TMC3    H2 8498   4.125   4.331  16.378 -0.3477  1.4800 -4.4482
  569TMC3    C7 8499   4.089   4.296  16.100  0.2905 -0.1692 -0.3408
  569TMC3    C8 8500   4.168   4.132  16.564 -0.4299  0.2824 -0.0276
  569TMC3    O1 8501   4.056   4.259  15.987  0.0966 -0.0825 -0.2370
  569TMC3    O2 8502   4.145   4.050  16.651 -0.4327 -0.2563 -0.1170
  570TMC3    C1 8503   3.326   2.014  16.398  0.0794  0.3548 -0.4650
  570TMC3    C2 8504   3.411   2.011  16.293  0.1006 -0.0442 -0.1040
  570TMC3    C3 8505   3.519   2.091  16.296  0.0602 -0.1273  0.9379
  570TMC3    C4 8506   3.349   2.092  16.508  0.6293 -0.3630  0.0057
  570TMC3    C5 8507   3.461   2.168  16.515  0.6175  0.0656 -0.3513
  570TMC3    C6 8508   3.544   2.169  16.407  0.0596 -0.0345 -0.6083
  570TMC3     C 8509   3.208   1.923  16.391  0.4651 -0.0088 -0.2278
  570TMC3     O 8510   3.194   1.866  16.284 -0.0067 -0.0699  0.9401
  570TMC3     H 8511   3.391   1.941  16.213 -1.7322  0.6414 -0.2382
  570TMC3    H1 8512   3.277   2.103  16.588  0.3527 -1.8701 -0.0351
  570TMC3    H2 8513   3.629   2.235  16.413  0.3348 -0.3590 -0.8995
  570TMC3    C7 8514   3.435   2.294  16.578 -0.2294 -0.3222 -0.2635
  570TMC3    C8 8515   3.567   2.138  16.166 -0.1234  0.0077 -0.6678
  570TMC3    O1 8516   3.363   2.296  16.679  0.2805 -0.1752  0.3716
  570TMC3    O2 8517   3.594   2.257  16.173 -0.4022  0.4832 -0.6839
  571MPD2     C 8518   1.919   4.023   0.329 -0.2789 -0.0750  0.4291
  571MPD2    C1 8519   1.806   4.091   0.298 -0.2192  0.6338 -0.2686
  571MPD2    C2 8520   1.817   4.231   0.312 -0.1781 -0.1210 -0.9953
  571MPD2    C3 8521   1.931   4.297   0.345  0.5163 -0.9889  0.3538
  571MPD2    C4 8522   2.041   4.219   0.362  0.7707 -1.3457 -0.3442
  571MPD2    C5 8523   2.035   4.081   0.353 -0.0184  0.5638 -0.2758
  571MPD2     H 8524   1.724   4.286   0.299  0.2309  1.0219  0.8553
  571MPD2    H1 8525   2.140   4.263   0.370  0.0317  0.9171 -3.5702
  571MPD2    H2 8526   1.913   3.915   0.327  1.7585 -0.1722 -0.7247
  571MPD2    H3 8527   2.122   4.019   0.372 -0.8480 -0.3786  0.4213
  571MPD2     N 8528   1.943   4.432   0.368 -0.0344 -0.1798  0.6020
  571MPD2    H5 8529   2.041   4.458   0.380  0.3405 -0.4989 -1.9459
  571MPD2    N1 8530   1.689   4.012   0.266  0.4679  0.6143 -0.2662
  571MPD2    H7 8531   1.704   3.912   0.262  0.0069  0.5127  0.4531
  572TMC3    C1 8532   1.880   4.668   0.381  0.3250 -0.1890 -0.4697
  572TMC3    C2 8533   2.006   4.695   0.429  0.3354 -0.4208 -0.8278
  572TMC3    C3 8534   2.034   0.086   0.458  0.3271  0.0539  0.9401
  572TMC3    C4 8535   1.788   0.025   0.351 -0.2692 -1.1973  0.3596
  572TMC3    C5 8536   1.824   0.155   0.374  1.1704  0.7258 -0.3700
  572TMC3    C6 8537   1.943   0.186   0.423  0.0830  0.1685 -0.2123
  572TMC3     C 8538   1.840   4.522   0.375  0.3950  0.5536 -0.2005
  572TMC3     O 8539   1.716   4.499   0.359  0.8434 -0.2849  0.5412
  572TMC3     H 8540   2.059   4.619   0.485  1.1390 -0.7571 -2.0432
  572TMC3    H1 8541   1.689   4.738   0.316  0.1797  1.2330 -2.9173
  572TMC3    H2 8542   1.967   0.289   0.448  0.0005  0.4044 -1.1395
  572TMC3    C7 8543   1.739   0.258   0.327 -0.4091 -0.4741  0.1038
  572TMC3    C8 8544   2.143   0.108   0.541  0.6222  1.1373  0.0507
  572TMC3    O1 8545   1.618   0.239   0.331 -0.9899 -0.0391 -0.0878
  572TMC3    O2 8546   2.236   0.032   0.518 -0.9618  0.5550 -0.4042
  573MPD2     C 8547   2.366   4.409   0.045  0.0819 -0.3336 -0.5191
  573MPD2    C1 8548   2.306   4.523   0.082 -0.3494  0.6902 -0.2844
  573MPD2    C2 8549   2.172   4.540   0.077  0.8164 -0.5820 -0.3113
  573MPD2    C3 8550   2.103   4.429   0.031 -0.3199 -0.0620 -0.4467
  573MPD2    C4 8551   2.165   4.314  17.759 -0.0512 -0.2541  0.2422
  573MPD2    C5 8552   2.299   4.301  17.764 -0.0618 -0.6282  0.3914
  573MPD2     H 8553   2.120   4.620   0.128  1.7868 -0.5319  0.5975
  573MPD2    H1 8554   2.104   4.230  17.727  1.1515 -1.3865  0.9528
  573MPD2    H2 8555   2.474   4.399   0.050 -0.2773 -3.3589  1.0477
  573MPD2    H3 8556   2.358   4.214  17.736  0.9849 -0.8288  3.2037
  573MPD2     N 8557   1.961   4.424   0.033 -0.1576  0.4261  0.0465
  573MPD2    H5 8558   1.915   4.335   0.017  0.4873  0.0416  0.2794
  573MPD2    N1 8559   2.398   4.611   0.140  0.1245 -0.2430 -0.1026
  573MPD2    H7 8560   2.485   4.562   0.156 -0.6318 -0.3091  3.6689
  574TMC3    C1 8561   1.735   4.503   0.048 -0.5510  0.1171 -0.1087
  574TMC3    C2 8562   1.653   4.606   0.031 -0.0299  0.2171 -1.1039
  574TMC3    C3 8563   1.529   4.581  17.747 -0.3042 -0.1583  0.6228
  574TMC3    C4 8564   1.697   4.375   0.022 -0.5814  0.2799  0.6788
  574TMC3    C5 8565   1.571   4.352  17.739  0.1424 -0.6021  0.4780
  574TMC3    C6 8566   1.482   4.453  17.731 -0.4930  0.0523  0.2423
  574TMC3     C 8567   1.877   4.531   0.058 -0.0610  0.1906 -0.0876
  574TMC3     O 8568   1.904   4.649   0.052  0.1031  0.2066 -0.7997
  574TMC3     H 8569   1.686   4.708   0.050 -1.5048  0.9117 -2.2721
  574TMC3    H1 8570   1.768   4.295   0.039 -2.2854 -0.7656  2.9969
  574TMC3    H2 8571   1.394   4.449  17.668 -0.4675  1.5223  0.1022
  574TMC3    C7 8572   1.535   4.224  17.679  0.4963 -0.2840 -0.1655
  574TMC3    C8 8573   1.433   4.687  17.752  0.0903  0.5169  0.1484
  574TMC3    O1 8574   1.626   4.146  17.649  0.5748 -0.5852  0.6346
  574TMC3    O2 8575   1.316   4.649  17.747 -0.0192 -0.0837 -0.5177
  575TMC3    C1 8576   4.402   0.266  11.114  0.0416  0.2906 -0.2160
  575TMC3    C2 8577   4.288   0.209  11.075 -0.1109  0.2535  0.6054
  575TMC3    C3 8578   4.263   0.175  10.945 -0.1334 -1.0168  1.0561
  575TMC3    C4 8579   4.506   0.282  11.025  0.2737 -1.4286 -0.0232
  575TMC3    C5 8580   4.481   0.235  10.899 -0.6528 -0.1336  0.0367
  575TMC3    C6 8581   4.368   0.174  10.853  0.2717  0.7944 -0.0664
  575TMC3     C 8582   4.422   0.293  11.255  0.3343 -0.3328  0.1082
  575TMC3     O 8583   4.368   0.216  11.338  0.0540 -0.2818 -0.3647
  575TMC3     H 8584   4.210   0.184  11.145  0.1950 -3.3835 -0.3654
  575TMC3    H1 8585   4.595   0.335  11.058 -0.3048 -0.5741  0.1335
  575TMC3    H2 8586   4.345   0.138  10.754  0.1062  0.5993  0.0420
  575TMC3    C7 8587   4.591   0.269  10.809 -0.3044  0.1153 -0.0851
  575TMC3    C8 8588   4.126   0.149  10.899 -0.2450  0.6823  0.8718
  575TMC3    O1 8589   4.683   0.340  10.850 -0.3838  0.2780 -0.4765
  575TMC3    O2 8590   4.037   0.180  10.977  0.4531 -0.0865  0.1177
  576MPD2     C 8591   4.443   2.203  12.994  0.7401 -0.0572 -0.4401
  576MPD2    C1 8592   4.526   2.312  12.974  0.0950 -0.4333 -0.5115
  576MPD2    C2 8593   4.516   2.420  13.063  0.0160 -0.4410 -0.0268
  576MPD2    C3 8594   4.427   2.417  13.169  0.4944  0.2529 -0.8975
  576MPD2    C4 8595   4.339   2.306  13.175  0.1411  0.6255  0.1031
  576MPD2    C5 8596   4.351   2.200  13.090 -0.1217 -0.8758 -0.8131
  576MPD2     H 8597   4.578   2.507  13.045 -0.9728  0.1256 -0.7238
  576MPD2    H1 8598   4.259   2.301  13.248 -0.2757 -1.6154 -0.5049
  576MPD2    H2 8599   4.440   2.118  12.927  1.9154  0.6425 -1.3698
  576MPD2    H3 8600   4.290   2.110  13.094  1.4876 -1.9482 -0.5310
  576MPD2     N 8601   4.417   2.529  13.254 -0.3622 -0.2804  0.4815
  576MPD2    H5 8602   4.477   2.607  13.230  0.9361 -1.4837 -0.2064
  576MPD2    N1 8603   4.635   2.308  12.872  0.1612  0.1197  0.1583
  576MPD2    H7 8604   4.679   2.398  12.855 -1.7002  1.3992  2.0129
  577TMC3    C1 8605   0.028   2.231  12.695 -0.3115  0.7042  0.0066
  577TMC3    C2 8606   0.129   2.141  12.693  0.0019  0.1974 -0.1365
  577TMC3    C3 8607   0.243   2.181  12.623  0.3081  0.6787 -0.3544
  577TMC3    C4 8608   0.031   2.352  12.622  0.3980  0.2233 -0.5342
  577TMC3    C5 8609   0.147   2.382  12.568  0.1003 -1.0868  0.2414
  577TMC3    C6 8610   0.257   2.302  12.561 -0.3004 -0.3365 -0.4980
  577TMC3     C 8611   4.666   2.200  12.791  0.2313  0.8563 -0.0773
  577TMC3     O 8612   4.623   2.084  12.798  0.7433  0.0658 -0.4405
  577TMC3     H 8613   0.128   2.046  12.746  1.1578  1.0332  1.3794
  577TMC3    H1 8614   4.693   2.424  12.632 -1.1478 -1.5055 -0.4388
  577TMC3    H2 8615   0.347   2.336  12.512  0.3570 -0.7762  0.4034
  577TMC3    C7 8616   0.146   2.475  12.461 -0.1091 -0.4288 -0.3383
  577TMC3    C8 8617   0.347   2.094  12.617  0.2686  0.6955  0.5187
  577TMC3    O1 8618   0.233   2.560  12.448  0.1106  0.2225  0.3313
  577TMC3    O2 8619   0.350   2.004  12.705  0.0750 -0.2962  0.1045
  578MPD2     C 8620   3.375   2.646   1.126  0.4863 -0.4438  0.0005
  578MPD2    C1 8621   3.346   2.554   1.025 -0.3089  0.4104  0.1112
  578MPD2    C2 8622   3.417   2.437   1.024  0.3547  0.3169 -0.0833
  578MPD2    C3 8623   3.522   2.412   1.107  0.3902 -0.1773  0.8310
  578MPD2    C4 8624   3.549   2.502   1.206  0.1072 -0.5781  0.5632
  578MPD2    C5 8625   3.478   2.616   1.214 -0.8104 -0.0676 -0.2802
  578MPD2     H 8626   3.399   2.362   0.948  2.5818 -0.3250 -0.0085
  578MPD2    H1 8627   3.631   2.508   1.276  0.2895  2.3109  0.0769
  578MPD2    H2 8628   3.321   2.740   1.133 -0.4832 -0.8517 -2.0769
  578MPD2    H3 8629   3.514   2.683   1.291  0.6555 -1.1627 -0.0264
  578MPD2     N 8630   3.598   2.292   1.081  0.0966  0.1065  0.1504
  578MPD2    H5 8631   3.551   2.220   1.027 -1.0819  1.0361 -0.0841
  578MPD2    N1 8632   3.245   2.591   0.937  0.1699 -0.0300  0.7046
  578MPD2    H7 8633   3.203   2.681   0.961 -1.4150 -0.1714 -1.6059
  579TMC3    C1 8634   3.777   2.122   1.106  0.5880  0.0701 -1.4387
  579TMC3    C2 8635   3.911   2.112   1.115 -0.5968  0.0230 -0.1399
  579TMC3    C3 8636   3.967   1.996   1.068 -0.1977  0.6243  0.1384
  579TMC3    C4 8637   3.703   2.017   1.057  0.5110  0.1241  0.6687
  579TMC3    C5 8638   3.768   1.904   1.018  0.1051 -0.1581 -0.1596
  579TMC3    C6 8639   3.900   1.885   1.027  0.1183  0.1626 -0.4163
  579TMC3     C 8640   3.718   2.254   1.139  0.0687  0.3348 -0.4064
  579TMC3     O 8641   3.782   2.309   1.226 -0.0303 -0.1682 -0.7958
  579TMC3     H 8642   3.976   2.196   1.137 -2.6245  1.4171  0.5745
  579TMC3    H1 8643   3.595   2.028   1.049  0.6724  1.3470  0.1918
  579TMC3    H2 8644   3.946   1.791   1.002  0.8057 -0.7792  4.3364
  579TMC3    C7 8645   3.686   1.786   0.977  0.0136 -0.0761 -0.2180
  579TMC3    C8 8646   4.108   1.982   1.052 -0.9948 -0.5451  0.1326
  579TMC3    O1 8647   3.739   1.680   0.956 -0.5089 -0.2168  0.3491
  579TMC3    O2 8648   4.157   1.875   1.074  0.3889  0.0889  0.1366
  580TMC3    C1 8649   1.902   0.725  11.809  0.2502 -0.4312  0.9845
  580TMC3    C2 8650   1.976   0.765  11.698  0.2902  0.2675 -0.3484
  580TMC3    C3 8651   2.110   0.735  11.693  0.6173  0.5173 -0.0936
  580TMC3    C4 8652   1.974   0.659  11.906 -0.5058 -0.5606  0.2737
  580TMC3    C5 8653   2.101   0.606  11.885 -0.0598  0.2274  0.2334
  580TMC3    C6 8654   2.172   0.651  11.775 -0.6718 -0.5402  0.2013
  580TMC3     C 8655   1.840   0.845  11.868 -0.4329 -0.1384 -0.0228
  580TMC3     O 8656   1.879   0.879  11.977 -0.0274  0.4773  0.1290
  580TMC3     H 8657   1.938   0.830  11.620 -1.3980 -0.1041  0.1651
  580TMC3    H1 8658   1.921   0.628  11.995 -0.7522  0.7164  0.5634
  580TMC3    H2 8659   2.280   0.641  11.765 -0.9001 -0.7150 -2.0066
  580TMC3    C7 8660   2.182   0.590  12.004 -0.2336 -0.6433 -0.0131
  580TMC3    C8 8661   2.181   0.833  11.606 -0.3210 -0.4590 -0.1797
  580TMC3    O1 8662   2.141   0.656  12.099 -0.3456  0.4353 -0.0412
  580TMC3    O2 8663   2.149   0.822  11.489 -0.1094 -0.1978 -0.1654
  581MPD2     C 8664   0.710   0.798  14.817 -0.0909  0.0790 -0.7914
  581MPD2    C1 8665   0.638   0.869  14.913  0.0918  0.2218 -0.4232
  581MPD2    C2 8666   0.536   0.948  14.880  0.8182  0.0690  0.8023
  581MPD2    C3 8667   0.487   0.947  14.755 -0.3496 -0.3915  0.2602
  581MPD2    C4 8668   0.561   0.885  14.653 -0.5402 -0.8799  0.4872
  581MPD2    C5 8669   0.672   0.813  14.685  0.3024  0.4458  0.4188
  581MPD2     H 8670   0.469   1.002  14.947 -0.1039 -0.3505  0.2135
  581MPD2    H1 8671   0.531   0.876  14.549  1.5738 -0.7115 -0.1331
  581MPD2    H2 8672   0.795   0.739  14.850  1.9494  1.8014 -2.9874
  581MPD2    H3 8673   0.726   0.769  14.602 -2.2983 -1.3501 -0.3128
  581MPD2     N 8674   0.363   1.007  14.737 -0.0578 -0.2864  0.2372
  581MPD2    H5 8675   0.324   1.056  14.816 -1.0521 -0.4399 -0.1633
  581MPD2    N1 8676   0.680   0.858  15.044  0.6298 -0.0352 -0.0898
  581MPD2    H7 8677   0.739   0.778  15.067  1.0223 -0.0448 -1.1581
  582TMC3    C1 8678   0.682   0.871  15.268 -0.1761  0.1025  0.6759
  582TMC3    C2 8679   0.755   0.947  15.356  0.1576  0.0253  0.6884
  582TMC3    C3 8680   0.735   0.919  15.490  0.6933  0.6608 -0.1980
  582TMC3    C4 8681   0.585   0.778  15.305 -0.2215  0.4922 -0.5266
  582TMC3    C5 8682   0.567   0.753  15.435 -0.0183 -0.0833  0.2024
  582TMC3    C6 8683   0.643   0.821  15.529  0.0372  0.1465 -0.1841
  582TMC3     C 8684   0.642   0.938  15.144 -0.2149 -0.0217  0.0719
  582TMC3     O 8685   0.535   0.995  15.164  0.1802  0.9015 -0.2886
  582TMC3     H 8686   0.810   1.032  15.319  1.8973 -1.4109  0.0096
  582TMC3    H1 8687   0.522   0.742  15.224 -0.9431 -0.7042  0.5650
  582TMC3    H2 8688   0.624   0.787  15.630  2.2947 -1.3901 -0.2793
  582TMC3    C7 8689   0.429   0.754  15.467  0.7244  0.3704 -0.4866
  582TMC3    C8 8690   0.741   1.019  15.587 -0.4743  0.1152 -0.1362
  582TMC3    O1 8691   0.347   0.674  15.423  0.2881 -0.0568 -0.5478
  582TMC3    O2 8692   0.650   1.015  15.667  0.3798  0.3225 -0.6822
  583MPD2     C 8693   0.757   2.914  16.825  0.0541 -0.8501 -0.4114
  583MPD2    C1 8694   0.754   3.028  16.747  0.1666 -0.0142 -0.0549
  583MPD2    C2 8695   0.728   3.154  16.809  0.3789  0.1971  0.1055
  583MPD2    C3 8696   0.694   3.159  16.946 -0.0183  0.1817  0.4024
  583MPD2    C4 8697   0.718   3.044  17.025 -0.2806  0.4214  0.2153
  583MPD2    C5 8698   0.742   2.923  16.961  0.3627  0.2389 -0.4929
  583MPD2     H 8699   0.734   3.246  16.752 -3.1925  0.3584  0.0412
  583MPD2    H1 8700   0.713   3.035  17.133  1.5069 -1.1470  0.1655
  583MPD2    H2 8701   0.786   2.815  16.791 -0.2241 -0.4126 -1.9351
  583MPD2    H3 8702   0.773   2.837  17.020  1.0063  1.2608  0.6707
  583MPD2     N 8703   0.655   3.283  17.004 -0.3168  0.4477 -0.0723
  583MPD2    H5 8704   0.634   3.358  16.939  0.9390 -0.9308 -2.0829
  583MPD2    N1 8705   0.781   3.039  16.604 -0.8349  0.0508 -0.2331
  583MPD2    H7 8706   0.779   3.132  16.565  2.2643  0.6520  1.0603
  584TMC3    C1 8707   0.604   3.442  17.181  0.3280 -0.2564  0.2048
  584TMC3    C2 8708   0.604   3.541  17.093  0.7620  0.5528  0.2357
  584TMC3    C3 8709   0.565   3.664  17.138  0.1546  0.3432 -0.2214
  584TMC3    C4 8710   0.564   3.454  17.311 -0.5949  0.0978  0.1320
  584TMC3    C5 8711   0.524   3.578  17.354  0.4978  0.1553  1.1379
  584TMC3    C6 8712   0.526   3.688  17.267  0.0240  0.3208  0.0046
  584TMC3     C 8713   0.660   3.315  17.139 -0.4690  0.2413 -0.1532
  584TMC3     O 8714   0.692   3.241  17.233 -0.5658 -0.4956 -0.6456
  584TMC3     H 8715   0.632   3.539  16.989  1.8886  0.1669  0.5403
  584TMC3    H1 8716   0.534   3.367  17.370  0.8733  0.0293  0.7777
  584TMC3    H2 8717   0.496   3.786  17.299 -0.4610 -0.2295  1.2236
  584TMC3    C7 8718   0.451   3.583  17.481  0.1932 -0.1581  0.3111
  584TMC3    C8 8719   0.618   3.773  17.052 -0.2428  0.4020 -0.3736
  584TMC3    O1 8720   0.472   3.493  17.564 -0.4744  0.2397 -0.1354
  584TMC3    O2 8721   0.609   3.758  16.928 -0.2743 -0.4542  0.2093
  585MPD2     C 8722   4.045   2.779   0.060 -0.4365  0.8275 -0.5750
  585MPD2    C1 8723   4.163   2.805  17.757 -0.1819 -0.6786 -0.0464
  585MPD2    C2 8724   4.257   2.702  17.746 -0.0974 -0.5352 -0.3763
  585MPD2    C3 8725   4.227   2.577   0.021 -0.0394 -0.0047 -0.5225
  585MPD2    C4 8726   4.112   2.552   0.101 -0.1343  0.0893 -0.2326
  585MPD2    C5 8727   4.025   2.653   0.119 -0.5433 -0.4336  0.1884
  585MPD2     H 8728   4.349   2.724  17.694 -0.8977  1.4385 -0.9492
  585MPD2    H1 8729   4.104   2.458   0.154 -1.2499  0.0264 -0.5145
  585MPD2    H2 8730   3.972   2.854   0.088  1.1892  2.0958  0.3083
  585MPD2    H3 8731   3.938   2.638   0.183 -1.4894 -1.7404 -1.4126
  585MPD2     N 8732   4.311   2.465   0.011 -0.0274 -0.3383 -0.4463
  585MPD2    H5 8733   4.262   2.381   0.041  0.6719 -0.1268  1.2466
  585MPD2    N1 8734   4.176   2.936  17.713  0.4259  0.3574  0.7146
  585MPD2    H7 8735   4.094   2.995  17.720  0.7368  0.7296  1.2554
  586TMC3    C1 8736   4.488   2.323  17.710  0.2929  1.0884 -0.1417
  586TMC3    C2 8737   4.623   2.302  17.699  0.9408 -0.7046 -0.3935
  586TMC3    C3 8738   4.675   2.180  17.698  0.6505 -0.5207  0.4659
  586TMC3    C4 8739   4.402   2.215  17.707  0.1912 -0.2333  0.2779
  586TMC3    C5 8740   4.456   2.089  17.692 -0.1931 -0.4515  0.0332
  586TMC3    C6 8741   4.594   2.068  17.690  0.0735 -0.5517 -0.0099
  586TMC3     C 8742   4.430   2.453  17.709  0.5988  0.4540 -0.4524
  586TMC3     O 8743   4.503   2.545  17.671  0.2993 -0.0939  0.5497
  586TMC3     H 8744   4.691   2.387  17.704  0.3659 -0.1974 -1.3285
  586TMC3    H1 8745   4.294   2.229  17.706  0.0085 -1.6707  0.4079
  586TMC3    H2 8746   4.633   1.968  17.676 -0.7666 -1.1104  1.6881
  586TMC3    C7 8747   4.376   1.988  17.632  0.1476  0.0246  0.0118
  586TMC3    C8 8748   0.025   2.163  17.591 -0.3113  0.1067 -0.3587
  586TMC3    O1 8749   4.310   1.925  17.712 -0.0341  0.2556  0.2193
  586TMC3    O2 8750   0.100   2.065  17.601 -0.0385 -0.1632  0.2017
  587TMC3    C1 8751   1.968   0.564  16.313  0.5120  0.5220 -0.1818
  587TMC3    C2 8752   1.946   0.666  16.398  0.4569 -0.1268  0.3203
  587TMC3    C3 8753   2.036   0.682  16.503 -0.3959  0.0879  0.9375
  587TMC3    C4 8754   2.071   0.477  16.323  0.3217 -0.1737  0.1587
  587TMC3    C5 8755   2.167   0.506  16.419  0.0109  0.4061  0.7834
  587TMC3    C6 8756   2.149   0.606  16.511 -0.1245 -0.0951 -0.0220
  587TMC3     C 8757   1.868   0.544  16.205  0.0666  0.7306  0.4240
  587TMC3     O 8758   1.906   0.480  16.108  0.7632 -0.1304  0.3685
  587TMC3     H 8759   1.865   0.738  16.389 -1.0867 -1.8114  0.7991
  587TMC3    H1 8760   2.084   0.396  16.253 -0.2916 -0.1309 -0.0040
  587TMC3    H2 8761   2.217   0.623  16.593  0.5862 -0.3942 -0.5415
  587TMC3    C7 8762   2.293   0.437  16.413  0.7480 -0.3427 -0.2834
  587TMC3    C8 8763   2.025   0.795  16.599 -0.2357 -0.2681 -0.3127
  587TMC3    O1 8764   2.353   0.432  16.521  0.1904  0.2022 -0.3993
  587TMC3    O2 8765   2.116   0.840  16.663 -0.5460  0.3117  0.3911
  588TMC3    C1 8766   4.198   2.817  10.059  0.3304  0.5705  0.5941
  588TMC3    C2 8767   4.159   2.690  10.096  0.5526  0.2145  0.5753
  588TMC3    C3 8768   4.201   2.641  10.215 -0.1729  0.8182 -0.2330
  588TMC3    C4 8769   4.289   2.889  10.131  0.6580 -0.3653  0.1066
  588TMC3    C5 8770   4.340   2.827  10.242  0.3885 -0.5886  0.2037
  588TMC3    C6 8771   4.296   2.707  10.288 -0.2524  0.2418  0.3181
  588TMC3     C 8772   4.092   2.895  10.001 -0.6155 -0.2579  0.5434
  588TMC3     O 8773   4.040   2.853   9.904 -0.2072 -0.4523 -0.1357
  588TMC3     H 8774   4.074   2.645  10.046  1.2764 -1.4118  0.8014
  588TMC3    H1 8775   4.320   2.985  10.092 -0.4666 -0.4776 -1.0699
  588TMC3    H2 8776   4.338   2.676  10.383  3.0370 -0.2959 -1.3148
  588TMC3    C7 8777   4.410   2.910  10.331  0.4012  0.2712  0.1604
  588TMC3    C8 8778   4.198   2.501  10.217  0.4855  0.1334 -0.3090
  588TMC3    O1 8779   4.509   2.873  10.394 -0.1852  0.3816 -0.2022
  588TMC3    O2 8780   4.099   2.458  10.167  0.6646 -0.2584 -0.0526
  589TMC3    C1 8781   4.259   1.020   1.311  0.7473  0.3835  0.0493
  589TMC3    C2 8782   4.378   1.001   1.366 -0.3458  0.3187  0.1665
  589TMC3    C3 8783   4.447   0.885   1.332 -0.2606  0.8979 -0.1599
  589TMC3    C4 8784   4.198   0.925   1.228  0.1050  0.0149  0.2164
  589TMC3    C5 8785   4.262   0.802   1.202  0.5661 -1.4128  0.6503
  589TMC3    C6 8786   4.390   0.784   1.253 -0.5995 -0.7337 -0.9888
  589TMC3     C 8787   4.175   1.124   1.349 -0.0033 -0.3511 -0.1724
  589TMC3     O 8788   4.054   1.101   1.347 -0.4057  0.0600 -0.1664
  589TMC3     H 8789   4.427   1.062   1.442 -0.0136  1.0607 -0.6519
  589TMC3    H1 8790   4.094   0.928   1.198 -0.1426  1.5096  1.2150
  589TMC3    H2 8791   4.435   0.685   1.258 -1.4404 -1.1207 -1.0175
  589TMC3    C7 8792   4.181   0.690   1.144 -0.3509  0.7072  0.0983
  589TMC3    C8 8793   4.560   0.851   1.410  1.0518 -0.0928 -0.0409
  589TMC3    O1 8794   4.066   0.714   1.120 -0.1248  0.0833  0.7153
  589TMC3    O2 8795   4.578   0.906   1.515  0.1566  0.0065 -0.1193
  590MPD2     C 8796   3.372   3.560  16.848  0.1416 -0.1471  0.9443
  590MPD2    C1 8797   3.292   3.623  16.754 -0.4276  0.0962 -0.2588
  590MPD2    C2 8798   3.354   3.686  16.653 -0.5155  0.0063 -0.1653
  590MPD2    C3 8799   3.489   3.697  16.648  0.0172 -0.9413 -0.4841
  590MPD2    C4 8800   3.569   3.639  16.746  0.4721  0.5910 -0.2430
  590MPD2    C5 8801   3.508   3.562  16.846 -0.0864 -0.1071  0.5077
  590MPD2     H 8802   3.293   3.731  16.575  0.2555 -1.2341 -1.4823
  590MPD2    H1 8803   3.677   3.650  16.748  0.5518 -0.2025 -0.0537
  590MPD2    H2 8804   3.324   3.518  16.936  0.3138 -0.1795  1.0218
  590MPD2    H3 8805   3.573   3.523  16.923  0.2763 -0.0762  0.2138
  590MPD2     N 8806   3.541   3.767  16.533 -0.1148  0.1996  0.0058
  590MPD2    H5 8807   3.473   3.789  16.460 -0.2772 -1.0790 -0.2395
  590MPD2    N1 8808   3.151   3.638  16.760 -0.1381  0.8052  0.2759
  590MPD2    H7 8809   3.110   3.698  16.689 -2.0268 -2.5658 -1.4948
  591TMC3    C1 8810   3.684   3.912  16.410  0.0316 -0.3070  0.2763
  591TMC3    C2 8811   3.650   3.857  16.290  0.3081 -0.6593  0.4457
  591TMC3    C3 8812   3.645   3.946  16.184 -0.2603 -0.3379 -0.4394
  591TMC3    C4 8813   3.687   4.050  16.429  0.3182 -0.3351  0.1008
  591TMC3    C5 8814   3.673   4.132  16.321  0.1193  0.2383  0.3916
  591TMC3    C6 8815   3.664   4.080  16.194 -0.5496 -0.8720  0.1165
  591TMC3     C 8816   3.667   3.825  16.523 -0.1749 -0.2822 -0.7046
  591TMC3     O 8817   3.749   3.840  16.613 -0.2073 -0.2426  0.2244
  591TMC3     H 8818   3.625   3.751  16.291  1.6344 -0.9946 -1.5528
  591TMC3    H1 8819   3.702   4.086  16.530 -0.4931  3.7951 -1.2064
  591TMC3    H2 8820   3.665   4.144  16.106  0.8766 -0.5582  0.3670
  591TMC3    C7 8821   3.697   4.277  16.342 -0.4340 -0.2940  0.0615
  591TMC3    C8 8822   3.634   3.882  16.057 -0.5142 -0.1012 -0.0473
  591TMC3    O1 8823   3.736   4.317  16.451 -0.3097 -0.9542 -0.5661
  591TMC3    O2 8824   3.576   3.770  16.053 -0.4433  0.2378 -0.8787
  592MPD2     C 8825   3.570   1.259  11.710  1.2583  0.4066  0.3286
  592MPD2    C1 8826   3.491   1.278  11.825  0.5882 -0.3250 -0.1747
  592MPD2    C2 8827   3.430   1.169  11.885 -0.4695 -0.4206  0.5050
  592MPD2    C3 8828   3.439   1.042  11.829  0.7228  0.0126  0.7770
  592MPD2    C4 8829   3.524   1.027  11.725 -0.0980 -0.5459  0.4879
  592MPD2    C5 8830   3.593   1.125  11.666  0.1227  0.6390  0.2398
  592MPD2     H 8831   3.370   1.172  11.974  1.9498 -0.8798  2.1547
  592MPD2    H1 8832   3.541   0.927  11.689 -0.4175 -0.6979  0.7592
  592MPD2    H2 8833   3.616   1.341  11.656 -0.6960  1.4365  0.2489
  592MPD2    H3 8834   3.647   1.105  11.574 -1.2775 -0.7750 -0.2696
  592MPD2     N 8835   3.372   0.933  11.888 -0.3192 -0.1287 -0.4215
  592MPD2    H5 8836   3.319   0.946  11.973  0.6520  3.4153 -0.3553
  592MPD2    N1 8837   3.486   1.408  11.880  0.1913  0.1847 -0.1837
  592MPD2    H7 8838   3.529   1.487  11.834  0.1027  0.3140 -0.0445
  593TMC3    C1 8839   3.456   1.583  12.031  0.3507  0.2069 -0.5481
  593TMC3    C2 8840   3.478   1.596  12.168  0.5992  0.5174 -0.0130
  593TMC3    C3 8841   3.556   1.701  12.210 -0.4569  0.0755 -0.1695
  593TMC3    C4 8842   3.516   1.669  11.942  1.1823 -0.5691 -0.6549
  593TMC3    C5 8843   3.584   1.776  11.991  0.4260 -0.5371 -0.3359
  593TMC3    C6 8844   3.605   1.795  12.126 -1.0717  0.2204  0.0604
  593TMC3     C 8845   3.410   1.453  11.986  0.1355 -0.7219  0.1095
  593TMC3     O 8846   3.354   1.386  12.070  0.3283 -0.4576  0.4557
  593TMC3     H 8847   3.444   1.518  12.236 -2.5216  1.9016  0.0089
  593TMC3    H1 8848   3.499   1.659  11.836 -3.6071  0.7652 -0.0238
  593TMC3    H2 8849   3.656   1.880  12.171  0.2185  0.7351 -2.3783
  593TMC3    C7 8850   3.645   1.873  11.895 -0.0132  0.0818 -0.0909
  593TMC3    C8 8851   3.573   1.722  12.352 -0.5684 -0.3615 -0.3344
  593TMC3    O1 8852   3.609   1.868  11.779 -0.0366 -0.4863  0.1976
  593TMC3    O2 8853   3.474   1.677  12.413 -0.3041  0.7383  0.8355
  594MPD2     C 8854   2.142   4.296  14.285  0.0230 -0.5804  0.7190
  594MPD2    C1 8855   2.151   4.319  14.416 -0.0411 -0.5621  0.0713
  594MPD2    C2 8856   2.269   4.337  14.476  0.0141 -0.8098 -0.0784
  594MPD2    C3 8857   2.383   4.354  14.395 -0.7995 -0.8377 -0.1081
  594MPD2    C4 8858   2.377   4.341  14.259 -0.3149  0.3136  0.0497
  594MPD2    C5 8859   2.254   4.311  14.209  0.2927  0.6717 -0.1151
  594MPD2     H 8860   2.277   4.347  14.583 -0.6796 -1.5005  0.0400
  594MPD2    H1 8861   2.458   4.339  14.187  0.2344  1.0476  0.6451
  594MPD2    H2 8862   2.047   4.313  14.236 -0.0667  0.4348  1.2608
  594MPD2    H3 8863   2.232   4.305  14.103  2.2203  0.4652 -0.5053
  594MPD2     N 8864   2.502   4.377  14.462 -0.2392  0.4955  0.2170
  594MPD2    H5 8865   2.503   4.366  14.563  0.3826  0.7008  0.2352
  594MPD2    N1 8866   2.034   4.321  14.485 -0.4622 -0.3698 -0.5638
  594MPD2    H7 8867   1.963   4.289  14.419  0.8155 -1.1164 -1.5599
  595TMC3    C1 8868   2.911   4.632  14.503 -0.2496  0.1847 -0.0235
  595TMC3    C2 8869   2.838   4.534  14.432  0.3861  0.1006 -0.5782
  595TMC3    C3 8870   2.717   4.494  14.491 -0.2849  0.4060 -0.3794
  595TMC3    C4 8871   2.873   4.688  14.620  0.2064 -0.1613 -0.4049
  595TMC3    C5 8872   2.750   4.650  14.666  0.3461 -0.0813 -0.7037
  595TMC3    C6 8873   2.669   4.562  14.595  1.0873  0.0001  0.1371
  595TMC3     C 8874   3.028   4.681  14.444 -0.3091  0.3373 -0.1713
  595TMC3     O 8875   3.111   4.731  14.517 -0.0397 -0.0069  0.2930
  595TMC3     H 8876   2.883   4.481  14.349 -1.5548 -0.9284 -0.9676
  595TMC3    H1 8877   2.930   0.027  14.665  0.4462  0.0494 -1.0877
  595TMC3    H2 8878   2.579   4.526  14.643  1.0601 -0.2613 -0.1064
  595TMC3    C7 8879   2.676   0.000  14.746  0.0222  0.2658  0.6640
  595TMC3    C8 8880   2.623   4.413  14.405 -0.7528  0.0627 -0.2576
  595TMC3    O1 8881   2.556   0.016  14.713  0.2699 -0.4076  0.3070
  595TMC3    O2 8882   2.669   4.378  14.298 -0.8908 -0.1064  0.4351
  596MPD2     C 8883   1.521   2.705  16.600 -0.1935  0.0748 -0.0447
  596MPD2    C1 8884   1.506   2.829  16.538  0.5665 -0.0938 -0.9810
  596MPD2    C2 8885   1.510   2.831  16.403 -0.0249  0.1768  0.1917
  596MPD2    C3 8886   1.521   2.714  16.330  0.4925 -0.4765 -0.1798
  596MPD2    C4 8887   1.553   2.595  16.392  0.8157 -0.0408  0.5128
  596MPD2    C5 8888   1.551   2.592  16.528  0.4436  0.1781 -0.3294
  596MPD2     H 8889   1.485   2.930  16.367 -2.0379  0.2167  1.6927
  596MPD2    H1 8890   1.558   2.500  16.340  0.6352  1.4457 -2.2310
  596MPD2    H2 8891   1.514   2.695  16.707  2.2838  0.5588  0.1546
  596MPD2    H3 8892   1.578   2.501  16.579  1.6940  0.4110 -0.5625
  596MPD2     N 8893   1.497   2.716  16.187 -0.9302  0.4590  0.0026
  596MPD2    H5 8894   1.529   2.634  16.137 -1.6097 -1.0187  2.0026
  596MPD2    N1 8895   1.498   2.946  16.609  0.2439  0.2719 -0.3363
  596MPD2    H7 8896   1.502   3.033  16.556  4.1539 -0.7164 -1.6715
  597TMC3    C1 8897   1.485   3.109  16.769  1.0652  0.8849  0.1752
  597TMC3    C2 8898   1.554   3.185  16.674  0.8010  0.5225  0.3681
  597TMC3    C3 8899   1.546   3.321  16.681 -0.9725  0.0543  0.0983
  597TMC3    C4 8900   1.409   3.162  16.866  0.2987  0.3562  0.1893
  597TMC3    C5 8901   1.394   3.302  16.862  0.1243 -0.0683  0.0814
  597TMC3    C6 8902   1.471   3.381  16.778 -0.7467  0.6493  0.4354
  597TMC3     C 8903   1.479   2.970  16.745  0.2061  0.5326  0.0828
  597TMC3     O 8904   1.432   2.891  16.827  0.4711 -0.1057 -0.8075
  597TMC3     H 8905   1.632   3.147  16.609 -0.6171 -1.3007 -0.2612
  597TMC3    H1 8906   1.344   3.100  16.927 -0.6534  1.7394  0.5759
  597TMC3    H2 8907   1.475   3.489  16.787  0.2847  0.8180 -2.1315
  597TMC3    C7 8908   1.301   3.363  16.952 -0.3120  0.0946  0.6749
  597TMC3    C8 8909   1.648   3.401  16.614  0.0629 -0.7917 -0.2301
  597TMC3    O1 8910   1.247   3.287  17.033 -0.5096 -0.3288  0.1822
  597TMC3    O2 8911   1.660   3.517  16.648 -0.0529 -0.5338 -0.0351
  598TMC3    C1 8912   4.312   4.074  15.964  0.4837 -0.7044 -0.2018
  598TMC3    C2 8913   4.207   3.997  15.924  0.1753  0.5000  0.3717
  598TMC3    C3 8914   4.148   4.023  15.803  0.2153  0.0102 -0.0691
  598TMC3    C4 8915   4.355   4.177  15.889 -0.3951  1.0646 -0.3039
  598TMC3    C5 8916   4.296   4.201  15.772 -0.2705  0.1337 -0.0741
  598TMC3    C6 8917   4.194   4.123  15.728  0.1895 -0.1954 -0.1702
  598TMC3     C 8918   4.383   4.047  16.089  0.6177 -0.5246 -0.5915
  598TMC3     O 8919   4.481   4.116  16.120 -0.1880  0.3704  0.7078
  598TMC3     H 8920   4.174   3.914  15.985 -0.4142  0.8716  0.5574
  598TMC3    H1 8921   4.433   4.239  15.932 -0.8884  3.2581 -2.5944
  598TMC3    H2 8922   4.142   4.154  15.638  0.1018  0.6043  0.1500
  598TMC3    C7 8923   4.369   4.251  15.660  0.1185  0.4608 -0.1034
  598TMC3    C8 8924   4.099   3.913  15.722  0.8034  1.0731  0.6156
  598TMC3    O1 8925   4.385   4.178  15.564 -0.1106  0.2557 -0.3088
  598TMC3    O2 8926   4.101   3.928  15.603  0.5026  0.0853  0.3684
  599MPD2     C 8927   4.374   1.860  15.815 -0.4412  0.4484  0.2819
  599MPD2    C1 8928   4.341   1.736  15.856  0.2733 -0.2472 -0.2403
  599MPD2    C2 8929   4.216   1.709  15.911  0.4260 -0.3820 -0.2361
  599MPD2    C3 8930   4.127   1.811  15.926 -0.4732 -0.2336 -0.6422
  599MPD2    C4 8931   4.159   1.938  15.895 -0.4886  0.0181  0.0590
  599MPD2    C5 8932   4.283   1.960  15.835  0.3178 -0.0653 -0.3450
  599MPD2     H 8933   4.200   1.610  15.953  1.3640 -1.7010 -3.0177
  599MPD2    H1 8934   4.094   2.024  15.905 -1.7588 -1.1124  1.4493
  599MPD2    H2 8935   4.466   1.878  15.760 -0.6985  1.1061  0.0663
  599MPD2    H3 8936   4.307   2.057  15.793 -0.1336 -0.1857 -0.8699
  599MPD2     N 8937   4.004   1.795  15.992 -0.4090 -0.2721  0.1508
  599MPD2    H5 8938   3.947   1.878  16.003  1.7045  1.1036  0.6086
  599MPD2    N1 8939   4.440   1.634  15.840  0.4548  0.1272  0.2192
  599MPD2    H7 8940   4.534   1.667  15.817 -0.1906  1.1542 -0.9043
  600TMC3    C1 8941   3.823   1.705  16.096  0.1026  0.2218 -0.6103
  600TMC3    C2 8942   3.744   1.599  16.092 -0.6550 -0.0458 -0.5274
  600TMC3    C3 8943   3.632   1.595  16.182 -0.0014 -0.2494  0.0214
  600TMC3    C4 8944   3.820   1.793  16.201 -0.1430 -0.1254  0.0074
  600TMC3    C5 8945   3.720   1.781  16.288  0.8387 -0.6429 -0.5333
  600TMC3    C6 8946   3.617   1.696  16.270 -0.0110  0.2854 -0.4093
  600TMC3     C 8947   3.952   1.676  16.033  0.2507 -0.1747 -0.4708
  600TMC3     O 8948   3.994   1.564  16.029  0.0588 -0.2416  0.5661
  600TMC3     H 8949   3.763   1.515  16.026  1.7562 -0.8536  1.1828
  600TMC3    H1 8950   3.903   1.863  16.207 -0.8233  0.6104  0.8686
  600TMC3    H2 8951   3.539   1.684  16.345  2.0411  0.7441  1.7965
  600TMC3    C7 8952   3.719   1.865  16.409 -0.2354  0.4688 -0.2111
  600TMC3    C8 8953   3.532   1.497  16.182 -0.2570 -0.1208  0.0297
  600TMC3    O1 8954   3.618   1.867  16.476 -0.7783 -0.5302  0.5443
  600TMC3    O2 8955   3.559   1.381  16.161  0.4852  0.5156  0.3260
  601MPD2     C 8956   1.718   0.717   0.105  0.5195  0.2525  0.4049
  601MPD2    C1 8957   1.619   0.656   0.170  0.5626  0.0101 -0.4126
  601MPD2    C2 8958   1.655   0.528   0.220 -0.3000 -0.3741  0.9793
  601MPD2    C3 8959   1.777   0.469   0.199  0.2632  0.6042 -1.2719
  601MPD2    C4 8960   1.880   0.544   0.139 -0.6172 -0.4568 -0.0037
  601MPD2    C5 8961   1.841   0.663   0.093 -0.3019 -0.3544 -0.9979
  601MPD2     H 8962   1.578   0.478   0.278  0.9258 -0.1200  2.8171
  601MPD2    H1 8963   1.982   0.508   0.141  0.3478  2.2425 -0.8366
  601MPD2    H2 8964   1.718   0.817   0.064 -0.2357 -0.2404 -0.7851
  601MPD2    H3 8965   1.915   0.728   0.048  1.6196 -2.2812 -0.6498
  601MPD2     N 8966   1.813   0.341   0.247 -0.3243 -0.2791  0.7638
  601MPD2    H5 8967   1.909   0.311   0.233  0.0186  1.7998 -1.3158
  601MPD2    N1 8968   1.488   0.707   0.181  0.0064 -0.1347 -0.5385
  601MPD2    H7 8969   1.421   0.640   0.218 -0.7146 -0.2355 -2.0347
  602TMC3    C1 8970   1.306   0.847   0.168  0.4852 -1.1611  0.0211
  602TMC3    C2 8971   1.265   0.974   0.191 -0.4118  0.2694 -0.9639
  602TMC3    C3 8972   1.135   1.002   0.187  0.2206 -0.4031  0.3220
  602TMC3    C4 8973   1.218   0.741   0.138  0.4146  0.0325 -0.0495
  602TMC3    C5 8974   1.088   0.779   0.128 -0.0932 -0.4219 -0.2847
  602TMC3    C6 8975   1.042   0.906   0.147 -0.2752  0.0812  0.3609
  602TMC3     C 8976   1.450   0.832   0.156  0.2825  0.6412 -0.0513
  602TMC3     O 8977   1.513   0.928   0.114  0.0442  0.7106 -0.1312
  602TMC3     H 8978   1.339   1.049   0.216  0.0907 -0.9705  1.2277
  602TMC3    H1 8979   1.256   0.641   0.123 -0.5402 -0.2321 -0.6528
  602TMC3    H2 8980   0.946   0.943   0.115 -0.9302 -0.0180  2.2256
  602TMC3    C7 8981   0.992   0.673   0.106 -0.5534  0.1090 -0.3334
  602TMC3    C8 8982   1.100   1.139   0.190  0.0161  0.1155  0.6111
  602TMC3    O1 8983   1.032   0.572   0.047  0.2998 -0.8408  0.2055
  602TMC3    O2 8984   1.189   1.224   0.168  0.0650  0.0862  0.7159
  603TMC3    C1 8985   4.076   0.470  11.364  0.2744  0.1632 -0.3663
  603TMC3    C2 8986   4.135   0.510  11.476 -0.0771  0.1744  0.8357
  603TMC3    C3 8987   4.236   0.598  11.453  0.1515 -0.5636 -0.8486
  603TMC3    C4 8988   4.110   0.512  11.242  0.6116  0.8572  0.3395
  603TMC3    C5 8989   4.212   0.609  11.229  0.1055 -0.0185 -0.3857
  603TMC3    C6 8990   4.268   0.666  11.337 -0.6224  0.8502  0.6408
  603TMC3     C 8991   3.963   0.373  11.369 -0.4295 -0.2045 -0.7821
  603TMC3     O 8992   3.893   0.357  11.269 -0.3293 -0.3236  0.9081
  603TMC3     H 8993   4.101   0.475  11.574 -1.6046 -2.5356 -0.6481
  603TMC3    H1 8994   4.077   0.461  11.152 -1.0368  1.4377  0.6246
  603TMC3    H2 8995   4.357   0.727  11.325 -0.1927  0.2404  0.7122
  603TMC3    C7 8996   4.281   0.623  11.099  0.0647 -0.4355 -0.4554
  603TMC3    C8 8997   4.303   0.653  11.565 -0.3992  0.5196  0.0712
  603TMC3    O1 8998   4.397   0.608  11.100  0.0117 -0.2734  0.3874
  603TMC3    O2 8999   4.342   0.763  11.556  0.3223 -0.0490  0.1387
  604MPD2     C 9000   0.542   3.781  16.311  0.0012  0.4819 -0.4946
  604MPD2    C1 9001   0.563   3.912  16.329 -0.2775  0.3469  0.6533
  604MPD2    C2 9002   0.621   3.987  16.226  0.1644 -0.4331  0.3371
  604MPD2    C3 9003   0.681   3.926  16.113  0.1524 -0.4950 -0.1458
  604MPD2    C4 9004   0.662   3.792  16.104 -0.9748 -0.2242  0.0849
  604MPD2    C5 9005   0.587   3.724  16.198  0.1697  0.0681  0.2281
  604MPD2     H 9006   0.643   4.092  16.239  1.2225 -0.6461  0.2635
  604MPD2    H1 9007   0.699   3.737  16.019 -0.2746  3.1021 -1.7808
  604MPD2    H2 9008   0.497   3.723  16.391 -1.2766  2.2766  0.0876
  604MPD2    H3 9009   0.569   3.618  16.193 -2.3023  0.4452  1.3549
  604MPD2     N 9010   0.756   4.002  16.022  0.2892 -0.3644  0.3993
  604MPD2    H5 9011   0.760   4.100  16.050 -1.4366 -0.0444 -0.4605
  604MPD2    N1 9012   0.535   3.964  16.462 -0.4051  0.2401  0.2809
  604MPD2    H7 9013   0.487   3.909  16.532  1.0642 -1.4849 -0.0740
  605TMC3    C1 9014   0.551   4.113  16.652  0.3444 -0.6322 -0.2132
  605TMC3    C2 9015   0.648   4.171  16.725  0.7693 -0.2604 -0.2989
  605TMC3    C3 9016   0.616   4.272  16.813 -0.7244 -0.7894 -0.2023
  605TMC3    C4 9017   0.418   4.147  16.666 -0.0555 -0.3109  0.8460
  605TMC3    C5 9018   0.391   4.253  16.745 -0.9377 -0.1941  0.3644
  605TMC3    C6 9019   0.488   4.317  16.822  0.4091 -0.1317 -0.2053
  605TMC3     C 9020   0.602   4.074  16.520  0.0279  0.0040  0.2798
  605TMC3     O 9021   0.687   4.151  16.477 -0.5308  0.3965  0.2280
  605TMC3     H 9022   0.753   4.153  16.707  0.4085  0.5938 -3.2821
  605TMC3    H1 9023   0.356   4.129  16.579 -0.3513 -0.3102  1.0584
  605TMC3    H2 9024   0.467   4.410  16.873  0.0967  0.2050 -0.9392
  605TMC3    C7 9025   0.255   4.316  16.745  0.0919  0.5152  0.2976
  605TMC3    C8 9026   0.719   4.372  16.837  0.1438  0.3421 -0.3664
  605TMC3    O1 9027   0.233   4.412  16.815 -0.3143  0.2061 -0.6327
  605TMC3    O2 9028   0.818   4.365  16.766  0.0460 -0.4718  0.0062
  606TMC3    C1 9029   1.354   3.019   0.272  0.8601 -0.0102  0.1406
  606TMC3    C2 9030   1.478   2.998   0.325  0.2280  0.2130 -0.7088
  606TMC3    C3 9031   1.519   2.867   0.338  0.7603  0.1387  0.1344
  606TMC3    C4 9032   1.280   2.919   0.218 -0.2533 -0.1800  0.5965
  606TMC3    C5 9033   1.332   2.794   0.227 -0.1126 -0.2345 -0.3833
  606TMC3    C6 9034   1.437   2.765   0.303 -0.2350 -0.2024  0.0441
  606TMC3     C 9035   1.286   3.148   0.289 -0.5354 -0.8228  0.1473
  606TMC3     O 9036   1.165   3.132   0.279  0.0886 -0.2281 -0.4424
  606TMC3     H 9037   1.548   3.074   0.355 -0.5085 -0.4215  2.6493
  606TMC3    H1 9038   1.184   2.935   0.171  0.6160 -2.3317 -1.8720
  606TMC3    H2 9039   1.474   2.663   0.297  0.0847 -0.0866  0.0161
  606TMC3    C7 9040   1.281   2.696   0.142  0.3622 -0.5684  1.2579
  606TMC3    C8 9041   1.635   2.840   0.414 -0.3704  0.3442  0.7697
  606TMC3    O1 9042   1.275   2.574   0.172  0.0264 -0.3875 -0.4419
  606TMC3    O2 9043   1.727   2.911   0.382  0.1558 -0.0761  0.2067
  607MPD2     C 9044   3.531   0.615  12.060 -0.0741 -0.2752  0.1140
  607MPD2    C1 9045   3.594   0.707  12.133 -0.4478 -0.0122 -0.5386
  607MPD2    C2 9046   3.583   0.708  12.273 -0.4479  0.0636 -0.1806
  607MPD2    C3 9047   3.530   0.597  12.341 -0.2002  0.2658 -0.4580
  607MPD2    C4 9048   3.478   0.490  12.262 -0.0947  0.0148  0.2670
  607MPD2    C5 9049   3.469   0.508  12.125 -0.1858 -0.5350 -0.1693
  607MPD2     H 9050   3.635   0.780  12.336 -0.2847  1.1071 -1.5102
  607MPD2    H1 9051   3.441   0.405  12.319 -1.7514 -0.0345 -0.8695
  607MPD2    H2 9052   3.533   0.613  11.952 -0.9248 -1.5873  0.1142
  607MPD2    H3 9053   3.424   0.422  12.077 -1.9058  0.5434 -0.4843
  607MPD2     N 9054   3.542   0.587  12.483 -0.0436 -0.2984  0.2106
  607MPD2    H5 9055   3.580   0.672  12.524  0.4256 -1.2705  1.7448
  607MPD2    N1 9056   3.674   0.808  12.071  0.1612 -0.7393  0.5298
  607MPD2    H7 9057   3.700   0.880  12.138  0.5602 -3.4973  3.3346
  608TMC3    C1 9058   3.810   0.914  11.905 -0.6703  0.2880 -0.0334
  608TMC3    C2 9059   3.896   0.935  12.007 -0.2784  0.1183 -0.3450
  608TMC3    C3 9060   4.028   0.930  11.989 -0.6446 -0.1850 -0.7902
  608TMC3    C4 9061   3.867   0.887  11.775 -0.4030 -0.7299 -0.5272
  608TMC3    C5 9062   4.000   0.914  11.758  0.1038  0.3676 -0.1623
  608TMC3    C6 9063   4.081   0.945  11.865 -0.4480  0.2568 -0.6114
  608TMC3     C 9064   3.712   0.812  11.939 -0.5096 -0.3640  0.1645
  608TMC3     O 9065   3.692   0.732  11.845  0.4578  0.1120  0.3669
  608TMC3     H 9066   3.858   0.950  12.108  0.2610 -2.6707  0.2897
  608TMC3    H1 9067   3.812   0.864  11.685 -0.5100 -3.4301  0.2216
  608TMC3    H2 9068   4.189   0.946  11.852 -0.3052  1.3634  0.6914
  608TMC3    C7 9069   4.047   0.964  11.634  0.2079  0.0604  0.1670
  608TMC3    C8 9070   4.119   0.928  12.107 -0.5558  0.0462  0.0496
  608TMC3    O1 9071   3.986   0.923  11.534  0.7322 -0.6024 -0.0276
  608TMC3    O2 9072   4.213   1.003  12.092  0.1833 -0.3321  0.0059
  609TMC3    C1 9073   2.347   3.486   9.213  0.1702  0.3678 -0.0969
  609TMC3    C2 9074   2.353   3.392   9.112 -0.5031  0.3117 -0.5880
  609TMC3    C3 9075   2.431   3.288   9.127  0.0357 -0.0105  0.4924
  609TMC3    C4 9076   2.414   3.465   9.329 -0.3729  0.0670  0.0173
  609TMC3    C5 9077   2.497   3.366   9.337  0.0878 -0.4577 -0.0590
  609TMC3    C6 9078   2.506   3.273   9.237  0.4519 -0.5695  0.6186
  609TMC3     C 9079   2.232   3.576   9.210  0.2230  0.3798 -0.0133
  609TMC3     O 9080   2.208   3.646   9.305  0.0914  0.0152  0.1479
  609TMC3     H 9081   2.305   3.417   9.017 -1.4035  0.5580 -0.0685
  609TMC3    H1 9082   2.415   3.544   9.403  1.7610 -1.0796  1.2076
  609TMC3    H2 9083   2.568   3.184   9.226 -0.3640 -0.9872 -0.6833
  609TMC3    C7 9084   2.576   3.346   9.455  0.1335 -0.0253 -0.4560
  609TMC3    C8 9085   2.463   3.209   9.007  0.1329 -0.1699  0.3944
  609TMC3    O1 9086   2.597   3.434   9.537 -0.0877  0.0391 -0.2945
  609TMC3    O2 9087   2.569   3.150   8.997 -0.5166  0.2707  0.8945
  610TMC3    C1 9088   4.292   0.396  12.812 -0.7545  0.1991 -0.0886
  610TMC3    C2 9089   4.258   0.437  12.690 -0.6702  0.5259  0.0473
  610TMC3    C3 9090   4.344   0.419  12.590 -0.2939 -0.3630  0.8284
  610TMC3    C4 9091   4.395   0.314  12.837  0.6962  0.2683 -0.1073
  610TMC3    C5 9092   4.472   0.293  12.732 -0.6866 -0.2975 -0.0173
  610TMC3    C6 9093   4.449   0.334  12.602 -0.4882  0.9928  0.2808
  610TMC3     C 9094   4.189   0.404  12.908  0.4084 -0.1945  0.0515
  610TMC3     O 9095   4.134   0.514  12.927  0.4351 -0.0460  0.6943
  610TMC3     H 9096   4.169   0.498  12.676 -0.2792  0.9934 -0.4112
  610TMC3    H1 9097   4.419   0.271  12.933 -1.2293 -0.7382 -0.0970
  610TMC3    H2 9098   4.505   0.306  12.513 -2.9271  0.3946 -1.0715
  610TMC3    C7 9099   4.595   0.224  12.761 -0.3968 -0.5509  0.4156
  610TMC3    C8 9100   4.301   0.441  12.458  0.0325 -0.1636  0.2385
  610TMC3    O1 9101   4.612   0.159  12.864  0.0603 -0.7723 -0.5686
  610TMC3    O2 9102   4.386   0.464  12.373  0.1246  0.3572 -0.4287
  611MPD2     C 9103   3.335   0.186  10.867 -0.0930 -0.1866 -0.0234
  611MPD2    C1 9104   3.311   0.137  10.747 -0.1344  0.5933 -0.0625
  611MPD2    C2 9105   3.410   0.166  10.652  0.2471  0.3093 -0.3834
  611MPD2    C3 9106   3.518   0.250  10.680  0.4114  0.2772  0.1944
  611MPD2    C4 9107   3.534   0.297  10.807  0.5994  0.6442 -0.2666
  611MPD2    C5 9108   3.445   0.263  10.904 -0.7279 -0.5763 -0.1289
  611MPD2     H 9109   3.393   0.124  10.553 -1.3656  0.1402 -0.0396
  611MPD2    H1 9110   3.620   0.355  10.838  0.1029  1.1497  0.1615
  611MPD2    H2 9111   3.264   0.159  10.945  0.5221 -2.0461 -0.0994
  611MPD2    H3 9112   3.462   0.286  11.008  0.2980  0.0993 -0.4426
  611MPD2     N 9113   3.614   0.297  10.587 -0.1003  0.5761 -0.1015
  611MPD2    H5 9114   3.688   0.353  10.628 -0.6796  1.4632 -0.2590
  611MPD2    N1 9115   3.191   0.068  10.719  0.1737 -0.0474  0.2743
  611MPD2    H7 9116   3.129   0.051  10.797 -1.0283  0.5134 -0.5545
  612TMC3    C1 9117   3.713   0.337  10.377 -0.1316  0.3268 -0.6994
  612TMC3    C2 9118   3.836   0.341  10.435  0.4014 -0.6512 -0.5412
  612TMC3    C3 9119   3.944   0.370  10.354 -0.0356 -0.5062 -0.8473
  612TMC3    C4 9120   3.698   0.372  10.246  0.0454 -0.0461  0.1816
  612TMC3    C5 9121   3.808   0.419  10.177 -0.0099 -0.2847 -0.1449
  612TMC3    C6 9122   3.934   0.410  10.227 -0.0198 -0.2580  0.1498
  612TMC3     C 9123   3.610   0.271  10.448 -0.6881 -0.0016  0.2550
  612TMC3     O 9124   3.516   0.232  10.379 -0.3065 -0.0530  0.6973
  612TMC3     H 9125   3.849   0.278  10.522 -1.6360 -0.1682  0.0994
  612TMC3    H1 9126   3.599   0.356  10.205  0.3822  0.5843 -0.8801
  612TMC3    H2 9127   4.027   0.429  10.175  0.0168 -2.7746 -0.7081
  612TMC3    C7 9128   3.794   0.479  10.044 -0.7534  0.8424 -0.5380
  612TMC3    C8 9129   4.076   0.392  10.419  0.0274 -0.7254 -0.0483
  612TMC3    O1 9130   3.889   0.500   9.970 -0.0497 -0.0681  0.0479
  612TMC3    O2 9131   4.170   0.383  10.344 -0.4693  0.1203  0.1513
  613MPD2     C 9132   2.763   2.843  17.000  0.4587 -0.1303  0.0121
  613MPD2    C1 9133   2.688   2.889  16.889  0.5791  0.6898 -0.2775
  613MPD2    C2 9134   2.564   2.828  16.860  0.8839  0.3008 -0.2702
  613MPD2    C3 9135   2.539   2.700  16.917 -0.4481  0.1296  0.1771
  613MPD2    C4 9136   2.617   2.660  17.026 -0.3100 -0.3663  0.0958
  613MPD2    C5 9137   2.723   2.733  17.073  0.3635 -0.4959 -0.4691
  613MPD2     H 9138   2.495   2.858  16.781  1.4780  1.7589 -0.2453
  613MPD2    H1 9139   2.610   2.561  17.070  1.3936 -0.4437  0.1873
  613MPD2    H2 9140   2.841   2.909  17.038 -1.8266  3.3627 -1.2895
  613MPD2    H3 9141   2.776   2.692  17.158  1.3588  1.2680 -0.2372
  613MPD2     N 9142   2.437   2.606  16.877 -0.1787  0.5672  0.4846
  613MPD2    H5 9143   2.436   2.517  16.925  0.2352  0.2210 -0.1620
  613MPD2    N1 9144   2.750   2.995  16.818 -0.0130  0.0536 -0.5189
  613MPD2    H7 9145   2.825   3.041  16.868 -1.7149  0.5531  1.5524
  614TMC3    C1 9146   2.645   2.954  16.605 -0.0451  0.1540 -0.0381
  614TMC3    C2 9147   2.697   2.835  16.581 -0.2246  0.4114 -0.3509
  614TMC3    C3 9148   2.702   2.790  16.455 -0.0974 -0.0444 -0.0027
  614TMC3    C4 9149   2.592   3.030  16.501 -0.0484  0.3358 -0.5527
  614TMC3    C5 9150   2.578   2.974  16.375  0.7427  0.6932 -0.0583
  614TMC3    C6 9151   2.646   2.856  16.350 -0.0886  0.1924  0.6078
  614TMC3     C 9152   2.716   3.042  16.691 -0.3288 -0.5657  0.4925
  614TMC3     O 9153   2.762   3.140  16.629  0.0310 -0.7079  0.6088
  614TMC3     H 9154   2.756   2.790  16.661  0.4884  2.5934  0.3669
  614TMC3    H1 9155   2.548   3.126  16.525 -2.1561 -0.5995 -0.7250
  614TMC3    H2 9156   2.657   2.816  16.250 -1.4437 -0.3318  0.6696
  614TMC3    C7 9157   2.545   3.066  16.275 -0.6251 -0.3747 -0.4230
  614TMC3    C8 9158   2.723   2.645  16.457  0.1897 -0.3258 -0.6346
  614TMC3    O1 9159   2.585   3.181  16.288 -0.2043  0.3756 -0.3763
  614TMC3    O2 9160   2.721   2.593  16.567 -0.6510 -0.1096 -0.4413
  615MPD2     C 9161   2.355   4.563  16.070 -1.0794 -0.0115  0.3480
  615MPD2    C1 9162   2.223   4.515  16.092  0.1641 -0.0340 -0.3454
  615MPD2    C2 9163   2.133   4.502  15.988 -0.9277 -0.1719  0.4544
  615MPD2    C3 9164   2.160   4.557  15.863 -0.2122  0.9333  0.2218
  615MPD2    C4 9165   2.287   4.608  15.839  0.6669  0.6127 -0.2630
  615MPD2    C5 9166   2.384   4.605  15.938 -0.2031  0.3411 -0.4735
  615MPD2     H 9167   2.032   4.470  16.008 -0.7804 -0.8131  0.1744
  615MPD2    H1 9168   2.319   4.630  15.738  0.4242 -0.3595 -0.5534
  615MPD2    H2 9169   2.435   4.577  16.142 -0.5544 -2.0714  0.1552
  615MPD2    H3 9170   2.478   4.647  15.906  0.4297 -1.1148 -0.5360
  615MPD2     N 9171   2.072   4.551  15.753 -0.1333 -0.3525 -0.1396
  615MPD2    H5 9172   2.089   4.614  15.675 -0.8681 -2.1285 -1.7520
  615MPD2    N1 9173   2.187   4.491  16.225 -0.1290 -0.1270  0.7123
  615MPD2    H7 9174   2.091   4.460  16.235 -1.0025  2.1110 -1.0342
  616TMC3    C1 9175   2.212   4.456  16.451 -0.0026  0.2728 -0.6567
  616TMC3    C2 9176   2.271   4.375  16.542 -0.4067  0.1836  0.4375
  616TMC3    C3 9177   2.214   4.369  16.666  0.2477 -0.3046  0.5818
  616TMC3    C4 9178   2.099   4.531  16.480 -0.2941 -1.3124 -0.0074
  616TMC3    C5 9179   2.059   4.536  16.608 -0.1901  0.3531 -0.1388
  616TMC3    C6 9180   2.115   4.452  16.699 -0.1417  0.0365  0.1897
  616TMC3     C 9181   2.278   4.473  16.324  0.3304 -0.2938 -0.5729
  616TMC3     O 9182   2.398   4.470  16.321 -0.1949  0.1656 -0.0434
  616TMC3     H 9183   2.344   4.301  16.510 -1.4539 -1.2870  1.4614
  616TMC3    H1 9184   2.052   4.593  16.404 -1.5096  1.1231  2.7212
  616TMC3    H2 9185   2.074   4.447  16.799 -0.4658 -2.3927 -0.0636
  616TMC3    C7 9186   1.948   4.624  16.641  0.5737 -0.3567 -1.0477
  616TMC3    C8 9187   2.311   4.340  16.776  0.8869 -0.1412 -0.2398
  616TMC3    O1 9188   1.894   4.689  16.547 -0.1858 -0.1970 -0.7368
  616TMC3    O2 9189   2.279   4.351  16.891  0.0613 -1.0404  0.5022
  617MPD2     C 9190   0.395   2.216  13.709  0.0161 -0.3523 -0.6700
  617MPD2    C1 9191   0.415   2.145  13.826 -0.1813  0.4211 -0.6911
  617MPD2    C2 9192   0.302   2.111  13.898  0.1559 -0.7944  0.0173
  617MPD2    C3 9193   0.172   2.161  13.868 -0.2428 -1.2422 -0.1978
  617MPD2    C4 9194   0.159   2.212  13.737 -0.3335 -0.6651 -0.4804
  617MPD2    C5 9195   0.265   2.248  13.663  0.2956 -0.2498 -1.2077
  617MPD2     H 9196   0.309   2.042  13.981  1.3126 -1.0794 -0.3160
  617MPD2    H1 9197   0.055   2.232  13.711 -0.4432  2.4144  2.2133
  617MPD2    H2 9198   0.476   2.227  13.637  0.7360 -2.9458 -0.2799
  617MPD2    H3 9199   0.258   2.287  13.562 -1.0523 -1.8795 -1.7293
  617MPD2     N 9200   0.054   2.131  13.944 -0.2844  0.3006  0.4288
  617MPD2    H5 9201   4.706   2.150  13.902 -0.1349 -0.3803 -0.1934
  617MPD2    N1 9202   0.541   2.102  13.856 -0.2632  0.2941  0.6296
  617MPD2    H7 9203   0.620   2.132  13.800 -0.5194 -0.7996 -0.3282
  618TMC3    C1 9204   0.719   1.994  13.961  0.2214 -0.3242 -0.1097
  618TMC3    C2 9205   0.766   1.861  13.962 -0.4302 -0.2018  0.1204
  618TMC3    C3 9206   0.904   1.849  13.949  0.4713  0.0053 -0.3567
  618TMC3    C4 9207   0.802   2.103  13.933  0.3005 -0.1493  0.0455
  618TMC3    C5 9208   0.940   2.079  13.922 -0.0703 -0.1815 -0.5883
  618TMC3    C6 9209   0.988   1.951  13.915  0.4909 -0.6436  0.5888
  618TMC3     C 9210   0.576   2.018  13.955 -0.6927  0.4897 -0.1199
  618TMC3     O 9211   0.500   1.959  14.028 -0.0970 -0.3830  0.6200
  618TMC3     H 9212   0.696   1.782  13.987 -1.5354  1.0716  1.1116
  618TMC3    H1 9213   0.765   2.205  13.944  0.3946 -0.0980 -0.1110
  618TMC3    H2 9214   1.094   1.933  13.910  0.8939  1.8331  0.0623
  618TMC3    C7 9215   1.010   2.185  13.850  0.2397  0.4103  0.1064
  618TMC3    C8 9216   0.972   1.722  13.971 -0.9372 -0.1102 -0.4211
  618TMC3    O1 9217   0.961   2.296  13.840  0.1629  0.0971  0.8804
  618TMC3    O2 9218   1.081   1.698  13.918 -0.3883 -0.0953 -0.5704
  619MPD2     C 9219   1.688   3.412  13.800 -0.6363 -0.1994  0.9524
  619MPD2    C1 9220   1.583   3.472  13.732  0.3700  0.0382 -0.3364
  619MPD2    C2 9221   1.456   3.461  13.788  0.8605 -0.5413 -0.6059
  619MPD2    C3 9222   1.433   3.403  13.910 -0.4436  0.1661  0.0288
  619MPD2    C4 9223   1.540   3.348  13.967  0.9564  0.5101 -0.5304
  619MPD2    C5 9224   1.662   3.342  13.912 -0.4523 -0.4418 -0.1047
  619MPD2     H 9225   1.378   3.503  13.725  1.5023  0.4044 -0.7691
  619MPD2    H1 9226   1.528   3.303  14.065 -0.1085  3.7779  0.8356
  619MPD2    H2 9227   1.783   3.404  13.749 -0.6233  2.1235  0.6283
  619MPD2    H3 9228   1.739   3.276  13.953 -1.6165 -1.2638  0.7646
  619MPD2     N 9229   1.306   3.377  13.972 -0.0477  0.1528  0.5037
  619MPD2    H5 9230   1.295   3.339  14.065 -0.9320  0.2588  0.4407
  619MPD2    N1 9231   1.600   3.558  13.620  0.1440 -0.4544  0.8342
  619MPD2    H7 9232   1.520   3.611  13.587  0.7919 -1.2594 -1.9817
  620TMC3    C1 9233   1.693   3.738  13.512 -0.1771  0.1479  0.1402
  620TMC3    C2 9234   1.561   3.758  13.468 -0.8543 -0.0185  0.1951
  620TMC3    C3 9235   1.517   3.886  13.458  0.5305  0.0132  0.0447
  620TMC3    C4 9236   1.776   3.836  13.562  0.0908  0.2369 -0.3549
  620TMC3    C5 9237   1.729   3.963  13.531  0.3969 -0.5390  0.5853
  620TMC3    C6 9238   1.610   3.988  13.478  0.1006  0.4657 -0.0525
  620TMC3     C 9239   1.719   3.609  13.580 -0.1193  0.6893 -0.2248
  620TMC3     O 9240   1.833   3.587  13.612  0.5442 -0.5946 -0.4270
  620TMC3     H 9241   1.498   3.672  13.444 -0.6795  0.2975 -1.3921
  620TMC3    H1 9242   1.876   3.803  13.589 -0.7606 -0.5786  1.7350
  620TMC3    H2 9243   1.575   4.090  13.483 -1.6937 -0.1155 -0.3592
  620TMC3    C7 9244   1.744   4.054  13.644 -0.1184  0.0361  0.0349
  620TMC3    C8 9245   1.395   3.914  13.525  0.4691 -0.0097  0.4623
  620TMC3    O1 9246   1.724   4.176  13.630 -0.2009  0.0399 -0.1951
  620TMC3    O2 9247   1.366   3.836  13.616 -0.5819  0.1827 -0.5283
  621MPD2     C 9248   1.674   4.321   9.943  0.2263 -0.1567  0.1648
  621MPD2    C1 9249   1.759   4.222   9.964 -0.3174  0.3451  0.4371
  621MPD2    C2 9250   1.896   4.243   9.947 -0.2512 -0.2719  0.5851
  621MPD2    C3 9251   1.946   4.360   9.892 -0.7865  0.4524 -0.5981
  621MPD2    C4 9252   1.856   4.465   9.870 -0.1851 -0.1642 -0.5865
  621MPD2    C5 9253   1.724   4.443   9.899  0.1625 -0.7196  0.3239
  621MPD2     H 9254   1.966   4.165   9.975 -0.1598 -0.5839 -0.5384
  621MPD2    H1 9255   1.872   4.565   9.830 -0.7030  0.2889  0.3230
  621MPD2    H2 9256   1.568   4.310   9.964  0.5556 -0.1637  1.8013
  621MPD2    H3 9257   1.654   4.526   9.899  0.5430 -0.3972 -1.2482
  621MPD2     N 9258   2.083   4.370   9.875  0.1824 -0.4400 -0.5884
  621MPD2    H5 9259   2.144   4.292   9.896  0.8362 -0.1824 -1.5003
  621MPD2    N1 9260   1.712   4.094  10.001  0.5165  0.2614 -0.1891
  621MPD2    H7 9261   1.788   4.027  10.004  0.3669  0.0390 -1.5117
  622TMC3    C1 9262   1.556   3.906  10.021  0.0300  0.6420 -0.0194
  622TMC3    C2 9263   1.447   3.848  10.081 -0.4325  0.2938 -0.2906
  622TMC3    C3 9264   1.424   3.714  10.050  0.8424  0.1678  0.0604
  622TMC3    C4 9265   1.638   3.830   9.938 -0.4998  0.8402  0.0076
  622TMC3    C5 9266   1.617   3.698   9.924 -0.0890 -0.5157 -0.4747
  622TMC3    C6 9267   1.514   3.635   9.985  0.0132  0.0669  0.3842
  622TMC3     C 9268   1.582   4.054  10.039  0.1420  0.3672  0.0991
  622TMC3     O 9269   1.483   4.115  10.081 -0.1300  0.6968 -0.0214
  622TMC3     H 9270   1.388   3.915  10.143 -2.3047 -1.2748 -0.3539
  622TMC3    H1 9271   1.724   3.870   9.886 -0.0124  0.6130  0.6369
  622TMC3    H2 9272   1.500   3.527   9.985  0.2548  0.0355  0.3337
  622TMC3    C7 9273   1.727   3.617   9.888  0.0532  0.2894  0.6568
  622TMC3    C8 9274   1.306   3.647  10.093  0.4840 -0.4411  0.6549
  622TMC3    O1 9275   1.842   3.660   9.900 -0.3094  0.1167  0.7777
  622TMC3    O2 9276   1.304   3.525  10.093  0.6105 -0.3139  0.1756
  623MPD2     C 9277   1.024   4.363  16.154 -0.4099  0.3477  0.2919
  623MPD2    C1 9278   0.957   4.416  16.267 -0.3134  0.4475  0.1576
  623MPD2    C2 9279   1.037   4.472  16.365 -0.2300 -0.0358 -0.5728
  623MPD2    C3 9280   1.175   4.486  16.346  0.3309  0.3398 -0.2501
  623MPD2    C4 9281   1.233   4.444  16.229 -0.6064  0.4006 -0.8741
  623MPD2    C5 9282   1.154   4.389  16.131  0.5896 -0.4124  0.1607
  623MPD2     H 9283   0.995   4.508  16.458  2.0966 -2.4677  1.4111
  623MPD2    H1 9284   1.339   4.461  16.213 -0.4959 -0.8919 -1.4801
  623MPD2    H2 9285   0.966   4.321  16.073  2.2869 -1.8598 -0.5182
  623MPD2    H3 9286   1.187   4.355  16.033 -0.5062 -0.4990 -0.1899
  623MPD2     N 9287   1.247   4.542  16.458  0.8303 -0.6237  0.7636
  623MPD2    H5 9288   1.202   4.567  16.545  1.9222  3.0098  0.2835
  623MPD2    N1 9289   0.823   4.414  16.299 -0.0196  0.1679  0.0325
  623MPD2    H7 9290   0.792   4.481  16.369 -0.4407  1.4622 -1.3977
  624TMC3    C1 9291   1.492   4.518  16.788  1.2904  0.8896 -0.3004
  624TMC3    C2 9292   1.391   4.586  16.854 -0.4267 -0.7444  0.3151
  624TMC3    C3 9293   1.307   4.669  16.788 -0.4184  0.5537 -0.3763
  624TMC3    C4 9294   1.510   4.527  16.655  0.3304  0.1013  0.6967
  624TMC3    C5 9295   1.424   4.611  16.587 -0.1870 -0.4078 -0.1177
  624TMC3    C6 9296   1.326   4.681  16.651  0.6550  0.4711  0.0926
  624TMC3     C 9297   1.580   4.433  16.869 -0.4120  0.4889  0.4167
  624TMC3     O 9298   1.589   4.449  16.991 -0.2642  0.0114  0.4594
  624TMC3     H 9299   1.376   4.562  16.958 -3.2994  1.2397  0.3613
  624TMC3    H1 9300   1.575   4.467  16.592 -2.3517 -0.2523 -1.7238
  624TMC3    H2 9301   1.251   4.741  16.602 -1.2442 -0.1009  2.3132
  624TMC3    C7 9302   1.386   4.555  16.462 -0.0181 -0.2590  0.4195
  624TMC3    C8 9303   1.164   4.660  16.813  0.2697  0.1537  0.1739
  624TMC3    O1 9304   1.471   4.536  16.380  0.1078  0.5396  0.0933
  624TMC3    O2 9305   1.097   4.633  16.710  0.3710 -0.0870 -0.2002
  625MPD2     C 9306   1.197   1.349   0.886 -0.3332  0.3545 -0.4930
  625MPD2    C1 9307   1.272   1.454   0.852 -0.0036  0.3345 -0.2725
  625MPD2    C2 9308   1.412   1.440   0.833 -0.0229  0.4068 -0.3067
  625MPD2    C3 9309   1.463   1.310   0.846  0.2019  0.6734  0.2573
  625MPD2    C4 9310   1.382   1.204   0.890  0.5411  0.3989 -0.0230
  625MPD2    C5 9311   1.252   1.226   0.903  0.9880  0.4112  0.1953
  625MPD2     H 9312   1.471   1.520   0.789  2.1682 -1.9022 -1.5730
  625MPD2    H1 9313   1.414   1.102   0.908  1.1015  0.0940 -2.8232
  625MPD2    H2 9314   1.089   1.359   0.886 -0.3967 -0.2213 -3.0252
  625MPD2    H3 9315   1.205   1.135   0.938  0.9779 -0.0912 -1.1291
  625MPD2     N 9316   1.607   1.288   0.825 -0.0222  0.1797  0.2909
  625MPD2    H5 9317   1.660   1.374   0.828 -0.8429  0.6675  1.0606
  625MPD2    N1 9318   1.212   1.584   0.817 -0.3035  0.0183  0.0727
  625MPD2    H7 9319   1.277   1.658   0.794 -0.4937 -1.0065 -3.7417
  626TMC3    C1 9320   1.057   1.724   0.708  0.1093  0.0268  0.1865
  626TMC3    C2 9321   0.985   1.733   0.593 -0.6345  0.0816 -0.0700
  626TMC3    C3 9322   0.916   1.841   0.573  0.2718 -0.1461  0.0479
  626TMC3    C4 9323   1.057   1.818   0.809 -0.1508  0.0582 -0.2451
  626TMC3    C5 9324   0.972   1.930   0.792  0.4697 -0.4477 -0.5739
  626TMC3    C6 9325   0.912   1.941   0.670  0.1533 -0.2906 -0.8213
  626TMC3     C 9326   1.092   1.597   0.753  0.5902  0.0239 -0.2578
  626TMC3     O 9327   1.025   1.509   0.704  0.1689 -0.1487  0.0273
  626TMC3     H 9328   1.012   1.667   0.511 -1.0431  1.7053 -1.5028
  626TMC3    H1 9329   1.118   1.794   0.896 -1.4350 -1.1689  0.3193
  626TMC3    H2 9330   0.859   2.034   0.651 -1.6363 -0.5394  2.9154
  626TMC3    C7 9331   0.899   1.965   0.907  0.2967 -0.0287 -0.8598
  626TMC3    C8 9332   0.848   1.848   0.444  0.1646  0.0397  0.3639
  626TMC3    O1 9333   0.963   1.941   1.009  0.4592  0.7873 -0.4230
  626TMC3    O2 9334   0.840   1.750   0.371  0.0876 -0.3683  0.1448
  627MPD2     C 9335   4.318   1.001  14.422 -0.0437  0.4695  0.4048
  627MPD2    C1 9336   4.406   0.931  14.492  0.1287 -0.6073 -0.0453
  627MPD2    C2 9337   4.394   0.789  14.492 -0.0226  0.1915 -0.1439
  627MPD2    C3 9338   4.282   0.735  14.432 -0.0396 -0.3059  0.3271
  627MPD2    C4 9339   4.178   0.812  14.383 -0.2337  0.2131  0.0563
  627MPD2    C5 9340   4.198   0.950  14.378  0.2701  1.0014  0.4027
  627MPD2     H 9341   4.464   0.719  14.537  1.2849  1.3730 -0.3512
  627MPD2    H1 9342   4.084   0.771  14.348  0.3437 -1.0703  0.0287
  627MPD2    H2 9343   4.322   1.108  14.404  1.8642  0.3737  0.2843
  627MPD2    H3 9344   4.127   1.021  14.337 -0.2976  0.0855 -0.1873
  627MPD2     N 9345   4.249   0.596  14.452 -0.4136 -0.0424  0.6520
  627MPD2    H5 9346   4.315   0.544  14.509 -0.6018 -1.1518 -0.1402
  627MPD2    N1 9347   4.523   0.984  14.552  0.1940 -0.2177  0.0820
  627MPD2    H7 9348   4.589   0.921  14.594  0.2643  0.5413  1.1177
  628TMC3    C1 9349   4.682   1.135  14.632 -0.0713 -0.0012  0.6159
  628TMC3    C2 9350   0.046   1.047  14.595 -0.8840  0.7470 -0.7538
  628TMC3    C3 9351   0.169   1.091  14.636 -0.3531 -0.3788 -0.0938
  628TMC3    C4 9352   4.695   1.243  14.708  0.3206  0.1077 -0.3764
  628TMC3    C5 9353   0.082   1.282  14.740  0.6381  0.0744 -0.3823
  628TMC3    C6 9354   0.188   1.203  14.716 -0.4008  0.0720  0.1685
  628TMC3     C 9355   4.553   1.117  14.568  0.7678  0.6684 -0.1369
  628TMC3     O 9356   4.478   1.212  14.562 -0.5085  0.2488  0.4413
  628TMC3     H 9357   0.040   0.959  14.533  1.8468 -0.8989  1.2961
  628TMC3    H1 9358   4.608   1.300  14.739  0.2266  0.2793 -0.9632
  628TMC3    H2 9359   0.290   1.239  14.720 -0.1014 -0.8476  0.7914
  628TMC3    C7 9360   0.108   1.418  14.792 -0.0323  0.6353  0.3233
  628TMC3    C8 9361   0.287   1.007  14.624 -0.3592 -0.1155 -0.4494
  628TMC3    O1 9362   0.214   1.434  14.847 -0.0238 -0.3435 -0.1445
  628TMC3    O2 9363   0.311   0.955  14.516  0.6062  0.3448  0.7606
  629MPD2     C 9364   2.830   4.319  16.875  0.2824  0.3204  0.3926
  629MPD2    C1 9365   2.810   4.350  16.745  0.0902 -0.6489  0.0768
  629MPD2    C2 9366   2.679   4.362  16.699 -0.1795  0.1200 -0.1468
  629MPD2    C3 9367   2.574   4.342  16.786 -0.0605 -0.5409 -0.9519
  629MPD2    C4 9368   2.593   4.321  16.922  0.1221 -0.3696 -0.5513
  629MPD2    C5 9369   2.724   4.304  16.960  0.0186  0.2611 -0.3513
  629MPD2     H 9370   2.659   4.384  16.595 -1.1547 -0.1962 -0.0276
  629MPD2    H1 9371   2.502   4.301  16.977 -1.4453 -0.7275 -3.2519
  629MPD2    H2 9372   2.927   4.305  16.921  0.0853  0.3167  0.8088
  629MPD2    H3 9373   2.730   4.268  17.062  0.0430  0.7578 -0.1762
  629MPD2     N 9374   2.445   4.338  16.729  0.5120 -0.3961  0.0536
  629MPD2    H5 9375   2.450   4.327  16.628 -1.8629  3.2966 -0.4610
  629MPD2    N1 9376   2.927   4.365  16.664 -0.5252 -0.4784  0.2415
  629MPD2    H7 9377   3.014   4.330  16.702 -1.1188 -1.0500  1.1039
  630TMC3    C1 9378   3.059   4.427  16.473 -0.0837  0.1736  0.7302
  630TMC3    C2 9379   3.075   4.530  16.387  0.5733 -0.3557  0.3790
  630TMC3    C3 9380   3.204   4.567  16.352  0.4756  0.1936  0.1725
  630TMC3    C4 9381   3.163   4.363  16.537 -0.7275 -0.1757 -0.4742
  630TMC3    C5 9382   3.285   4.424  16.517  0.1759  0.6036  0.4284
  630TMC3    C6 9383   3.309   4.511  16.413 -0.6103 -0.4342 -0.4636
  630TMC3     C 9384   2.930   4.426  16.538  0.0459 -0.0495 -0.2553
  630TMC3     O 9385   2.831   4.478  16.486  0.3779 -0.4444  0.1914
  630TMC3     H 9386   2.995   4.575  16.330 -0.1007 -1.4906  0.4199
  630TMC3    H1 9387   3.148   4.291  16.617 -0.6330 -0.4514 -0.7036
  630TMC3    H2 9388   3.397   4.569  16.390 -0.8203  0.7161  1.6979
  630TMC3    C7 9389   3.344   4.453  16.640 -0.0431 -0.1678 -0.1733
  630TMC3    C8 9390   3.217   4.693  16.288  0.0626 -0.0084  0.0293
  630TMC3    O1 9391   3.291   4.415  16.743  0.0275  0.0254 -0.1137
  630TMC3    O2 9392   3.310   4.712  16.215 -0.1395  0.2207 -0.3215
  631MPD2     C 9393   1.145   0.152  15.911  0.7254  0.0443 -0.1907
  631MPD2    C1 9394   1.221   0.228  15.818  0.1399  0.1815  0.3418
  631MPD2    C2 9395   1.314   0.160  15.737  0.3575  0.1394  0.4102
  631MPD2    C3 9396   1.352   0.028  15.765 -0.7813 -0.1211 -0.5785
  631MPD2    C4 9397   1.277   4.702  15.865  0.2901  0.8128 -0.5675
  631MPD2    C5 9398   1.174   0.020  15.932  0.2074  1.2137 -0.4362
  631MPD2     H 9399   1.376   0.207  15.662  0.9484  0.4455  1.0848
  631MPD2    H1 9400   1.297   4.599  15.895  0.6207  0.7901 -0.8672
  631MPD2    H2 9401   1.070   0.190  15.979  1.1086 -1.9693  1.3422
  631MPD2    H3 9402   1.116   4.705  16.005 -1.5587  2.0548 -1.1903
  631MPD2     N 9403   1.466   4.716  15.687 -0.1359 -0.4927 -0.4125
  631MPD2    H5 9404   1.519   0.040  15.631 -0.2207  0.9501  1.1793
  631MPD2    N1 9405   1.181   0.358  15.795 -0.4392  0.4966 -0.0976
  631MPD2    H7 9406   1.106   0.383  15.858 -1.8348 -0.8774 -1.2184
  632TMC3    C1 9407   1.147   0.564  15.699  0.7116 -0.3818 -1.1715
  632TMC3    C2 9408   1.012   0.535  15.699 -0.2575 -0.1935  0.3552
  632TMC3    C3 9409   0.934   0.583  15.600  0.1178 -0.2589  0.0081
  632TMC3    C4 9410   1.193   0.630  15.587 -0.6715 -0.3649  0.1268
  632TMC3    C5 9411   1.118   0.663  15.476  0.0894  0.2362 -0.1652
  632TMC3    C6 9412   0.982   0.651  15.487  0.5173  0.7172  0.8340
  632TMC3     C 9413   1.238   0.451  15.712  0.2663  0.1537  0.2385
  632TMC3     O 9414   1.341   0.451  15.645  0.4779  0.8616  0.6393
  632TMC3     H 9415   0.973   0.487  15.788 -0.6484 -0.3542  0.0970
  632TMC3    H1 9416   1.297   0.659  15.578 -0.6340 -0.3823  0.4839
  632TMC3    H2 9417   0.919   0.678  15.403  1.6781  1.9440  0.3694
  632TMC3    C7 9418   1.190   0.649  15.353  0.1805 -0.3075 -0.1976
  632TMC3    C8 9419   0.815   0.507  15.587 -0.0066  0.6148  0.5107
  632TMC3    O1 9420   1.144   0.703  15.250 -0.2172 -0.2626  0.3511
  632TMC3    O2 9421   0.763   0.460  15.688  0.0006 -0.2372 -0.5131
  633MPD2     C 9422   0.985   2.895  17.362  0.9431  0.1614 -0.3821
  633MPD2    C1 9423   0.952   2.814  17.254 -0.2126 -0.1063  0.4649
  633MPD2    C2 9424   0.872   2.708  17.288  0.8881  0.3280 -0.5400
  633MPD2    C3 9425   0.816   2.691  17.423  0.1487 -0.2506  0.4781
  633MPD2    C4 9426   0.861   2.769  17.524 -0.5036 -0.0311 -0.5407
  633MPD2    C5 9427   0.943   2.870  17.494 -0.6590 -0.3235 -0.4280
  633MPD2     H 9428   0.846   2.641  17.206  0.7812 -1.6465  1.1237
  633MPD2    H1 9429   0.840   2.755  17.630  2.6718 -3.6670 -0.3655
  633MPD2    H2 9430   1.067   2.966  17.372  0.0710  0.9481  1.0708
  633MPD2    H3 9431   0.974   2.935  17.574 -0.4642  0.7894 -1.4030
  633MPD2     N 9432   0.734   2.584  17.467  0.2372 -0.5571  0.1217
  633MPD2    H5 9433   0.718   2.578  17.567 -2.2542  0.2698 -0.2171
  633MPD2    N1 9434   1.001   2.826  17.123  0.3743  0.1817  0.0240
  633MPD2    H7 9435   0.979   2.754  17.055 -0.5972  0.5071 -0.0083
  634TMC3    C1 9436   1.084   2.947  16.946  1.3125  0.1796  0.1470
  634TMC3    C2 9437   1.109   2.830  16.878  0.2700  0.0980 -0.1050
  634TMC3    C3 9438   1.113   2.846  16.742  0.5100 -0.4757  0.0061
  634TMC3    C4 9439   1.066   3.070  16.897 -0.2692  0.7988 -0.3996
  634TMC3    C5 9440   1.079   3.079  16.758  0.3378 -0.0672 -0.5772
  634TMC3    C6 9441   1.097   2.969  16.680  0.4430 -0.3473  0.2436
  634TMC3     C 9442   1.061   2.943  17.085 -0.0823  0.3973 -0.5041
  634TMC3     O 9443   1.075   3.046  17.150  0.8981 -0.2479  0.2293
  634TMC3     H 9444   1.112   2.731  16.924  0.1952 -0.5192 -1.4237
  634TMC3    H1 9445   1.045   3.158  16.957  2.1064 -0.6156  2.5042
  634TMC3    H2 9446   1.085   2.978  16.573 -0.4074  0.4880  0.4145
  634TMC3    C7 9447   1.059   3.208  16.694  0.0165 -0.5308  0.2522
  634TMC3    C8 9448   1.121   2.717  16.671 -0.1668  0.3529 -0.1094
  634TMC3    O1 9449   1.060   3.204  16.568 -0.4228 -0.1772  0.0658
  634TMC3    O2 9450   1.111   2.612  16.735  0.4472  0.5764  0.4877
  635TMC3    C1 9451   1.453   3.977   0.206  0.1728  0.7212  0.6474
  635TMC3    C2 9452   1.472   3.872   0.128 -0.2661 -0.3449  0.2121
  635TMC3    C3 9453   1.365   3.818   0.065  0.5558  0.1089 -0.1427
  635TMC3    C4 9454   1.326   4.036   0.212  0.9357  0.0114 -0.0520
  635TMC3    C5 9455   1.227   3.995   0.129 -0.8053  0.1764  0.2147
  635TMC3    C6 9456   1.243   3.885   0.056  0.3339 -0.0419  0.3466
  635TMC3     C 9457   1.557   4.061   0.259 -0.1200  0.6341 -0.0612
  635TMC3     O 9458   1.518   4.180   0.277 -0.0224 -0.0241  0.0898
  635TMC3     H 9459   1.572   3.830   0.134 -0.0759  0.1364  0.3871
  635TMC3    H1 9460   1.309   4.115   0.285  2.5153 -1.4931  1.9692
  635TMC3    H2 9461   1.161   3.840  17.765  0.0519  0.9909 -0.0642
  635TMC3    C7 9462   1.093   4.051   0.151  0.0418 -0.2736  0.1086
  635TMC3    C8 9463   1.384   3.694  17.764 -0.0040  0.4659  0.3731
  635TMC3    O1 9464   1.081   4.121   0.252 -0.1277  0.1117 -0.0348
  635TMC3    O2 9465   1.499   3.665  17.731  0.9788  0.4860  0.8915
  636MPD2     C 9466   2.157   3.010  16.148  0.0080  0.1063 -0.4348
  636MPD2    C1 9467   2.188   3.029  16.281  0.4565 -0.1054  1.1772
  636MPD2    C2 9468   2.190   2.916  16.357  0.4965 -0.3147 -0.1737
  636MPD2    C3 9469   2.186   2.791  16.309  0.9052 -0.0845  0.3082
  636MPD2    C4 9470   2.162   2.772  16.173 -0.6926  0.4223 -0.8433
  636MPD2    C5 9471   2.140   2.884  16.096  1.0522 -0.3793 -0.1122
  636MPD2     H 9472   2.213   2.928  16.463  0.6359 -1.0176 -0.1253
  636MPD2    H1 9473   2.157   2.676  16.121 -1.2019  0.3040 -0.5750
  636MPD2    H2 9474   2.152   3.097  16.083  0.5940  0.1321 -0.4502
  636MPD2    H3 9475   2.121   2.877  15.990 -0.6374  2.1791  0.0265
  636MPD2     N 9476   2.210   2.691  16.396 -0.0006 -0.5769  0.6773
  636MPD2    H5 9477   2.217   2.706  16.496  2.2882 -1.0991  0.5912
  636MPD2    N1 9478   2.215   3.154  16.339  0.2690  0.8283  0.0981
  636MPD2    H7 9479   2.233   3.157  16.439  0.0474 -1.0652  0.1964
  637TMC3    C1 9480   2.227   2.476  16.492  0.9687  0.1528  0.8578
  637TMC3    C2 9481   2.220   2.544  16.606  0.4516  0.1570  0.2789
  637TMC3    C3 9482   2.309   2.509  16.700 -0.1656  0.4748 -0.4446
  637TMC3    C4 9483   2.315   2.373  16.473 -0.8742  0.5763  0.2642
  637TMC3    C5 9484   2.402   2.333  16.576  0.7039 -0.2171  0.2307
  637TMC3    C6 9485   2.393   2.401  16.693  0.0491  0.7673 -0.0364
  637TMC3     C 9486   2.193   2.552  16.372  0.2673 -0.5517 -0.1032
  637TMC3     O 9487   2.179   2.493  16.266 -0.2758  0.0562  0.0417
  637TMC3     H 9488   2.155   2.629  16.622 -0.0687 -0.4730  1.5143
  637TMC3    H1 9489   2.309   2.324  16.376 -2.4116  0.7563  0.2591
  637TMC3    H2 9490   2.464   2.376  16.771  0.3040  0.5860 -0.3220
  637TMC3    C7 9491   2.478   2.198  16.564  0.0304  0.6257  0.4671
  637TMC3    C8 9492   2.363   2.623  16.766  0.5091 -0.4664  0.2853
  637TMC3    O1 9493   2.464   2.124  16.659  0.5961  0.0625 -0.0198
  637TMC3    O2 9494   2.313   2.730  16.728  0.4225 -0.0676  0.1939
  638MPD2     C 9495   2.265   1.781  15.213 -0.0741 -0.2320  0.6796
  638MPD2    C1 9496   2.247   1.700  15.101 -0.0062 -0.1169 -0.1125
  638MPD2    C2 9497   2.178   1.579  15.109  0.2532  0.5126 -0.2544
  638MPD2    C3 9498   2.135   1.531  15.234  0.7131  0.2721  0.1372
  638MPD2    C4 9499   2.145   1.620  15.339 -0.0906  0.3933  0.3267
  638MPD2    C5 9500   2.217   1.734  15.330 -0.1644 -0.5511 -0.0175
  638MPD2     H 9501   2.176   1.510  15.025 -1.4870  1.4880 -1.0166
  638MPD2    H1 9502   2.115   1.602  15.442 -0.1486  1.2053  0.4557
  638MPD2    H2 9503   2.322   1.873  15.209 -0.3250 -0.0941  0.2005
  638MPD2    H3 9504   2.240   1.800  15.413 -0.1468  0.0960 -0.5326
  638MPD2     N 9505   2.098   1.394  15.246  0.0753  0.2684  0.5493
  638MPD2    H5 9506   2.098   1.333  15.165  0.9538 -0.6023  1.1926
  638MPD2    N1 9507   2.294   1.745  14.972 -0.5718 -0.1710  0.4393
  638MPD2    H7 9508   2.359   1.822  14.957 -1.5568  0.5416 -0.1190
  639TMC3    C1 9509   2.081   1.192  15.354 -0.7414 -0.4775  0.7073
  639TMC3    C2 9510   1.982   1.131  15.282 -0.0874  0.0290 -0.4752
  639TMC3    C3 9511   2.011   1.009  15.224  0.1952  0.1799  0.6970
  639TMC3    C4 9512   2.212   1.140  15.357 -0.4346  0.3636 -0.7795
  639TMC3    C5 9513   2.244   1.023  15.293  0.6119  0.3741  0.7445
  639TMC3    C6 9514   2.140   0.960  15.223 -0.8075  0.4119 -0.0646
  639TMC3     C 9515   2.095   1.333  15.371 -0.8044 -0.4128 -0.0554
  639TMC3     O 9516   2.139   1.368  15.481 -0.5227  0.3699  0.6664
  639TMC3     H 9517   1.880   1.169  15.283  0.2842  1.0008 -0.0597
  639TMC3    H1 9518   2.289   1.195  15.409 -0.0321  0.4370 -1.4552
  639TMC3    H2 9519   2.172   0.883  15.154 -2.1457  1.4930 -1.8710
  639TMC3    C7 9520   2.375   1.000  15.241  0.2725 -0.0434 -0.9307
  639TMC3    C8 9521   1.940   0.972  15.107  0.3728 -0.5509  0.3258
  639TMC3    O1 9522   2.387   0.901  15.169  0.1661  0.0581 -0.5374
  639TMC3    O2 9523   1.995   0.991  15.002  0.3795  0.5444  0.3098
  640MPD2     C 9524   3.130   0.024   9.537  0.1509 -0.4821  0.5707
  640MPD2    C1 9525   2.994   0.036   9.532  0.0719  0.6012  0.0288
  640MPD2    C2 9526   2.937   0.153   9.572  0.0800 -0.5293  0.0343
  640MPD2    C3 9527   3.010   0.266   9.608 -0.6520 -0.3165  0.0250
  640MPD2    C4 9528   3.148   0.261   9.599 -0.0903 -0.2255 -0.2979
  640MPD2    C5 9529   3.205   0.135   9.567 -0.2471  0.4534  0.5801
  640MPD2     H 9530   2.829   0.151   9.574  0.0613 -1.8389 -2.4063
  640MPD2    H1 9531   3.211   0.349   9.607 -1.4220  0.6642  0.3601
  640MPD2    H2 9532   3.173   4.667   9.536  1.9148  0.3014 -1.1110
  640MPD2    H3 9533   3.312   0.119   9.569 -0.3377 -0.3235 -0.4702
  640MPD2     N 9534   2.950   0.391   9.635 -0.2426  0.5194  0.3174
  640MPD2    H5 9535   3.013   0.456   9.680 -0.4420  1.6426 -1.0466
  640MPD2    N1 9536   2.921   4.660   9.504 -0.0948  0.2070  0.3599
  640MPD2    H7 9537   2.974   4.574   9.495 -0.6477 -0.0681 -0.2598
  641TMC3    C1 9538   2.734   4.509   9.508 -0.0426 -0.4696 -0.3570
  641TMC3    C2 9539   2.814   4.413   9.564  0.0695  0.1110 -0.1706
  641TMC3    C3 9540   2.768   4.287   9.560  0.3465 -0.0798  0.0847
  641TMC3    C4 9541   2.622   4.477   9.436 -0.0227  0.0024  0.7342
  641TMC3    C5 9542   2.569   4.349   9.453 -0.6942  0.3434 -0.2720
  641TMC3    C6 9543   2.645   4.248   9.517  0.2267 -0.0260  0.3736
  641TMC3     C 9544   2.784   4.649   9.512  0.5668  0.2722 -0.1408
  641TMC3     O 9545   2.700   4.738   9.505 -0.0640  0.6568 -0.3261
  641TMC3     H 9546   2.898   4.445   9.624  1.4133 -2.3833 -0.7011
  641TMC3    H1 9547   2.563   4.551   9.383 -0.1514 -1.2082 -0.8164
  641TMC3    H2 9548   2.604   4.150   9.537 -0.0720 -0.1433 -0.8501
  641TMC3    C7 9549   2.431   4.326   9.439  0.7205  1.0016  0.3640
  641TMC3    C8 9550   2.827   4.196   9.657  0.4555 -0.6038  0.2953
  641TMC3    O1 9551   2.398   4.212   9.455  0.2278  0.3791  0.7104
  641TMC3    O2 9552   2.759   4.108   9.705  0.3310  0.1321 -0.6866
  642TMC3    C1 9553   3.210   1.534  12.730 -0.5255 -0.3574  0.1864
  642TMC3    C2 9554   3.320   1.541  12.810  0.2363  0.1580 -0.1924
  642TMC3    C3 9555   3.386   1.422  12.826  0.3369 -0.1028  0.0735
  642TMC3    C4 9556   3.158   1.424  12.677  0.0705 -0.5058  0.5527
  642TMC3    C5 9557   3.223   1.307  12.707 -0.7753  0.0279  0.5762
  642TMC3    C6 9558   3.342   1.306  12.770 -0.0909 -0.0912 -0.8562
  642TMC3     C 9559   3.155   1.663  12.685 -0.5449  0.7041 -0.1748
  642TMC3     O 9560   3.244   1.741  12.658 -0.2403  0.2118  0.2566
  642TMC3     H 9561   3.361   1.637  12.839  1.3461 -0.1110 -0.8991
  642TMC3    H1 9562   3.080   1.418  12.602  2.5280  0.7338 -2.0886
  642TMC3    H2 9563   3.383   1.210  12.801  2.1300  1.4490  0.9795
  642TMC3    C7 9564   3.182   1.183  12.631 -0.1079  0.7301  0.5172
  642TMC3    C8 9565   3.525   1.423  12.857 -0.3294  0.8564 -0.2246
  642TMC3    O1 9566   3.114   1.194  12.532  0.1053 -0.1323 -0.4592
  642TMC3    O2 9567   3.582   1.323  12.818 -0.0827  0.6002  0.2006
  643TMC3    C1 9568   3.021   0.950   0.722 -0.1904  0.6831 -0.0402
  643TMC3    C2 9569   2.891   0.966   0.766  0.3664 -0.7111  0.3645
  643TMC3    C3 9570   2.793   0.905   0.689 -0.4305 -0.3418 -0.4400
  643TMC3    C4 9571   3.058   0.888   0.602  0.0065  1.0210  0.1001
  643TMC3    C5 9572   2.958   0.851   0.522  0.1090 -0.3305 -0.2497
  643TMC3    C6 9573   2.829   0.846   0.567 -0.1304 -0.1332  0.5838
  643TMC3     C 9574   3.117   1.014   0.811 -0.5930 -0.2950  0.2915
  643TMC3     O 9575   3.066   1.101   0.883  0.4014  0.7294 -0.4689
  643TMC3     H 9576   2.868   1.022   0.856  1.4857  1.0408 -0.4652
  643TMC3    H1 9577   3.161   0.876   0.571  0.0567 -1.6778  1.3259
  643TMC3    H2 9578   2.746   0.836   0.498 -0.6794 -1.9671  1.5308
  643TMC3    C7 9579   2.979   0.839   0.378  0.4845 -0.1453 -0.6803
  643TMC3    C8 9580   2.669   0.979   0.682 -0.4549 -0.5929 -0.5932
  643TMC3    O1 9581   3.060   0.923   0.329 -0.4717 -0.4857 -0.0072
  643TMC3    O2 9582   2.581   0.919   0.742 -0.1875 -0.0278  0.1630
  644MPD2     C 9583   1.774   4.102   8.774 -0.3814  0.2564 -0.3706
  644MPD2    C1 9584   1.829   4.153   8.888  0.0889 -0.2573 -0.7573
  644MPD2    C2 9585   1.755   4.241   8.969  0.1638 -0.1591 -0.0206
  644MPD2    C3 9586   1.621   4.268   8.947 -0.0505  0.0498  0.1053
  644MPD2    C4 9587   1.558   4.209   8.837 -0.1968  0.4123 -0.0053
  644MPD2    C5 9588   1.637   4.129   8.757  0.3618 -0.1595  0.3545
  644MPD2     H 9589   1.788   4.287   9.062  0.9646 -0.8067  0.0088
  644MPD2    H1 9590   1.452   4.216   8.814  0.0024  3.3536 -0.0204
  644MPD2    H2 9591   1.832   4.035   8.712  0.1626  1.6433 -1.3724
  644MPD2    H3 9592   1.598   4.085   8.667  1.1098 -0.2230  0.0622
  644MPD2     N 9593   1.547   4.354   9.037  0.0626 -0.1573 -0.4528
  644MPD2    H5 9594   1.588   4.385   9.124  0.6430 -0.2915 -0.6765
  644MPD2    N1 9595   1.965   4.122   8.909 -0.1730  0.4790  0.1620
  644MPD2    H7 9596   2.008   4.069   8.835  0.9160 -3.0142  3.2987
  645TMC3    C1 9597   1.347   4.484   9.100 -0.7721  0.2083 -0.6038
  645TMC3    C2 9598   1.233   4.539   9.050 -0.3290 -0.9104 -0.2331
  645TMC3    C3 9599   1.155   4.599   9.142  0.2865  0.2185  0.0052
  645TMC3    C4 9600   1.380   4.473   9.234  0.7372  0.5886  0.0825
  645TMC3    C5 9601   1.297   4.537   9.313  0.7103 -0.7849 -0.3790
  645TMC3    C6 9602   1.181   4.606   9.277 -0.0553 -0.4596  0.4862
  645TMC3     C 9603   1.431   4.418   9.000  0.2959 -0.1085 -0.3897
  645TMC3     O 9604   1.383   4.418   8.888  0.1718  0.0168 -0.3486
  645TMC3     H 9605   1.207   4.538   8.945 -0.3612 -1.3884 -0.2203
  645TMC3    H1 9606   1.477   4.435   9.263  0.0056 -1.1792  0.2079
  645TMC3    H2 9607   1.109   4.633   9.353  0.1675  0.1722  0.4654
  645TMC3    C7 9608   1.319   4.511   9.460 -0.0524  0.2960 -0.5428
  645TMC3    C8 9609   1.038   4.662   9.086  0.2237 -0.3755  0.3931
  645TMC3    O1 9610   1.382   4.409   9.484  0.0871 -0.4699 -0.0888
  645TMC3    O2 9611   0.993   4.636   8.977  0.1368  0.3661 -0.1629
  646MPD2     C 9612   2.408   0.277  14.606  0.5418  0.1526  0.3479
  646MPD2    C1 9613   2.304   0.266  14.694 -0.3036  0.3401  0.2711
  646MPD2    C2 9614   2.199   0.348  14.674 -0.0787  0.3388 -0.3975
  646MPD2    C3 9615   2.196   0.443  14.569  0.1633  0.8058 -0.1631
  646MPD2    C4 9616   2.310   0.457  14.490  0.1701 -0.1473 -0.4152
  646MPD2    C5 9617   2.412   0.372  14.517 -0.3641  0.3761  0.3325
  646MPD2     H 9618   2.113   0.328  14.736  0.5026  0.9591  0.6096
  646MPD2    H1 9619   2.331   0.528  14.412  0.0800 -0.9376 -1.1549
  646MPD2    H2 9620   2.497   0.215  14.611  0.3998  0.0486  1.5425
  646MPD2    H3 9621   2.502   0.379  14.457  0.2266  0.7831  1.2560
  646MPD2     N 9622   2.076   0.504  14.533  0.9144  0.6805  0.6540
  646MPD2    H5 9623   1.997   0.489  14.595  0.6437  0.3535  0.2291
  646MPD2    N1 9624   2.308   0.169  14.790  0.2777  0.1944  0.3317
  646MPD2    H7 9625   2.386   0.103  14.791  0.4167  0.3403 -0.4963
  647TMC3    C1 9626   2.260   0.050  14.991 -0.1335 -0.0992 -0.2119
  647TMC3    C2 9627   2.264   0.083  15.123 -0.1505  0.7339 -0.7348
  647TMC3    C3 9628   2.376   0.056  15.200  0.9685 -0.3946  0.0675
  647TMC3    C4 9629   2.357   4.708  14.940 -0.3569 -0.1989  0.1037
  647TMC3    C5 9630   2.468   4.686  15.018  0.6920 -0.1325 -0.0647
  647TMC3    C6 9631   2.485   4.738  15.142 -0.0177  0.0168 -0.2217
  647TMC3     C 9632   2.226   0.160  14.900 -0.4516  0.5963 -0.8020
  647TMC3     O 9633   2.146   0.242  14.946  0.1519 -0.1447 -0.0688
  647TMC3     H 9634   2.191   0.151  15.165 -0.7714 -1.0778  1.0640
  647TMC3    H1 9635   2.343   4.666  14.841  0.8185  0.3953 -0.3175
  647TMC3    H2 9636   2.554   4.695  15.213 -1.3913 -1.4242  0.2538
  647TMC3    C7 9637   2.510   4.546  15.022  0.4141  0.1706 -0.5739
  647TMC3    C8 9638   2.346   4.717  15.306 -0.2779 -0.6625  0.2071
  647TMC3    O1 9639   2.627   4.522  15.049 -0.5873 -0.2120 -0.0233
  647TMC3    O2 9640   2.427   4.708  15.399  0.1398 -0.0315 -0.1414
  648TMC3    C1 9641   1.437   2.814  15.979 -0.0221 -0.0143  0.7340
  648TMC3    C2 9642   1.433   2.693  15.909 -0.5286 -0.0873  0.1540
  648TMC3    C3 9643   1.382   2.687  15.783 -0.4202  0.0126 -0.2544
  648TMC3    C4 9644   1.373   2.918  15.923  0.2386 -0.4773  0.4641
  648TMC3    C5 9645   1.328   2.906  15.801  0.7303 -0.7029  0.2256
  648TMC3    C6 9646   1.332   2.794  15.723  0.4232 -0.0154 -0.3632
  648TMC3     C 9647   1.446   2.824  16.123  0.2253  0.3162 -0.6929
  648TMC3     O 9648   1.393   2.922  16.172 -0.2773  0.2066 -0.3575
  648TMC3     H 9649   1.444   2.598  15.960  0.7815 -1.1924 -2.1757
  648TMC3    H1 9650   1.371   3.019  15.963  0.9500  0.2534 -1.3328
  648TMC3    H2 9651   1.286   2.794  15.625  0.5770 -0.1876 -0.4357
  648TMC3    C7 9652   1.319   3.027  15.720  0.3683 -0.3659  0.0509
  648TMC3    C8 9653   1.380   2.565  15.709  0.1699 -0.4218 -0.2029
  648TMC3    O1 9654   1.350   3.024  15.602  0.1161  0.6921  0.2205
  648TMC3    O2 9655   1.288   2.553  15.628 -0.0183  0.2560  0.0964
  649TMC3    C1 9656   0.556   3.512  13.444 -0.5802 -0.2864  0.0720
  649TMC3    C2 9657   0.645   3.411  13.469 -0.7943  0.0573 -0.0146
  649TMC3    C3 9658   0.616   3.344  13.586 -0.5477 -0.0614  0.2191
  649TMC3    C4 9659   0.438   3.539  13.519  0.1899  0.4633 -0.6128
  649TMC3    C5 9660   0.416   3.449  13.619  0.5691  0.0200 -0.3568
  649TMC3    C6 9661   0.505   3.359  13.663 -0.2731 -0.0598 -0.3368
  649TMC3     C 9662   0.565   3.590  13.325 -0.2004 -0.3710 -0.2897
  649TMC3     O 9663   0.461   3.645  13.287 -0.7591 -0.1132  0.4711
  649TMC3     H 9664   0.740   3.406  13.417 -1.6544  2.8362 -1.8365
  649TMC3    H1 9665   0.379   3.624  13.487  0.6420  0.9757 -0.0724
  649TMC3    H2 9666   0.504   3.322  13.764 -3.7347  2.0216  0.4116
  649TMC3    C7 9667   0.298   3.476  13.698  0.2189  0.0656  0.0116
  649TMC3    C8 9668   0.720   3.274  13.660 -0.5292 -0.4103 -0.1397
  649TMC3    O1 9669   0.247   3.587  13.688 -0.2679 -0.1587 -0.0261
  649TMC3    O2 9670   0.680   3.195  13.744  0.0866  0.2458 -0.0208
  650TMC3    C1 9671   2.334   0.673  12.779  0.0075 -0.2748  0.7863
  650TMC3    C2 9672   2.299   0.799  12.755 -0.8516  0.3067 -0.7844
  650TMC3    C3 9673   2.385   0.874  12.677 -0.4385  0.3581  0.7427
  650TMC3    C4 9674   2.447   0.607  12.718  0.1915  0.2861  0.0319
  650TMC3    C5 9675   2.522   0.693  12.640 -0.1338 -0.2952  0.1059
  650TMC3    C6 9676   2.488   0.818  12.609  0.1459 -0.4494  0.0791
  650TMC3     C 9677   2.242   0.596  12.867 -0.4513  0.4989  0.0747
  650TMC3     O 9678   2.123   0.637  12.873 -0.9699  0.1110  0.8828
  650TMC3     H 9679   2.217   0.841  12.812 -0.0544  0.9426 -0.1105
  650TMC3    H1 9680   2.457   0.500  12.714 -0.8831  0.2369 -1.3146
  650TMC3    H2 9681   2.544   0.880  12.540 -0.5144  1.1329  0.9663
  650TMC3    C7 9682   2.574   0.619  12.537 -0.8861  0.0495  0.2137
  650TMC3    C8 9683   2.338   1.002  12.634  0.1688 -0.1537 -0.6577
  650TMC3    O1 9684   2.659   0.534  12.563 -0.0424  0.2223 -0.2918
  650TMC3    O2 9685   2.414   1.091  12.608 -0.1364 -0.7824 -0.7563
  651MPD2     C 9686   1.626   2.072  10.824 -0.5794  0.1482 -0.3162
  651MPD2    C1 9687   1.583   2.203  10.793 -0.5411  0.0075 -0.2059
  651MPD2    C2 9688   1.668   2.311  10.797  0.5930 -0.3741  0.3599
  651MPD2    C3 9689   1.799   2.287  10.828  0.5019  0.4954 -0.8144
  651MPD2    C4 9690   1.841   2.162  10.858  0.1045 -0.2175  0.2433
  651MPD2    C5 9691   1.755   2.055  10.855  0.3706  0.5819  0.5017
  651MPD2     H 9692   1.620   2.406  10.779 -1.4118 -1.4371  0.1218
  651MPD2    H1 9693   1.945   2.134  10.869  0.3428 -0.0377 -1.4711
  651MPD2    H2 9694   1.560   1.986  10.829 -2.3407  1.4327 -1.5265
  651MPD2    H3 9695   1.797   1.957  10.874  0.7684  0.9316  1.4510
  651MPD2     N 9696   1.886   2.400  10.816  0.3546  0.1762 -0.5952
  651MPD2    H5 9697   1.842   2.491  10.811  0.9990  0.5295  0.2630
  651MPD2    N1 9698   1.445   2.229  10.767 -0.1579  0.7425 -0.4775
  651MPD2    H7 9699   1.422   2.327  10.765 -0.6050  0.6431 -0.1590
  652TMC3    C1 9700   2.298   2.627  10.797  0.7661  0.1705  0.1843
  652TMC3    C2 9701   2.219   2.531  10.842 -0.8154 -0.0034 -0.0640
  652TMC3    C3 9702   2.084   2.527  10.806 -0.0856 -0.1948  0.6633
  652TMC3    C4 9703   2.253   2.724  10.711 -0.0262  0.4412 -0.0530
  652TMC3    C5 9704   2.119   2.725  10.691  0.5386 -0.7075  0.3786
  652TMC3    C6 9705   2.034   2.628  10.728  0.6126 -0.1325  0.3476
  652TMC3     C 9706   2.437   2.609  10.821  0.2575  0.5865  0.4384
  652TMC3     O 9707   2.470   2.501  10.856  0.3657 -0.5755 -0.0468
  652TMC3     H 9708   2.254   2.463  10.920  0.3153  1.9194  1.1189
  652TMC3    H1 9709   2.316   2.797  10.662  1.3351 -0.1171  0.8487
  652TMC3    H2 9710   1.931   2.621  10.694  0.7677 -4.4069  0.7519
  652TMC3    C7 9711   2.066   2.809  10.593  0.5221  0.6605 -0.3627
  652TMC3    C8 9712   2.025   2.397  10.817 -0.3400 -0.2411  0.4161
  652TMC3    O1 9713   1.982   2.759  10.517 -0.0430 -0.0868  0.1126
  652TMC3    O2 9714   2.102   2.304  10.820  0.4205 -0.0928  0.0707
  653MPD2     C 9715   0.621   2.961  17.717  1.0661 -0.1345 -0.5754
  653MPD2    C1 9716   0.631   3.030  17.602  0.5139  0.5694  0.6809
  653MPD2    C2 9717   0.566   2.981  17.486  0.0784 -0.1190  0.5014
  653MPD2    C3 9718   0.488   2.868  17.485  0.1627 -0.2315  0.2822
  653MPD2    C4 9719   0.477   2.802  17.605 -0.5692  0.4833 -0.6942
  653MPD2    C5 9720   0.553   2.843  17.712  0.1344  0.4089 -0.1088
  653MPD2     H 9721   0.585   3.028  17.391 -0.1251 -1.8620 -0.4037
  653MPD2    H1 9722   0.411   2.717  17.619 -0.3602  0.2958 -0.8640
  653MPD2    H2 9723   0.684   2.979   0.038  1.3912  0.7181 -0.9846
  653MPD2    H3 9724   0.546   2.784   0.037 -0.8013 -0.5032 -0.7812
  653MPD2     N 9725   0.428   2.828  17.363  1.0562  0.3677  0.4555
  653MPD2    H5 9726   0.437   2.891  17.284 -1.1758  1.3859  1.0066
  653MPD2    N1 9727   0.706   3.151  17.590 -0.0500 -0.0349  0.3493
  653MPD2    H7 9728   0.706   3.200  17.501  1.0082 -1.1692 -0.2596
  654TMC3    C1 9729   0.314   2.696  17.201 -0.1926 -0.7346  0.3688
  654TMC3    C2 9730   0.228   2.796  17.170  0.2594 -0.0941  0.0100
  654TMC3    C3 9731   0.138   2.770  17.076 -0.1602  0.2392 -0.4914
  654TMC3    C4 9732   0.306   2.570  17.147  0.3394 -0.1467 -0.2094
  654TMC3    C5 9733   0.214   2.556  17.046 -0.0491 -0.0097 -0.1492
  654TMC3    C6 9734   0.134   2.652  17.005  0.5575  0.2569  0.5970
  654TMC3     C 9735   0.371   2.703  17.334 -0.0678 -0.4758  0.1054
  654TMC3     O 9736   0.375   2.600  17.405  0.2549 -0.3557  0.1598
  654TMC3     H 9737   0.223   2.883  17.234  0.0123  0.0024 -0.1428
  654TMC3    H1 9738   0.383   2.497  17.171 -2.3179 -2.7577  0.3378
  654TMC3    H2 9739   0.078   2.636  16.914  0.5745  1.2448  0.4157
  654TMC3    C7 9740   0.211   2.428  16.973  0.4820 -0.1741  0.2152
  654TMC3    C8 9741   0.016   2.852  17.058  0.4944  0.3697  0.4062
  654TMC3    O1 9742   0.191   2.432  16.856 -0.0076  0.8058  0.6975
  654TMC3    O2 9743   4.645   2.806  17.039  0.6411 -0.2212 -0.2393
  655MPD2     C 9744   2.082   2.973  15.641 -0.3933 -0.1415  0.2651
  655MPD2    C1 9745   1.966   3.020  15.587 -0.7732 -0.3715 -0.8574
  655MPD2    C2 9746   1.909   2.955  15.478 -0.1338 -0.5277 -0.2046
  655MPD2    C3 9747   1.963   2.838  15.431  0.0468 -0.5764 -0.5601
  655MPD2    C4 9748   2.085   2.791  15.485  0.3935  0.6802 -0.3207
  655MPD2    C5 9749   2.140   2.858  15.583 -0.1467  0.4505 -0.1245
  655MPD2     H 9750   1.826   3.001  15.425  0.3778 -1.3195 -1.6882
  655MPD2    H1 9751   2.132   2.698  15.454 -0.3940  0.5366 -1.0770
  655MPD2    H2 9752   2.130   3.019  15.727  0.0310  0.2755 -0.1969
  655MPD2    H3 9753   2.235   2.820  15.619  0.5720  0.9165 -1.5482
  655MPD2     N 9754   1.919   2.774  15.312 -0.3131 -1.0014  0.0950
  655MPD2    H5 9755   1.975   2.693  15.286  0.7223 -0.3274  0.2247
  655MPD2    N1 9756   1.907   3.138  15.634  0.0703 -0.3281  0.3228
  655MPD2    H7 9757   1.816   3.154  15.592  0.9490 -0.6121 -1.6965
  656TMC3    C1 9758   1.881   3.319  15.771  0.1393  0.4219 -0.9670
  656TMC3    C2 9759   1.783   3.260  15.849  0.6621  0.5662 -0.3390
  656TMC3    C3 9760   1.668   3.331  15.867 -0.1682  1.0625 -0.6850
  656TMC3    C4 9761   1.870   3.440  15.714 -0.0342  0.8215  0.3293
  656TMC3    C5 9762   1.744   3.499  15.722 -0.5748  0.1775 -0.8032
  656TMC3    C6 9763   1.647   3.449  15.805 -0.1292  0.2638  0.3123
  656TMC3     C 9764   1.970   3.231  15.710  0.5665 -0.5255 -0.4646
  656TMC3     O 9765   2.087   3.255  15.712 -0.8080 -0.4346  0.1177
  656TMC3     H 9766   1.795   3.161  15.889  0.6821  0.8784  0.4311
  656TMC3    H1 9767   1.945   3.488  15.653  0.4446  0.7031  0.8322
  656TMC3    H2 9768   1.548   3.490  15.820  0.0647  0.9620 -0.3165
  656TMC3    C7 9769   1.723   3.614  15.625 -0.0283  0.0878 -0.0572
  656TMC3    C8 9770   1.570   3.288  15.969  0.2068  0.8196 -0.1348
  656TMC3    O1 9771   1.798   3.612  15.527 -0.8330  0.1075  0.1462
  656TMC3    O2 9772   1.555   3.171  15.991  0.6599 -0.1905  0.1457
  657TMC3    C1 9773   0.881   2.113  14.743 -0.2279 -0.1915  0.6559
  657TMC3    C2 9774   0.871   2.158  14.869  0.3733 -0.2613 -0.0145
  657TMC3    C3 9775   0.782   2.257  14.901 -0.7035 -0.0795  0.4009
  657TMC3    C4 9776   0.792   2.156  14.647 -0.2271  1.0408 -0.2735
  657TMC3    C5 9777   0.686   2.242  14.692  0.5001 -0.2064 -0.1163
  657TMC3    C6 9778   0.685   2.300  14.818 -0.7591  0.0597 -0.9138
  657TMC3     C 9779   0.967   2.007  14.696  0.3850 -0.0293  0.0247
  657TMC3     O 9780   0.947   1.948  14.589  0.0915  0.2336  0.4752
  657TMC3     H 9781   0.938   2.126  14.948 -0.4273  2.8451  1.8777
  657TMC3    H1 9782   0.805   2.118  14.547  0.6220  1.0038 -0.1552
  657TMC3    H2 9783   0.609   2.364  14.863 -2.0153 -2.5013  0.5837
  657TMC3    C7 9784   0.589   2.270  14.589  0.2527 -0.4248  0.9049
  657TMC3    C8 9785   0.788   2.320  15.034  0.9656 -0.0757  0.1784
  657TMC3    O1 9786   0.581   2.178  14.507  0.1448  0.5733 -0.0331
  657TMC3    O2 9787   0.728   2.427  15.056  0.1648  0.4091 -0.2424
  658MPD2     C 9788   1.897   2.776  14.478  0.9197  0.2489  0.3715
  658MPD2    C1 9789   1.964   2.715  14.581 -0.3825  0.8334 -0.1808
  658MPD2    C2 9790   2.097   2.697  14.569  0.4632  0.3822  0.7371
  658MPD2    C3 9791   2.165   2.715  14.453  0.1604  0.4241  0.1183
  658MPD2    C4 9792   2.101   2.784  14.355 -0.3182 -0.7389  0.2638
  658MPD2    C5 9793   1.971   2.809  14.364  0.0274  0.3298 -0.2146
  658MPD2     H 9794   2.141   2.647  14.654  0.4930 -2.1321 -0.7341
  658MPD2    H1 9795   2.147   2.814  14.261 -1.1409  0.8547  0.3616
  658MPD2    H2 9796   1.794   2.811  14.482  0.2710 -1.4696 -0.9389
  658MPD2    H3 9797   1.921   2.859  14.282  0.7506  0.6639 -0.4472
  658MPD2     N 9798   2.297   2.667  14.447 -0.4302  0.6691  0.3176
  658MPD2    H5 9799   2.333   2.603  14.518 -0.8821  1.0771  0.9187
  658MPD2    N1 9800   1.886   2.694  14.694  0.3481 -0.4084 -1.0012
  658MPD2    H7 9801   1.786   2.711  14.692  0.4473  0.3681  0.6299
  659TMC3    C1 9802   1.845   2.638  14.921 -0.0437 -0.8928 -0.8742
  659TMC3    C2 9803   1.877   2.694  15.039 -0.0014  0.4372 -0.4176
  659TMC3    C3 9804   1.768   2.720  15.119  0.0391 -0.4977  0.1529
  659TMC3    C4 9805   1.719   2.603  14.877 -0.0309  0.0509  0.3579
  659TMC3    C5 9806   1.617   2.642  14.957  0.1218  0.4886 -0.7367
  659TMC3    C6 9807   1.641   2.707  15.080  0.1829  0.5225  0.1222
  659TMC3     C 9808   1.943   2.656  14.817 -0.1551  0.6112 -0.3381
  659TMC3     O 9809   2.059   2.633  14.857  0.2185 -0.1180  0.5766
  659TMC3     H 9810   1.980   2.710  15.066 -0.2328 -2.0223  1.8507
  659TMC3    H1 9811   1.712   2.552  14.781  0.6666  0.2504  0.1992
  659TMC3    H2 9812   1.554   2.735  15.138  0.1551  2.0866 -0.6975
  659TMC3    C7 9813   1.481   2.626  14.915 -0.4447  0.2909 -0.2700
  659TMC3    C8 9814   1.791   2.780  15.255  0.7450 -0.1575  0.5102
  659TMC3    O1 9815   1.392   2.683  14.977 -0.6913  0.0577 -0.4640
  659TMC3    O2 9816   1.701   2.850  15.300 -0.4900  0.2170 -0.8571
  660MPD2     C 9817   4.666   1.441  12.969  0.4022  0.4168 -0.2488
  660MPD2    C1 9818   4.535   1.485  12.944 -0.0974  0.0981 -0.3023
  660MPD2    C2 9819   4.437   1.396  12.991  0.5140 -0.4253  1.0310
  660MPD2    C3 9820   4.464   1.278  13.051  0.4475 -0.1086 -0.6120
  660MPD2    C4 9821   4.593   1.236  13.061  0.9889  0.1023 -0.3251
  660MPD2    C5 9822   4.697   1.317  13.023 -0.1923 -0.0277 -0.0507
  660MPD2     H 9823   4.335   1.418  12.964  1.3901 -0.5717 -2.3274
  660MPD2    H1 9824   4.620   1.145  13.113  0.5871 -0.6010 -1.3521
  660MPD2    H2 9825   0.007   1.506  12.943  1.7899 -1.3209 -0.1517
  660MPD2    H3 9826   0.057   1.282  13.029  0.8792  3.1724  0.5076
  660MPD2     N 9827   4.367   1.193  13.104  0.1645 -0.3316 -0.2763
  660MPD2    H5 9828   4.398   1.105  13.145 -4.6499 -1.7504  0.3253
  660MPD2    N1 9829   4.511   1.617  12.895 -0.1935 -0.4198  0.0351
  660MPD2    H7 9830   4.587   1.664  12.848 -0.1627 -1.8262 -1.3256
  661TMC3    C1 9831   4.382   1.802  12.843  0.7269  0.6153 -0.2397
  661TMC3    C2 9832   4.453   1.837  12.731  0.4656 -0.2604  0.0417
  661TMC3    C3 9833   4.408   1.935  12.648  0.9446  0.1679  0.1208
  661TMC3    C4 9834   4.271   1.876  12.884 -0.7612  0.1238  0.7589
  661TMC3    C5 9835   4.224   1.973  12.796 -0.3834 -0.5016 -0.1732
  661TMC3    C6 9836   4.287   2.003  12.671  0.5137  0.1495 -0.5305
  661TMC3     C 9837   4.393   1.684  12.919  0.0582  0.1753  0.4715
  661TMC3     O 9838   4.297   1.653  12.983  0.3837  0.5887  0.6123
  661TMC3     H 9839   4.529   1.765  12.703  0.1409  0.6054 -3.0362
  661TMC3    H1 9840   4.210   1.852  12.970 -0.7085 -2.3644  0.0975
  661TMC3    H2 9841   4.238   2.060  12.592  1.0592  1.6023  0.1862
  661TMC3    C7 9842   4.086   1.986  12.810 -0.4939  0.9166  0.0862
  661TMC3    C8 9843   4.487   1.978  12.536  0.2274 -0.1657  0.5584
  661TMC3    O1 9844   4.039   2.015  12.919  0.3078 -0.6255  0.2550
  661TMC3    O2 9845   4.419   2.046  12.459  0.1833 -0.0961 -0.6012
  662MPD2     C 9846   4.729   2.057  17.097  0.0537  0.5331 -0.1868
  662MPD2    C1 9847   0.007   1.975  17.205 -0.4738 -0.3158  0.4072
  662MPD2    C2 9848   0.006   2.036  17.334  0.4932 -0.4275 -0.0780
  662MPD2    C3 9849   4.726   2.171  17.351 -0.2027 -0.2244 -0.1852
  662MPD2    C4 9850   4.714   2.258  17.238  0.1716 -0.3619 -1.0194
  662MPD2    C5 9851   4.710   2.196  17.116  0.4041 -0.4490 -0.3941
  662MPD2     H 9852   0.006   1.966  17.417  2.4132  0.5047  0.6930
  662MPD2    H1 9853   4.702   2.365  17.244 -3.1151 -0.7872  0.1837
  662MPD2    H2 9854   4.729   2.011  16.999  2.3745  1.8538 -0.7917
  662MPD2    H3 9855   4.697   2.256  17.027 -1.7166 -1.0407 -0.4951
  662MPD2     N 9856   4.707   2.219  17.480  0.4634 -0.0238  0.0432
  662MPD2    H5 9857   4.654   2.306  17.487 -0.5250 -0.6052 -0.2941
  662MPD2    N1 9858   0.049   1.845  17.203  0.5053  0.3417  0.2701
  662MPD2    H7 9859   0.061   1.800  17.293  0.9846  1.3199  0.6955
  663TMC3    C1 9860   0.077   1.620  17.133 -0.1726  0.0423 -0.2596
  663TMC3    C2 9861   0.110   1.612  17.268 -0.4388  0.3649 -0.8061
  663TMC3    C3 9862   0.070   1.491  17.325  0.7152 -0.0523  0.1705
  663TMC3    C4 9863   0.007   1.531  17.062 -0.3760 -0.4082  0.4144
  663TMC3    C5 9864   4.689   1.434  17.135 -0.2685  0.1237 -0.1160
  663TMC3    C6 9865   4.721   1.407  17.265 -0.5204  0.1061 -0.4956
  663TMC3     C 9866   0.046   1.761  17.098 -0.4204 -0.3441  0.5521
  663TMC3     O 9867   0.019   1.786  16.981 -0.0107 -0.1811 -0.5826
  663TMC3     H 9868   0.203   1.655  17.304  0.4809 -1.4874 -0.9425
  663TMC3    H1 9869   4.714   1.548  16.961  0.6073  0.2873  0.1903
  663TMC3    H2 9870   4.654   1.344  17.323 -1.9385  0.4024 -1.8306
  663TMC3    C7 9871   4.633   1.334  17.056  0.9710  0.2012 -0.3626
  663TMC3    C8 9872   0.026   1.539  17.459  0.0039  0.1479  0.3212
  663TMC3    O1 9873   4.575   1.362  16.951  0.0235 -0.4464  0.1680
  663TMC3    O2 9874   0.028   1.660  17.463  0.2544 -0.4676 -0.7680
  664MPD2     C 9875   3.147   4.374   0.090  0.1812  0.4128 -0.1132
  664MPD2    C1 9876   3.258   4.460   0.079 -0.3137  0.0712 -0.3387
  664MPD2    C2 9877   3.342   4.475   0.191  0.0789 -1.0710  0.2834
  664MPD2    C3 9878   3.331   4.402   0.304  0.4556  0.4312  0.1121
  664MPD2    C4 9879   3.227   4.319   0.309  0.3675  0.2717  0.3328
  664MPD2    C5 9880   3.140   4.306   0.209  0.1084 -0.8712  0.3382
  664MPD2     H 9881   3.421   4.548   0.177 -2.1487  0.8474 -2.2864
  664MPD2    H1 9882   3.203   4.269   0.402 -0.0993  2.1283  1.2102
  664MPD2    H2 9883   3.064   4.370   0.020  0.7478 -0.7686 -0.7282
  664MPD2    H3 9884   3.053   4.242   0.224  0.3697 -0.2637  4.3497
  664MPD2     N 9885   3.411   4.418   0.425  0.3244  0.1499  0.3765
  664MPD2    H5 9886   3.376   4.367   0.505 -2.7313  2.6399  0.6099
  664MPD2    N1 9887   3.295   4.525  17.721  0.0670  0.4959 -0.3203
  664MPD2    H7 9888   3.378   4.583  17.722  1.5134 -1.5839  0.8847
  665TMC3    C1 9889   3.582   4.513   0.559  0.4965 -0.6644 -0.6219
  665TMC3    C2 9890   3.495   4.533   0.665 -0.4238  0.3538 -0.3218
  665TMC3    C3 9891   3.545   4.605   0.773  0.8758 -0.5872 -0.1301
  665TMC3    C4 9892   3.708   4.577   0.550 -0.9882  0.1876 -0.4860
  665TMC3    C5 9893   3.738   4.660   0.660 -0.0822 -0.7560  0.4301
  665TMC3    C6 9894   3.669   4.657   0.775  0.1420  0.0738  0.2051
  665TMC3     C 9895   3.517   4.500   0.428  0.1753  0.0108 -0.1813
  665TMC3     O 9896   3.570   4.562   0.340  0.4920  0.8838 -0.5723
  665TMC3     H 9897   3.395   4.490   0.667 -0.5156  0.5888  0.2415
  665TMC3    H1 9898   3.769   4.552   0.464 -1.3721 -0.4452 -0.5773
  665TMC3    H2 9899   3.711   4.693   0.869 -2.0385  0.1556  1.1478
  665TMC3    C7 9900   3.852   0.009   0.655  0.1664  0.0815 -0.3149
  665TMC3    C8 9901   3.459   4.707   0.824  0.8116  0.9060  0.1291
  665TMC3    O1 9902   3.946   4.720   0.589  0.2392 -0.2118  0.0118
  665TMC3    O2 9903   3.519   0.064   0.867  0.4942 -0.2268 -0.5484
  666TMC3    C1 9904   2.284   4.425   9.793 -0.2787 -0.0958 -1.0654
  666TMC3    C2 9905   2.318   4.294   9.794  0.6897  0.6763 -0.3332
  666TMC3    C3 9906   2.447   4.258   9.816  0.7876 -0.4749  0.6182
  666TMC3    C4 9907   2.381   4.522   9.798 -0.2061  0.0787 -0.1189
  666TMC3    C5 9908   2.511   4.486   9.817  0.2296  0.0719 -0.4885
  666TMC3    C6 9909   2.547   4.355   9.830  0.5312 -0.3881  0.5836
  666TMC3     C 9910   2.147   4.469   9.805 -0.1228  0.3581 -0.0306
  666TMC3     O 9911   2.123   4.587   9.777  0.7606  0.3247  0.0929
  666TMC3     H 9912   2.251   4.213   9.767  1.3055  0.4922 -1.3316
  666TMC3    H1 9913   2.351   4.626   9.785 -0.3789 -0.1359 -1.3966
  666TMC3    H2 9914   2.646   4.341   9.871  1.0286 -1.4901 -0.9541
  666TMC3    C7 9915   2.602   4.580   9.873  0.4266  0.7837  0.3327
  666TMC3    C8 9916   2.449   4.169   9.931  0.0968  0.2084  0.2719
  666TMC3    O1 9917   2.720   4.553   9.869  0.5139 -0.9686  0.2713
  666TMC3    O2 9918   2.342   4.137   9.975  0.3138  0.1562 -1.2470
  667MPD2     C 9919   3.468   4.116  14.962 -0.1643 -0.5373 -0.0083
  667MPD2    C1 9920   3.411   4.060  15.074  0.1083  0.0116  0.2714
  667MPD2    C2 9921   3.299   3.978  15.058 -0.2263 -0.4409 -0.3927
  667MPD2    C3 9922   3.258   3.943  14.926 -0.3772 -0.1378 -0.0220
  667MPD2    C4 9923   3.317   4.004  14.823 -0.5023  0.4773  1.0011
  667MPD2    C5 9924   3.413   4.098  14.842 -0.7860 -0.6797  0.3322
  667MPD2     H 9925   3.259   3.923  15.142 -1.3057  1.0310  0.0404
  667MPD2    H1 9926   3.287   3.987  14.720 -1.3573  1.0526  1.1521
  667MPD2    H2 9927   3.552   4.183  14.977  0.7146 -2.0757  1.9846
  667MPD2    H3 9928   3.461   4.140  14.755 -0.1803 -1.5230  0.2629
  667MPD2     N 9929   3.157   3.850  14.892  0.4764  0.7762 -0.0436
  667MPD2    H5 9930   3.150   3.824  14.794 -1.8793  0.3794  0.2258
  667MPD2    N1 9931   3.453   4.084  15.212 -0.6837 -1.0026  0.0916
  667MPD2    H7 9932   3.409   4.028  15.285 -1.7668  2.8684  2.4280
  668TMC3    C1 9933   3.557   4.186  15.392 -0.1738  0.9483 -0.0182
  668TMC3    C2 9934   3.661   4.267  15.436 -0.0897  0.8630  0.0038
  668TMC3    C3 9935   3.662   4.275  15.573 -0.6342  0.2378  0.0527
  668TMC3    C4 9936   3.449   4.133  15.464  0.6699  0.9596  0.5451
  668TMC3    C5 9937   3.457   4.153  15.597 -0.5607  0.0418  0.2138
  668TMC3    C6 9938   3.563   4.214  15.648  0.3511  0.6306 -0.4721
  668TMC3     C 9939   3.543   4.184  15.250 -0.5315 -0.4919 -0.0023
  668TMC3     O 9940   3.595   4.273  15.181 -0.0313 -0.3850  0.3908
  668TMC3     H 9941   3.746   4.293  15.374 -0.1022  1.6548  0.3160
  668TMC3    H1 9942   3.348   4.126  15.425  0.7539 -0.6363  0.6134
  668TMC3    H2 9943   3.581   4.216  15.755  0.4073  0.2680 -0.4739
  668TMC3    C7 9944   3.356   4.106  15.692  0.0640 -0.5184  0.1186
  668TMC3    C8 9945   3.748   4.369  15.636 -0.1019  0.0411  0.4064
  668TMC3    O1 9946   3.360   4.155  15.806  0.2623 -0.2122  0.0534
  668TMC3    O2 9947   3.704   4.421  15.744  0.3502  0.1686  0.8160
  669TMC3    C1 9948   1.731   4.285  14.836  0.2341  0.0365 -0.1545
  669TMC3    C2 9949   1.615   4.333  14.766  0.7747  0.1114 -0.0537
  669TMC3    C3 9950   1.647   4.389  14.646  0.6188 -0.0577 -0.2129
  669TMC3    C4 9951   1.855   4.299  14.791  0.1383  0.6111  0.0747
  669TMC3    C5 9952   1.871   4.337  14.657  0.3149 -0.7908  0.3819
  669TMC3    C6 9953   1.766   4.379  14.586  0.5492 -0.2502  0.0971
  669TMC3     C 9954   1.711   4.220  14.958  0.7896 -0.9713 -0.0580
  669TMC3     O 9955   1.630   4.269  15.040  0.0873  0.6429 -0.1032
  669TMC3     H 9956   1.514   4.315  14.800  0.0830  1.6676 -1.2757
  669TMC3    H1 9957   1.941   4.283  14.856 -0.2607 -0.3294  0.3725
  669TMC3    H2 9958   1.790   4.421  14.489  0.3840  2.7183  1.3372
  669TMC3    C7 9959   2.010   4.343  14.620  0.7064  0.1194  0.3408
  669TMC3    C8 9960   1.544   4.425  14.561 -0.2774  0.1086  0.6546
  669TMC3    O1 9961   2.089   4.355  14.709  0.6678  0.4628 -0.0590
  669TMC3    O2 9962   1.556   4.406  14.440 -0.5241 -1.0475 -0.9739
  670MPD2     C 9963   0.136   1.880  13.463 -0.2033  0.4999  0.1060
  670MPD2    C1 9964   0.254   1.893  13.526  0.3349 -0.2394 -0.3725
  670MPD2    C2 9965   0.274   1.870  13.657 -0.0271 -0.4225 -0.0031
  670MPD2    C3 9966   0.172   1.819  13.729 -0.2627  0.3925 -0.2077
  670MPD2    C4 9967   0.048   1.806  13.669  0.1125  0.6769 -0.1999
  670MPD2    C5 9968   0.029   1.824  13.539  0.9700 -0.0641  0.2902
  670MPD2     H 9969   0.377   1.871  13.694  0.2124  1.5965 -0.7413
  670MPD2    H1 9970   4.701   1.771  13.719 -0.3838 -0.5931 -1.9973
  670MPD2    H2 9971   0.113   1.890  13.357  0.6459  0.9729 -0.0301
  670MPD2    H3 9972   4.678   1.809  13.486  1.4836 -2.3812  0.0666
  670MPD2     N 9973   0.186   1.787  13.868  0.9154 -0.5878 -0.3347
  670MPD2    H5 9974   0.285   1.788  13.891  0.5998  3.1448  0.9468
  670MPD2    N1 9975   0.367   1.941  13.444  0.4035 -0.2893  0.0402
  670MPD2    H7 9976   0.450   1.966  13.498  0.1722  1.0537 -0.2394
  671TMC3    C1 9977   0.148   1.706  14.090 -0.4095 -0.0716  0.3042
  671TMC3    C2 9978   0.277   1.672  14.117  0.5122  0.5633 -0.1833
  671TMC3    C3 9979   0.308   1.607  14.231 -0.4906  0.3440  0.6761
  671TMC3    C4 9980   0.048   1.688  14.185  0.4150 -0.2861 -0.1486
  671TMC3    C5 9981   0.083   1.616  14.297 -0.0058 -0.3965  0.3320
  671TMC3    C6 9982   0.211   1.578  14.319 -1.2398 -0.1322 -0.5524
  671TMC3     C 9983   0.090   1.746  13.956  0.0487 -0.2502 -0.4481
  671TMC3     O 9984   4.712   1.739  13.937 -0.4420  0.1538  0.4543
  671TMC3     H 9985   0.348   1.660  14.036 -0.6985  0.3431 -1.2122
  671TMC3    H1 9986   4.691   1.729  14.166  0.6397  0.4936  0.3519
  671TMC3    H2 9987   0.222   1.509  14.401 -2.4206 -0.3699 -0.5958
  671TMC3    C7 9988   0.000   1.500  14.312 -0.7133 -0.2709  0.5486
  671TMC3    C8 9989   0.422   1.526  14.249 -0.0311  0.2690 -1.6412
  671TMC3    O1 9990   0.057   1.391  14.307  0.3463 -0.0839  0.2929
  671TMC3    O2 9991   0.484   1.501  14.146 -0.0172 -0.2806  0.1485
  672MPD2     C 9992   0.854   3.108   0.602  0.8885  0.3937  0.2137
  672MPD2    C1 9993   0.939   3.004   0.632 -0.5917 -0.2350 -0.1776
  672MPD2    C2 9994   1.074   3.026   0.650 -0.5686  0.0663  0.0536
  672MPD2    C3 9995   1.126   3.153   0.629 -0.4868 -0.1457 -0.1248
  672MPD2    C4 9996   1.037   3.254   0.594  0.0286  0.0884 -0.9027
  672MPD2    C5 9997   0.903   3.235   0.585  0.3148 -0.0360  0.0214
  672MPD2     H 9998   1.143   2.943   0.666  0.3378  0.5502 -1.3692
  672MPD2    H1 9999   1.072   3.356   0.589  0.8315 -0.1111  0.6117
  672MPD2    H210000   0.747   3.092   0.611  0.8353  0.3496 -0.4556
  672MPD2    H310001   0.834   3.317   0.569 -1.2030 -1.3942 -0.3768
  672MPD2     N10002   1.256   3.192   0.655  0.7261 -0.0665 -0.3613
  672MPD2    H510003   1.268   3.293   0.654  2.8683 -0.3054  0.4177
  672MPD2    N110004   0.890   2.874   0.654 -0.5639  0.1308  0.2316
  672MPD2    H710005   0.949   2.813   0.709 -0.1834  0.7431  0.4940
  673TMC3    C110006   0.731   2.699   0.683 -0.6806  0.0347 -0.3549
  673TMC3    C210007   0.817   2.592   0.659  0.6289 -0.2051  0.0504
  673TMC3    C310008   0.761   2.466   0.643 -0.2998 -0.0472  0.3384
  673TMC3    C410009   0.594   2.688   0.691  0.5781  0.0730  0.5505
  673TMC3    C510010   0.539   2.560   0.667 -0.4024  0.3235  0.4010
  673TMC3    C610011   0.623   2.446   0.644  0.1156  0.3933  0.1349
  673TMC3     C10012   0.759   2.832   0.630  0.1971 -0.1726  0.0031
  673TMC3     O10013   0.665   2.893   0.585  0.0586  0.2381  0.0571
  673TMC3     H10014   0.917   2.617   0.625  0.1939  1.8199  0.2695
  673TMC3    H110015   0.538   2.777   0.715  1.1445  0.0449  2.0199
  673TMC3    H210016   0.583   2.347   0.626 -0.0756 -0.0937  3.2525
  673TMC3    C710017   0.394   2.555   0.646 -0.1035  0.3958 -0.1549
  673TMC3    C810018   0.850   2.358   0.610 -0.4292  0.4553  0.7631
  673TMC3    O110019   0.341   2.444   0.641  0.0063 -0.6891 -0.2464
  673TMC3    O210020   0.808   2.272   0.538 -0.2635 -0.2819  0.0449
  674MPD2     C10021   0.280   3.079  17.687 -0.0565  0.5521 -0.5138
  674MPD2    C110022   0.183   3.013  17.752  0.8909  0.4562 -0.1872
  674MPD2    C210023   0.057   3.070  17.750  0.3237 -0.4619 -1.4309
  674MPD2    C310024   0.034   3.191  17.694 -0.2312 -0.8063  0.2319
  674MPD2    C410025   0.138   3.261  17.632 -0.3903 -0.3568 -0.3008
  674MPD2    C510026   0.270   3.208  17.641 -0.0976 -0.3321 -0.6884
  674MPD2     H10027   4.707   3.021   0.016 -1.8910  3.7236 -1.3612
  674MPD2    H110028   0.123   3.361  17.592 -3.8229  0.0664  2.0697
  674MPD2    H210029   0.383   3.046  17.694 -0.5749 -0.9266  0.0449
  674MPD2    H310030   0.356   3.271  17.619 -0.4911  0.3073 -0.3691
  674MPD2     N10031   4.640   3.215  17.673  0.8726  0.0059 -0.5212
  674MPD2    H510032   4.578   3.144  17.712  1.0307 -0.8943 -1.8938
  674MPD2    N110033   0.207   2.885   0.035 -0.5728  0.5688  0.0978
  674MPD2    H710034   0.302   2.850   0.034 -0.5870  0.4342  1.8866
  675TMC3    C110035   0.156   2.675   0.147 -0.6668 -0.0117  0.4166
  675TMC3    C210036   0.065   2.577   0.148 -0.6725 -0.0978 -0.2483
  675TMC3    C310037   0.104   2.464   0.220 -0.5140  0.1337 -0.7834
  675TMC3    C410038   0.283   2.668   0.201 -0.0230 -0.5983  0.0794
  675TMC3    C510039   0.317   2.556   0.269  0.4572  0.0517  0.8565
  675TMC3    C610040   0.230   2.455   0.278  0.2635 -0.3090 -0.7182
  675TMC3     C10041   0.111   2.803   0.088  0.1745 -0.2420  0.1119
  675TMC3     O10042   4.734   2.817   0.097  0.8603 -0.0156  0.0579
  675TMC3     H10043   4.715   2.587   0.092  0.6082  3.0088 -1.8311
  675TMC3    H110044   0.351   2.749   0.179 -0.1631 -0.5734 -0.2641
  675TMC3    H210045   0.253   2.367   0.338 -2.8028 -0.4622  0.2635
  675TMC3    C710046   0.453   2.528   0.294  0.3502 -0.6967  0.5195
  675TMC3    C810047   4.733   2.379   0.261 -0.1805 -0.4927  0.1650
  675TMC3    O110048   0.485   2.415   0.309  0.0809 -0.5462 -0.1128
  675TMC3    O210049   4.619   2.411   0.236  0.2727  0.0979  0.1636
  676MPD2     C10050   2.502   0.042  10.925 -0.9496 -0.0770 -0.2959
  676MPD2    C110051   2.466   0.042  11.060  0.2458 -0.5095 -0.2623
  676MPD2    C210052   2.421   4.665  11.119  0.3329  0.0147 -0.1198
  676MPD2    C310053   2.398   4.550  11.045 -0.5639 -0.4689  0.8725
  676MPD2    C410054   2.430   4.555  10.908  1.5770 -0.3536  0.9481
  676MPD2    C510055   2.477   4.667  10.855  0.1630  0.4885  0.9838
  676MPD2     H10056   2.396   4.671  11.225 -0.6124 -1.0570 -0.2796
  676MPD2    H110057   2.423   4.470  10.841  0.3559 -0.6469  1.4335
  676MPD2    H210058   2.541   0.126  10.870 -0.5008 -0.6660 -0.8836
  676MPD2    H310059   2.513   4.674  10.753 -1.3811  0.0395  0.4179
  676MPD2     N10060   2.354   4.423  11.095  0.2979  0.0022 -0.9299
  676MPD2    H510061   2.354   4.351  11.023  0.2247 -0.3475 -0.5790
  676MPD2    N110062   2.478   0.161  11.143  0.2216 -0.2169 -0.3165
  676MPD2    H710063   2.464   0.158  11.243  1.4815  1.1379 -0.0988
  677TMC3    C110064   2.517   0.387  11.189 -0.5830 -0.3935  0.6503
  677TMC3    C210065   2.495   0.371  11.325  0.4741  0.2239  0.3867
  677TMC3    C310066   2.501   0.483  11.402 -0.4187 -0.5232 -0.5448
  677TMC3    C410067   2.560   0.507  11.136  0.5118  0.7494  0.1724
  677TMC3    C510068   2.572   0.614  11.212 -0.4025 -0.5199 -0.1526
  677TMC3    C610069   2.527   0.603  11.341 -0.1275 -0.3036 -0.6773
  677TMC3     C10070   2.502   0.285  11.090 -0.3081 -0.1442 -0.1482
  677TMC3     O10071   2.508   0.315  10.970 -0.5429  0.1339  0.0226
  677TMC3     H10072   2.493   0.270  11.365  0.8538 -0.4447 -1.3137
  677TMC3    H110073   2.611   0.506  11.040 -0.9629  0.3699 -0.6109
  677TMC3    H210074   2.503   0.694  11.394 -1.9488  0.2803 -2.5299
  677TMC3    C710075   2.693   0.680  11.196  0.0635  0.5897  0.5200
  677TMC3    C810076   2.541   0.478  11.541  0.0697 -0.3385 -0.4069
  677TMC3    O110077   2.728   0.694  11.080  0.8539 -0.6504  0.1776
  677TMC3    O210078   2.591   0.589  11.569  0.8570  0.2193  0.3951
  678MPD2     C10079   0.250   0.573   1.406  0.2266 -0.2186  0.2045
  678MPD2    C110080   0.195   0.571   1.279 -0.3750  0.4101 -0.0614
  678MPD2    C210081   0.076   0.641   1.261 -0.1187  0.8909 -0.1285
  678MPD2    C310082   0.023   0.717   1.367 -0.1809  0.4983 -0.5809
  678MPD2    C410083   0.092   0.723   1.484  0.7486  0.8500  0.1372
  678MPD2    C510084   0.201   0.649   1.508 -0.4139 -0.0408  0.1496
  678MPD2     H10085   0.023   0.632   1.167 -0.3145  1.2910 -0.0591
  678MPD2    H110086   0.047   0.773   1.570 -1.4876  0.7565 -0.9961
  678MPD2    H210087   0.335   0.508   1.425  1.1912  1.3240  1.2563
  678MPD2    H310088   0.258   0.664   1.599 -0.4826 -1.3574  0.4043
  678MPD2     N10089   4.644   0.781   1.334  0.4586 -0.2480  0.3520
  678MPD2    H510090   4.613   0.768   1.238 -1.2417  2.8246  0.4774
  678MPD2    N110091   0.234   0.496   1.165  0.1335  0.5620  0.4707
  678MPD2    H710092   0.174   0.495   1.084 -2.3543 -2.2092  2.3512
  679TMC3    C110093   0.338   0.150   0.900  0.1237  0.4410 -0.6016
  679TMC3    C210094   0.381   0.228   1.001  0.6533  0.1689 -0.0049
  679TMC3    C310095   0.328   0.354   1.017 -1.1341  0.7734  0.5963
  679TMC3    C410096   0.252   0.198   0.805  0.7030  0.1925 -0.4596
  679TMC3    C510097   0.212   0.329   0.822 -0.2549 -0.1454  0.7509
  679TMC3    C610098   0.266   0.415   0.920 -0.9774  0.2071 -0.0013
  679TMC3     C10099   0.408   0.021   0.874 -0.4617  0.2951 -0.7552
  679TMC3     O10100   0.336   4.681   0.814 -0.8850 -0.0423 -0.0535
  679TMC3     H10101   0.422   0.188   1.093  0.0253 -0.2489  0.0901
  679TMC3    H110102   0.223   0.135   0.722 -0.8991 -1.1936  1.1482
  679TMC3    H210103   0.228   0.517   0.920 -1.2184  0.1171 -1.6484
  679TMC3    C710104   0.126   0.387   0.725 -0.4399 -0.0929 -0.3400
  679TMC3    C810105   0.336   0.407   1.154  0.4538  0.2885  0.1364
  679TMC3    O110106   0.108   0.507   0.746 -0.1269 -0.3005  0.2610
  679TMC3    O210107   0.420   0.371   1.235 -0.2142  0.7366 -0.2777
  680MPD2     C10108   4.384   4.123  13.693 -0.3858 -0.5474  0.0000
  680MPD2    C110109   4.438   4.066  13.808 -0.6477  0.3055  0.5210
  680MPD2    C210110   4.562   4.107  13.849  0.2069 -0.5615  0.2529
  680MPD2    C310111   4.634   4.201  13.775  0.2871 -0.3292 -0.4145
  680MPD2    C410112   4.576   4.257  13.663 -0.5657 -0.5743 -0.2352
  680MPD2    C510113   4.452   4.221  13.629  0.0164 -0.3554 -0.6101
  680MPD2     H10114   4.590   4.059  13.942 -0.0498  1.0377  1.1582
  680MPD2    H110115   4.613   4.345  13.612 -0.4376  1.2136  2.9239
  680MPD2    H210116   4.288   4.094  13.653 -0.4917 -0.6856  0.3589
  680MPD2    H310117   4.406   4.272  13.546  2.1204  0.7444 -1.0973
  680MPD2     N10118   0.018   4.253  13.819  0.4279  0.6692 -0.4255
  680MPD2    H510119   0.068   4.314  13.755  0.2531  1.8776  0.5892
  680MPD2    N110120   4.389   3.951  13.878  0.1626  0.0428 -0.1992
  680MPD2    H710121   4.443   3.910  13.954 -0.1300  0.6173  0.3168
  681TMC3    C110122   4.252   3.778  13.933 -0.9041  0.1935 -0.0713
  681TMC3    C210123   4.148   3.788  14.022  0.3749  0.1568  0.8227
  681TMC3    C310124   4.159   3.689  14.126  0.1316  0.1452  0.7383
  681TMC3    C410125   4.364   3.700  13.944 -0.6798 -0.7647 -0.2272
  681TMC3    C510126   4.362   3.598  14.035 -1.2795 -0.2380  0.5903
  681TMC3    C610127   4.259   3.596  14.127 -0.4530 -0.0046 -0.3127
  681TMC3     C10128   4.272   3.879  13.837 -0.4657 -0.5277  0.4335
  681TMC3     O10129   4.183   3.924  13.768 -0.0878 -0.4616  0.3577
  681TMC3     H10130   4.079   3.871  14.026  0.1512  0.0873 -1.7117
  681TMC3    H110131   4.447   3.709  13.875  0.7284 -1.7567  1.3266
  681TMC3    H210132   4.262   3.515  14.199 -1.8594  2.6408  2.7340
  681TMC3    C710133   4.462   3.495  14.049 -0.2438  0.1463  0.4213
  681TMC3    C810134   4.100   3.734  14.250  0.1293  0.5078 -1.2871
  681TMC3    O110135   4.423   3.387  14.101  0.2294 -0.2083 -0.3150
  681TMC3    O210136   4.008   3.812  14.241 -0.8155  0.2067  0.7516
  682MPD2     C10137   2.233   0.969  10.706 -0.5784  0.7079  0.4481
  682MPD2    C110138   2.148   0.865  10.655 -0.2640  0.5217  0.3266
  682MPD2    C210139   2.050   0.820  10.749 -0.5407 -0.3269 -0.3381
  682MPD2    C310140   2.030   0.886  10.871  0.1838  0.3705 -0.2529
  682MPD2    C410141   2.104   0.995  10.903 -0.2726  0.4964  0.4663
  682MPD2    C510142   2.210   1.033  10.825 -0.1436  0.5374 -0.7393
  682MPD2     H10143   1.995   0.730  10.724  1.2919 -1.5149 -0.0773
  682MPD2    H110144   2.091   1.051  10.994 -1.0522  0.6500  0.2660
  682MPD2    H210145   2.301   1.019  10.637 -2.0124  0.6717 -1.0033
  682MPD2    H310146   2.269   1.122  10.846  1.2849 -0.1719 -1.6865
  682MPD2     N10147   1.931   0.825  10.949  0.2204  0.1560  0.3595
  682MPD2    H510148   1.879   0.748  10.910  0.6828  0.8143 -1.5714
  682MPD2    N110149   2.169   0.786  10.542  0.1273  0.3249 -0.5590
  682MPD2    H710150   2.111   0.703  10.534  1.0626 -0.2859 -1.0007
  683TMC3    C110151   1.766   0.639  11.339  0.8724  0.2189  0.1974
  683TMC3    C210152   1.748   0.511  11.282 -0.2022  0.1866 -0.0558
  683TMC3    C310153   1.799   0.491  11.156 -0.2111 -0.3744 -0.2721
  683TMC3    C410154   1.839   0.738  11.284 -0.3147  0.3004  0.4970
  683TMC3    C510155   1.874   0.721  11.153 -0.6548  0.0233 -0.2124
  683TMC3    C610156   1.852   0.602  11.090 -0.1425  1.0154 -0.0435
  683TMC3     C10157   1.724   0.657  11.478  0.0999  0.3165  0.7834
  683TMC3     O10158   1.710   0.770  11.524 -0.0496 -0.1968 -0.4281
  683TMC3     H10159   1.695   0.436  11.339 -0.3978  1.5583  1.5776
  683TMC3    H110160   1.857   0.830  11.340 -1.4972  1.0704 -0.3865
  683TMC3    H210161   1.888   0.577  10.991 -1.1929  1.1896 -0.4721
  683TMC3    C710162   1.914   0.847  11.084 -0.5851 -0.8124 -0.3365
  683TMC3    C810163   1.785   0.359  11.090  0.2205  0.2411 -0.5779
  683TMC3    O110164   1.957   0.939  11.152  0.0994 -0.6332  0.1110
  683TMC3    O210165   1.800   0.357  10.968  0.7069 -0.2281 -0.1049
  684MPD2     C10166   0.479   4.717  16.811 -0.0696  0.6972 -0.0171
  684MPD2    C110167   0.394   4.741  16.708  0.2643  0.8487  0.4933
  684MPD2    C210168   0.322   0.113  16.706 -0.1029 -0.4490  0.1782
  684MPD2    C310169   0.365   0.213  16.794 -0.1188 -0.1104  0.9238
  684MPD2    C410170   0.458   0.195  16.893 -0.7261 -0.7999  0.1789
  684MPD2    C510171   0.510   0.072  16.908  0.4540 -0.0467 -0.3858
  684MPD2     H10172   0.247   0.139  16.633 -0.6565 -0.3447  0.7817
  684MPD2    H110173   0.505   0.269  16.957 -1.3008  0.7063 -1.1229
  684MPD2    H210174   0.531   4.623  16.820 -1.7867 -0.2707 -0.0551
  684MPD2    H310175   0.588   0.048  16.980 -0.5825 -1.8372  0.1407
  684MPD2     N10176   0.317   0.348  16.793 -0.1459 -0.2831 -0.3624
  684MPD2    H510177   0.379   0.415  16.837 -0.6492  1.7789 -2.8066
  684MPD2    N110178   0.381   4.648  16.603  0.1192  0.4649  0.7065
  684MPD2    H710179   0.306   4.655  16.535  0.5731  0.0101  0.1584
  685TMC3    C110180   0.477   4.477  16.456 -0.8714  0.7978  0.2266
  685TMC3    C210181   0.357   4.470  16.399  0.3216  0.3738 -0.1351
  685TMC3    C310182   0.368   4.398  16.277  0.7992 -0.4110 -0.1724
  685TMC3    C410183   0.593   4.420  16.415 -0.1502 -0.4988 -0.4138
  685TMC3    C510184   0.598   4.357  16.294 -0.6136  0.2987  0.2640
  685TMC3    C610185   0.484   4.349  16.220 -0.0754 -0.9438 -0.6427
  685TMC3     C10186   0.484   4.552  16.582 -0.1188  0.2312 -0.6078
  685TMC3     O10187   0.598   4.557  16.628  0.3167 -0.0153  0.1066
  685TMC3     H10188   0.265   4.486  16.454 -0.8117 -0.1171 -1.8823
  685TMC3    H110189   0.675   4.417  16.485 -0.0547  0.4197 -0.4911
  685TMC3    H210190   0.477   4.304  16.121 -0.3995 -1.6175 -0.3156
  685TMC3    C710191   0.726   4.339  16.233 -0.0424 -0.8846 -0.8352
  685TMC3    C810192   0.245   4.371  16.201  0.7995  0.1981  0.3191
  685TMC3    O110193   0.731   4.275  16.125  0.2586  0.2261  0.3614
  685TMC3    O210194   0.246   4.296  16.108 -0.1536  0.5630  0.1257
  686MPD2     C10195   1.612   0.340  15.723  0.4473 -0.6170  0.6763
  686MPD2    C110196   1.694   0.230  15.744  0.2371 -0.1480 -0.1348
  686MPD2    C210197   1.760   0.171  15.635  0.0181  0.1096 -1.0752
  686MPD2    C310198   1.733   0.217  15.509 -0.0091  0.8599  0.4961
  686MPD2    C410199   1.668   0.337  15.492 -0.3111  0.1661 -0.2177
  686MPD2    C510200   1.618   0.403  15.600 -0.3799  0.2021 -0.3599
  686MPD2     H10201   1.834   0.094  15.650 -0.9143 -0.8641 -1.4657
  686MPD2    H110202   1.646   0.392  15.401 -2.1052 -0.4240 -0.1362
  686MPD2    H210203   1.554   0.375  15.807  0.4850 -0.2101  0.5359
  686MPD2    H310204   1.557   0.489  15.579  1.4084  1.1983 -1.5252
  686MPD2     N10205   1.776   0.153  15.393 -0.3270  0.0931 -0.6449
  686MPD2    H510206   1.777   0.205  15.306  0.0188  0.6965 -0.2860
  686MPD2    N110207   1.705   0.175  15.877  0.3336  0.2811 -0.2110
  686MPD2    H710208   1.639   0.212  15.946  1.2695 -0.1014  0.8962
  687TMC3    C110209   1.804   4.668  15.473  0.1879 -0.0533 -0.2615
  687TMC3    C210210   1.664   4.658  15.508  0.4895 -0.1001  0.3095
  687TMC3    C310211   1.628   4.567  15.605 -0.2126  0.3423  0.7438
  687TMC3    C410212   1.899   4.602  15.542 -1.0449 -0.5771  0.1931
  687TMC3    C510213   1.861   4.525  15.646  0.8170  0.3091  0.9138
  687TMC3    C610214   1.729   4.499  15.668  0.1025 -0.4907 -0.0955
  687TMC3     C10215   1.841   0.034  15.378 -0.7880  0.4410  0.5357
  687TMC3     O10216   1.903   4.733  15.278  0.8578  0.4447 -0.2548
  687TMC3     H10217   1.585   4.706  15.451  1.5144  0.2087 -0.8513
  687TMC3    H110218   2.004   4.609  15.516 -1.3721  2.0742 -0.3313
  687TMC3    H210219   1.699   4.433  15.748  1.6930 -0.5826  0.4369
  687TMC3    C710220   1.954   4.478  15.745  0.9258  0.6278  0.4624
  687TMC3    C810221   1.513   4.586  15.690  0.1490  0.2608 -0.1073
  687TMC3    O110222   1.916   4.390  15.825 -0.3285  0.1877  0.1599
  687TMC3    O210223   1.480   4.501  15.772 -0.1355 -0.0960 -0.1171
  688MPD2     C10224   1.053   3.749  17.178  0.0402  0.4360  0.0469
  688MPD2    C110225   1.066   3.612  17.225  0.8729 -0.4556 -0.2155
  688MPD2    C210226   1.147   3.530  17.149  0.2792  0.0285  0.4163
  688MPD2    C310227   1.203   3.572  17.025  0.1673  0.5134  0.2169
  688MPD2    C410228   1.191   3.705  16.987  0.7936 -0.2962 -0.4986
  688MPD2    C510229   1.120   3.793  17.066 -0.0774  0.1147 -0.4899
  688MPD2     H10230   1.162   3.432  17.194  0.2906  0.0028  0.3563
  688MPD2    H110231   1.227   3.750  16.896  0.7188 -0.1735 -0.4683
  688MPD2    H210232   0.992   3.818  17.235  0.4341 -0.0740  1.0777
  688MPD2    H310233   1.103   3.888  17.016  0.5901 -0.0006 -0.9402
  688MPD2     N10234   1.280   3.494  16.941  0.2039 -0.0919  0.1957
  688MPD2    H510235   1.310   3.539  16.855  2.3824 -1.4180  0.2384
  688MPD2    N110236   1.003   3.552  17.334  0.0444  0.0863 -1.0409
  688MPD2    H710237   1.016   3.451  17.337  0.0179  0.0492 -2.3711
  689TMC3    C110238   0.888   3.535  17.542 -0.5430  0.2870 -0.4714
  689TMC3    C210239   0.898   3.618  17.648  0.9885 -0.2256 -0.2531
  689TMC3    C310240   0.845   3.582  17.762 -0.0255  0.5033  0.4150
  689TMC3    C410241   0.837   3.410  17.543 -0.3476  0.1944  0.5783
  689TMC3    C510242   0.794   3.369  17.670 -0.2746 -0.4496  0.2937
  689TMC3    C610243   0.798   3.456   0.014 -0.2182 -0.6467  0.7855
  689TMC3     C10244   0.909   3.606  17.417 -0.7810 -0.0959 -0.4584
  689TMC3     O10245   0.864   3.720  17.416 -0.1373  0.1979 -0.1171
  689TMC3     H10246   0.955   3.709  17.637 -0.8222  0.6892 -2.0542
  689TMC3    H110247   0.841   3.340  17.460  2.4688  2.2701 -1.0171
  689TMC3    H210248   0.753   3.426   0.108 -2.2600  2.2470  0.7256
  689TMC3    C710249   0.771   3.216  17.691 -0.8176 -0.8743 -0.0364
  689TMC3    C810250   0.879   3.652   0.120  0.6640  0.5677  0.3608
  689TMC3    O110251   0.809   3.164   0.027  0.0870  0.0147 -0.0909
  689TMC3    O210252   0.981   3.716   0.126 -0.5043  0.2292  0.2333
  690MPD2     C10253   3.402   0.789  15.843 -0.5308  0.0185  0.3786
  690MPD2    C110254   3.366   0.684  15.760 -0.0652  1.4071 -0.0278
  690MPD2    C210255   3.460   0.631  15.674  0.5327 -0.7926  0.3742
  690MPD2    C310256   3.582   0.689  15.654 -0.2094 -0.2511  0.8635
  690MPD2    C410257   3.608   0.813  15.712 -0.8107  0.7999 -0.0625
  690MPD2    C510258   3.523   0.853  15.807 -0.4954  0.6133 -0.2515
  690MPD2     H10259   3.440   0.535  15.629  1.4310 -0.9628  0.3465
  690MPD2    H110260   3.702   0.865  15.696 -0.5950  0.4992  0.2306
  690MPD2    H210261   3.342   0.831  15.924 -1.9819  1.0155 -1.2229
  690MPD2    H310262   3.557   0.945  15.855  0.1780  1.4897 -2.4181
  690MPD2     N10263   3.679   0.630  15.562  0.1287 -0.1139  0.2116
  690MPD2    H510264   3.640   0.547  15.518  0.4119 -0.8275  1.2865
  690MPD2    N110265   3.243   0.611  15.776 -0.0430  0.4242  0.4068
  690MPD2    H710266   3.234   0.519  15.734 -0.1648  1.5339 -2.0061
  691TMC3    C110267   3.023   0.575  15.863  0.0306 -0.0411  0.0391
  691TMC3    C210268   2.939   0.621  15.963  0.3432 -0.4091 -0.4688
  691TMC3    C310269   2.848   0.537  16.015 -0.1382 -0.3626  0.1820
  691TMC3    C410270   3.021   0.445  15.829  0.3385 -0.3616  0.1207
  691TMC3    C510271   2.931   0.360  15.894 -0.0215 -0.2515  0.1748
  691TMC3    C610272   2.838   0.408  15.983 -0.7291 -0.0089  0.6438
  691TMC3     C10273   3.130   0.672  15.836 -0.1410 -0.3829  0.1223
  691TMC3     O10274   3.112   0.791  15.859  0.1768 -0.2229  0.1065
  691TMC3     H10275   2.936   0.724  15.998  1.2356 -0.3403 -0.6109
  691TMC3    H110276   3.082   0.397  15.754 -1.0145 -2.0287  0.1133
  691TMC3    H210277   2.758   0.341  16.012  0.9469 -0.9967  2.9283
  691TMC3    C710278   2.965   0.223  15.900 -0.9911  0.2848  0.3086
  691TMC3    C810279   2.767   0.594  16.121  0.8212 -0.0763  0.5513
  691TMC3    O110280   3.077   0.191  15.859 -0.4824  0.3048  0.3370
  691TMC3    O210281   2.814   0.658  16.212  0.1814 -0.4554  0.4895
  692TMC3    C110282   4.529   1.414  15.862  0.3200  0.2156 -0.5384
  692TMC3    C210283   4.645   1.476  15.883  0.3740 -0.3756  1.1743
  692TMC3    C310284   0.006   1.399  15.938  0.1662  0.7245 -0.2734
  692TMC3    C410285   4.502   1.278  15.891  0.4880 -0.0689  0.2236
  692TMC3    C510286   4.597   1.212  15.963  0.5318  0.4272  0.4221
  692TMC3    C610287   4.726   1.271  15.983  0.3285 -0.3281  0.0539
  692TMC3     C10288   4.413   1.499  15.858 -0.1775  0.5141 -0.8003
  692TMC3     O10289   4.302   1.449  15.848 -0.3229  0.4473 -0.5421
  692TMC3     H10290   4.672   1.546  15.804 -1.5833  0.2029  1.0287
  692TMC3    H110291   4.409   1.226  15.872  0.2485  0.0145  1.1662
  692TMC3    H210292   0.069   1.215  16.019  1.0135  1.6849  1.5321
  692TMC3    C710293   4.592   1.071  15.965  0.5247 -0.2643  0.1531
  692TMC3    C810294   0.092   1.472  16.036 -0.5140  0.1374  0.3765
  692TMC3    O110295   4.544   1.010  15.871 -0.2520 -0.1227 -0.4257
  692TMC3    O210296   0.151   1.417  16.131  0.7853 -0.0397  0.7348
  693MPD2     C10297   3.843   3.915  10.658  0.6307 -0.2993 -0.4795
  693MPD2    C110298   3.801   3.832  10.759  0.2508 -0.4883 -0.2090
  693MPD2    C210299   3.891   3.744  10.814 -0.2304 -1.4175  0.0036
  693MPD2    C310300   4.022   3.736  10.768 -0.1606 -0.6244 -0.1038
  693MPD2    C410301   4.070   3.820  10.677  0.0512 -0.3898  0.8078
  693MPD2    C510302   3.978   3.913  10.632  0.4728  0.4010  0.0429
  693MPD2     H10303   3.857   3.681  10.896  0.1012 -0.2892  1.0034
  693MPD2    H110304   4.169   3.823  10.634 -0.7644 -2.1570 -1.2147
  693MPD2    H210305   3.777   3.995  10.626  0.7956 -0.3901 -1.0579
  693MPD2    H310306   4.015   3.990  10.566 -2.5836  2.2718  0.5274
  693MPD2     N10307   4.114   3.640  10.820 -0.3912 -0.4364 -0.4960
  693MPD2    H510308   4.214   3.651  10.806  0.0657 -4.2150 -0.0698
  693MPD2    N110309   3.673   3.862  10.814  0.0867 -0.2138  0.1395
  693MPD2    H710310   3.615   3.929  10.764 -0.3596 -3.0334 -3.1331
  694TMC3    C110311   3.495   3.849  10.972  0.0652  0.1194  0.1698
  694TMC3    C210312   3.411   3.809  10.876  0.0994  0.3872  0.5769
  694TMC3    C310313   3.284   3.780  10.924 -0.0847 -0.2302 -0.3744
  694TMC3    C410314   3.469   3.866  11.104 -0.5855 -0.4344 -0.2497
  694TMC3    C510315   3.346   3.834  11.149 -0.2871  0.0787 -0.0027
  694TMC3    C610316   3.251   3.790  11.058  0.0535 -0.0308 -0.4084
  694TMC3     C10317   3.633   3.821  10.940 -0.2765 -0.2551 -0.5038
  694TMC3     O10318   3.696   3.769  11.033  0.2118  0.3993  0.3120
  694TMC3     H10319   3.439   3.777  10.776  0.3358 -0.8256  1.0336
  694TMC3    H110320   3.547   3.903  11.169  1.3178  2.9369 -4.4352
  694TMC3    H210321   3.151   3.767  11.092  0.0054  0.3508 -0.2864
  694TMC3    C710322   3.312   3.855  11.287 -0.0106 -1.3113 -0.4286
  694TMC3    C810323   3.180   3.724  10.842  0.5194 -0.3894 -0.2114
  694TMC3    O110324   3.377   3.932  11.356  0.3079  0.2587  0.0994
  694TMC3    O210325   3.088   3.666  10.900  0.6123  0.0020  0.0261
  695MPD2     C10326   0.563   1.099  13.522  0.3285 -0.1346 -1.1224
  695MPD2    C110327   0.520   1.008  13.619  0.3087  0.7993 -0.4593
  695MPD2    C210328   0.385   0.990  13.642  0.2681  0.1365 -0.3727
  695MPD2    C310329   0.294   1.070  13.576  0.2342  0.0597 -0.2401
  695MPD2    C410330   0.340   1.164  13.484  0.3622  0.4826  0.0806
  695MPD2    C510331   0.472   1.188  13.461  0.2784  0.1423 -0.8080
  695MPD2     H10332   0.355   0.921  13.720 -2.7281  0.9723 -0.7972
  695MPD2    H110333   0.274   1.224  13.421 -0.4560 -0.6563 -0.1354
  695MPD2    H210334   0.668   1.112  13.501  0.4324  0.6067 -0.1669
  695MPD2    H310335   0.497   1.263  13.387  1.9768 -0.7190 -1.0877
  695MPD2     N10336   0.161   1.073  13.625  0.0048  0.2063 -0.3876
  695MPD2    H510337   0.138   1.020  13.708  0.7997  0.1824 -0.1863
  695MPD2    N110338   0.618   0.936  13.692  0.1630  0.4087 -0.3159
  695MPD2    H710339   0.579   0.866  13.755 -0.4296  0.8082 -0.2321
  696TMC3    C110340   4.660   1.110  13.615  0.2241 -0.1294  0.3435
  696TMC3    C210341   4.644   1.075  13.741 -0.0014 -0.7046 -0.1196
  696TMC3    C310342   4.528   1.101  13.814 -0.5709 -0.0246  0.5139
  696TMC3    C410343   4.552   1.161  13.550  0.1136  0.1414 -0.0921
  696TMC3    C510344   4.436   1.184  13.612  0.0780  0.0606 -0.0095
  696TMC3    C610345   4.426   1.164  13.748  0.4264 -0.2743 -0.0734
  696TMC3     C10346   0.056   1.137  13.565 -0.8560 -0.2482  0.7580
  696TMC3     O10347   0.052   1.184  13.453  0.0848  0.1743  0.2609
  696TMC3     H10348   4.728   1.033  13.795 -1.9001 -2.8241  1.1975
  696TMC3    H110349   4.567   1.208  13.453  2.4127  0.8165  0.5862
  696TMC3    H210350   4.333   1.202  13.790 -1.1271 -0.2318 -3.4967
  696TMC3    C710351   4.370   1.311  13.575 -0.3654 -0.8142  0.7341
  696TMC3    C810352   4.556   1.142  13.951 -1.4348  0.3815  0.4784
  696TMC3    O110353   4.253   1.299  13.542 -0.3961 -0.2003 -0.5134
  696TMC3    O210354   4.668   1.137  13.994 -0.2870  0.0147  0.9723
  697MPD2     C10355   4.114   3.115  16.020 -0.0289  0.3110  0.0630
  697MPD2    C110356   4.129   3.095  15.886 -0.4090 -0.4605  0.5028
  697MPD2    C210357   4.167   3.203  15.804  0.6107 -0.6235  0.7075
  697MPD2    C310358   4.192   3.324  15.866 -0.1142  0.0241 -0.3371
  697MPD2    C410359   4.163   3.339  16.006 -0.1449  0.5733  0.0533
  697MPD2    C510360   4.119   3.238  16.078 -0.9632  0.3553 -0.3293
  697MPD2     H10361   4.176   3.195  15.697  0.2210  0.0342  0.6234
  697MPD2    H110362   4.154   3.434  16.056  0.4884  1.0412 -0.7243
  697MPD2    H210363   4.078   3.033  16.082  0.8261  0.3504  0.6071
  697MPD2    H310364   4.086   3.258  16.179 -2.7526 -3.1908 -0.2005
  697MPD2     N10365   4.255   3.428  15.789  0.8689 -0.2348  0.0505
  697MPD2    H510366   4.280   3.409  15.693 -1.1426 -1.9755 -0.1377
  697MPD2    N110367   4.108   2.970  15.819 -0.6876 -0.0834  0.0175
  697MPD2    H710368   4.116   2.967  15.717  0.7321 -1.7012  0.1821
  698TMC3    C110369   4.342   3.636  15.738 -0.0607  0.1503  0.8289
  698TMC3    C210370   4.427   3.736  15.765 -0.8299 -1.1599  0.3214
  698TMC3    C310371   4.477   3.813  15.666  0.1519 -0.2476 -0.3401
  698TMC3    C410372   4.304   3.617  15.607  0.0413  0.0139 -0.2199
  698TMC3    C510373   4.353   3.702  15.509 -0.4409 -0.4604  0.4629
  698TMC3    C610374   4.446   3.793  15.537  0.4776 -0.0401 -0.1782
  698TMC3     C10375   4.283   3.552  15.835  0.0240  0.5443 -0.3566
  698TMC3     O10376   4.282   3.598  15.948 -0.6237  0.2249 -0.0235
  698TMC3     H10377   4.454   3.758  15.868 -1.7926 -2.1698  0.7921
  698TMC3    H110378   4.238   3.536  15.580  0.6829 -0.7021  0.3813
  698TMC3    H210379   4.473   3.860  15.457  0.5537 -1.4285 -1.3174
  698TMC3    C710380   4.346   3.651  15.375  0.1130  0.1237  0.0840
  698TMC3    C810381   4.573   3.920  15.702  0.2943  0.5056  0.5121
  698TMC3    O110382   4.277   3.712  15.297  0.3155 -0.4667 -0.3780
  698TMC3    O210383   4.567   3.961  15.816  0.8900  0.5017  0.6910
  699TMC3    C110384   4.165   1.149  13.223 -0.6994  0.4386  0.4807
  699TMC3    C210385   4.233   1.047  13.284  0.1296  0.5795 -0.5559
  699TMC3    C310386   4.170   0.998  13.397  0.8067 -0.1668 -0.0728
  699TMC3    C410387   4.049   1.203  13.263 -0.3410 -0.5321  0.1030
  699TMC3    C510388   3.993   1.156  13.380 -0.1130  1.0310 -0.4715
  699TMC3    C610389   4.053   1.051  13.447  0.0083 -0.4323  0.0249
  699TMC3     C10390   4.235   1.222  13.124 -0.2643  0.2362 -0.7460
  699TMC3     O10391   4.166   1.298  13.056  1.3446 -0.5086  0.6534
  699TMC3     H10392   4.318   0.996  13.238  0.3135  0.9307 -0.6039
  699TMC3    H110393   3.996   1.282  13.212  0.4081 -0.2571 -0.2499
  699TMC3    H210394   4.009   1.012  13.538 -1.8075  1.5628  0.0041
  699TMC3    C710395   3.914   1.242  13.461  0.3558 -1.1060  0.5428
  699TMC3    C810396   4.231   0.890  13.478  0.2410  0.3717  0.6927
  699TMC3    O110397   3.886   1.203  13.573 -0.5055 -0.2083  0.6983
  699TMC3    O210398   4.175   0.846  13.577  0.1248  0.3736  0.0980
  700TMC3    C110399   3.516   3.854  17.249 -0.5514 -0.4233  0.7598
  700TMC3    C210400   3.469   3.729  17.240 -0.2459  0.0041  0.1288
  700TMC3    C310401   3.513   3.641  17.333  0.1404 -0.2918  0.1539
  700TMC3    C410402   3.598   3.897  17.347 -0.2708  0.3965  0.3190
  700TMC3    C510403   3.639   3.805  17.435  0.2210  0.8275  0.0603
  700TMC3    C610404   3.593   3.679  17.435  0.2761 -0.4960  0.8156
  700TMC3     C10405   3.479   3.941  17.145  0.8128 -0.1082 -0.6252
  700TMC3     O10406   3.383   3.904  17.081  0.4313  1.0202  0.1484
  700TMC3     H10407   3.424   3.693  17.148 -1.1773  2.4081 -0.3575
  700TMC3    H110408   3.623   4.002  17.355 -0.4571  0.3085  2.0949
  700TMC3    H210409   3.637   3.610  17.506 -1.1043 -0.0055  2.1574
  700TMC3    C710410   3.723   3.844  17.546  0.3293  0.5296  0.5136
  700TMC3    C810411   3.563   3.521  17.272  0.3065 -0.0148 -0.3303
  700TMC3    O110412   3.729   3.765  17.642 -0.3469 -0.3143  0.1477
  700TMC3    O210413   3.677   3.495  17.301  0.6269  0.7970  0.1004
  701TMC3    C110414   3.337   2.308  15.966  0.4262 -0.3612  0.6155
  701TMC3    C210415   3.330   2.218  15.868  0.0949 -0.0791  0.1202
  701TMC3    C310416   3.414   2.235  15.758 -0.4720 -0.7057  0.7817
  701TMC3    C410417   3.409   2.425  15.957  0.4249 -0.6259 -0.8959
  701TMC3    C510418   3.481   2.443  15.843 -0.6193 -0.4916  0.3818
  701TMC3    C610419   3.477   2.357  15.740  0.8196 -0.2555  0.2680
  701TMC3     C10420   3.263   2.300  16.089 -0.2999 -0.1778 -0.1918
  701TMC3     O10421   3.299   2.371  16.184 -0.0770  0.1968  0.1983
  701TMC3     H10422   3.277   2.125  15.883  0.8078 -0.6930 -1.1042
  701TMC3    H110423   3.411   2.491  16.044  0.0645 -1.0598 -0.5559
  701TMC3    H210424   3.534   2.374  15.650  1.6252  1.8618  1.1871
  701TMC3    C710425   3.544   2.579  15.823  0.2556  0.5057 -0.0202
  701TMC3    C810426   3.411   2.139  15.651  0.4905  0.1688 -0.4400
  701TMC3    O110427   3.524   2.627  15.711  0.1432 -0.9092  0.5640
  701TMC3    O210428   3.337   2.045  15.676 -0.1177  0.0271  0.0816
  702MPD2     C10429   2.751   4.444  11.325  0.7499  0.4921 -0.0103
  702MPD2    C110430   2.723   4.348  11.228 -0.4199 -0.5792 -0.6927
  702MPD2    C210431   2.739   4.380  11.096  0.2780 -0.0334  0.0114
  702MPD2    C310432   2.793   4.502  11.053  0.3692 -0.2737 -0.2055
  702MPD2    C410433   2.824   4.593  11.152 -0.3273 -0.2988  0.7351
  702MPD2    C510434   2.796   4.565  11.287 -0.2034  0.2888  0.4272
  702MPD2     H10435   2.729   4.307  11.017  1.2242  0.5432 -0.6550
  702MPD2    H110436   2.876   4.685  11.128 -1.5499  0.0886 -0.4007
  702MPD2    H210437   2.724   4.425  11.429 -1.2036 -0.1801 -0.6306
  702MPD2    H310438   2.814   4.649  11.353  2.5360  0.2231 -0.2216
  702MPD2     N10439   2.841   4.540  10.919  0.0929 -0.1607  0.3881
  702MPD2    H510440   2.887   4.630  10.918 -0.2122 -0.0034  0.3821
  702MPD2    N110441   2.659   4.229  11.271  0.3328 -0.0125 -0.2448
  702MPD2    H710442   2.632   4.223  11.369  0.7380  0.6851 -0.0923
  703TMC3    C110443   2.894   4.530  10.696 -0.6655  0.5624  0.4952
  703TMC3    C210444   2.824   4.505  10.581 -0.6567 -0.2871  0.3403
  703TMC3    C310445   2.858   4.574  10.472  0.4879 -0.1957  0.4266
  703TMC3    C410446   3.005   4.606  10.717 -0.0109  0.3282 -0.2070
  703TMC3    C510447   3.031   4.682  10.600  0.3094  0.5031 -0.6582
  703TMC3    C610448   2.961   4.664  10.477  0.1716  0.2805  0.1045
  703TMC3     C10449   2.822   4.470  10.805 -0.6156  0.5139  0.2560
  703TMC3     O10450   2.748   4.375  10.787 -0.0436  0.4540  0.1272
  703TMC3     H10451   2.745   4.432  10.569 -0.3771 -0.1609 -2.3617
  703TMC3    H110452   3.066   4.600  10.806  2.2647  0.2926 -1.7556
  703TMC3    H210453   2.989   4.710  10.383 -3.0479 -1.0518 -1.5102
  703TMC3    C710454   3.151   0.020  10.594  0.3125  0.2940 -0.0665
  703TMC3    C810455   2.753   4.617  10.390 -0.5574  0.8648  0.8192
  703TMC3    O110456   3.194   0.050  10.478 -0.3080 -0.4062 -0.1196
  703TMC3    O210457   2.785   4.692  10.303  0.2736  0.6828 -0.0105
  704TMC3    C110458   1.323   2.921  12.830  0.9095  0.0440 -0.3874
  704TMC3    C210459   1.379   2.919  12.706 -0.5372  0.1072  0.4827
  704TMC3    C310460   1.509   2.864  12.697 -0.4352 -0.1868 -1.3147
  704TMC3    C410461   1.378   2.850  12.935  0.0880 -0.2152  0.5202
  704TMC3    C510462   1.494   2.776  12.914  0.1056  0.6769  0.1252
  704TMC3    C610463   1.558   2.786  12.799  0.1369  0.9035 -0.1207
  704TMC3     C10464   1.181   2.947  12.846  0.8504 -0.3031  0.0125
  704TMC3     O10465   1.146   2.953  12.964 -0.2898  0.6796  0.0240
  704TMC3     H10466   1.338   2.975  12.623  2.3465 -0.5840 -1.4055
  704TMC3    H110467   1.329   2.855  13.032  1.3910 -0.9714  1.2141
  704TMC3    H210468   1.659   2.749  12.787  0.4853  0.9422  2.6047
  704TMC3    C710469   1.576   2.727  13.023  0.8303 -0.1260  0.0500
  704TMC3    C810470   1.586   2.861  12.570 -0.0014  0.2796 -0.6149
  704TMC3    O110471   1.688   2.784  13.013  0.2679 -0.3294 -0.3885
  704TMC3    O210472   1.706   2.849  12.571  0.1484 -0.0437 -0.7153
  705MPD2     C10473   0.250   1.248  16.494  0.0606  0.1616 -0.7117
  705MPD2    C110474   0.242   1.384  16.492 -0.9461  0.3481  0.0824
  705MPD2    C210475   0.133   1.448  16.551  0.7960  0.1672  0.1516
  705MPD2    C310476   0.034   1.377  16.617  0.0314  0.7917 -0.0918
  705MPD2    C410477   0.057   1.236  16.632 -0.4264  0.8601 -0.0086
  705MPD2    C510478   0.163   1.175  16.570 -1.4377 -0.5991  0.3460
  705MPD2     H10479   0.129   1.556  16.537  1.2256  0.4791  2.3491
  705MPD2    H110480   4.729   1.179  16.693  0.6689  1.8197  2.1149
  705MPD2    H210481   0.327   1.193  16.441 -1.2563 -1.5972 -0.7990
  705MPD2    H310482   0.172   1.067  16.573  3.0273 -0.2707 -0.4961
  705MPD2     N10483   4.665   1.434  16.683  0.2351  0.0180 -0.0457
  705MPD2    H510484   4.606   1.372  16.737  0.4567  0.2367  0.4393
  705MPD2    N110485   0.335   1.465  16.424 -1.2553  0.4865  0.3492
  705MPD2    H710486   0.298   1.557  16.402 -0.4815  0.2807 -1.7569
  706TMC3    C110487   0.646   1.580  16.087 -0.4472 -0.2746 -0.3074
  706TMC3    C210488   0.615   1.716  16.107 -0.0122 -0.1009  0.2325
  706TMC3    C310489   0.534   1.751  16.210  0.4307  0.3110 -0.7276
  706TMC3    C410490   0.599   1.486  16.173 -0.3853 -0.4109  1.0731
  706TMC3    C510491   0.510   1.520  16.269 -0.1536  0.3549 -0.0733
  706TMC3    C610492   0.473   1.654  16.285 -0.7644  0.2060  0.6183
  706TMC3     C10493   0.755   1.546  15.992 -0.0082  0.4817  0.4246
  706TMC3     O10494   0.831   1.635  15.953  0.2187 -0.2130  0.1642
  706TMC3     H10495   0.644   1.789  16.033 -1.3066  0.2781  0.1108
  706TMC3    H110496   0.621   1.381  16.158 -1.8434 -0.5851  0.1168
  706TMC3    H210497   0.404   1.686  16.362 -2.4112 -1.8202 -0.0074
  706TMC3    C710498   0.445   1.419  16.355  0.3542  0.1945 -0.1810
  706TMC3    C810499   0.479   1.889  16.220 -0.1144 -0.2973 -0.8053
  706TMC3    O110500   0.499   1.311  16.340  0.6098  0.6321  0.0419
  706TMC3    O210501   0.492   1.970  16.126  0.8432 -0.0814 -0.3061
  707TMC3    C110502   2.231   0.607   1.034 -0.5607 -0.2138  0.1970
  707TMC3    C210503   2.308   0.674   1.122 -0.6920 -0.0568 -0.4036
  707TMC3    C310504   2.259   0.711   1.242  0.0290 -0.5707 -0.2599
  707TMC3    C410505   2.108   0.569   1.066  0.5013  0.1249  0.5983
  707TMC3    C510506   2.053   0.627   1.173 -0.8200 -0.1506  0.2677
  707TMC3    C610507   2.128   0.685   1.268  0.3504  0.3180 -0.2531
  707TMC3     C10508   2.283   0.577   0.901  0.5984  0.4069 -0.0995
  707TMC3     O10509   2.405   0.566   0.883  0.1523 -0.0651  0.1523
  707TMC3     H10510   2.405   0.712   1.093 -0.9889 -0.0404 -1.3637
  707TMC3    H110511   2.048   0.509   0.998 -3.7711  2.5988  2.1855
  707TMC3    H210512   2.088   0.726   1.360  0.1055 -0.5679  0.0324
  707TMC3    C710513   1.917   0.604   1.201  0.4820  0.0107 -0.2831
  707TMC3    C810514   2.341   0.775   1.340 -0.0193  0.1075  0.3292
  707TMC3    O110515   1.861   0.519   1.130 -0.0235  0.1365  0.3061
  707TMC3    O210516   2.287   0.838   1.426  0.9297  0.8871  0.3919
  708MPD2     C10517   2.686   3.909  13.904 -0.0262  0.1535 -0.2538
  708MPD2    C110518   2.621   3.877  14.021  0.1439 -0.1632  0.0408
  708MPD2    C210519   2.689   3.850  14.139  0.3660  0.1938  0.1972
  708MPD2    C310520   2.822   3.848  14.145 -0.3361 -0.6121 -0.4372
  708MPD2    C410521   2.887   3.880  14.025  0.1434 -0.8611  1.1868
  708MPD2    C510522   2.824   3.902  13.907  0.2401 -0.0115  0.1071
  708MPD2     H10523   2.632   3.820  14.225 -0.3989  3.4589  0.8308
  708MPD2    H110524   2.995   3.885  14.028  0.0747  1.1452  0.5856
  708MPD2    H210525   2.637   3.905  13.808 -1.0593 -1.7657  0.3471
  708MPD2    H310526   2.883   3.907  13.816  1.1045 -0.5453  0.6291
  708MPD2     N10527   2.893   3.842  14.265  0.3026 -0.0644 -0.0445
  708MPD2    H510528   2.993   3.858  14.263  0.5816 -1.8680 -0.3230
  708MPD2    N110529   2.479   3.872  14.014  0.1148  0.2564  0.3955
  708MPD2    H710530   2.451   3.916  13.927 -0.7126 -1.3952 -0.1787
  709TMC3    C110531   2.246   3.846  14.073  0.4749 -0.0212  0.7171
  709TMC3    C210532   2.221   3.961  14.010  0.1015  0.1978  0.2354
  709TMC3    C310533   2.106   4.033  14.055  0.7992 -0.0169  0.4406
  709TMC3    C410534   2.171   3.804  14.180  1.4574  0.2662  0.4655
  709TMC3    C510535   2.067   3.879  14.231  0.0499 -0.0039  0.3383
  709TMC3    C610536   2.029   3.991  14.162  0.2036 -0.1055  0.4449
  709TMC3     C10537   2.388   3.821  14.106 -0.5531  0.0994  0.3584
  709TMC3     O10538   2.414   3.776  14.215  0.3473  0.5144  0.0443
  709TMC3     H10539   2.282   4.000  13.929  0.5186  1.1237  1.0062
  709TMC3    H110540   2.204   3.714  14.230 -0.2244  0.0308  1.1790
  709TMC3    H210541   1.964   4.057  14.219  0.1554  0.0117  0.2545
  709TMC3    C710542   2.083   3.905  14.371  0.0812  0.1741 -0.5723
  709TMC3    C810543   2.062   4.149  13.990 -0.4181  0.0648  1.0597
  709TMC3    O110544   1.986   3.960  14.425 -0.4027  0.3655  0.0642
  709TMC3    O210545   1.947   4.190  14.017 -0.1616  0.7478 -0.2695
  710TMC3    C110546   4.442   1.094   0.523  0.1053  0.2649 -0.9103
  710TMC3    C210547   4.487   1.164   0.416  0.0340 -1.1861  0.8009
  710TMC3    C310548   4.560   1.091   0.332  0.6186 -0.4154 -0.1247
  710TMC3    C410549   4.463   0.964   0.546 -0.4405  0.3343 -0.1773
  710TMC3    C510550   4.531   0.890   0.448  0.2171  0.1132  0.4204
  710TMC3    C610551   4.581   0.952   0.344  0.0001 -0.3993 -0.1155
  710TMC3     C10552   4.337   1.153   0.602  0.5868  0.1636 -0.0378
  710TMC3     O10553   4.236   1.091   0.626 -0.0632  0.3292  0.4645
  710TMC3     H10554   4.453   1.267   0.406  2.1792 -0.5065  0.5675
  710TMC3    H110555   4.411   0.919   0.630  1.6974 -0.8443  0.5315
  710TMC3    H210556   4.649   0.908   0.272 -0.2449  2.7182 -2.2676
  710TMC3    C710557   4.565   0.748   0.476 -0.0397 -0.0451  0.5827
  710TMC3    C810558   4.607   1.145   0.204  0.2114  0.1155  0.2254
  710TMC3    O110559   4.543   0.707   0.589  0.1620 -0.0936 -0.1839
  710TMC3    O210560   4.647   1.078   0.110  0.1062 -0.4328 -0.4701
  711TMC3    C110561   4.039   2.007  15.264  0.0507  0.6456  0.2287
  711TMC3    C210562   4.024   2.084  15.376  0.4629  0.1323 -0.0256
  711TMC3    C310563   4.135   2.159  15.418 -0.6400 -0.8689  0.0187
  711TMC3    C410564   4.149   2.022  15.177  0.5995 -0.1921  0.3041
  711TMC3    C510565   4.260   2.083  15.233 -0.7838 -0.0526  0.2863
  711TMC3    C610566   4.256   2.153  15.352 -0.2737  0.9395  0.4666
  711TMC3     C10567   3.947   1.898  15.226 -0.7955  0.9384  0.1163
  711TMC3     O10568   3.940   1.859  15.112 -0.3127  0.1021 -0.5066
  711TMC3     H10569   3.935   2.067  15.436 -0.3450 -1.8508 -1.7955
  711TMC3    H110570   4.151   1.968  15.083  0.4152 -0.7786  0.6430
  711TMC3    H210571   4.347   2.180  15.403 -0.8001  4.5725 -0.4517
  711TMC3    C710572   4.386   2.009  15.210 -0.2319  0.3979 -0.1400
  711TMC3    C810573   4.133   2.190  15.560  0.8268 -0.3806 -0.0344
  711TMC3    O110574   4.469   2.014  15.299  0.8258  0.4867 -0.1278
  711TMC3    O210575   4.036   2.147  15.618 -0.0959 -0.6679 -0.2745
  712MPD2     C10576   1.120   2.600  14.010 -0.7165 -0.4272 -0.3723
  712MPD2    C110577   0.993   2.642  13.990  0.2086  0.3725  0.1137
  712MPD2    C210578   0.957   2.772  14.030  0.6620 -0.4437 -0.5675
  712MPD2    C310579   1.047   2.861  14.090 -0.7128 -0.2010 -0.6243
  712MPD2    C410580   1.173   2.807  14.111  0.4168 -0.3679  0.1019
  712MPD2    C510581   1.210   2.680  14.065 -0.3636 -0.3998  0.1146
  712MPD2     H10582   0.859   2.809  14.003 -0.1768 -1.0390  1.6380
  712MPD2    H110583   1.254   2.874  14.135  0.0121 -0.4248  1.6233
  712MPD2    H210584   1.155   2.507  13.967 -0.6092  0.7700 -2.8949
  712MPD2    H310585   1.312   2.645  14.077  0.1284  0.4319 -1.7049
  712MPD2     N10586   1.023   3.002  14.104 -0.6760  0.4140 -0.4878
  712MPD2    H510587   1.107   3.049  14.138 -0.0611  1.4466 -3.4546
  712MPD2    N110588   0.898   2.548  13.932  0.3651 -0.2329 -0.6602
  712MPD2    H710589   0.933   2.465  13.886  1.0644  0.2833 -1.0579
  713TMC3    C110590   0.933   3.215  14.052  0.3698  0.0594  0.2538
  713TMC3    C210591   1.063   3.258  14.026 -0.9181 -0.5893  0.4181
  713TMC3    C310592   1.076   3.390  13.992 -0.0540 -0.3821 -0.7508
  713TMC3    C410593   0.822   3.302  14.034 -0.8203 -0.2572 -0.2320
  713TMC3    C510594   0.845   3.432  14.000 -0.8747 -0.2049  0.1192
  713TMC3    C610595   0.972   3.476  13.980 -0.2516  0.3639  0.1821
  713TMC3     C10596   0.913   3.069  14.058 -0.1675  0.8604  0.1462
  713TMC3     O10597   0.795   3.032  14.059 -0.4555 -0.2974  0.9178
  713TMC3     H10598   1.150   3.194  14.023  0.3541  1.1382  0.2304
  713TMC3    H110599   0.723   3.258  14.039 -0.7131 -0.3551  0.9260
  713TMC3    H210600   0.996   3.580  13.960 -0.4431  0.3665 -0.0312
  713TMC3    C710601   0.736   3.504  13.939 -0.8229  0.6659 -0.0056
  713TMC3    C810602   1.198   3.444  13.932  0.0408  0.4045 -0.5592
  713TMC3    O110603   0.621   3.466  13.961  0.4137  0.5633 -0.0383
  713TMC3    O210604   1.202   3.548  13.865  0.2008 -0.8433  0.3667
  714MPD2     C10605   3.728   2.096   1.689  0.3117 -0.0193  0.0718
  714MPD2    C110606   3.724   2.032   1.565 -0.3577 -0.0194 -0.8557
  714MPD2    C210607   3.622   2.056   1.476 -0.2156  0.3607  0.1884
  714MPD2    C310608   3.531   2.156   1.502 -0.2881 -0.0102 -0.0608
  714MPD2    C410609   3.540   2.228   1.619  0.4032 -0.2544 -0.4049
  714MPD2    C510610   3.631   2.191   1.711  0.7657  0.9294 -0.0066
  714MPD2     H10611   3.615   2.012   1.377  2.8903  0.8699 -0.2603
  714MPD2    H110612   3.473   2.308   1.646 -0.3338 -1.0893  0.2311
  714MPD2    H210613   3.807   2.071   1.759  0.8564 -2.4076 -1.3843
  714MPD2    H310614   3.642   2.255   1.799 -3.1640  0.6043  0.6880
  714MPD2     N10615   3.421   2.186   1.412  0.1659 -0.2274  0.2836
  714MPD2    H510616   3.415   2.119   1.336  0.4691 -1.9540  1.7872
  714MPD2    N110617   3.831   1.943   1.535  0.0204  0.5385  0.0837
  714MPD2    H710618   3.909   1.951   1.600 -0.2485 -2.0707  0.7199
  715TMC3    C110619   3.964   1.798   1.397  0.2133 -0.2560 -0.4744
  715TMC3    C210620   3.970   1.698   1.305 -0.0948 -0.1464 -0.1393
  715TMC3    C310621   4.094   1.652   1.274  0.9210  0.2295  0.0034
  715TMC3    C410622   4.075   1.873   1.436  0.2687 -0.1921  0.1666
  715TMC3    C510623   4.197   1.825   1.396 -0.6095  0.1589 -0.1702
  715TMC3    C610624   4.205   1.713   1.319  0.4646 -0.3400 -0.5155
  715TMC3     C10625   3.831   1.857   1.428 -0.4258 -0.0775 -0.9865
  715TMC3     O10626   3.742   1.816   1.356 -0.3509 -0.1324 -0.0033
  715TMC3     H10627   3.881   1.650   1.265  0.1989  0.6222 -1.7369
  715TMC3    H110628   4.072   1.957   1.506  1.9810  0.8219 -0.9878
  715TMC3    H210629   4.306   1.683   1.291  1.4377  1.8406  0.6140
  715TMC3    C710630   4.319   1.877   1.441  0.1068 -0.0443  0.1220
  715TMC3    C810631   4.108   1.535   1.186  0.4737  0.0431 -0.3393
  715TMC3    O110632   4.420   1.811   1.431 -0.3317  0.2529  0.2300
  715TMC3    O210633   4.010   1.488   1.134 -0.1410 -0.4478  0.9139
  716MPD2     C10634   3.157   4.239   9.821  0.7604 -0.7826  0.1000
  716MPD2    C110635   3.050   4.166   9.766  0.0126  0.6061 -0.0026
  716MPD2    C210636   3.028   4.032   9.806  0.5121 -0.7198  0.0135
  716MPD2    C310637   3.107   3.973   9.901  0.2563 -0.1490 -1.1527
  716MPD2    C410638   3.196   4.051   9.968  0.3702 -0.1364 -0.1208
  716MPD2    C510639   3.220   4.181   9.925  0.2119 -0.4892 -0.3851
  716MPD2     H10640   2.946   3.979   9.759 -1.3086  2.6563 -0.6296
  716MPD2    H110641   3.259   4.015  10.049  1.9391  2.7194 -0.0740
  716MPD2    H210642   3.188   4.339   9.794 -1.1718 -0.3661 -0.5970
  716MPD2    H310643   3.285   4.242   9.985  0.1585  0.1710 -1.0070
  716MPD2     N10644   3.094   3.833   9.935  0.3190  0.0876 -0.5235
  716MPD2    H510645   3.027   3.789   9.873 -0.5059 -0.3709  0.6958
  716MPD2    N110646   2.952   4.235   9.688 -0.6134 -0.1405 -0.2654
  716MPD2    H710647   2.985   4.325   9.653  0.8170 -1.3421 -2.0294
  717TMC3    C110648   3.155   3.628  10.022 -0.2260  0.3508  0.1686
  717TMC3    C210649   3.103   3.564   9.907  0.2780 -0.3648 -0.3028
  717TMC3    C310650   3.065   3.430   9.925 -0.4198  0.4792 -0.4006
  717TMC3    C410651   3.184   3.562  10.137  0.2630  0.7745 -0.4519
  717TMC3    C510652   3.150   3.433  10.151  0.0998 -0.1413 -0.5948
  717TMC3    C610653   3.079   3.368  10.049 -0.1824  0.3832 -0.1376
  717TMC3     C10654   3.176   3.767  10.026 -0.3063  0.3515 -0.6121
  717TMC3     O10655   3.243   3.804  10.121 -0.0218  0.0805 -0.3420
  717TMC3     H10656   3.097   3.609   9.809 -1.0666 -0.1909 -0.1439
  717TMC3    H110657   3.256   3.606  10.205  0.8609  0.7571 -1.0773
  717TMC3    H210658   3.040   3.270  10.075  0.2554  0.1713 -0.2843
  717TMC3    C710659   3.160   3.370  10.285 -0.0823  0.3395 -0.0166
  717TMC3    C810660   2.978   3.387   9.819 -0.0054 -0.5760 -0.0140
  717TMC3    O110661   3.125   3.252  10.285 -0.3540 -0.0699 -0.6939
  717TMC3    O210662   2.924   3.471   9.751 -0.1963 -0.0933  0.3507
  718MPD2     C10663   2.362   2.370  13.097  0.2097  0.6752 -0.1059
  718MPD2    C110664   2.257   2.458  13.098  0.0425 -0.1620 -0.2970
  718MPD2    C210665   2.133   2.410  13.117 -0.4466 -0.2555 -0.2518
  718MPD2    C310666   2.095   2.276  13.134 -0.0619 -1.0474 -0.6904
  718MPD2    C410667   2.206   2.187  13.129 -0.1570 -0.5874  0.1402
  718MPD2    C510668   2.334   2.240  13.125  0.6770  0.3336 -0.8818
  718MPD2     H10669   2.047   2.475  13.097  0.9591  1.6394 -0.1650
  718MPD2    H110670   2.187   2.081  13.136 -2.3015 -0.2566 -0.5956
  718MPD2    H210671   2.464   2.404  13.078  0.8688 -0.4088  1.5465
  718MPD2    H310672   2.415   2.169  13.109  0.5440 -0.2099  0.8883
  718MPD2     N10673   1.961   2.237  13.149 -0.1839  0.0097  0.3932
  718MPD2    H510674   1.891   2.310  13.156  0.1403  0.2605  0.9746
  718MPD2    N110675   2.266   2.589  13.063  0.4748 -0.3286  0.1985
  718MPD2    H710676   2.176   2.631  13.040  1.5616  1.1531 -1.3081
  719TMC3    C110677   2.342   2.798  12.995 -0.0140 -0.2417  0.3056
  719TMC3    C210678   2.212   2.818  13.012  0.7073  0.8961 -1.1768
  719TMC3    C310679   2.132   2.849  12.908  0.3780 -0.2993 -0.5659
  719TMC3    C410680   2.400   2.831  12.879  0.0235  0.9363  0.7570
  719TMC3    C510681   2.322   2.866  12.775  0.3523 -0.7961  0.1530
  719TMC3    C610682   2.190   2.883  12.790 -0.3755 -0.2116  0.4038
  719TMC3     C10683   2.378   2.666  13.045 -0.3850  0.1429  0.1051
  719TMC3     O10684   2.494   2.639  13.062 -0.1743  0.2736 -0.2865
  719TMC3     H10685   2.164   2.806  13.108 -0.4282 -0.4001 -1.8962
  719TMC3    H110686   2.505   2.809  12.869 -0.0117  1.5811 -0.9213
  719TMC3    H210687   2.125   2.914  12.710  1.1618  0.9044 -0.4019
  719TMC3    C710688   2.373   2.976  12.698  0.1647 -0.2234  0.1859
  719TMC3    C810689   2.021   2.752  12.897  0.3619  0.7234  0.3533
  719TMC3    O110690   2.474   2.967  12.634 -0.5715  0.0687 -0.0826
  719TMC3    O210691   1.992   2.707  13.005  0.2489 -0.0172 -0.7736
  720MPD2     C10692   0.785   0.129  14.229  0.8417  1.1978 -0.1087
  720MPD2    C110693   0.888   0.169  14.144  0.0954 -0.1871  0.1888
  720MPD2    C210694   1.013   0.193  14.197  0.2942 -0.7358 -0.3617
  720MPD2    C310695   1.039   0.190  14.336 -0.5136 -0.0283  0.3962
  720MPD2    C410696   0.938   0.145  14.413 -0.2449  0.5210 -0.3185
  720MPD2    C510697   0.816   0.115  14.363 -0.9538 -0.2535 -0.2288
  720MPD2     H10698   1.089   0.237  14.133  0.9349  0.3130  1.1201
  720MPD2    H110699   0.945   0.141  14.521 -1.2251  1.3864 -0.2246
  720MPD2    H210700   0.678   0.123  14.211  0.2085  0.6706  3.7863
  720MPD2    H310701   0.736   0.092  14.432 -0.1452 -0.2161  0.7315
  720MPD2     N10702   1.166   0.230  14.386 -0.5320  0.5267  0.0605
  720MPD2    H510703   1.229   0.251  14.309 -0.3909 -0.1799 -0.0190
  720MPD2    N110704   0.854   0.209  14.015  0.5828  0.6529 -0.5098
  720MPD2    H710705   0.755   0.199  13.991  0.2529 -0.1688  1.2356
  721TMC3    C110706   1.318   0.343  14.530  0.4292 -0.2267 -0.0725
  721TMC3    C210707   1.331   0.430  14.633 -0.4875 -0.6117  0.4080
  721TMC3    C310708   1.455   0.480  14.667  0.8761 -0.3358  0.7649
  721TMC3    C410709   1.429   0.311  14.448 -0.1642 -0.0168 -0.0230
  721TMC3    C510710   1.547   0.368  14.484  0.2862  0.2167  0.2533
  721TMC3    C610711   1.562   0.456  14.590 -1.2096 -0.0694 -0.0600
  721TMC3     C10712   1.191   0.274  14.516 -0.0315 -0.0222  0.0147
  721TMC3     O10713   1.116   0.269  14.612 -0.4132  0.5664 -0.2385
  721TMC3     H10714   1.246   0.446  14.699 -0.7769  1.0210 -0.3475
  721TMC3    H110715   1.426   0.243  14.364 -2.1512 -0.2997  0.2719
  721TMC3    H210716   1.658   0.494  14.622 -1.0553 -0.4909 -0.0326
  721TMC3    C710717   1.661   0.295  14.453  0.2659 -0.2670  0.1657
  721TMC3    C810718   1.488   0.457  14.803 -0.0758 -0.2961 -0.0941
  721TMC3    O110719   1.747   0.352  14.384 -0.1074  0.2049 -0.3322
  721TMC3    O210720   1.590   0.395  14.820 -0.0121 -0.1553  0.6001
  722MPD2     C10721   4.405   3.521  13.660  0.3742  0.0064  0.1009
  722MPD2    C110722   4.387   3.644  13.594 -0.0749 -0.1913  0.0543
  722MPD2    C210723   4.262   3.673  13.547  0.1964  0.4866 -0.3314
  722MPD2    C310724   4.155   3.584  13.553  0.1646 -0.1613  0.0287
  722MPD2    C410725   4.175   3.461  13.620 -0.4202 -0.0698  0.0983
  722MPD2    C510726   4.297   3.434  13.668  0.0712 -0.4145  0.4307
  722MPD2     H10727   4.237   3.767  13.501 -1.0860 -0.0619 -0.7659
  722MPD2    H110728   4.109   3.376  13.636  0.6777 -1.0332 -0.4599
  722MPD2    H210729   4.501   3.484  13.694  0.0616 -2.0510 -1.2488
  722MPD2    H310730   4.307   3.340  13.720  0.3685  0.1856  1.4801
  722MPD2     N10731   4.034   3.616  13.484 -0.3158  0.1995  0.4334
  722MPD2    H510732   4.026   3.712  13.452 -2.2851 -0.1986 -0.2492
  722MPD2    N110733   4.489   3.744  13.576 -0.1764 -0.3470  0.0763
  722MPD2    H710734   4.464   3.813  13.506 -1.6698 -2.0845 -1.1303
  723TMC3    C110735   3.819   3.570  13.381  0.0373 -0.3233 -0.3207
  723TMC3    C210736   3.748   3.463  13.327 -0.0622 -0.4733  0.3317
  723TMC3    C310737   3.686   3.484  13.207 -0.4717  0.4547 -0.6989
  723TMC3    C410738   3.819   3.689  13.314  0.2290  0.2775  0.5783
  723TMC3    C510739   3.744   3.702  13.200  0.0025 -0.4775  0.8027
  723TMC3    C610740   3.685   3.601  13.135 -0.4373  0.2481  0.1162
  723TMC3     C10741   3.933   3.520  13.461 -0.2214 -0.6018 -0.3830
  723TMC3     O10742   3.936   3.397  13.454 -0.0117 -0.0712 -0.7560
  723TMC3     H10743   3.739   3.365  13.373  0.1173 -0.2356  0.8702
  723TMC3    H110744   3.863   3.782  13.350 -0.6001  1.0051 -0.2758
  723TMC3    H210745   3.628   3.606  13.042 -0.5016  2.4807  0.2974
  723TMC3    C710746   3.699   3.836  13.150 -0.3437 -0.2637 -0.0225
  723TMC3    C810747   3.679   3.358  13.127 -0.9577 -0.1262 -0.1970
  723TMC3    O110748   3.639   3.835  13.044 -0.1928  0.5241 -0.2509
  723TMC3    O210749   3.707   3.354  13.011 -0.1104 -0.3829  0.0133
  724TMC3    C110750   0.161   1.311  10.835  1.3022 -0.1763 -0.4784
  724TMC3    C210751   0.176   1.294  10.702 -0.6694  0.6135  0.4134
  724TMC3    C310752   0.266   1.375  10.636  0.5947  0.2144  0.2433
  724TMC3    C410753   0.236   1.403  10.905  0.2219  0.5274  0.0898
  724TMC3    C510754   0.330   1.477  10.840 -0.3934  0.0174 -0.5053
  724TMC3    C610755   0.350   1.458  10.706  0.0571  0.2567  0.3083
  724TMC3     C10756   0.084   1.212  10.903 -0.3412  0.1595 -0.3260
  724TMC3     O10757   0.065   1.234  11.026 -0.3189 -0.3518 -0.0763
  724TMC3     H10758   0.096   1.240  10.653  0.4276 -1.1044  0.5186
  724TMC3    H110759   0.229   1.409  11.013  0.1693  2.4587 -0.0087
  724TMC3    H210760   0.427   1.507  10.649  2.5052 -0.3886  3.0866
  724TMC3    C710761   0.405   1.586  10.900 -0.6810  0.2549 -0.1716
  724TMC3    C810762   0.247   1.388  10.491 -0.0711 -0.0772 -0.2955
  724TMC3    O110763   0.507   1.622  10.850 -0.3797  0.4717  0.4561
  724TMC3    O210764   0.216   1.281  10.440 -0.0711  0.9346  0.0348
  725TMC3    C110765   1.594   0.373  12.944 -0.6715 -0.3315 -0.0172
  725TMC3    C210766   1.480   0.323  12.880 -0.4706  0.4508  0.6491
  725TMC3    C310767   1.463   0.194  12.893  0.6247 -0.0768  0.1520
  725TMC3    C410768   1.683   0.296  13.019 -0.5622  0.8377 -0.4673
  725TMC3    C510769   1.658   0.163  13.024  0.7294 -0.1236 -0.3509
  725TMC3    C610770   1.553   0.111  12.963  0.2663 -0.5857 -1.1700
  725TMC3     C10771   1.630   0.510  12.917 -0.5448  0.5112 -0.2754
  725TMC3     O10772   1.664   0.573  13.016  0.1604  0.7101 -0.3418
  725TMC3     H10773   1.407   0.400  12.860 -1.4093 -0.9931 -1.5173
  725TMC3    H110774   1.773   0.343  13.058 -1.0545  1.7208 -0.3909
  725TMC3    H210775   1.532   0.007  12.941  0.3773 -0.0220 -3.9955
  725TMC3    C710776   1.768   0.079  13.011 -0.5589  0.2439  0.4278
  725TMC3    C810777   1.353   0.128  12.830 -0.3438  0.3626  0.6752
  725TMC3    O110778   1.877   0.135  12.992  0.1610 -0.1844 -0.0301
  725TMC3    O210779   1.333   0.011  12.854  0.3615  0.3262 -0.1528
  726MPD2     C10780   4.160   1.778  11.236  0.0836  0.1743 -0.7646
  726MPD2    C110781   4.070   1.829  11.139 -0.2052  0.1163 -0.0437
  726MPD2    C210782   3.937   1.810  11.165 -0.2491  0.0141 -1.4693
  726MPD2    C310783   3.888   1.761  11.286  0.6040 -0.0734  0.1869
  726MPD2    C410784   3.977   1.713  11.380  0.0637  0.1949  0.0737
  726MPD2    C510785   4.120   1.726  11.357  0.7326 -0.2869 -0.0668
  726MPD2     H10786   3.869   1.853  11.092  0.7761  0.3525 -2.2071
  726MPD2    H110787   3.941   1.660  11.467  0.0811 -0.5250 -0.3571
  726MPD2    H210788   4.268   1.783  11.226  0.1430  0.5272  0.0166
  726MPD2    H310789   4.202   1.694  11.421  0.6770 -0.4406 -0.0741
  726MPD2     N10790   3.750   1.766  11.315  0.1905  0.2997 -0.4741
  726MPD2    H510791   3.717   1.732  11.405  0.3411  1.6617  0.0914
  726MPD2    N110792   4.103   1.883  11.013 -0.3598 -0.8611 -0.1105
  726MPD2    H710793   4.024   1.924  10.964  0.0024 -0.0108  0.0120
  727TMC3    C110794   4.235   1.974  10.838 -0.4263  0.5885 -0.1887
  727TMC3    C210795   4.308   2.092  10.834  0.6179 -0.0456 -0.6424
  727TMC3    C310796   4.267   2.187  10.749  0.3203 -0.2532 -0.1948
  727TMC3    C410797   4.134   1.951  10.752  0.0888  0.4150 -0.1036
  727TMC3    C510798   4.103   2.044  10.658 -0.2568 -0.5403  0.7193
  727TMC3    C610799   4.174   2.157  10.653 -0.4777 -0.6412 -1.0930
  727TMC3     C10800   4.231   1.901  10.967  0.2330  0.3266 -0.4126
  727TMC3     O10801   4.340   1.878  11.023 -0.4905 -0.6039  0.3381
  727TMC3     H10802   4.375   2.115  10.915 -1.9574  0.5405  1.3042
  727TMC3    H110803   4.070   1.865  10.770  0.3597  0.5853  1.6695
  727TMC3    H210804   4.148   2.228  10.575  0.6897 -1.7419 -2.4730
  727TMC3    C710805   3.986   2.014  10.573  0.2048 -0.0335 -0.1407
  727TMC3    C810806   4.349   2.308  10.745  0.0091 -0.0920 -1.1780
  727TMC3    O110807   3.939   1.900  10.586  0.3007 -0.9334  0.1003
  727TMC3    O210808   4.457   2.301  10.800 -0.5933 -0.1680  0.4470
  728TMC3    C110809   3.883   0.588  15.444 -0.3948  0.3646 -0.3377
  728TMC3    C210810   4.018   0.624  15.437  0.0311  0.8103 -0.3338
  728TMC3    C310811   4.104   0.561  15.352 -0.5569 -0.4118  0.2728
  728TMC3    C410812   3.826   0.508  15.354  0.3664  0.1803  0.2944
  728TMC3    C510813   3.921   0.448  15.263  0.5082  0.3388 -0.3617
  728TMC3    C610814   4.051   0.479  15.256 -0.0238  0.0795  0.2490
  728TMC3     C10815   3.806   0.674  15.539  0.3371 -0.0273 -0.5281
  728TMC3     O10816   3.868   0.770  15.584 -0.1602 -0.3731  0.6399
  728TMC3     H10817   4.056   0.693  15.512  0.2928 -0.9100  1.1363
  728TMC3    H110818   3.719   0.503  15.343  0.7282  1.2616 -3.5935
  728TMC3    H210819   4.101   0.447  15.165  0.0397 -2.0228  1.0172
  728TMC3    C710820   3.869   0.432  15.129  0.0817  0.4729 -0.3576
  728TMC3    C810821   4.231   0.629  15.310  0.3122 -0.0093 -0.6435
  728TMC3    O110822   3.882   0.328  15.065  0.0781  0.0358  0.1530
  728TMC3    O210823   4.312   0.577  15.238 -0.0362  0.4886 -0.2545
  729MPD2     C10824   0.705   2.299  16.670 -0.2601 -0.2894 -0.1135
  729MPD2    C110825   0.772   2.191  16.723 -0.1598  0.7689 -0.2911
  729MPD2    C210826   0.767   2.164  16.858 -0.1077  0.0590 -0.0538
  729MPD2    C310827   0.683   2.239  16.939 -0.3723  0.5801  0.1053
  729MPD2    C410828   0.625   2.347  16.883 -0.6239  0.2181  0.1102
  729MPD2    C510829   0.630   2.379  16.752  0.0070  0.5503 -0.1196
  729MPD2     H10830   0.817   2.078  16.900  0.5369  0.2914 -0.3534
  729MPD2    H110831   0.558   2.407  16.944 -0.2278 -1.9792  2.7311
  729MPD2    H210832   0.718   2.321  16.565 -0.8086  0.9114  0.0757
  729MPD2    H310833   0.586   2.470  16.715 -1.0138 -0.5697 -1.6567
  729MPD2     N10834   0.664   2.231  17.080  0.4944 -0.3225  0.3684
  729MPD2    H510835   0.608   2.306  17.119  1.7197 -0.6337  2.6989
  729MPD2    N110836   0.853   2.125  16.634  0.2145  0.0257  0.1868
  729MPD2    H710837   0.864   2.169  16.543 -3.3669  0.7407  0.1151
  730TMC3    C110838   0.738   2.185  17.299 -0.2323 -0.6879  0.4497
  730TMC3    C210839   0.856   2.166  17.363 -0.0645  0.2478  0.0674
  730TMC3    C310840   0.892   2.242  17.473 -0.3633 -0.4701 -0.4869
  730TMC3    C410841   0.648   2.277  17.342 -0.1474 -0.0407 -0.2012
  730TMC3    C510842   0.679   2.365  17.441  0.4554  0.2709 -1.4367
  730TMC3    C610843   0.798   2.344  17.512  0.5342 -0.3425 -0.3869
  730TMC3     C10844   0.741   2.146  17.159  0.2507  0.5898 -0.3358
  730TMC3     O10845   0.818   2.051  17.139 -0.7865  0.6912  0.0444
  730TMC3     H10846   0.939   2.102  17.336  0.1378  1.2894 -1.8191
  730TMC3    H110847   0.553   2.292  17.290  0.9948 -0.5428 -2.4271
  730TMC3    H210848   0.818   2.409  17.597  0.5717  1.6439 -1.9146
  730TMC3    C710849   0.673   2.494  17.385  0.6848 -0.5129 -0.7014
  730TMC3    C810850   1.013   2.311  17.443  0.0209 -0.5643  0.0026
  730TMC3    O110851   0.667   2.497  17.262 -0.0085  0.4113 -0.3586
  730TMC3    O210852   1.060   2.308  17.328  0.4689 -0.5969 -1.0427
  731MPD2     C10853   1.031   4.346  12.531  1.0660 -0.3561 -0.1607
  731MPD2    C110854   1.140   4.425  12.557 -0.8073  0.7072  0.6958
  731MPD2    C210855   1.163   4.468  12.689  0.1422 -1.0069  0.6240
  731MPD2    C310856   1.089   4.419  12.797 -0.1956  0.4034  0.6896
  731MPD2    C410857   0.974   4.347  12.769 -0.5383 -0.4744 -0.0766
  731MPD2    C510858   0.952   4.309  12.640  0.3870 -0.3723 -0.7276
  731MPD2     H10859   1.255   4.521  12.709 -0.2931 -1.0593  2.7736
  731MPD2    H110860   0.901   4.334  12.849  0.9616  1.0262  1.5611
  731MPD2    H210861   1.023   4.310  12.429 -0.0569 -0.5423 -0.0059
  731MPD2    H310862   0.864   4.249  12.620  2.3314 -3.2515 -0.7226
  731MPD2     N10863   1.130   4.459  12.921 -0.0099 -0.0227  0.0434
  731MPD2    H510864   1.200   4.533  12.923 -0.3466  0.3759 -3.2753
  731MPD2    N110865   1.209   4.467  12.438  0.1226  0.1149  0.1710
  731MPD2    H710866   1.185   4.413  12.356  0.6838  0.5216 -0.2628
  732TMC3    C110867   1.353   4.594  12.287  0.6146  0.4868  0.4759
  732TMC3    C210868   1.268   4.570  12.181 -0.4467 -0.5925 -0.8411
  732TMC3    C310869   1.277   4.647  12.068  0.5973  0.0105  0.3182
  732TMC3    C410870   1.453   4.684  12.281 -0.0471 -0.0362  0.0423
  732TMC3    C510871   1.461   0.014  12.168  0.0513  0.2653  0.7543
  732TMC3    C610872   1.361   0.010  12.064 -0.1133 -0.5040 -0.1632
  732TMC3     C10873   1.315   4.549  12.427  0.1688  0.0704 -0.5679
  732TMC3     O10874   1.377   4.595  12.518 -0.0670 -0.3089  0.5779
  732TMC3     H10875   1.200   4.487  12.194  0.4892 -1.0689  0.9577
  732TMC3    H110876   1.527   4.705  12.357  0.7024 -1.2921 -0.3483
  732TMC3    H210877   1.373   0.057  11.967  0.5052 -1.0340 -0.3482
  732TMC3    C710878   1.560   0.115  12.160 -0.5264 -0.2850 -0.3040
  732TMC3    C810879   1.221   4.597  11.947  0.7438  0.1803 -0.2010
  732TMC3    O110880   1.515   0.231  12.146 -0.1041  0.5388  0.0440
  732TMC3    O210881   1.279   4.636  11.845 -0.1063 -0.2083 -0.5116
  733TMC3    C110882   1.571   2.192  13.274  0.1605 -0.5537  0.1848
  733TMC3    C210883   1.699   2.126  13.282 -0.7820  0.3069 -0.5732
  733TMC3    C310884   1.772   2.107  13.171 -0.1046  0.2001  0.3036
  733TMC3    C410885   1.518   2.215  13.151 -0.0066 -0.0223  0.0559
  733TMC3    C510886   1.595   2.197  13.033 -0.0824  0.2209  0.0243
  733TMC3    C610887   1.724   2.150  13.049  0.1593  0.0085  0.0782
  733TMC3     C10888   1.568   2.319  13.346  0.6620 -0.8380  0.3869
  733TMC3     O10889   1.566   2.423  13.277  0.6496 -0.1533 -0.3488
  733TMC3     H10890   1.758   2.130  13.374 -3.2190 -0.1893  1.0031
  733TMC3    H110891   1.428   2.275  13.152  0.4589  0.7093 -2.5031
  733TMC3    H210892   1.789   2.140  12.962 -0.7513  1.6260 -0.7862
  733TMC3    C710893   1.576   2.293  12.927  0.0876  0.2424  0.2508
  733TMC3    C810894   1.918   2.110  13.174  0.1059  0.1638 -0.6217
  733TMC3    O110895   1.482   2.281  12.849 -0.0406  0.5173  1.0188
  733TMC3    O210896   1.974   2.002  13.166  0.3267 -0.0209  0.2241
  734MPD2     C10897   4.191   0.820  12.594  0.0372 -0.4257  0.9555
  734MPD2    C110898   4.058   0.803  12.570 -0.4099  0.3417  0.3177
  734MPD2    C210899   4.011   0.826  12.445 -0.2349  0.2772 -0.3493
  734MPD2    C310900   4.099   0.862  12.346 -0.0189 -0.5092  0.7961
  734MPD2    C410901   4.233   0.865  12.373  0.3921  0.0737  0.1780
  734MPD2    C510902   4.279   0.860  12.497  0.2265 -0.2064  0.5929
  734MPD2     H10903   3.905   0.818  12.421 -0.5242 -1.2411  1.4528
  734MPD2    H110904   4.300   0.902  12.296  0.3312  1.5343  0.8257
  734MPD2    H210905   4.231   0.787  12.689 -3.1785 -0.3182  2.3585
  734MPD2    H310906   4.385   0.871  12.518  0.6894  2.8861 -3.3108
  734MPD2     N10907   4.052   0.873  12.216 -0.3663  0.6787 -0.0864
  734MPD2    H510908   3.959   0.844  12.190  0.5085 -2.8666  0.6244
  734MPD2    N110909   3.974   0.741  12.666 -0.1942 -0.5475 -0.0333
  734MPD2    H710910   4.020   0.700  12.747 -0.3618 -0.1581  0.2666
  735TMC3    C110911   3.776   0.620  12.731 -0.3659  0.0801 -0.1051
  735TMC3    C210912   3.641   0.614  12.700  0.3257  0.4486 -0.6520
  735TMC3    C310913   3.584   0.491  12.683 -0.0552 -0.1274 -0.4781
  735TMC3    C410914   3.846   0.502  12.760  0.0198 -0.7675  0.4539
  735TMC3    C510915   3.790   0.380  12.739 -0.6434  0.3260 -0.0439
  735TMC3    C610916   3.653   0.370  12.707 -0.0286  0.6245 -0.5619
  735TMC3     C10917   3.833   0.727  12.656 -0.2144 -0.9993  0.9932
  735TMC3     O10918   3.753   0.785  12.580  0.3036  0.0766  0.4263
  735TMC3     H10919   3.582   0.705  12.699 -0.0983  0.1623 -1.5339
  735TMC3    H110920   3.954   0.506  12.764  0.0329  0.1969 -1.0718
  735TMC3    H210921   3.604   0.274  12.694  0.8423  0.0703  0.3351
  735TMC3    C710922   3.884   0.275  12.703 -0.1478  0.1075 -0.5573
  735TMC3    C810923   3.509   0.480  12.560 -0.4503  0.4420  0.1788
  735TMC3    O110924   3.993   0.315  12.663  0.0153 -0.3269  0.2408
  735TMC3    O210925   3.466   0.371  12.532 -0.3624 -0.7100  0.0131
  736MPD2     C10926   3.858   4.644  12.681 -0.1193 -0.4549 -0.0406
  736MPD2    C110927   3.906   0.027  12.654  0.2600  0.7151  0.7509
  736MPD2    C210928   4.015   0.034  12.569 -0.1654  0.1485  0.5540
  736MPD2    C310929   4.070   4.662  12.512 -0.3156  0.1737 -0.2771
  736MPD2    C410930   4.004   4.538  12.529 -0.6638  0.1683  0.1717
  736MPD2    C510931   3.909   4.534  12.621 -0.2112 -0.3952  0.1002
  736MPD2     H10932   4.060   0.127  12.537  0.7877  0.3357  2.4934
  736MPD2    H110933   4.038   4.452  12.471  2.7747 -0.3017  2.8566
  736MPD2    H210934   3.770   4.643  12.744 -0.5962  2.6583 -0.7001
  736MPD2    H310935   3.856   4.442  12.642 -0.6798  0.1109  1.1417
  736MPD2     N10936   4.178   4.663  12.415  0.4218 -0.1749 -0.4209
  736MPD2    H510937   4.207   4.572  12.382 -1.7376 -1.2579  0.6734
  736MPD2    N110938   3.840   0.146  12.704  0.4108 -0.8081  0.4256
  736MPD2    H710939   3.757   0.129  12.759  0.0328 -4.0968 -1.2011
  737TMC3    C110940   4.357   0.006  12.295 -0.0866  0.4907 -0.4619
  737TMC3    C210941   4.379   0.129  12.235 -0.2303 -0.0122  0.0066
  737TMC3    C310942   4.440   0.121  12.114  0.7911 -0.2637 -0.6285
  737TMC3    C410943   4.403   4.626  12.246  0.6409 -0.3719  0.0194
  737TMC3    C510944   4.471   4.629  12.132  0.4579  0.9061  0.7848
  737TMC3    C610945   4.488   0.002  12.062  0.6449  0.0134 -0.5417
  737TMC3     C10946   4.268   0.025  12.405 -0.5012 -0.3052  0.3916
  737TMC3     O10947   4.275   0.137  12.460 -0.0056  0.3281 -0.4925
  737TMC3     H10948   4.331   0.219  12.271 -0.3552 -0.3841  0.7842
  737TMC3    H110949   4.389   4.532  12.298 -2.1560 -1.3367 -2.4969
  737TMC3    H210950   4.533   0.005  11.964 -1.5600 -0.8262 -1.5938
  737TMC3    C710951   4.540   4.502  12.093 -0.0955  1.1051 -0.4327
  737TMC3    C810952   4.431   0.230  12.013  0.1045  0.2675  0.5067
  737TMC3    O110953   4.527   4.411  12.174  0.0220  0.5404  0.2166
  737TMC3    O210954   4.451   0.205  11.896 -1.0448 -0.0955  0.0849
  738MPD2     C10955   0.032   4.134  15.688  0.4304  0.8391  0.2101
  738MPD2    C110956   0.029   4.030  15.594 -0.5252  0.2396  0.4968
  738MPD2    C210957   0.110   4.046  15.486  0.0129  0.2435  0.2725
  738MPD2    C310958   0.189   4.153  15.466 -0.2729  0.0747  0.0120
  738MPD2    C410959   0.189   4.254  15.556  0.4177  0.6927  0.5956
  738MPD2    C510960   0.115   4.245  15.674 -0.3420 -0.0369  1.4282
  738MPD2     H10961   0.117   3.967  15.412 -1.4211  0.0123  0.3829
  738MPD2    H110962   0.256   4.337  15.541  0.9492 -0.0790 -1.3211
  738MPD2    H210963   4.698   4.132  15.766  0.8871  2.0659  0.6895
  738MPD2    H310964   0.111   4.323  15.750 -0.8198  0.8839  0.4585
  738MPD2     N10965   0.273   4.168  15.362  0.2648 -0.2745 -0.3095
  738MPD2    H510966   0.320   4.258  15.354  0.6941 -0.5120 -0.4455
  738MPD2    N110967   4.664   3.937  15.597 -0.0293  1.0909 -0.2815
  738MPD2    H710968   4.659   3.867  15.524  1.0470 -0.5525  1.2229
  739TMC3    C110969   0.416   4.108  15.179 -0.1141 -0.3187 -0.9681
  739TMC3    C210970   0.391   4.225  15.116 -0.4901  0.0741 -0.0176
  739TMC3    C310971   0.479   4.252  15.018 -0.5124  0.5873 -0.1531
  739TMC3    C410972   0.520   4.025  15.144 -0.2289 -0.5441 -1.0628
  739TMC3    C510973   0.612   4.066  15.049 -0.0357 -0.3483 -0.5503
  739TMC3    C610974   0.596   4.182  14.988  0.1830 -0.9657  0.6713
  739TMC3     C10975   0.320   4.067  15.280  0.4569  0.0306 -0.1200
  739TMC3     O10976   0.305   3.948  15.290  0.0647 -0.0523 -1.0400
  739TMC3     H10977   0.300   4.283  15.128 -0.8246 -0.6025  0.8059
  739TMC3    H110978   0.544   3.938  15.204  0.9944  0.5307  0.0288
  739TMC3    H210979   0.664   4.233  14.920  0.6767 -1.8454  0.5081
  739TMC3    C710980   0.747   4.024  15.057 -0.4106  0.4609 -0.2141
  739TMC3    C810981   0.444   4.362  14.938  0.3556 -0.6458 -0.5531
  739TMC3    O110982   0.836   4.108  15.076 -0.2802 -0.0411 -0.2657
  739TMC3    O210983   0.390   4.453  15.002  0.4044 -0.0440  0.7090
  740TMC3    C110984   0.653   0.448  14.670  1.1412 -0.6917 -0.7566
  740TMC3    C210985   0.714   0.406  14.784  0.3567 -0.5573  0.1202
  740TMC3    C310986   0.852   0.423  14.803  0.3558  0.0369 -0.3080
  740TMC3    C410987   0.739   0.488  14.568 -0.2854  0.0049 -0.7015
  740TMC3    C510988   0.874   0.491  14.588  0.2961  0.3951  0.8850
  740TMC3    C610989   0.929   0.474  14.710 -0.1767 -0.1281 -0.3333
  740TMC3     C10990   0.518   0.505  14.666  0.3987  0.2433 -0.3035
  740TMC3     O10991   0.493   0.588  14.581 -0.3878 -0.0523 -0.5870
  740TMC3     H10992   0.649   0.370  14.863  1.8540 -0.0871  1.5764
  740TMC3    H110993   0.703   0.526  14.473  0.4164  1.5656 -0.3427
  740TMC3    H210994   1.035   0.489  14.730 -0.3295 -1.2049  1.3251
  740TMC3    C710995   0.963   0.575  14.507 -0.3964 -0.5508  0.1535
  740TMC3    C810996   0.912   0.395  14.926  0.4339  0.1892  0.2007
  740TMC3    O110997   1.028   0.659  14.570 -0.0935 -0.4252 -0.5153
  740TMC3    O210998   1.014   0.454  14.962 -0.4204  0.0267  0.3511
  741TMC3    C110999   4.568   0.012  13.880 -0.0202  0.3462  1.0180
  741TMC3    C211000   4.504   4.635  13.882  0.8373  0.0472 -0.2023
  741TMC3    C311001   4.542   4.543  13.974  0.5918  0.4323 -0.4331
  741TMC3    C411002   4.675   0.044  13.962  0.0880 -0.2832 -0.8568
  741TMC3    C511003   4.717   4.686  14.043 -0.0884  0.1108 -0.2175
  741TMC3    C611004   4.651   4.566  14.055 -0.2715  0.2321 -0.4447
  741TMC3     C11005   4.537   0.107  13.780  0.0486  0.1932 -0.7957
  741TMC3     O11006   4.602   0.213  13.773  0.4309  0.1638 -0.3439
  741TMC3     H11007   4.434   4.607  13.804  1.2996 -0.8566 -0.2873
  741TMC3    H111008   4.726   0.140  13.955  0.1492 -0.4120 -2.1720
  741TMC3    H211009   4.680   4.503  14.139  0.9927 -1.0049 -1.8218
  741TMC3    C711010   0.068   4.719  14.146  0.1459 -0.1384  0.1472
  741TMC3    C811011   4.442   4.440  14.002  0.2082 -0.7935  0.0053
  741TMC3    O111012   0.148   4.633  14.177  0.2731  0.9167  0.8633
  741TMC3    O211013   4.354   4.435  13.917 -0.4087 -0.2091 -0.4889
  742TMC3    C111014   0.090   3.099  15.434 -1.0273  0.1262 -0.3021
  742TMC3    C211015   0.015   3.080  15.323 -0.2295  0.1305  1.0246
  742TMC3    C311016   0.072   3.053  15.203  0.0550 -0.1165  0.5236
  742TMC3    C411017   0.228   3.091  15.429 -0.5245  0.0509 -0.1364
  742TMC3    C511018   0.285   3.066  15.301  0.2343 -0.4134 -0.0249
  742TMC3    C611019   0.205   3.040  15.195  0.1952  0.4167 -0.4789
  742TMC3     C11020   0.022   3.138  15.554 -0.0369 -0.0697 -0.3917
  742TMC3     O11021   4.641   3.152  15.543  0.3362 -0.3422  0.4552
  742TMC3     H11022   4.657   3.041  15.340 -0.7455 -0.1804 -2.7007
  742TMC3    H111023   0.295   3.091  15.514  1.8922  2.4055 -2.0254
  742TMC3    H211024   0.252   3.039  15.098 -0.0823 -1.1546 -0.5982
  742TMC3    C711025   0.424   3.036  15.280 -0.4087  0.1191 -0.7374
  742TMC3    C811026   4.739   3.006  15.089  0.0136  0.9309  0.0843
  742TMC3    O111027   0.452   2.980  15.174 -0.2293 -0.7264  0.6607
  742TMC3    O211028   0.058   2.983  14.986 -0.2444  0.3612 -0.7000
  743MPD2     C11029   3.422   0.983   1.714 -0.4648  0.3054  0.0324
  743MPD2    C111030   3.487   0.873   1.667 -0.4602  0.1574  0.3374
  743MPD2    C211031   3.614   0.843   1.709  0.5140  0.6978 -0.1599
  743MPD2    C311032   3.684   0.918   1.809  0.0845 -0.1375 -0.0901
  743MPD2    C411033   3.616   1.020   1.859  0.2940  0.0753  0.3252
  743MPD2    C511034   3.488   1.055   1.814  0.2640 -0.2235  0.9457
  743MPD2     H11035   3.665   0.755   1.671 -0.6415  1.4130 -3.3188
  743MPD2    H111036   3.651   1.076   1.945  2.1989  0.1183 -0.4880
  743MPD2    H211037   3.330   1.020   1.669  1.0044  1.1405 -2.2810
  743MPD2    H311038   3.432   1.130   1.869  0.1817  0.7623 -0.4976
  743MPD2     N11039   3.813   0.875   1.859  0.2314  0.0339  0.1932
  743MPD2    H511040   3.854   0.793   1.817 -0.7373  0.3325 -1.3256
  743MPD2    N111041   3.417   0.798   1.570 -0.0877 -0.1538  0.7626
  743MPD2    H711042   3.322   0.832   1.554 -1.1329 -2.5956  1.7846
  744TMC3    C111043   3.351   0.637   1.409  0.3928 -0.2794 -0.4361
  744TMC3    C211044   3.229   0.697   1.393 -0.3116  0.3575  0.4048
  744TMC3    C311045   3.133   0.645   1.306 -0.3833  0.0921 -0.8490
  744TMC3    C411046   3.376   0.512   1.345 -0.0246 -0.1926 -0.8928
  744TMC3    C511047   3.278   0.456   1.273  0.5342  0.3826  0.3690
  744TMC3    C611048   3.155   0.524   1.253 -0.6465  0.3298  1.0127
  744TMC3     C11049   3.456   0.694   1.488  0.5073 -0.4528  0.2359
  744TMC3     O11050   3.564   0.640   1.478  0.0590 -0.3776 -0.2225
  744TMC3     H11051   3.222   0.803   1.415  1.2703  0.5545 -0.0436
  744TMC3    H111052   3.472   0.461   1.350 -0.4722 -1.0849 -1.4447
  744TMC3    H211053   3.084   0.479   1.184  0.3291  0.9436 -0.3918
  744TMC3    C711054   3.303   0.340   1.190 -0.4621  0.0065  0.3135
  744TMC3    C811055   2.993   0.692   1.311 -0.1383  0.1637  0.3370
  744TMC3    O111056   3.411   0.325   1.137 -0.1620  1.0779 -0.1151
  744TMC3    O211057   2.920   0.610   1.252  0.4309 -0.6014  0.3091
  745TMC3    C111058   0.691   2.488  13.859  0.4044 -0.6309 -0.0911
  745TMC3    C211059   0.566   2.466  13.904 -0.2907  0.5560  0.0535
  745TMC3    C311060   0.458   2.489  13.826  0.1184  0.0112 -0.3962
  745TMC3    C411061   0.712   2.528  13.730  0.0667  0.3285 -0.1622
  745TMC3    C511062   0.600   2.541  13.647 -0.2274 -0.2892  0.1462
  745TMC3    C611063   0.472   2.532  13.697 -0.0948 -0.2350  0.0520
  745TMC3     C11064   0.764   2.564  13.947 -0.0415 -0.8729 -0.2772
  745TMC3     O11065   0.700   2.614  14.037  0.2453  0.5745 -0.0971
  745TMC3     H11066   0.554   2.413  13.998 -0.6941 -1.3783 -1.0801
  745TMC3    H111067   0.813   2.545  13.695  0.2600  0.3531  0.4096
  745TMC3    H211068   0.383   2.564  13.644 -0.0303  0.3754  0.3132
  745TMC3    C711069   0.623   2.561  13.503  0.5126 -0.1474 -0.9932
  745TMC3    C811070   0.353   2.560  13.900 -1.0847  0.0380 -0.7558
  745TMC3    O111071   0.527   2.549  13.425  0.2345  0.1081 -0.5166
  745TMC3    O211072   0.261   2.607  13.837 -0.0065  0.8691 -0.3334
  746TMC3    C111073   2.306   4.243  11.231 -0.4648  0.5046 -0.8289
  746TMC3    C211074   2.412   4.185  11.294  0.0395 -0.1697  0.6752
  746TMC3    C311075   2.482   4.089  11.231  0.7855 -0.5550  0.1769
  746TMC3    C411076   2.246   4.190  11.122 -0.0883  0.6036  0.1350
  746TMC3    C511077   2.300   4.068  11.086  0.0143  0.2584  0.0165
  746TMC3    C611078   2.420   4.022  11.127 -0.3108 -0.1617 -1.2880
  746TMC3     C11079   2.326   4.388  11.225 -0.0483  0.0595  0.4489
  746TMC3     O11080   2.346   4.460  11.321  0.2792  0.5566  0.1691
  746TMC3     H11081   2.458   4.231  11.380  0.0797  1.0380 -0.0004
  746TMC3    H111082   2.162   4.235  11.071  0.2196  0.0604 -0.8502
  746TMC3    H211083   2.467   3.937  11.079 -0.2630 -1.2132  0.6294
  746TMC3    C711084   2.267   4.024  10.952  0.7781  0.2143 -0.0190
  746TMC3    C811085   2.619   4.131  11.192 -0.4373 -0.0619  0.6163
  746TMC3    O111086   2.355   3.976  10.883  0.2164 -0.3251 -0.4525
  746TMC3    O211087   2.652   4.101  11.079  0.3714 -0.8000  0.5104
  747TMC3    C111088   0.094   4.478  11.114 -0.2003  0.2673 -0.0066
  747TMC3    C211089   0.060   4.393  11.216  0.2872 -0.4153  0.0405
  747TMC3    C311090   0.129   4.397  11.334  0.2786  0.0129 -0.4693
  747TMC3    C411091   0.204   4.560  11.121  0.0587  0.0600 -0.5200
  747TMC3    C511092   0.265   4.563  11.243  0.6195 -0.6553  1.0554
  747TMC3    C611093   0.234   4.486  11.350  0.3293  0.3848 -0.4422
  747TMC3     C11094   0.059   4.440  10.973  1.1063  0.2118  0.1808
  747TMC3     O11095   0.032   4.322  10.953  0.6077 -0.0161 -0.0695
  747TMC3     H11096   4.714   4.333  11.195 -1.0535  0.3576  3.4811
  747TMC3    H111097   0.241   4.611  11.032  0.1570 -1.9288 -1.6132
  747TMC3    H211098   0.306   4.485  11.431  0.5129 -1.0432 -0.6206
  747TMC3    C711099   0.395   4.636  11.247  0.1807  0.5536  0.1700
  747TMC3    C811100   0.066   4.332  11.445 -0.4122  0.5393  0.7372
  747TMC3    O111101   0.438   4.667  11.355 -0.0979  0.0631  0.8406
  747TMC3    O211102   4.738   4.236  11.418 -0.0609  0.5921  0.2099
  748MPD2     C11103   1.824   1.063   1.171 -0.0873  0.1111 -0.4862
  748MPD2    C111104   1.877   0.976   1.082  0.7521 -0.9984 -0.1845
  748MPD2    C211105   2.014   0.975   1.062  0.1605 -0.7947  0.1252
  748MPD2    C311106   2.096   1.065   1.132  0.2820 -0.6496 -0.1333
  748MPD2    C411107   2.039   1.162   1.216  0.4669  0.3928  0.8848
  748MPD2    C511108   1.906   1.154   1.230 -0.6352  0.1248  1.0496
  748MPD2     H11109   2.053   0.915   0.980 -0.0278  1.2192 -1.4478
  748MPD2    H111110   2.091   1.243   1.266  1.0867  0.2886  0.4138
  748MPD2    H211111   1.719   1.054   1.198  0.5918 -0.5708  1.9717
  748MPD2    H311112   1.849   1.215   1.300 -1.3123 -0.6645  1.1899
  748MPD2     N11113   2.236   1.057   1.119  0.1082 -0.7593  0.0014
  748MPD2    H511114   2.277   0.999   1.045 -0.3740 -0.2034 -0.7001
  748MPD2    N111115   1.788   0.893   1.018 -0.0692  0.1801  0.0682
  748MPD2    H711116   1.689   0.911   1.022  0.5732  3.2387  1.9101
  749TMC3    C111117   2.462   1.134   1.144 -0.3283 -0.3603  0.2973
  749TMC3    C211118   2.567   1.117   1.242 -0.1858  0.4037 -0.7391
  749TMC3    C311119   2.693   1.111   1.185  0.3249  0.0427 -0.3773
  749TMC3    C411120   2.474   1.155   1.011 -1.1516  0.1108 -0.4752
  749TMC3    C511121   2.604   1.173   0.970  0.1880 -0.0326 -0.0736
  749TMC3    C611122   2.711   1.156   1.058 -0.2161 -0.0848 -0.4678
  749TMC3     C11123   2.332   1.122   1.203  0.5027 -0.2959  0.0781
  749TMC3     O11124   2.321   1.169   1.318  0.2800 -0.0627 -0.0328
  749TMC3     H11125   2.550   1.093   1.346 -1.8357 -2.7350 -1.7342
  749TMC3    H111126   2.386   1.171   0.950 -0.5031 -0.8351 -1.6659
  749TMC3    H211127   2.813   1.184   1.038 -0.2248  1.3473  1.4456
  749TMC3    C711128   2.631   1.276   0.877 -0.0269  0.1579  0.4474
  749TMC3    C811129   2.797   1.134   1.275  0.4361 -0.6487  0.2523
  749TMC3    O111130   2.753   1.286   0.854 -0.0700  0.5587  0.5566
  749TMC3    O211131   2.767   1.195   1.379 -0.9595  0.4650  0.8332
  750MPD2     C11132   2.799   1.286  11.616 -0.1565 -0.1550 -0.0695
  750MPD2    C111133   2.665   1.265  11.611 -0.0922 -0.2283 -0.4353
  750MPD2    C211134   2.624   1.181  11.511 -0.1133  0.3015 -0.3410
  750MPD2    C311135   2.703   1.111  11.424 -0.0436 -0.2069 -0.9449
  750MPD2    C411136   2.839   1.126  11.437  1.3114  1.0552  0.1444
  750MPD2    C511137   2.882   1.215  11.531 -0.1049 -0.7512 -0.2313
  750MPD2     H11138   2.517   1.165  11.504 -0.1398  0.2023  0.3412
  750MPD2    H111139   2.907   1.073  11.371  2.1850  0.7629  1.3000
  750MPD2    H211140   2.846   1.353  11.686  0.9583  1.3440 -2.2329
  750MPD2    H311141   2.990   1.224  11.539  0.0772 -3.1073 -0.0370
  750MPD2     N11142   2.649   1.044  11.311  0.4065  0.4232  0.0673
  750MPD2    H511143   2.710   1.050  11.230 -1.2491 -1.1166 -1.2806
  750MPD2    N111144   2.585   1.325  11.709 -0.1650 -0.6353  0.1871
  750MPD2    H711145   2.625   1.406  11.755  3.3094 -1.7660 -0.8534
  751TMC3    C111146   2.477   0.963  11.166 -0.6497 -0.2759  0.3960
  751TMC3    C211147   2.371   0.874  11.164  0.6641 -0.8024  0.2789
  751TMC3    C311148   2.344   0.809  11.050 -0.5610  0.1132 -0.5431
  751TMC3    C411149   2.554   0.993  11.057  0.0660 -0.3612  0.3887
  751TMC3    C511150   2.537   0.909  10.952 -0.0402 -0.0137 -0.6671
  751TMC3    C611151   2.428   0.818  10.943 -0.2444 -0.6177  0.2696
  751TMC3     C11152   2.518   0.998  11.305 -0.5886  0.5895 -0.1955
  751TMC3     O11153   2.451   0.961  11.401  0.2649 -0.8225  0.5364
  751TMC3     H11154   2.298   0.865  11.244 -0.8625 -1.3137 -1.1567
  751TMC3    H111155   2.628   1.072  11.054 -0.9303  0.6162  1.2449
  751TMC3    H211156   2.413   0.753  10.858 -1.3472 -1.1333  0.8539
  751TMC3    C711157   2.632   0.925  10.843 -0.3630 -0.3157 -0.4979
  751TMC3    C811158   2.260   0.688  11.057 -0.4403  0.9153  0.7322
  751TMC3    O111159   2.727   0.999  10.868 -0.4656  0.1525 -0.1229
  751TMC3    O211160   2.273   0.619  10.957  0.5351  0.3533 -0.2147
  752TMC3    C111161   1.374   1.623  17.390 -0.2645 -0.2345 -0.6646
  752TMC3    C211162   1.358   1.495  17.432  0.6853 -0.6733  0.4205
  752TMC3    C311163   1.246   1.461  17.506 -0.2395  0.2739  0.1009
  752TMC3    C411164   1.295   1.729  17.435  0.0134 -0.0882 -0.1933
  752TMC3    C511165   1.194   1.689  17.514  0.1267  0.3263 -0.2096
  752TMC3    C611166   1.164   1.556  17.545  0.2247  0.7023  0.8385
  752TMC3     C11167   1.470   1.653  17.283  0.3707 -0.4157 -0.0317
  752TMC3     O11168   1.573   1.588  17.289 -0.5865 -1.0904  0.3498
  752TMC3     H11169   1.412   1.412  17.387 -2.9731 -1.5332 -2.3577
  752TMC3    H111170   1.316   1.829  17.401 -1.1140  0.3738  0.4940
  752TMC3    H211171   1.082   1.533  17.612 -0.2424  0.3504  0.1485
  752TMC3    C711172   1.128   1.792  17.597  0.0750 -0.6344 -0.4709
  752TMC3    C811173   1.223   1.319  17.527  0.1620  1.0496  0.0301
  752TMC3    O111174   1.024   1.771  17.655 -0.9696  0.4528  0.5414
  752TMC3    O211175   1.308   1.239  17.492  0.0799 -0.0886  0.0260
  753TMC3    C111176   3.736   2.971  13.664 -0.1680  0.3874  0.3841
  753TMC3    C211177   3.774   2.944  13.792 -0.2626 -0.2745 -0.3519
  753TMC3    C311178   3.823   2.813  13.813  0.0120 -1.0801 -0.3465
  753TMC3    C411179   3.732   2.883  13.567  0.0055  0.0816  0.4527
  753TMC3    C511180   3.766   2.753  13.594  0.2245 -0.1813  0.7900
  753TMC3    C611181   3.814   2.719  13.716  0.4332 -0.2768 -0.7051
  753TMC3     C11182   3.671   3.097  13.638  0.0670 -0.1003  0.1805
  753TMC3     O11183   3.605   3.105  13.534 -0.1848 -0.4140  0.2835
  753TMC3     H11184   3.772   3.023  13.866  2.9154  1.5766 -2.2217
  753TMC3    H111185   3.688   2.904  13.470 -0.2484  0.8427  0.7333
  753TMC3    H211186   3.836   2.616  13.742  2.1397 -0.0721 -1.3163
  753TMC3    C711187   3.798   2.661  13.488  0.0438 -0.1052 -0.2258
  753TMC3    C811188   3.918   2.781  13.918  0.4490  0.0733 -0.0983
  753TMC3    O111189   3.764   2.544  13.505 -0.4109  0.6619 -0.1550
  753TMC3    O211190   3.996   2.692  13.890 -0.2280  0.5661  0.2624
  754MPD2     C11191   2.510   0.983  12.985 -0.4861 -0.3514 -0.4046
  754MPD2    C111192   2.398   0.926  13.051 -0.4444 -0.0859  0.0149
  754MPD2    C211193   2.274   0.992  13.040 -0.4269 -0.0015  0.1205
  754MPD2    C311194   2.268   1.112  12.970  0.1704  0.0915 -0.2899
  754MPD2    C411195   2.378   1.166  12.910 -1.0250 -0.5273 -0.4884
  754MPD2    C511196   2.505   1.105  12.925  0.4209 -0.0780 -0.2292
  754MPD2     H11197   2.185   0.962  13.094  0.8219  1.4534  2.9663
  754MPD2    H111198   2.367   1.262  12.861  0.7494  1.1008  2.2906
  754MPD2    H211199   2.611   0.945  12.991 -0.2068  0.3512 -0.6750
  754MPD2    H311200   2.591   1.158  12.887  0.0050 -0.5074 -1.7749
  754MPD2     N11201   2.138   1.174  12.951 -0.1385 -0.2049 -0.1078
  754MPD2    H511202   2.060   1.122  12.990  1.1945 -1.8905  0.3062
  754MPD2    N111203   2.419   0.822  13.140  0.1553  0.0875 -0.1987
  754MPD2    H711204   2.512   0.785  13.153  0.0760 -0.3623 -0.8993
  755MPD2     C11205   1.893   1.521  13.609  0.3490 -0.1814  0.1764
  755MPD2    C111206   1.788   1.445  13.567  0.0906 -0.0369  0.3811
  755MPD2    C211207   1.767   1.440  13.430  0.4426  0.1180  0.2303
  755MPD2    C311208   1.860   1.496  13.343  0.0407 -0.6017 -0.7865
  755MPD2    C411209   1.976   1.562  13.395 -0.9607 -0.1312  0.1288
  755MPD2    C511210   1.991   1.568  13.528  0.2114 -0.3256 -0.5246
  755MPD2     H11211   1.686   1.379  13.392  0.0948  0.0234  1.0992
  755MPD2    H111212   2.055   1.599  13.331 -0.8287  1.6851  1.3628
  755MPD2    H211213   1.898   1.533  13.716  0.0354  2.1209 -0.0697
  755MPD2    H311214   2.075   1.625  13.567 -1.3258  0.0357  2.2224
  755MPD2     N11215   1.851   1.478  13.204  0.5181 -0.3314  0.0292
  755MPD2    H511216   1.937   1.493  13.152  0.7056  0.6182  0.5967
  755MPD2    N111217   1.706   1.375  13.652 -0.1969  0.0749  0.7907
  755MPD2    H711218   1.617   1.344  13.614  0.9963 -1.2006 -1.0109
  756MPD2     C11219   1.708   2.467   9.930  0.0555  0.3515 -0.0279
  756MPD2    C111220   1.677   2.399  10.053 -0.1794 -0.4827  0.3049
  756MPD2    C211221   1.551   2.340  10.046 -0.3415  0.3574  0.2260
  756MPD2    C311222   1.467   2.359   9.945 -0.4887  0.2119  0.8822
  756MPD2    C411223   1.504   2.422   9.832 -0.0460  0.7879  0.8122
  756MPD2    C511224   1.626   2.479   9.826  0.7129  0.0957  0.5042
  756MPD2     H11225   1.526   2.272  10.127  0.6245  0.9411  1.0125
  756MPD2    H111226   1.438   2.427   9.747 -1.4589 -0.7638  1.8074
  756MPD2    H211227   1.808   2.504   9.908  0.0130  0.6247  0.2319
  756MPD2    H311228   1.661   2.525   9.734 -0.8266 -0.8430 -0.5433
  756MPD2     N11229   1.340   2.305   9.963 -0.0473  0.3887  0.3941
  756MPD2    H511230   1.319   2.257  10.050  2.4131  0.0043  0.7755
  756MPD2    N111231   1.758   2.392  10.168 -0.1323 -0.3546 -1.1725
  756MPD2    H711232   1.736   2.330  10.245  2.0746  0.9238  0.4627
  757MPD2     C11233   1.210   1.567  10.300 -0.1764 -0.3159  0.7806
  757MPD2    C111234   1.310   1.660  10.279  0.3848  0.2756  0.2736
  757MPD2    C211235   1.268   1.788  10.227  0.2922 -0.2792  0.2371
  757MPD2    C311236   1.142   1.812  10.200 -0.6422 -0.3126 -0.2210
  757MPD2    C411237   1.041   1.729  10.244  0.0626 -0.6467  0.4550
  757MPD2    C511238   1.080   1.606  10.299 -0.1432  0.3864  0.2614
  757MPD2     H11239   1.348   1.855  10.199 -1.0320  1.2130  0.0182
  757MPD2    H111240   0.939   1.764  10.256 -0.1705 -0.6812 -1.4964
  757MPD2    H211241   1.235   1.468  10.336  2.0174 -0.5757 -1.4598
  757MPD2    H311242   1.013   1.539  10.352  2.4695 -1.3256  1.3641
  757MPD2     N11243   1.116   1.930  10.132 -0.4340  0.0217 -0.2003
  757MPD2    H511244   1.188   2.001  10.130 -3.1698  2.7893 -0.0119
  757MPD2    N111245   1.447   1.618  10.287 -0.4156 -0.0048  0.1578
  757MPD2    H711246   1.467   1.518  10.292  0.5483  0.0748 -2.0681
  758MPD2     C11247   2.492   1.034  16.024 -0.5956  0.7261 -0.7518
  758MPD2    C111248   2.564   1.049  16.141  0.1034 -0.2585  0.1401
  758MPD2    C211249   2.498   1.108  16.251  0.2807  0.3716  0.0138
  758MPD2    C311250   2.370   1.153  16.229  0.3371 -0.3466 -0.0290
  758MPD2    C411251   2.313   1.156  16.103 -0.5913  0.0481  0.6424
  758MPD2    C511252   2.377   1.099  15.996 -0.1297 -0.6116 -0.0561
  758MPD2     H11253   2.556   1.137  16.338  0.1533 -2.3050  1.0133
  758MPD2    H111254   2.216   1.192  16.073  0.7575  0.6453 -3.0901
  758MPD2    H211255   2.528   0.977  15.939 -0.9076  1.0976 -1.1378
  758MPD2    H311256   2.332   1.093  15.897  0.2082  1.7776 -0.3508
  758MPD2     N11257   2.294   1.211  16.328  0.0166  0.9575 -0.0890
  758MPD2    H511258   2.209   1.255  16.295 -1.1918 -2.8210 -2.0472
  758MPD2    N111259   2.697   1.009  16.155  0.7029  0.4029  0.4162
  758MPD2    H711260   2.730   0.963  16.071 -0.3695 -1.6237  1.1082
  759MPD2     C11261   0.803   4.282   9.397 -0.2657 -0.3836 -0.1329
  759MPD2    C111262   0.838   4.196   9.498  0.6288  0.3790  0.3630
  759MPD2    C211263   0.968   4.146   9.493  0.1156  0.7313  0.6038
  759MPD2    C311264   1.054   4.190   9.393  0.9120 -0.3508 -0.6906
  759MPD2    C411265   1.008   4.270   9.291 -0.0596 -0.3732  0.4251
  759MPD2    C511266   0.882   4.321   9.292  0.0053  0.7865 -0.2173
  759MPD2     H11267   1.002   4.073   9.565 -1.2869 -0.4028  0.1410
  759MPD2    H111268   1.073   4.305   9.213  1.1186 -2.6305  0.3843
  759MPD2    H211269   0.707   4.330   9.406  1.1968  1.9446  2.9410
  759MPD2    H311270   0.846   4.387   9.215 -1.4322 -2.0781 -2.0139
  759MPD2     N11271   1.187   4.139   9.395  0.3285 -0.2623  0.5221
  759MPD2    H511272   1.222   4.093   9.479  0.3797 -0.5501  0.3425
  759MPD2    N111273   0.762   4.155   9.611 -0.3645  0.2007  0.0740
  759MPD2    H711274   0.805   4.079   9.662 -3.1623 -1.5973 -0.2570
  760MPD2     C11275   0.910   1.128  12.191  0.2251  0.2619  0.2132
  760MPD2    C111276   1.003   1.115  12.094  0.4716  0.9282 -0.3042
  760MPD2    C211277   1.054   0.991  12.067 -0.0992  0.1441  0.1375
  760MPD2    C311278   1.025   0.874  12.138 -0.8879 -0.0258 -0.7977
  760MPD2    C411279   0.939   0.897  12.244 -0.0237 -0.6472  0.5317
  760MPD2    C511280   0.886   1.019  12.266  0.1055 -0.2599 -0.7282
  760MPD2     H11281   1.117   0.992  11.979 -1.4730 -2.3602 -0.9039
  760MPD2    H111282   0.915   0.818  12.314  1.2916 -2.4830 -1.1045
  760MPD2    H211283   0.868   1.223  12.222  1.8701  1.3484 -0.8727
  760MPD2    H311284   0.836   1.030  12.362 -2.4247  0.6605 -2.1422
  760MPD2     N11285   1.076   0.750  12.100  0.4671  0.5757  0.2293
  760MPD2    H511286   1.039   0.671  12.151 -0.5130  1.7810  1.3806
  760MPD2    N111287   1.031   1.219  12.005 -0.2892 -0.3132 -0.3462
  760MPD2    H711288   1.095   1.196  11.929  0.5091 -4.3614  1.5533
  761MPD2     C11289   2.087   0.297  11.342  0.1566  0.0684  0.1390
  761MPD2    C111290   2.117   0.295  11.208  0.7018  0.2719 -0.6616
  761MPD2    C211291   2.158   0.412  11.152  0.0354 -0.1428  0.2469
  761MPD2    C311292   2.180   0.529  11.226  0.0007  0.0034  0.5206
  761MPD2    C411293   2.158   0.514  11.358  0.5972 -0.1412  0.0816
  761MPD2    C511294   2.114   0.404  11.415  0.0861  0.5233  0.3386
  761MPD2     H11295   2.194   0.411  11.049 -1.4285  0.1943 -0.2679
  761MPD2    H111296   2.180   0.590  11.432  0.4575  0.3458 -0.3719
  761MPD2    H211297   2.052   0.207  11.390 -0.3408  0.1341 -0.0976
  761MPD2    H311298   2.102   0.398  11.523 -1.4774 -1.0438  0.0760
  761MPD2     N11299   2.223   0.655  11.187  0.5280  0.1508  0.0744
  761MPD2    H511300   2.230   0.728  11.256  0.0561 -0.7458  1.0678
  761MPD2    N111301   2.104   0.174  11.136  0.1262  0.6629 -0.1295
  761MPD2    H711302   2.096   0.092  11.195  1.3283  0.1195 -0.7373
  762MPD2     C11303   2.275   0.043  10.383 -0.1356 -0.0424 -0.3502
  762MPD2    C111304   2.292   4.691  10.479 -0.3862 -0.5907 -0.0091
  762MPD2    C211305   2.409   4.632  10.490 -0.1240 -0.0976 -0.5360
  762MPD2    C311306   2.517   4.666  10.409  0.0590 -0.1051 -0.5542
  762MPD2    C411307   2.506   0.031  10.324  0.2921  0.5450  0.1699
  762MPD2    C511308   2.382   0.090  10.314 -0.5734  0.2490 -0.2262
  762MPD2     H11309   2.426   4.551  10.560  1.1840  0.9975  0.4060
  762MPD2    H111310   2.581   0.072  10.257 -0.4414  0.0004 -0.9810
  762MPD2    H211311   2.182   0.098  10.368 -0.9734 -0.2876  3.8622
  762MPD2    H311312   2.376   0.166  10.237  1.7112 -0.8512 -1.5173
  762MPD2     N11313   2.631   4.598  10.450 -0.4029 -0.1728  0.6606
  762MPD2    H511314   2.625   4.528  10.523 -2.1415  0.7686  1.4265
  762MPD2    N111315   2.182   4.663  10.571 -0.5230  0.4491 -0.1762
  762MPD2    H711316   2.110   4.733  10.574 -0.9389 -0.1029  3.5227
  763MPD2     C11317   4.436   1.413  16.222  0.2798  0.0269  0.4715
  763MPD2    C111318   4.309   1.470  16.197 -0.7482  0.0313 -0.9042
  763MPD2    C211319   4.281   1.606  16.227  0.3380  0.0606 -0.2280
  763MPD2    C311320   4.383   1.684  16.273  0.5693 -0.4906 -0.8885
  763MPD2    C411321   4.507   1.625  16.301 -0.3378  0.2937 -0.0512
  763MPD2    C511322   4.530   1.495  16.276  0.1057 -0.4822 -0.2332
  763MPD2     H11323   4.181   1.647  16.217  0.3087  0.2081  0.7118
  763MPD2    H111324   4.596   1.678  16.335  1.6720 -3.8251  1.1256
  763MPD2    H211325   4.463   1.312  16.191  0.0661 -1.1471  4.1266
  763MPD2    H311326   4.636   1.472  16.280  0.6092  2.0961  1.1615
  763MPD2     N11327   4.365   1.817  16.299  0.1544 -0.2494 -0.5200
  763MPD2    H511328   4.451   1.867  16.315 -0.6160  0.5867  1.0507
  763MPD2    N111329   4.208   1.392  16.137  0.4311 -0.0381  0.4814
  763MPD2    H711330   4.121   1.441  16.119  2.3993  2.4214 -2.2892
  764MPD2     C11331   2.567   3.260  17.707  0.1362 -0.2832 -0.0942
  764MPD2    C111332   2.472   3.175  17.672 -0.3004  0.4304 -0.0367
  764MPD2    C211333   2.449   3.064  17.757  0.3439  0.7057  0.6388
  764MPD2    C311334   2.517   3.040   0.106 -0.3585 -0.7129 -0.1322
  764MPD2    C411335   2.612   3.137   0.134  0.2946  0.0812  0.0824
  764MPD2    C511336   2.643   3.242   0.053  0.0827  0.5897  0.1132
  764MPD2     H11337   2.377   2.993  17.719  0.6432  1.8987 -2.1962
  764MPD2    H111338   2.672   3.137   0.225  0.0255  0.3498  0.2563
  764MPD2    H211339   2.597   3.348  17.650  1.8368  0.6151  2.1968
  764MPD2    H311340   2.717   3.319   0.072 -0.8000  1.6721 -0.8203
  764MPD2     N11341   2.485   2.930   0.186 -0.4068  0.1182  0.1649
  764MPD2    H511342   2.419   2.864   0.147  1.0676 -0.8857 -0.5981
  764MPD2    N111343   2.400   3.198  17.554 -0.4421 -0.1429  0.2042
  764MPD2    H711344   2.330   3.129  17.526  0.1838 -1.0312  0.8147
  765MPD2     C11345   2.312   0.803  16.268  0.2069  0.8062 -0.5046
  765MPD2    C111346   2.305   0.758  16.140 -0.2971 -0.2494 -0.2463
  765MPD2    C211347   2.403   0.676  16.087  0.3132  0.0271 -0.5620
  765MPD2    C311348   2.525   0.655  16.155 -0.5295 -0.2980  0.0099
  765MPD2    C411349   2.537   0.713  16.280  0.0485  0.0664  0.3572
  765MPD2    C511350   2.431   0.783  16.338 -0.3377  0.1544 -0.2475
  765MPD2     H11351   2.384   0.629  15.991 -1.0305  0.7335 -0.6462
  765MPD2    H111352   2.619   0.686  16.346  0.2931  1.1107  0.4845
  765MPD2    H211353   2.235   0.868  16.308 -1.2670 -1.5269  0.4267
  765MPD2    H311354   2.438   0.830  16.436  0.2081 -2.6263  1.0392
  765MPD2     N11355   2.630   0.598  16.079  0.1532  0.1366 -0.3962
  765MPD2    H511356   2.613   0.551  15.991 -1.3683 -0.2221  0.0987
  765MPD2    N111357   2.180   0.778  16.082  0.0484 -0.4581 -0.0938
  765MPD2    H711358   2.115   0.827  16.143 -2.0746 -1.1656 -1.7965
  766MPD2     C11359   1.642   0.695  15.410 -0.6960 -0.1092  0.5824
  766MPD2    C111360   1.777   0.695  15.446  0.1370 -0.7339  0.0547
  766MPD2    C211361   1.873   0.659  15.354  0.4566  0.0976  0.4256
  766MPD2    C311362   1.843   0.618  15.226  0.5903  0.7616 -0.0529
  766MPD2    C411363   1.709   0.621  15.189  0.0369  0.9044 -0.1361
  766MPD2    C511364   1.615   0.659  15.284 -0.2270 -0.2067 -0.3313
  766MPD2     H11365   1.978   0.647  15.379  0.6066  1.4325  0.4715
  766MPD2    H111366   1.673   0.601  15.089 -0.2558  2.0901 -0.2648
  766MPD2    H211367   1.555   0.714  15.471 -1.2796 -0.8400 -0.0235
  766MPD2    H311368   1.511   0.659  15.254  0.4927  2.0197 -2.8686
  766MPD2     N11369   1.943   0.582  15.131 -0.0200 -0.2668  0.3118
  766MPD2    H511370   1.900   0.555  15.043 -2.6033 -0.8265  1.7263
  766MPD2    N111371   1.832   0.736  15.570 -0.0920  0.0022  0.2126
  766MPD2    H711372   1.931   0.719  15.581 -0.5209 -0.4949  3.3832
  767MPD2     C11373   1.582   0.896  15.082 -0.3820 -0.0971  0.2410
  767MPD2    C111374   1.714   0.910  15.038  0.7409  0.2666 -0.3627
  767MPD2    C211375   1.754   0.882  14.909 -0.1017  0.4568 -0.7677
  767MPD2    C311376   1.658   0.835  14.827  0.3025  0.6396  0.0221
  767MPD2    C411377   1.524   0.823  14.861 -0.9031  0.4760  0.4250
  767MPD2    C511378   1.489   0.851  14.990 -0.1514  0.7176 -0.2224
  767MPD2     H11379   1.854   0.882  14.868 -0.1429 -0.1952 -0.8580
  767MPD2    H111380   1.448   0.774  14.802 -0.5856 -0.1465  0.5309
  767MPD2    H211381   1.557   0.925  15.184  1.3921 -0.1227  0.6815
  767MPD2    H311382   1.385   0.841  15.022  0.2417  0.7469  1.0893
  767MPD2     N11383   1.719   0.804  14.704 -0.2992  0.0434 -0.7239
  767MPD2    H511384   1.821   0.802  14.701 -0.2586 -0.3442  1.0321
  767MPD2    N111385   1.807   0.956  15.135 -0.1562 -0.9444  0.2806
  767MPD2    H711386   1.766   0.967  15.228 -1.7778  1.8110 -0.7755
  768MPD2     C11387   2.848   4.259  10.367 -0.2389  0.6729  0.1992
  768MPD2    C111388   2.736   4.222  10.433 -0.2695  0.1897  0.3703
  768MPD2    C211389   2.748   4.143  10.550 -0.6678  0.1958 -1.2856
  768MPD2    C311390   2.875   4.109  10.596 -0.2358  0.0254 -0.8085
  768MPD2    C411391   2.982   4.159  10.532  0.0838 -0.3444  1.5383
  768MPD2    C511392   2.967   4.220  10.411  0.0561 -0.6481  0.5829
  768MPD2     H11393   2.660   4.112  10.605  1.5376  0.4809  2.4137
  768MPD2    H111394   3.078   4.130  10.572  0.6917 -2.6130 -1.5864
  768MPD2    H211395   2.855   4.314  10.274  0.7426 -0.7711 -0.5864
  768MPD2    H311396   3.054   4.251  10.354 -1.8032 -0.3216 -2.0726
  768MPD2     N11397   2.899   4.038  10.715  0.1517  0.0639 -0.2049
  768MPD2    H511398   2.994   4.044  10.751 -0.4975  0.1988  1.5157
  768MPD2    N111399   2.603   4.246  10.390  0.0430 -0.5143  0.4969
  768MPD2    H711400   2.529   4.228  10.456 -0.2815 -1.8693 -0.2584
  769MPD2     C11401   3.485   1.951  15.187 -0.5834  0.1873 -0.1091
  769MPD2    C111402   3.497   2.086  15.175  0.2839 -0.0724  0.3706
  769MPD2    C211403   3.500   2.156  15.296 -0.3739 -0.0135  0.0984
  769MPD2    C311404   3.473   2.097  15.422  0.6701  0.1783  1.3112
  769MPD2    C411405   3.461   1.958  15.428  0.8711  0.6443  0.2279
  769MPD2    C511406   3.474   1.893  15.311 -0.1419  0.3727  0.0702
  769MPD2     H11407   3.510   2.264  15.305  0.5221 -0.1280  0.4598
  769MPD2    H111408   3.460   1.904  15.523  2.7985 -0.2178 -0.2354
  769MPD2    H211409   3.492   1.894  15.095  0.3877  0.6441 -0.3205
  769MPD2    H311410   3.474   1.786  15.329  1.4745  0.5132  0.8960
  769MPD2     N11411   3.466   2.183  15.537 -0.3953  0.3737  0.2062
  769MPD2    H511412   3.503   2.278  15.532  0.2300  0.2089  1.8212
  769MPD2    N111413   3.506   2.150  15.051 -0.1341 -0.0026  0.5550
  769MPD2    H711414   3.500   2.090  14.969 -1.6062 -1.8740  2.0473
  770MPD2     C11415   3.095   2.115  15.450  0.0879 -0.5853 -0.5072
  770MPD2    C111416   3.097   2.024  15.348 -0.2126 -0.2218  0.0847
  770MPD2    C211417   3.106   2.065  15.217 -0.2012 -0.4218 -1.6280
  770MPD2    C311418   3.109   2.200  15.183 -0.6822  0.9517 -0.5115
  770MPD2    C411419   3.109   2.291  15.287 -0.4663 -0.1398 -0.3371
  770MPD2    C511420   3.101   2.247  15.419  0.2525 -0.3829  0.6600
  770MPD2     H11421   3.119   1.995  15.135 -3.4595 -0.0086 -2.4979
  770MPD2    H111422   3.125   2.397  15.269 -3.1944  0.1964 -0.8290
  770MPD2    H211423   3.084   2.084  15.553 -1.8246  1.1052 -0.2231
  770MPD2    H311424   3.106   2.319  15.500  2.1809 -2.2536  2.1933
  770MPD2     N11425   3.134   2.230  15.049  0.7698 -0.3680  0.2640
  770MPD2    H511426   3.164   2.147  14.998  1.7555 -1.2274  2.2479
  770MPD2    N111427   3.098   1.891  15.375 -0.2886  0.0010  0.1237
  770MPD2    H711428   3.115   1.858  15.469  0.6988 -0.2686 -0.1466
  771MPD2     C11429   4.277   0.018  14.087  0.5138  0.1702  0.7103
  771MPD2    C111430   4.224   0.127  14.029 -0.4334 -0.1461  0.5309
  771MPD2    C211431   4.110   0.120  13.951  0.3562 -0.2733 -0.3045
  771MPD2    C311432   4.053   0.001  13.928  0.0566  0.0974 -0.3209
  771MPD2    C411433   4.111   4.630  13.988  0.1267 -0.2364  0.3408
  771MPD2    C511434   4.218   4.637  14.075  0.7300 -0.4675 -0.4370
  771MPD2     H11435   4.068   0.204  13.897  0.0021  1.0066  1.9298
  771MPD2    H111436   4.071   4.535  13.955  2.2109 -1.2140  0.6701
  771MPD2    H211437   4.371   0.026  14.140  1.1325 -0.0601 -0.3528
  771MPD2    H311438   4.257   4.555  14.134  1.9675 -0.2064 -0.8949
  771MPD2     N11439   3.946   0.005  13.834  0.0224 -0.1605 -0.0005
  771MPD2    H511440   3.908   0.098  13.821 -1.3596 -0.4647  1.8994
  771MPD2    N111441   4.273   0.259  14.049 -0.1765 -0.2451  0.2039
  771MPD2    H711442   4.228   0.336  14.001 -3.1572 -0.9593  1.8670
  772MPD2     C11443   3.994   0.817  13.875  0.1036 -0.2487  0.0011
  772MPD2    C111444   3.994   0.760  13.998  0.1036  0.1993 -0.4236
  772MPD2    C211445   3.880   0.718  14.060 -0.1449  0.0519  0.2039
  772MPD2    C311446   3.754   0.739  14.006 -0.1944 -0.4773 -0.0552
  772MPD2    C411447   3.756   0.802  13.881 -0.7007  0.2620 -0.6905
  772MPD2    C511448   3.876   0.843  13.821  0.5880 -0.6176 -0.1456
  772MPD2     H11449   3.879   0.665  14.154  2.2504 -0.2201  0.0701
  772MPD2    H111450   3.666   0.817  13.823  0.0921 -1.9766 -2.4712
  772MPD2    H211451   4.081   0.852  13.821 -0.8113  0.3036 -1.1161
  772MPD2    H311452   3.874   0.893  13.726 -2.9777  0.4509  0.4925
  772MPD2     N11453   3.633   0.702  14.069 -0.9942 -0.1734 -0.2650
  772MPD2    H511454   3.553   0.712  14.008 -0.4012 -0.4523 -1.0767
  772MPD2    N111455   4.110   0.707  14.063  0.0775  0.2849  0.3046
  772MPD2    H711456   4.095   0.647  14.143  1.1048 -1.1479 -0.5856
  773MPD2     C11457   3.001   1.897   0.268 -0.6715 -0.1610  0.6782
  773MPD2    C111458   2.976   1.768   0.244  0.0363 -0.8207  0.2403
  773MPD2    C211459   3.061   1.674   0.293  0.1646 -0.1855 -0.3549
  773MPD2    C311460   3.178   1.710   0.356  0.1691 -0.4996  0.2096
  773MPD2    C411461   3.201   1.841   0.377  0.4157  0.2270  0.1554
  773MPD2    C511462   3.118   1.936   0.333 -0.1582  0.6795 -0.9699
  773MPD2     H11463   3.041   1.568   0.283 -0.2093 -0.0742 -0.7761
  773MPD2    H111464   3.286   1.880   0.430  1.2229 -0.9412 -0.2759
  773MPD2    H211465   2.942   1.984   0.240 -2.0068 -2.3003 -3.0424
  773MPD2    H311466   3.133   2.043   0.343  1.6808  0.2964  0.2277
  773MPD2     N11467   3.272   1.611   0.394  0.8610 -0.6378  0.1409
  773MPD2    H511468   3.247   1.515   0.371 -2.2058  0.2039 -0.0211
  773MPD2    N111469   2.847   1.725   0.185 -0.5137 -0.1981  0.0940
  773MPD2    H711470   2.836   1.624   0.180  3.0118 -0.6920  2.0742
  774MPD2     C11471   2.029   0.057  13.826  0.0481 -0.0445 -0.7189
  774MPD2    C111472   2.158   0.081  13.856  0.4985 -0.2026  0.9134
  774MPD2    C211473   2.224   0.167  13.780 -0.4587 -0.5643  0.7343
  774MPD2    C311474   2.161   0.254  13.687  0.1197 -0.5590  0.2436
  774MPD2    C411475   2.029   0.236  13.667  0.4150 -1.5625 -0.4447
  774MPD2    C511476   1.963   0.132  13.730 -0.2002 -0.1692  1.1781
  774MPD2     H11477   2.332   0.183  13.783 -0.6726  0.5032  2.8208
  774MPD2    H111478   1.980   0.291  13.588 -0.9855 -0.4675  1.1803
  774MPD2    H211479   1.962   4.734  13.880 -2.6473  2.2135 -1.3104
  774MPD2    H311480   1.858   0.120  13.708  0.3689 -2.3447 -0.3497
  774MPD2     N11481   2.245   0.346  13.614 -0.1854  0.4514  0.5524
  774MPD2    H511482   2.346   0.335  13.614 -0.1171  1.0633 -0.5409
  774MPD2    N111483   2.217   0.018  13.966  0.1491  0.1692 -0.6174
  774MPD2    H711484   2.163   4.691  14.018 -1.9164  1.4355 -1.0876
  775MPD2     C11485   3.640   1.953  15.845  0.1558 -0.2280 -0.5449
  775MPD2    C111486   3.631   2.055  15.937 -0.0335  1.3908  0.4588
  775MPD2    C211487   3.699   2.178  15.904 -0.3438  0.7173 -0.0220
  775MPD2    C311488   3.745   2.206  15.779  0.4488 -0.3236 -0.0652
  775MPD2    C411489   3.734   2.109  15.682  0.4062  0.3767 -0.0502
  775MPD2    C511490   3.682   1.981  15.713  0.8876  0.0184  0.1829
  775MPD2     H11491   3.690   2.258  15.977  2.0713 -0.6607  1.8156
  775MPD2    H111492   3.764   2.140  15.582  0.3139  0.6542  0.0085
  775MPD2    H211493   3.596   1.859  15.875 -1.4924  0.3367 -1.1595
  775MPD2    H311494   3.691   1.911  15.630  0.6539 -1.6679  1.5915
  775MPD2     N11495   3.810   2.328  15.740 -0.0816  0.1289 -0.4383
  775MPD2    H511496   3.833   2.342  15.642 -1.3822  2.1329 -0.4566
  775MPD2    N111497   3.572   2.042  16.065  0.3420  0.2526 -0.1752
  775MPD2    H711498   3.544   1.945  16.082 -0.7066  0.0608 -3.0441
  776MPD2     C11499   2.731   1.910  11.876  0.1524 -0.3470 -0.4894
  776MPD2    C111500   2.603   1.906  11.824 -0.0315 -0.9732 -1.0480
  776MPD2    C211501   2.561   2.021  11.754 -0.2121  0.3452  1.1327
  776MPD2    C311502   2.641   2.136  11.745 -0.0684 -0.3730 -0.0775
  776MPD2    C411503   2.763   2.133  11.800  0.2089  0.7746  0.1066
  776MPD2    C511504   2.808   2.018  11.856  0.0517  0.5389  0.0510
  776MPD2     H11505   2.460   2.014  11.716  0.6084 -2.9452 -0.4880
  776MPD2    H111506   2.840   2.209  11.798  0.1830  0.6875 -3.5486
  776MPD2    H211507   2.764   1.827  11.939 -1.1826  0.5066  1.3044
  776MPD2    H311508   2.912   2.011  11.887  0.4270  1.1972 -1.0589
  776MPD2     N11509   2.603   2.253  11.673 -0.2160 -0.0385  0.1194
  776MPD2    H511510   2.668   2.330  11.664  0.7597 -0.9010 -0.1531
  776MPD2    N111511   2.525   1.785  11.833 -0.9634 -0.4622  0.5912
  776MPD2    H711512   2.572   1.715  11.889  2.6195  0.9952 -0.5287
  777MPD2     C11513   4.014   0.463   0.827 -0.4736 -0.2632  0.4032
  777MPD2    C111514   3.888   0.436   0.870 -0.1581  0.7821  0.2522
  777MPD2    C211515   3.812   0.329   0.832 -0.1443  0.5125 -0.4581
  777MPD2    C311516   3.878   0.235   0.755 -0.5307 -0.6278 -0.0515
  777MPD2    C411517   4.007   0.254   0.720 -0.3524  0.4646  0.3685
  777MPD2    C511518   4.078   0.367   0.756  0.6145  0.4905 -0.6053
  777MPD2     H11519   3.714   0.309   0.872  0.0882 -0.6537 -0.4626
  777MPD2    H111520   4.059   0.178   0.662 -0.3658 -0.0599  1.0412
  777MPD2    H211521   4.078   0.544   0.859  0.2281 -0.0087 -1.5991
  777MPD2    H311522   4.181   0.375   0.723  0.5055 -2.1674 -1.6292
  777MPD2     N11523   3.809   0.119   0.722 -0.0469  0.4793  0.0968
  777MPD2    H511524   3.712   0.113   0.751 -0.4746  1.0135 -1.2055
  777MPD2    N111525   3.828   0.538   0.951  0.0383  0.4829  0.0102
  777MPD2    H711526   3.889   0.603   1.000 -0.5008 -0.3809  1.8394
  778MPD2     C11527   3.896   4.620  15.671 -0.6409  0.6621 -0.2668
  778MPD2    C111528   3.911   4.534  15.567 -0.2169  0.3929 -1.0073
  778MPD2    C211529   4.007   4.560  15.463 -0.4942 -0.5938  0.1213
  778MPD2    C311530   4.092   4.670  15.477 -0.4083  0.8928 -0.3328
  778MPD2    C411531   4.056   0.023  15.572  1.0444  0.0323 -0.4767
  778MPD2    C511532   3.965   4.738  15.669 -0.0212 -0.4496  0.2125
  778MPD2     H11533   4.015   4.500  15.373 -0.0531  0.7767 -0.7561
  778MPD2    H111534   4.094   0.124  15.572  1.8981 -0.2947 -0.9276
  778MPD2    H211535   3.827   4.612  15.754  1.8042  0.7337  1.7721
  778MPD2    H311536   3.941   0.078  15.735  0.5458  0.8009 -1.1531
  778MPD2     N11537   4.196   4.696  15.384 -0.5626 -0.2622 -0.2036
  778MPD2    H511538   4.219   4.623  15.317 -1.1791  0.8346 -1.6321
  778MPD2    N111539   3.846   4.412  15.551  0.4154  0.5398  0.0765
  778MPD2    H711540   3.874   4.352  15.474  0.2832  0.4963  0.0619
  779MPD2     C11541   3.674   3.711  14.720  0.3424  0.2120  1.1235
  779MPD2    C111542   3.755   3.676  14.611 -0.1002  0.4612  0.4461
  779MPD2    C211543   3.741   3.746  14.492 -0.3942  0.2387 -1.1836
  779MPD2    C311544   3.668   3.862  14.489  0.0699  0.3677 -0.3715
  779MPD2    C411545   3.593   3.906  14.597 -0.1342 -0.0486 -0.2377
  779MPD2    C511546   3.595   3.825  14.708  0.5781 -0.0626 -0.4579
  779MPD2     H11547   3.803   3.720  14.407 -0.1196 -0.0273 -0.9016
  779MPD2    H111548   3.544   4.002  14.597 -2.6791 -1.3579 -3.3227
  779MPD2    H211549   3.665   3.660  14.816 -0.7652  0.0921  0.9516
  779MPD2    H311550   3.539   3.860  14.793  0.6409 -0.6083 -0.1883
  779MPD2     N11551   3.686   3.940  14.371 -0.1111 -0.2466  0.4364
  779MPD2    H511552   3.741   3.907  14.292 -0.8351  0.0310 -0.1725
  779MPD2    N111553   3.855   3.574  14.615 -0.6332  0.1057  0.5643
  779MPD2    H711554   3.916   3.577  14.534 -0.9107 -0.6660  0.3285
  780MPD2     C11555   3.766   4.104   0.934  0.8763  0.6859  0.0094
  780MPD2    C111556   3.667   4.020   0.876 -0.2243 -0.1765  0.4159
  780MPD2    C211557   3.627   4.047   0.746  0.0285 -0.2788  0.3905
  780MPD2    C311558   3.698   4.135   0.673 -0.1106  0.8594  0.6075
  780MPD2    C411559   3.787   4.226   0.732 -0.2099 -0.4234  0.0947
  780MPD2    C511560   3.823   4.211   0.866 -0.2693  0.0578  0.3056
  780MPD2     H11561   3.562   3.980   0.691 -0.3806 -1.5845  2.4162
  780MPD2    H111562   3.842   4.300   0.676 -2.1753  1.6267  0.8481
  780MPD2    H211563   3.787   4.102   1.041 -0.9042 -0.6949  0.3365
  780MPD2    H311564   3.906   4.268   0.907 -0.9401 -0.1673  1.9584
  780MPD2     N11565   3.661   4.140   0.539  0.3842  0.1719  0.4774
  780MPD2    H511566   3.585   4.079   0.509 -0.0661  1.4225 -0.9069
  780MPD2    N111567   3.613   3.919   0.951 -0.1338  0.5603  0.0886
  780MPD2    H711568   3.653   3.906   1.043  1.4216 -0.5166 -0.7347
  781MPD2     C11569   0.828   0.563  11.972 -0.5639 -0.0139  0.2974
  781MPD2    C111570   0.833   0.429  11.996  0.1012 -0.4288 -0.8224
  781MPD2    C211571   0.859   0.333  11.900  0.3584  0.8689 -0.1532
  781MPD2    C311572   0.898   0.391  11.778 -0.0801  0.5749  0.0252
  781MPD2    C411573   0.875   0.522  11.749  0.0875 -0.2558 -0.7746
  781MPD2    C511574   0.842   0.607  11.845 -0.0125 -0.1300  0.4133
  781MPD2     H11575   0.871   0.229  11.927 -0.5435  1.0017  0.7314
  781MPD2    H111576   0.886   0.561  11.648 -0.6495 -0.4865 -0.9464
  781MPD2    H211577   0.816   0.644  12.043 -0.8665  2.5319 -2.6679
  781MPD2    H311578   0.837   0.713  11.826  1.3927  0.0779  1.2064
  781MPD2     N11579   0.946   0.309  11.672  0.0974 -0.5801 -0.0873
  781MPD2    H511580   0.981   0.350  11.586 -0.7232 -1.3460 -0.7885
  781MPD2    N111581   0.828   0.382  12.132  0.4265  0.1706 -0.3493
  781MPD2    H711582   0.810   0.283  12.148 -0.2398 -0.0752 -2.6098
  782MPD2     C11583   3.047   1.561  10.681 -0.5773  0.6138  0.5259
  782MPD2    C111584   3.158   1.493  10.715  0.4688  0.5561  0.4306
  782MPD2    C211585   3.214   1.524  10.841  0.2289 -0.5010  0.2562
  782MPD2    C311586   3.161   1.621  10.923  0.1060  0.2450  1.3307
  782MPD2    C411587   3.046   1.685  10.886 -0.1148  0.3196  0.6282
  782MPD2    C511588   3.002   1.659  10.756 -0.6441  0.4530  0.4614
  782MPD2     H11589   3.307   1.474  10.864  1.6133  0.9118 -2.1605
  782MPD2    H111590   2.996   1.765  10.939 -0.0098  1.2284 -0.6478
  782MPD2    H211591   3.003   1.549  10.582  0.9801  0.5652 -0.1726
  782MPD2    H311592   2.917   1.716  10.721  0.6891  0.8725 -2.1182
  782MPD2     N11593   3.230   1.651  11.041 -0.4774 -0.1578 -0.1120
  782MPD2    H511594   3.323   1.612  11.054 -0.5195 -0.2165  0.0167
  782MPD2    N111595   3.210   1.394  10.629 -0.2002 -0.2888 -0.2703
  782MPD2    H711596   3.156   1.375  10.545 -1.8084 -1.0581  0.9533
  783MPD2     C11597   2.689   0.709  10.541  0.0748 -0.8717 -0.4319
  783MPD2    C111598   2.711   0.809  10.636 -0.5639 -0.3215 -0.1638
  783MPD2    C211599   2.834   0.873  10.625 -0.4939 -0.4941  0.5418
  783MPD2    C311600   2.923   0.853  10.524 -0.0440 -0.3773  0.6885
  783MPD2    C411601   2.898   0.749  10.434  0.1664  0.5898  0.2119
  783MPD2    C511602   2.780   0.678  10.447  0.2534 -0.3040  0.4864
  783MPD2     H11603   2.866   0.945  10.700 -1.6013  1.5004 -0.9182
  783MPD2    H111604   2.971   0.723  10.358  0.1787  1.1093  0.0454
  783MPD2    H211605   2.599   0.648  10.538  2.2663 -4.1608  0.8785
  783MPD2    H311606   2.753   0.603  10.373 -0.5656 -1.1035  1.5936
  783MPD2     N11607   3.039   0.933  10.520  0.3141 -0.0974 -0.2555
  783MPD2    H511608   3.045   1.001  10.596 -1.3441 -0.2858  0.0425
  783MPD2    N111609   2.618   0.827  10.744  0.0637 -0.1158 -0.3187
  783MPD2    H711610   2.536   0.766  10.743 -0.1249  0.1312 -0.0129
  784MPD2     C11611   1.298   2.119   0.600  0.2278 -0.7302 -0.1732
  784MPD2    C111612   1.296   2.202   0.711 -0.2726  0.4259 -0.4440
  784MPD2    C211613   1.193   2.289   0.731 -0.3473 -0.0579 -0.1217
  784MPD2    C311614   1.081   2.283   0.651  0.4350  0.4776 -0.5968
  784MPD2    C411615   1.086   2.205   0.544 -0.2785  0.5198  0.0148
  784MPD2    C511616   1.190   2.119   0.518  0.5258  0.3832 -0.4193
  784MPD2     H11617   1.193   2.354   0.818  0.9858 -0.3718  0.1184
  784MPD2    H111618   1.003   2.200   0.475  2.5872 -1.5443 -3.2586
  784MPD2    H211619   1.384   2.058   0.574 -0.8686 -1.7559 -1.3958
  784MPD2    H311620   1.192   2.061   0.426 -3.9879  0.7219 -0.7346
  784MPD2     N11621   0.971   2.365   0.670 -0.0020 -0.4605  0.4723
  784MPD2    H511622   0.985   2.443   0.733  1.1841 -0.7140  0.5152
  784MPD2    N111623   1.412   2.222   0.801  0.4568  0.0231  0.0940
  784MPD2    H711624   1.399   2.293   0.872 -0.5938  0.0082 -0.0819
  785MPD2     C11625   0.901   4.452   9.674 -0.0830  0.3327 -0.1269
  785MPD2    C111626   0.811   4.463   9.778  1.0325  0.2860  0.4055
  785MPD2    C211627   0.693   4.524   9.761  0.4538  0.5331 -0.7505
  785MPD2    C311628   0.668   4.595   9.652 -0.3807  0.4736 -0.2871
  785MPD2    C411629   0.764   4.607   9.554  0.0585  0.3120 -0.1857
  785MPD2    C511630   0.882   4.538   9.564 -0.0884 -0.1318  0.4726
  785MPD2     H11631   0.621   4.533   9.841  1.9464  0.5152  0.6112
  785MPD2    H111632   0.753   4.670   9.467 -0.1718 -0.0898 -0.4486
  785MPD2    H211633   1.002   4.416   9.687 -0.9114 -2.3988 -1.4134
  785MPD2    H311634   0.955   4.540   9.484 -2.2070 -0.5733 -1.4866
  785MPD2     N11635   0.548   4.661   9.651 -0.3672  0.0386  0.0960
  785MPD2    H511636   0.486   4.639   9.728  0.2892  0.0458  0.6339
  785MPD2    N111637   0.853   4.407   9.901  0.3685 -0.6948  0.7341
  785MPD2    H711638   0.946   4.367   9.911  0.6007 -0.4039 -0.2718
  786MPD2     C11639   4.327   2.825  14.843 -0.0374  0.2933  0.3237
  786MPD2    C111640   4.456   2.788  14.835 -0.0230  0.0813  0.8696
  786MPD2    C211641   4.545   2.844  14.927 -0.6481  0.5941 -0.6894
  786MPD2    C311642   4.510   2.942  15.017 -0.4496 -0.8024 -0.1917
  786MPD2    C411643   4.375   2.977  15.015 -0.3460 -0.3221 -0.7624
  786MPD2    C511644   4.285   2.910  14.938  0.4001  0.3996 -0.2477
  786MPD2     H11645   4.651   2.820  14.917 -1.3577 -2.2685 -1.5310
  786MPD2    H111646   4.334   3.053  15.080  1.3234 -0.5834  0.6063
  786MPD2    H211647   4.250   2.790  14.775 -0.5984 -0.9712  1.6265
  786MPD2    H311648   4.189   2.959  14.924 -0.4148 -1.0646  0.2294
  786MPD2     N11649   4.604   3.013  15.100  0.1207 -0.6764 -0.6801
  786MPD2    H511650   4.565   3.083  15.162 -0.6127 -2.6796  1.1627
  786MPD2    N111651   4.511   2.694  14.748  0.2878  0.2713 -0.5036
  786MPD2    H711652   4.601   2.649  14.760 -0.6691 -1.4357  0.4041
  787MPD2     C11653   0.267   2.334  14.908 -0.4805  0.0975 -0.5473
  787MPD2    C111654   0.229   2.278  14.789  0.0384  0.1810  1.0327
  787MPD2    C211655   0.292   2.164  14.744 -0.3080 -0.8019 -1.0805
  787MPD2    C311656   0.389   2.104  14.820  0.2434 -0.3434 -0.2102
  787MPD2    C411657   0.425   2.155  14.943  0.0661 -0.2015 -0.2925
  787MPD2    C511658   0.360   2.269  14.981  0.9212  0.6532 -0.0216
  787MPD2     H11659   0.254   2.110  14.657 -0.3049  0.3728 -1.7988
  787MPD2    H111660   0.499   2.113  15.010  0.9296  1.9688  0.0926
  787MPD2    H211661   0.217   2.417  14.956 -0.3101 -0.2615  0.2586
  787MPD2    H311662   0.400   2.312  15.072  1.1230 -1.4908  0.9208
  787MPD2     N11663   0.448   1.990  14.758 -0.1913  0.5151 -0.6256
  787MPD2    H511664   0.411   1.978  14.664  0.7941 -0.4142 -0.8920
  787MPD2    N111665   0.110   2.335  14.727  0.1600  0.0459  0.0982
  787MPD2    H711666   0.083   2.431  14.749 -0.3851 -0.8524  3.3279
  788MPD2     C11667   2.220   1.633   0.938  0.4864 -0.1175  0.2384
  788MPD2    C111668   2.096   1.605   0.890 -0.2482 -0.6225  0.2428
  788MPD2    C211669   2.021   1.697   0.830  0.6085  0.4818  0.3298
  788MPD2    C311670   2.073   1.823   0.807  0.3398  0.5792 -0.1445
  788MPD2    C411671   2.189   1.856   0.866 -0.0950  0.0566  0.4220
  788MPD2    C511672   2.269   1.759   0.921  0.7372 -0.2604  0.0764
  788MPD2     H11673   1.921   1.676   0.792  0.5046 -0.1438  0.9523
  788MPD2    H111674   2.220   1.960   0.857  0.4612 -0.1342  0.1120
  788MPD2    H211675   2.287   1.557   0.976  1.1653  0.1778 -0.3726
  788MPD2    H311676   2.370   1.782   0.954  0.1565 -0.3773  1.9579
  788MPD2     N11677   2.006   1.908   0.722  0.1159 -0.2795  0.1544
  788MPD2    H511678   1.915   1.874   0.694  0.1267 -0.2685  0.1054
  788MPD2    N111679   2.038   1.476   0.896  0.1432  0.6689  0.2459
  788MPD2    H711680   1.947   1.471   0.851 -1.2702  2.4397  2.9013
  789MPD2     C11681   1.929   1.012  16.778  0.0279 -0.1232  0.3907
  789MPD2    C111682   1.847   0.937  16.701  0.7816  0.1101 -0.0961
  789MPD2    C211683   1.713   0.954  16.712  0.2299 -0.1317  0.4129
  789MPD2    C311684   1.668   1.057  16.789 -0.9590  0.2123  0.1478
  789MPD2    C411685   1.750   1.129  16.869  0.5930  0.4762 -0.2570
  789MPD2    C511686   1.882   1.108  16.861  0.4124  0.9382 -0.4455
  789MPD2     H11687   1.653   0.890  16.648 -2.8138  2.5030  0.6055
  789MPD2    H111688   1.709   1.203  16.937  1.3208  0.8667 -0.2385
  789MPD2    H211689   2.036   1.001  16.788  0.2571  1.6085 -0.3040
  789MPD2    H311690   1.946   1.159  16.933 -1.4445 -1.3560  2.7890
  789MPD2     N11691   1.535   1.088  16.801 -0.0665 -0.2728  0.1371
  789MPD2    H511692   1.505   1.169  16.853  2.3607  1.0732 -0.5407
  789MPD2    N111693   1.894   0.829  16.627  0.7911 -0.1565  0.7466
  789MPD2    H711694   1.826   0.765  16.588 -0.5341  2.9245 -1.9745
  790MPD2     C11695   3.194   3.142  13.176 -0.5383 -0.5128 -1.1120
  790MPD2    C111696   3.180   3.044  13.274 -0.0245 -0.2544 -0.5036
  790MPD2    C211697   3.136   2.920  13.232 -0.3109 -0.0695  0.1235
  790MPD2    C311698   3.098   2.904  13.098  0.1782  0.2547 -0.5238
  790MPD2    C411699   3.094   3.011  13.010 -0.2783 -0.2563  0.0531
  790MPD2    C511700   3.140   3.133  13.050  0.2218  0.6579 -0.4861
  790MPD2     H11701   3.106   2.844  13.304  0.2875  0.3189  0.7887
  790MPD2    H111702   3.064   2.994  12.908  1.5880 -1.3226 -0.3170
  790MPD2    H211703   3.239   3.237  13.203 -1.1194 -0.0366 -1.8129
  790MPD2    H311704   3.153   3.216  12.982  0.5475  0.1436 -1.0564
  790MPD2     N11705   3.046   2.777  13.061  0.2433  0.5625 -0.0439
  790MPD2    H511706   3.072   2.703  13.125 -0.4695 -0.7015 -1.2263
  790MPD2    N111707   3.221   3.074  13.405  0.1331  0.1049  0.0965
  790MPD2    H711708   3.247   3.171  13.419  1.4842 -0.2480  0.0176
  791MPD2     C11709   2.409   2.578  12.653  0.3685 -0.1870 -0.3125
  791MPD2    C111710   2.470   2.477  12.720 -0.2966 -0.2045  0.7351
  791MPD2    C211711   2.395   2.361  12.734 -0.4062  0.5639  0.4208
  791MPD2    C311712   2.260   2.351  12.693 -0.5154  0.3014  0.3310
  791MPD2    C411713   2.205   2.462  12.640  0.0664  0.2579 -0.1944
  791MPD2    C511714   2.279   2.576  12.619 -0.4230  0.4481  0.2227
  791MPD2     H11715   2.440   2.277  12.785  2.1252  1.5221 -0.1996
  791MPD2    H111716   2.098   2.459  12.621  0.1517  2.9333 -0.9951
  791MPD2    H211717   2.465   2.663  12.615 -2.2848  2.0010  0.6644
  791MPD2    H311718   2.242   2.662  12.564 -2.1014  2.1561  4.0338
  791MPD2     N11719   2.184   2.237  12.721 -0.0293  0.2488 -0.4468
  791MPD2    H511720   2.243   2.168  12.768 -0.7462  1.3368  2.0534
  791MPD2    N111721   2.598   2.488  12.762 -0.3804 -0.2857  0.7287
  791MPD2    H711722   2.649   2.575  12.757  0.7513 -0.9405  0.9079
  792MPD2     C11723   2.942   1.921  11.491 -0.0280 -0.1461 -0.7327
  792MPD2    C111724   2.865   2.018  11.424  0.6953 -0.8296 -0.0527
  792MPD2    C211725   2.731   1.997  11.420 -0.1536 -0.1670 -0.6393
  792MPD2    C311726   2.676   1.882  11.462 -0.2769  0.6598 -0.5529
  792MPD2    C411727   2.746   1.788  11.531 -0.0512 -0.3083  0.5782
  792MPD2    C511728   2.880   1.811  11.553  0.0760 -0.5320 -0.4835
  792MPD2     H11729   2.662   2.070  11.380  0.3903  1.3370  1.1683
  792MPD2    H111730   2.694   1.702  11.573 -0.5964 -0.1896  0.1529
  792MPD2    H211731   3.050   1.929  11.495  0.0479 -1.8332  0.8330
  792MPD2    H311732   2.934   1.736  11.609 -0.5917 -2.2703 -2.1882
  792MPD2     N11733   2.536   1.848  11.442 -1.0873  0.8581  0.8647
  792MPD2    H511734   2.496   1.761  11.476  1.8378 -0.6291  0.4937
  792MPD2    N111735   2.939   2.133  11.389 -0.0425 -0.1125 -0.1870
  792MPD2    H711736   3.038   2.127  11.410 -0.3586 -1.2672  0.9776
  793MPD2     C11737   2.032   1.845  10.576  0.6917  0.5266  0.0028
  793MPD2    C111738   2.072   1.958  10.653  0.2646  0.0101 -0.3610
  793MPD2    C211739   2.140   1.931  10.773 -0.3147 -0.2762  0.4355
  793MPD2    C311740   2.169   1.805  10.813  1.2592  0.8422 -0.6596
  793MPD2    C411741   2.130   1.692  10.736  0.0986 -0.5943 -0.1233
  793MPD2    C511742   2.068   1.717  10.616 -0.2386 -0.2607  0.3772
  793MPD2     H11743   2.164   2.014  10.839  0.9832  0.8320 -1.4500
  793MPD2    H111744   2.146   1.591  10.771  1.6122 -0.7064 -1.1254
  793MPD2    H211745   1.985   1.857  10.479  0.9761 -0.1851 -0.2247
  793MPD2    H311746   2.040   1.631  10.557  1.1870 -0.9879  0.7601
  793MPD2     N11747   2.219   1.794  10.943  0.5783 -0.2741 -0.4291
  793MPD2    H511748   2.234   1.876  11.002 -1.9456 -0.4818  0.5340
  793MPD2    N111749   2.048   2.088  10.616  0.0401 -0.9621  0.4543
  793MPD2    H711750   2.099   2.160  10.666  0.2388  0.9841 -2.5368
  794MPD2     C11751   2.354   1.559  17.268  0.5421 -0.4690  0.6544
  794MPD2    C111752   2.366   1.678  17.343 -0.5284  0.2930 -0.1228
  794MPD2    C211753   2.352   1.798  17.274 -0.3858  0.4459 -0.1489
  794MPD2    C311754   2.331   1.796  17.140  0.4149  0.5320 -0.4179
  794MPD2    C411755   2.318   1.676  17.077  0.1154 -0.1435  0.5219
  794MPD2    C511756   2.330   1.556  17.137 -0.0914 -0.5424  0.3846
  794MPD2     H11757   2.356   1.885  17.340  0.4580 -0.8698  1.5519
  794MPD2    H111758   2.303   1.672  16.969  0.3498  0.8913  0.4483
  794MPD2    H211759   2.345   1.464  17.319 -0.8963  0.5384  2.2707
  794MPD2    H311760   2.330   1.457  17.092  1.6258 -0.7534  0.8596
  794MPD2     N11761   2.316   1.913  17.062 -0.0805  0.6008  0.2986
  794MPD2    H511762   2.312   1.888  16.964  2.4395  3.4694 -0.5569
  794MPD2    N111763   2.401   1.664  17.480  0.1367  0.2867 -0.5990
  794MPD2    H711764   2.422   1.569  17.509 -1.0735 -0.5505 -2.4721
  795MPD2     C11765   0.586   3.920  13.648 -0.5722  0.1925  0.4091
  795MPD2    C111766   0.506   3.828  13.721  0.2354 -0.1826  0.3857
  795MPD2    C211767   0.566   3.720  13.785 -0.7237 -0.4926 -0.3796
  795MPD2    C311768   0.703   3.715  13.786 -0.2521 -0.5577  0.1860
  795MPD2    C411769   0.777   3.820  13.730 -0.0253 -0.0965  0.8422
  795MPD2    C511770   0.718   3.916  13.653 -0.0925  0.4649 -0.0273
  795MPD2     H11771   0.510   3.641  13.833  0.5967 -0.8928  0.4669
  795MPD2    H111772   0.884   3.809  13.739  0.1800  1.1041 -0.1674
  795MPD2    H211773   0.541   3.986  13.575  2.4874  2.1254  0.2689
  795MPD2    H311774   0.783   3.986  13.602  2.2633 -1.5165  0.2796
  795MPD2     N11775   0.780   3.615  13.866  0.5773  0.2608  0.8095
  795MPD2    H511776   0.879   3.635  13.867  1.0266 -1.8304 -0.8643
  795MPD2    N111777   0.369   3.837  13.702  0.1926  0.3278 -0.1382
  795MPD2    H711778   0.308   3.762  13.732  1.3261  0.0207  1.4472
  796MPD2     C11779   4.669   0.629  16.192 -0.8052 -0.1263 -0.3307
  796MPD2    C111780   4.695   0.731  16.282 -0.1951 -1.0862  0.2269
  796MPD2    C211781   4.673   0.863  16.245  0.1278 -0.3819  0.0674
  796MPD2    C311782   4.635   0.891  16.119  0.1645 -0.2987  0.6814
  796MPD2    C411783   4.624   0.785  16.030 -1.1312 -0.3324  0.3312
  796MPD2    C511784   4.620   0.654  16.067  0.1690 -0.6214  0.6026
  796MPD2     H11785   4.695   0.948  16.309 -2.3506  0.3554 -0.0447
  796MPD2    H111786   4.616   0.800  15.923  2.5704  1.0090  0.2486
  796MPD2    H211787   4.674   0.525  16.225  2.3972 -0.1681 -0.9773
  796MPD2    H311788   4.602   0.574  15.996 -0.5966  0.1512 -0.0908
  796MPD2     N11789   4.629   1.023  16.086 -0.1720  0.3638 -0.4920
  796MPD2    H511790   4.643   1.089  16.162 -1.3855  1.0954 -0.8962
  796MPD2    N111791   0.011   0.705  16.406  0.7254  0.5181 -0.5386
  796MPD2    H711792   0.047   0.610  16.415 -0.3831  0.0193 -1.3820
  797MPD2     C11793   0.748   0.593  17.716 -0.3928  0.7433  0.0505
  797MPD2    C111794   0.750   0.689   0.048 -0.0730  0.9502  0.0980
  797MPD2    C211795   0.654   0.784   0.050  0.1770  0.2549 -0.6082
  797MPD2    C311796   0.543   0.779  17.732 -0.4010  0.1266  0.6084
  797MPD2    C411797   0.537   0.673  17.647  0.2199  0.5994  0.2510
  797MPD2    C511798   0.645   0.579  17.633 -0.3936 -0.9429  0.5079
  797MPD2     H11799   0.663   0.860   0.127 -2.0830 -1.2764  1.1950
  797MPD2    H111800   0.464   0.663  17.567 -1.0809  4.0392  1.0111
  797MPD2    H211801   0.834   0.533  17.689 -1.2019 -1.6672  2.8355
  797MPD2    H311802   0.655   0.506  17.554  1.1385  1.4667 -1.5178
  797MPD2     N11803   0.438   0.873  17.744  0.2649 -0.1783 -0.6757
  797MPD2    H511804   0.353   0.861  17.690 -0.5428  1.8730  0.1416
  797MPD2    N111805   0.867   0.721   0.122  0.2183  0.2760 -0.2982
  797MPD2    H711806   0.861   0.797   0.189 -0.3919 -0.1391  0.1209
  798MPD2     C11807   0.711   1.450   0.087  0.2013 -0.3091  0.1065
  798MPD2    C111808   0.666   1.332   0.129 -0.7527  0.2426  0.3796
  798MPD2    C211809   0.747   1.234   0.178 -0.5798  0.1303  0.1272
  798MPD2    C311810   0.880   1.264   0.181 -0.0261  0.0568 -0.3143
  798MPD2    C411811   0.927   1.385   0.142 -0.9023 -0.3131  0.1022
  798MPD2    C511812   0.844   1.480   0.093  0.0889  0.2488  0.0847
  798MPD2     H11813   0.722   1.131   0.204  4.2050 -0.7271  1.3612
  798MPD2    H111814   1.033   1.408   0.139 -0.5060 -1.9799  2.0678
  798MPD2    H211815   0.648   1.526   0.043 -1.0436 -1.8950 -0.8520
  798MPD2    H311816   0.877   1.577   0.057 -1.9759  0.5428 -1.0272
  798MPD2     N11817   0.963   1.155   0.215  0.4371  0.6391  0.7489
  798MPD2    H511818   0.918   1.072   0.253 -0.7770  1.4337  1.0352
  798MPD2    N111819   0.529   1.301   0.115  0.1211  0.1541  0.7477
  798MPD2    H711820   0.496   1.215   0.158  0.8615 -0.7161 -0.4070
  799MPD2     C11821   0.112   1.710  14.831  0.1525  0.3317 -0.2490
  799MPD2    C111822   0.038   1.647  14.737  0.7812 -0.4255  0.4254
  799MPD2    C211823   4.700   1.721  14.654 -0.4572 -0.1870 -0.1337
  799MPD2    C311824   4.714   1.863  14.644  0.3514  0.4241  0.4194
  799MPD2    C411825   0.041   1.928  14.751 -0.8549 -0.0799 -0.2424
  799MPD2    C511826   0.110   1.848  14.841 -0.0905  0.0565 -0.0303
  799MPD2     H11827   4.636   1.671  14.582  0.7214 -1.1064 -0.5400
  799MPD2    H111828   0.046   2.036  14.759 -0.7100 -0.1509  0.6219
  799MPD2    H211829   0.166   1.669  14.916 -0.4237  0.6687  0.2802
  799MPD2    H311830   0.158   1.891  14.928  0.3656 -0.9367  0.1993
  799MPD2     N11831   4.673   1.942  14.530  0.0835  0.3209  0.0450
  799MPD2    H511832   4.702   2.039  14.534  1.4453 -0.0943  0.2904
  799MPD2    N111833   0.025   1.510  14.728  0.5650 -0.8494 -0.3584
  799MPD2    H711834   4.686   1.483  14.673 -0.0876  0.9055 -0.2615
  800MPD2     C11835   0.287   2.907  14.266 -0.0653  0.1957  0.7802
  800MPD2    C111836   0.420   2.878  14.261  0.0005 -0.1325 -0.4872
  800MPD2    C211837   0.453   2.769  14.184  0.3457  0.3448  0.3172
  800MPD2    C311838   0.366   2.715  14.090  0.2625 -0.3221  0.2364
  800MPD2    C411839   0.240   2.757  14.084  0.1333 -0.5646 -0.4456
  800MPD2    C511840   0.201   2.860  14.167 -0.5400 -0.2236 -0.9701
  800MPD2     H11841   0.558   2.744  14.172  0.8048  2.0339  0.8487
  800MPD2    H111842   0.163   2.717  14.020 -0.8269  0.9772 -0.2553
  800MPD2    H211843   0.239   2.982  14.328 -0.6255  1.2854 -0.9576
  800MPD2    H311844   0.097   2.889  14.173 -0.7938 -1.4432  0.5943
  800MPD2     N11845   0.417   2.613  14.009 -0.2880  0.0689  0.6077
  800MPD2    H511846   0.517   2.601  14.020 -0.5961 -2.5362  0.7757
  800MPD2    N111847   0.522   2.952  14.327  0.0051  0.1331  0.0410
  800MPD2    H711848   0.619   2.928  14.308 -0.5912 -1.4527 -0.9584
  801MPD2     C11849   0.461   3.750  14.388  0.7083 -0.6990  1.0335
  801MPD2    C111850   0.463   3.658  14.486  0.2712  0.6205  0.7089
  801MPD2    C211851   0.373   3.672  14.584  0.2964  0.0267 -0.0474
  801MPD2    C311852   0.281   3.777  14.584  0.2659 -0.7458 -0.2234
  801MPD2    C411853   0.289   3.879  14.497  0.9441  0.9688 -0.2273
  801MPD2    C511854   0.374   3.861  14.394 -0.4822 -0.4736 -0.3021
  801MPD2     H11855   0.358   3.586  14.649  1.5308  1.0765  1.5969
  801MPD2    H111856   0.226   3.967  14.500 -2.7695 -1.5911 -2.2799
  801MPD2    H211857   0.520   3.735  14.298 -1.6777  0.5641 -0.7568
  801MPD2    H311858   0.384   3.940  14.320 -1.7345  0.0440  0.0914
  801MPD2     N11859   0.185   3.780  14.686 -0.1802 -0.2595 -0.7303
  801MPD2    H511860   0.129   3.864  14.684 -1.3793 -1.0379  0.4372
  801MPD2    N111861   0.538   3.539  14.485  0.1725 -0.3851 -0.2726
  801MPD2    H711862   0.529   3.463  14.553 -2.0791  0.6753  0.5892
  802MPD2     C11863   4.612   4.494   0.328 -0.0647  0.3634 -0.0782
  802MPD2    C111864   4.650   4.593   0.239 -0.5958  0.1194  0.3903
  802MPD2    C211865   0.025   4.575   0.164 -0.1114 -0.0108  0.2633
  802MPD2    C311866   0.105   4.463   0.180  0.4579  0.1979 -0.1518
  802MPD2    C411867   0.073   4.368   0.278  0.1081 -0.4665  0.0031
  802MPD2    C511868   4.696   4.385   0.351 -0.4927  0.3316  0.0669
  802MPD2     H11869   0.069   4.660   0.112 -1.4003  0.3366 -0.2641
  802MPD2    H111870   0.140   4.285   0.290 -0.2504 -0.5152  1.8044
  802MPD2    H211871   4.529   4.511   0.396  0.9432  0.7179  1.0605
  802MPD2    H311872   4.681   4.304   0.422  0.4836 -3.0954 -3.6196
  802MPD2     N11873   0.225   4.467   0.104  0.3094  0.3103  0.1331
  802MPD2    H511874   0.223   4.542   0.036  2.3115 -1.3746 -1.7600
  802MPD2    N111875   4.570   4.710   0.228  0.0922 -0.4824  0.0454
  802MPD2    H711876   4.486   4.714   0.284  0.5908  0.5342  0.7121
  803MPD2     C11877   0.746   2.510  12.132  0.2841  0.3641  0.6270
  803MPD2    C111878   0.887   2.488  12.133 -0.1812 -0.3052 -0.2597
  803MPD2    C211879   0.939   2.432  12.250  0.3369  0.5830  0.4628
  803MPD2    C311880   0.856   2.391  12.351  0.6739 -0.1689  0.2812
  803MPD2    C411881   0.719   2.419  12.347  0.7407 -0.0853  0.3682
  803MPD2    C511882   0.668   2.482  12.235 -0.5075 -0.5635 -0.6658
  803MPD2     H11883   1.046   2.420  12.264  0.0267 -0.2181  2.2451
  803MPD2    H111884   0.651   2.390  12.426 -1.4954 -0.5043 -1.7176
  803MPD2    H211885   0.696   2.566  12.054 -0.0989 -2.7306 -1.3614
  803MPD2    H311886   0.561   2.484  12.223 -0.4333  3.3302 -0.6012
  803MPD2     N11887   0.904   2.331  12.467 -0.1884  0.3855  0.2437
  803MPD2    H511888   0.829   2.314  12.534 -1.2984  1.4859 -0.7203
  803MPD2    N111889   0.979   2.535  12.039 -0.1117  0.6924  0.4767
  803MPD2    H711890   1.078   2.524  12.060 -0.1237  0.3645  0.3755
  804MPD2     C11891   0.819   3.967  16.952 -0.4788  0.0057 -0.2901
  804MPD2    C111892   0.783   3.958  17.086  0.9450 -0.2121 -0.3337
  804MPD2    C211893   0.831   4.047  17.184  0.0821  0.4543  0.8480
  804MPD2    C311894   0.919   4.149  17.142  0.0742  0.0859  0.4579
  804MPD2    C411895   0.941   4.154  17.004 -0.0533 -0.2012 -0.5009
  804MPD2    C511896   0.901   4.066  16.911  0.2044 -0.2235  0.4574
  804MPD2     H11897   0.806   4.035  17.289 -2.4628  1.2973  0.3550
  804MPD2    H111898   1.005   4.233  16.965  0.5710 -0.2195  0.4946
  804MPD2    H211899   0.775   3.907  16.873 -0.1118 -0.1519 -0.3732
  804MPD2    H311900   0.930   4.082  16.808 -0.4155  3.6356  0.8963
  804MPD2     N11901   0.962   4.248  17.236 -0.2147 -0.1879 -0.1700
  804MPD2    H511902   0.918   4.246  17.328 -0.3894 -1.3431 -0.2835
  804MPD2    N111903   0.689   3.861  17.133 -0.5402 -0.4113 -0.2505
  804MPD2    H711904   0.689   3.847  17.234 -0.5201  1.3074 -0.0131
  805MPD2     C11905   4.153   2.294  15.837 -0.2344  0.3017 -0.4290
  805MPD2    C111906   4.257   2.305  15.739 -0.4621 -0.0047 -0.8589
  805MPD2    C211907   4.375   2.365  15.785  0.8928  0.0855  0.1421
  805MPD2    C311908   4.395   2.404  15.917 -0.1341 -0.1492  0.1397
  805MPD2    C411909   4.293   2.393  16.003 -0.6801 -0.4344  0.2912
  805MPD2    C511910   4.173   2.349  15.959 -0.4098 -0.2873  0.3685
  805MPD2     H11911   4.459   2.372  15.717 -0.1679  0.4795 -1.1201
  805MPD2    H111912   4.297   2.429  16.106  2.1765 -1.3796  0.4893
  805MPD2    H211913   4.065   2.235  15.814  0.8800 -2.4169  2.2844
  805MPD2    H311914   4.101   2.332  16.038  1.0900 -1.0211  1.5794
  805MPD2     N11915   4.518   2.463  15.959  0.0422 -0.2364  0.2195
  805MPD2    H511916   4.594   2.462  15.891 -0.1341  0.5727  0.0143
  805MPD2    N111917   4.246   2.252  15.607  0.2585  0.6458  0.4912
  805MPD2    H711918   4.320   2.279  15.543 -0.1751 -1.2016 -0.7838
  806MPD2     C11919   4.506   1.925   0.369 -0.3101  0.9659 -0.2590
  806MPD2    C111920   4.638   1.920   0.407 -0.6683  0.2609  0.2810
  806MPD2    C211921   4.714   2.027   0.385  0.1263 -1.2435 -0.3282
  806MPD2    C311922   4.675   2.141   0.312  0.3490  0.6913  0.4984
  806MPD2    C411923   4.546   2.137   0.262  0.7844 -0.3903 -0.2741
  806MPD2    C511924   4.462   2.029   0.294 -0.0391  0.0772 -0.2609
  806MPD2     H11925   0.073   2.038   0.424 -0.1716 -1.2209  0.4274
  806MPD2    H111926   4.498   2.208   0.196  1.7470 -0.2914 -0.8655
  806MPD2    H211927   4.442   1.840   0.387  1.6503 -0.2576  0.9349
  806MPD2    H311928   4.359   2.039   0.261  0.4096 -0.1764 -1.7194
  806MPD2     N11929   0.026   2.247   0.290 -0.7053  0.1157  0.0835
  806MPD2    H511930   0.122   2.222   0.309 -0.8233 -0.5215 -0.1905
  806MPD2    N111931   4.683   1.808   0.482 -0.1371  0.6685  0.3048
  806MPD2    H711932   4.611   1.755   0.530  0.9948  0.8604  2.2389
  807MPD2     C11933   0.027   1.067   0.700  0.3320  0.0598 -0.0570
  807MPD2    C111934   0.091   1.140   0.798  1.0384  0.6630 -0.1516
  807MPD2    C211935   0.180   1.089   0.884 -0.2359  0.0681 -0.0530
  807MPD2    C311936   0.215   0.953   0.881 -0.1564 -0.4920  0.0909
  807MPD2    C411937   0.158   0.882   0.777 -0.4152  0.5652 -0.1768
  807MPD2    C511938   0.057   0.937   0.695 -0.0457 -0.6612  0.9032
  807MPD2     H11939   0.223   1.155   0.959 -1.3558  0.8755 -0.1237
  807MPD2    H111940   0.179   0.776   0.764 -0.3977  0.4080  1.0834
  807MPD2    H211941   4.703   1.111   0.627 -0.5871 -3.3973 -1.3121
  807MPD2    H311942   0.002   0.878   0.622 -0.6013  1.2819 -0.2540
  807MPD2     N11943   0.312   0.916   0.973 -0.1312 -0.5178 -0.0836
  807MPD2    H511944   0.345   0.984   1.040 -1.5002  0.9007 -0.8604
  807MPD2    N111945   0.070   1.281   0.810 -0.3656 -0.0649  0.6623
  807MPD2    H711946   0.135   1.328   0.872 -1.1219 -1.5202  2.5572
  808MPD2     C11947   4.704   2.490   9.717 -0.0252  0.9243  0.0527
  808MPD2    C111948   0.060   2.526   9.804  0.1503  0.2581  0.3095
  808MPD2    C211949   0.132   2.645   9.794 -0.6053  0.3437 -0.4382
  808MPD2    C311950   0.114   2.723   9.680  0.4160  0.3795 -1.4733
  808MPD2    C411951   0.009   2.694   9.596 -0.5419 -0.7522 -0.3202
  808MPD2    C511952   4.675   2.579   9.620  0.3077 -0.7034  0.6718
  808MPD2     H11953   0.216   2.656   9.862 -0.4724 -1.5183 -0.2984
  808MPD2    H111954   4.735   2.756   9.508  0.9631 -2.0572 -1.5273
  808MPD2    H211955   4.644   2.400   9.728  0.7743  0.1239 -2.0898
  808MPD2    H311956   4.592   2.562   9.552  0.3556  2.3913 -0.1548
  808MPD2     N11957   0.204   2.835   9.649  0.6859 -0.3303  0.1284
  808MPD2    H511958   0.179   2.912   9.587  3.2081 -0.7294 -1.3926
  808MPD2    N111959   0.089   2.441   9.914 -0.5091 -0.2506  0.1184
  808MPD2    H711960   0.132   2.493   9.989 -0.7452 -1.2072  0.9185
  809MPD2     C11961   1.078   2.655   9.276 -0.3313  1.0200  0.1059
  809MPD2    C111962   1.094   2.793   9.298 -0.2326  1.1765  0.7391
  809MPD2    C211963   0.989   2.864   9.351  0.2356  0.3236  0.4746
  809MPD2    C311964   0.871   2.796   9.385  0.1766 -0.3128  0.6200
  809MPD2    C411965   0.845   2.662   9.355  0.2101  0.0333  0.0534
  809MPD2    C511966   0.953   2.598   9.300  0.2184 -0.4073 -0.3300
  809MPD2     H11967   0.996   2.970   9.370  0.6495  0.5778 -1.1130
  809MPD2    H111968   0.750   2.612   9.370 -0.3216 -0.1891 -4.0944
  809MPD2    H211969   1.166   2.600   9.247  0.7128  3.4933 -1.4367
  809MPD2    H311970   0.939   2.490   9.296 -0.4299 -0.4256  2.5839
  809MPD2     N11971   0.762   2.861   9.449  0.0212 -0.2758  0.0008
  809MPD2    H511972   0.673   2.811   9.445 -0.6395  0.8980  0.1546
  809MPD2    N111973   1.218   2.863   9.286 -0.6128 -0.0910  0.1202
  809MPD2    H711974   1.220   2.961   9.312  0.7026 -0.0416 -0.1833
  810MPD2     C11975   4.735   2.225  11.289 -0.0277  0.7825  0.4098
  810MPD2    C111976   0.057   2.241  11.175  0.5281 -0.1278  0.2241
  810MPD2    C211977   0.136   2.355  11.159  0.0128 -0.3933  0.2869
  810MPD2    C311978   0.130   2.462  11.247 -0.7085 -0.5634  0.0011
  810MPD2    C411979   0.061   2.447  11.361  0.1305 -0.3888  0.0695
  810MPD2    C511980   4.730   2.332  11.378 -0.6117  0.6409  0.8765
  810MPD2     H11981   0.187   2.368  11.064 -0.8185  1.2246  0.0629
  810MPD2    H111982   0.046   2.525  11.435  0.9919  0.8843 -1.0961
  810MPD2    H211983   4.675   2.137  11.311 -1.0721  1.1117 -1.1780
  810MPD2    H311984   4.680   2.316  11.472 -0.3891 -0.6533  0.7821
  810MPD2     N11985   0.155   2.595  11.207 -0.0579  0.1639 -0.1491
  810MPD2    H511986   0.089   2.667  11.234  0.5068  0.4889  0.3592
  810MPD2    N111987   0.053   2.136  11.077 -0.3932  0.1832 -0.2946
  810MPD2    H711988   4.722   2.071  11.103  1.1616 -0.5130  2.2479
  811MPD2     C11989   4.306   2.027  10.342 -0.1679  0.0868 -0.0343
  811MPD2    C111990   4.397   2.111  10.400  0.4062  0.1694 -0.0276
  811MPD2    C211991   4.389   2.247  10.396  0.2950 -0.1437  0.5976
  811MPD2    C311992   4.299   2.303  10.313  0.3113  0.1151  0.5975
  811MPD2    C411993   4.215   2.218  10.248  0.1243 -0.3646 -0.0463
  811MPD2    C511994   4.207   2.085  10.260 -0.0536 -0.5691  0.2519
  811MPD2     H11995   4.449   2.314  10.457  1.7060 -1.9624  1.2111
  811MPD2    H111996   4.148   2.252  10.169  0.5088  0.5955  0.0400
  811MPD2    H211997   4.306   1.918  10.349  0.0709  0.0850 -0.0745
  811MPD2    H311998   4.139   2.025  10.201  0.3195  0.4330 -1.2000
  811MPD2     N11999   4.296   2.442  10.295 -0.5309 -0.1052 -0.6602
  811MPD2    H512000   4.378   2.496  10.320 -2.3999  1.7106  1.5527
  811MPD2    N112001   4.503   2.047  10.469 -0.3697  0.4162 -0.8374
  811MPD2    H712002   4.494   1.946  10.477 -4.8869  0.8638  0.1525
  812MPD2     C12003   3.403   2.114  12.030 -0.2002  0.0332 -0.1901
  812MPD2    C112004   3.500   2.213  12.039 -0.5868  0.5593  0.3524
  812MPD2    C212005   3.571   2.211  12.157  0.0338 -1.0062  0.6855
  812MPD2    C312006   3.540   2.133  12.266  0.0278  0.5686  0.5742
  812MPD2    C412007   3.425   2.051  12.262 -0.6893  0.7494  0.1411
  812MPD2    C512008   3.365   2.040  12.140 -0.0040 -0.2450 -0.2335
  812MPD2     H12009   3.646   2.288  12.168  0.6109 -1.5442  0.5013
  812MPD2    H112010   3.393   2.000  12.352  0.6752 -0.6608 -0.1649
  812MPD2    H212011   3.335   2.095  11.947  1.9644 -0.3833 -1.8832
  812MPD2    H312012   3.274   1.981  12.139  1.8117 -3.0224  0.0295
  812MPD2     N12013   3.616   2.159  12.387 -0.5157 -0.0807 -0.1003
  812MPD2    H512014   3.698   2.219  12.385 -0.2735 -0.4321 -0.8917
  812MPD2    N112015   3.518   2.299  11.930 -0.8518 -0.2769 -0.3939
  812MPD2    H712016   3.442   2.300  11.862 -0.2068  2.2231 -1.0620
  813MPD2     C12017   2.958   4.331  13.320 -0.8024 -0.2349  0.0574
  813MPD2    C112018   2.858   4.395  13.249 -0.4281  0.0478  0.1013
  813MPD2    C212019   2.793   4.318  13.149  0.4690  0.6275  0.3010
  813MPD2    C312020   2.830   4.186  13.127  0.4120  0.2039  0.5821
  813MPD2    C412021   2.915   4.123  13.212  0.2444 -0.9479 -0.1371
  813MPD2    C512022   2.989   4.199  13.295 -0.4340 -0.6656 -0.4165
  813MPD2     H12023   2.703   4.350  13.098  0.4743 -1.2063 -0.8323
  813MPD2    H112024   2.939   4.018  13.206  1.1986 -0.7702  0.5663
  813MPD2    H212025   3.010   4.385  13.398 -0.3409  1.9321 -1.7714
  813MPD2    H312026   3.045   4.151  13.374 -2.2713 -0.9856  0.6954
  813MPD2     N12027   2.736   4.111  13.048 -0.0319  0.2587 -0.4392
  813MPD2    H512028   2.674   4.174  12.998 -1.6336  0.2121  1.5331
  813MPD2    N112029   2.809   4.522  13.276 -0.4858 -0.0445  0.9262
  813MPD2    H712030   2.734   4.561  13.220  0.5671 -1.6767 -1.6150
  814MPD2     C12031   3.207   0.670  12.537  0.3110  0.3470 -0.2887
  814MPD2    C112032   3.197   0.782  12.456 -0.3302  0.1844  0.0615
  814MPD2    C212033   3.200   0.915  12.506 -0.3778 -0.4227  0.5089
  814MPD2    C312034   3.222   0.934  12.639 -0.2748  0.9372  0.2321
  814MPD2    C412035   3.237   0.826  12.717 -0.4250  0.3368  0.2247
  814MPD2    C512036   3.229   0.701  12.670 -0.4077 -0.2238  0.0352
  814MPD2     H12037   3.214   1.001  12.442 -1.0910 -0.8153 -0.1764
  814MPD2    H112038   3.260   0.839  12.822  0.3352  1.9070 -0.1384
  814MPD2    H212039   3.228   0.573  12.493  1.2329 -0.2215  1.4458
  814MPD2    H312040   3.255   0.617  12.733 -0.8638 -0.0189  0.4948
  814MPD2     N12041   3.231   1.069  12.689  0.3135 -0.1005 -0.3211
  814MPD2    H512042   3.259   1.071  12.786  0.2913 -1.2753 -0.2940
  814MPD2    N112043   3.176   0.769  12.314 -0.1416 -0.2612  0.9431
  814MPD2    H712044   3.182   0.857  12.264 -1.4979 -1.1989 -0.8491
  815MPD2     C12045   3.214   3.372  12.246  0.0646 -0.7031  0.0281
  815MPD2    C112046   3.185   3.353  12.110  0.4302  0.1289  0.5093
  815MPD2    C212047   3.052   3.368  12.071 -0.1505  0.2016  0.7815
  815MPD2    C312048   2.952   3.399  12.161 -0.6317 -0.1368 -0.2148
  815MPD2    C412049   2.981   3.395  12.293 -0.1564  0.1992 -0.1551
  815MPD2    C512050   3.110   3.385  12.332 -0.4537 -0.2878 -0.8147
  815MPD2     H12051   3.019   3.363  11.968  0.6472 -2.2699  0.6419
  815MPD2    H112052   2.904   3.398  12.369 -0.4149 -0.0806 -0.4069
  815MPD2    H212053   3.314   3.369  12.287  0.8860  0.7960 -1.8866
  815MPD2    H312054   3.132   3.381  12.438 -1.2824  1.0575 -0.5930
  815MPD2     N12055   2.818   3.431  12.128 -0.1427  0.0390 -0.2649
  815MPD2    H512056   2.748   3.432  12.202 -0.4040 -1.3028 -0.4990
  815MPD2    N112057   3.287   3.326  12.014 -0.4429 -0.3369 -0.0717
  815MPD2    H712058   3.381   3.325  12.052 -0.0906  0.5167 -0.9285
  816MPD2     C12059   3.405   3.202  17.178  0.2010 -0.8700 -0.0541
  816MPD2    C112060   3.500   3.305  17.178 -0.3622 -0.1112 -0.3413
  816MPD2    C212061   3.619   3.284  17.108  0.1484 -0.3121 -0.2679
  816MPD2    C312062   3.644   3.170  17.036  0.0980 -0.1148  0.4053
  816MPD2    C412063   3.555   3.064  17.056 -0.2083 -0.0300 -0.9874
  816MPD2    C512064   3.437   3.078  17.129  0.5741  0.3792  0.1193
  816MPD2     H12065   3.687   3.368  17.097 -1.0324  0.5522 -0.9554
  816MPD2    H112066   3.566   2.969  17.005 -0.6448 -1.0330  0.7761
  816MPD2    H212067   3.318   3.204  17.243  0.6095  2.1452  0.3795
  816MPD2    H312068   3.375   2.994  17.156  0.6905  0.4031  0.4677
  816MPD2     N12069   3.757   3.156  16.966 -0.1312  0.1568 -0.2327
  816MPD2    H512070   3.814   3.239  16.958 -1.1216  1.0357  1.9555
  816MPD2    N112071   3.469   3.437  17.222  0.3634  1.1337  0.5339
  816MPD2    H712072   3.373   3.467  17.238 -0.1213 -1.4335  2.3796
  817MPD2     C12073   2.983   4.130   9.328  0.3817 -0.8153 -0.4822
  817MPD2    C112074   2.918   4.014   9.365  0.2835 -0.6011  0.3186
  817MPD2    C212075   2.790   3.993   9.318  0.5812  0.2163  0.0420
  817MPD2    C312076   2.724   4.085   9.240  0.2212  0.3797 -0.4183
  817MPD2    C412077   2.797   4.194   9.191  0.2109 -0.6212 -0.3060
  817MPD2    C512078   2.923   4.215   9.239  0.4980  1.2193 -0.0708
  817MPD2     H12079   2.737   3.904   9.349  1.8978 -0.8657 -0.8053
  817MPD2    H112080   2.760   4.269   9.122  1.1707 -0.3870 -0.5592
  817MPD2    H212081   3.089   4.141   9.349  0.1322 -0.1641  0.4118
  817MPD2    H312082   2.985   4.301   9.217  1.9079  0.5740  1.3952
  817MPD2     N12083   2.593   4.045   9.206  0.7608  0.3300  0.2984
  817MPD2    H512084   2.545   3.962   9.240 -0.6758  0.6308 -0.9944
  817MPD2    N112085   2.981   3.900   9.433 -0.2294 -0.0675  0.1458
  817MPD2    H712086   2.918   3.822   9.449  0.5487 -0.8619 -0.7145
  818MPD2     C12087   2.699   0.295  10.064 -0.1914 -0.2734 -0.0480
  818MPD2    C112088   2.563   0.283  10.055  0.2985  0.0927  0.2759
  818MPD2    C212089   2.510   0.160  10.008  0.0430  0.2694  0.1632
  818MPD2    C312090   2.599   0.057   9.970 -0.0081  0.1236  0.0440
  818MPD2    C412091   2.727   0.076   9.970 -0.8652  0.2585 -0.4280
  818MPD2    C512092   2.778   0.190  10.021 -0.0249 -0.1477 -0.1182
  818MPD2     H12093   2.404   0.143  10.012 -0.0157  0.5729 -0.0861
  818MPD2    H112094   2.795   0.004   9.929  1.8260  2.0760  0.8388
  818MPD2    H212095   2.750   0.384  10.098 -1.5374  0.5480 -0.1597
  818MPD2    H312096   2.885   0.205  10.033 -0.1533 -0.5942  1.4547
  818MPD2     N12097   2.538   4.681   9.934 -0.6105  0.3189 -0.1227
  818MPD2    H512098   2.437   4.680   9.934 -0.6145  0.5823 -0.4886
  818MPD2    N112099   2.477   0.381  10.096  0.2980  0.9056 -0.4362
  818MPD2    H712100   2.382   0.372  10.061  1.0350 -1.7651 -1.7566
  819MPD2     C12101   0.496   2.065  15.650 -0.1678 -0.1160 -0.1305
  819MPD2    C112102   0.517   1.934  15.696 -0.7912  0.2691  1.0239
  819MPD2    C212103   0.632   1.889  15.752  0.3072 -0.2345 -0.1636
  819MPD2    C312104   0.726   1.978  15.785 -0.3736 -0.1123 -0.2961
  819MPD2    C412105   0.702   2.115  15.758  0.3516 -0.1147 -0.0078
  819MPD2    C512106   0.590   2.159  15.691 -0.5416  0.0907  0.1912
  819MPD2     H12107   0.650   1.784  15.772  0.0998 -0.1582  0.4124
  819MPD2    H112108   0.763   2.197  15.795  1.6146 -1.3524  0.6748
  819MPD2    H212109   0.401   2.098  15.608  0.9622  2.1946 -0.8687
  819MPD2    H312110   0.575   2.263  15.668 -1.5336  0.1234  0.9541
  819MPD2     N12111   0.833   1.930  15.866  0.2839  0.6549  0.3999
  819MPD2    H512112   0.848   1.831  15.886 -0.2094  0.0516 -2.1992
  819MPD2    N112113   0.414   1.849  15.662  0.0185 -0.4012 -0.2923
  819MPD2    H712114   0.348   1.893  15.598 -1.4651 -0.7412  1.0180
  820MPD2     C12115   4.448   1.744  14.978 -0.5092 -0.1614 -0.6639
  820MPD2    C112116   4.484   1.833  15.072 -0.0332 -0.4593  0.0716
  820MPD2    C212117   4.598   1.810  15.146  0.5272  0.7397  0.7787
  820MPD2    C312118   4.669   1.691  15.129  0.1566  0.8903 -0.3837
  820MPD2    C412119   4.624   1.602  15.035  0.0261  0.0276  0.0968
  820MPD2    C512120   4.515   1.625  14.953  0.6460 -0.9907  0.1043
  820MPD2     H12121   4.636   1.886  15.214  0.4034  2.7622 -1.3898
  820MPD2    H112122   4.670   1.504  15.025  0.9746  0.4931 -0.0361
  820MPD2    H212123   4.359   1.753  14.918 -1.2290 -0.5659  0.3514
  820MPD2    H312124   4.494   1.558  14.871 -1.8121  1.9165 -1.6327
  820MPD2     N12125   0.026   1.645  15.222 -0.0500 -0.3720  0.5195
  820MPD2    H512126   0.051   1.547  15.218 -3.2576 -1.1072 -1.5664
  820MPD2    N112127   4.396   1.942  15.087  0.2216  0.0405 -0.0399
  820MPD2    H712128   4.311   1.934  15.033 -0.9070 -2.9118  2.1263
  821MPD2     C12129   0.734   2.633  13.229 -0.4095 -0.3656 -0.5614
  821MPD2    C112130   0.788   2.669  13.349 -0.3472  0.0172  0.4562
  821MPD2    C212131   0.892   2.756  13.359  0.2597 -0.0374  0.2713
  821MPD2    C312132   0.955   2.805  13.251 -0.6181  0.1753  0.2005
  821MPD2    C412133   0.909   2.758  13.129 -0.7112 -0.2097 -0.4142
  821MPD2    C512134   0.803   2.673  13.119 -0.1588  0.8001 -0.3653
  821MPD2     H12135   0.914   2.792  13.458 -0.5693 -0.1885  0.5106
  821MPD2    H112136   0.970   2.781  13.043  3.3715 -3.6346  1.5478
  821MPD2    H212137   0.644   2.575  13.214 -0.6279 -0.3084  0.5440
  821MPD2    H312138   0.766   2.646  13.021  2.9643  0.0599 -1.3163
  821MPD2     N12139   1.073   2.884  13.266  0.0891 -0.2401  0.4402
  821MPD2    H512140   1.112   2.903  13.174 -1.1426  0.7679  0.1202
  821MPD2    N112141   0.744   2.626  13.476  0.0934 -0.1563 -0.4924
  821MPD2    H712142   0.791   2.662  13.558 -1.5500  0.6781  0.0802
  822MPD2     C12143   1.342   3.323  15.652  0.1876  1.8426 -0.1260
  822MPD2    C112144   1.281   3.269  15.761 -0.1922  0.0797 -0.2519
  822MPD2    C212145   1.210   3.354  15.847 -1.2620  1.0703  0.6900
  822MPD2    C312146   1.203   3.489  15.822 -0.0146 -0.8663 -0.2170
  822MPD2    C412147   1.268   3.536  15.705 -0.2322 -0.2141 -0.2310
  822MPD2    C512148   1.339   3.454  15.626  0.3214  0.3581 -0.1237
  822MPD2     H12149   1.160   3.309  15.932  0.0792 -1.6335  0.0456
  822MPD2    H112150   1.270   3.641  15.680 -0.3261 -0.7110 -2.3436
  822MPD2    H212151   1.393   3.265  15.576 -0.9620  0.4317  0.1799
  822MPD2    H312152   1.387   3.493  15.538 -0.9814 -1.0801 -1.4689
  822MPD2     N12153   1.153   3.571  15.926 -0.1624 -0.4819 -0.3627
  822MPD2    H512154   1.106   3.530  16.007 -1.2476 -1.1402 -1.3260
  822MPD2    N112155   1.271   3.132  15.797 -0.0100  0.5060 -0.2966
  822MPD2    H712156   1.224   3.109  15.884  0.2903  1.1158  0.0235
  823MPD2     C12157   0.904   3.698  16.722  0.2778  0.2092  0.3366
  823MPD2    C112158   0.943   3.627  16.613 -0.6757  0.3813 -0.4309
  823MPD2    C212159   0.979   3.495  16.625  0.0937  0.7441 -0.0620
  823MPD2    C312160   0.980   3.435  16.752 -0.1989 -0.3277 -0.1906
  823MPD2    C412161   0.925   3.504  16.858  0.2550  0.2441 -0.2294
  823MPD2    C512162   0.888   3.633  16.843 -0.0655 -0.3522  0.5220
  823MPD2     H12163   0.995   3.441  16.533  0.9179 -2.0891  1.7490
  823MPD2    H112164   0.924   3.451  16.953  2.6338 -0.4029 -0.5525
  823MPD2    H212165   0.899   3.806  16.724 -0.2678  0.1798  0.7384
  823MPD2    H312166   0.871   3.692  16.933 -0.5720  1.0635 -0.4971
  823MPD2     N12167   1.014   3.307  16.782  0.7795  0.2736  0.0091
  823MPD2    H512168   1.023   3.287  16.881 -1.5232  1.0179  0.3733
  823MPD2    N112169   0.944   3.708  16.494  0.1877 -0.2215 -1.4917
  823MPD2    H712170   0.942   3.809  16.507  0.7387 -0.0942 -2.3903
  824MPD2     C12171   1.412   2.281  15.592  0.0921 -0.8194  0.0666
  824MPD2    C112172   1.508   2.351  15.666 -0.2007 -0.4388 -0.2542
  824MPD2    C212173   1.621   2.289  15.691 -0.2707  0.1987  0.1579
  824MPD2    C312174   1.651   2.163  15.631 -0.1190 -0.1824 -0.0628
  824MPD2    C412175   1.561   2.101  15.550 -0.0407  0.4154 -0.3037
  824MPD2    C512176   1.441   2.164  15.534 -0.8539 -0.5944  0.0553
  824MPD2     H12177   1.707   2.329  15.742  0.3222 -0.4046 -0.3523
  824MPD2    H112178   1.568   2.008  15.496  0.0293  0.7693 -0.9039
  824MPD2    H212179   1.313   2.323  15.576 -0.2645 -0.7740  2.3580
  824MPD2    H312180   1.374   2.104  15.475  0.3278 -2.1900  0.3235
  824MPD2     N12181   1.782   2.110  15.661  0.3356 -0.0497 -0.5115
  824MPD2    H512182   1.848   2.165  15.715 -1.2640  0.7058  0.6489
  824MPD2    N112183   1.489   2.480  15.728 -0.3675  0.4327  0.1092
  824MPD2    H712184   1.564   2.520  15.783  0.0952 -1.0332  0.5546
  825MPD2     C12185   2.613   2.031  15.494  0.1558  0.1235  1.2187
  825MPD2    C112186   2.504   2.107  15.531 -0.5609 -0.2120 -0.3189
  825MPD2    C212187   2.513   2.242  15.496 -0.1187  0.2042 -0.4712
  825MPD2    C312188   2.633   2.298  15.437  0.1822  0.8495  0.4317
  825MPD2    C412189   2.730   2.215  15.391  0.1235  0.3350  0.9910
  825MPD2    C512190   2.720   2.079  15.415  0.0274  0.3823  0.7434
  825MPD2     H12191   2.433   2.314  15.514 -0.0645  0.1273  0.0911
  825MPD2    H112192   2.808   2.254  15.325  0.2474  0.8145  1.4225
  825MPD2    H212193   2.616   1.933  15.541 -3.8156 -0.2003  0.7738
  825MPD2    H312194   2.808   2.018  15.398  1.9801  2.9554  1.6946
  825MPD2     N12195   2.647   2.435  15.406  0.0075 -0.6837 -0.1011
  825MPD2    H512196   2.725   2.463  15.348 -1.2838  0.3296 -1.3254
  825MPD2    N112197   2.392   2.044  15.597 -0.2604  0.0304  0.3363
  825MPD2    H712198   2.401   1.944  15.613 -0.7097 -0.0404  0.1527
  826MPD2     C12199   2.792   1.906  13.385 -0.3825  0.2995  0.3695
  826MPD2    C112200   2.726   1.835  13.481 -0.2092  0.4421 -0.2841
  826MPD2    C212201   2.590   1.863  13.493 -0.3799 -0.3395  0.4106
  826MPD2    C312202   2.535   1.962  13.412 -0.3375 -0.1851  0.3179
  826MPD2    C412203   2.609   2.037  13.324  0.1836 -0.7907  0.5162
  826MPD2    C512204   2.736   1.997  13.310 -1.1517 -0.1734  0.4901
  826MPD2     H12205   2.532   1.812  13.569 -1.5937  1.0362  0.4153
  826MPD2    H112206   2.566   2.114  13.261  0.3874 -1.0254  0.0870
  826MPD2    H212207   2.900   1.897  13.380 -0.4883  0.0262 -1.2140
  826MPD2    H312208   2.796   2.054  13.240  1.4356 -1.9648  1.2273
  826MPD2     N12209   2.394   1.991  13.414 -0.0228 -0.7242 -1.0197
  826MPD2    H512210   2.367   2.075  13.364 -2.1941 -0.6874  0.2037
  826MPD2    N112211   2.804   1.751  13.571 -0.3674 -0.0484 -0.5872
  826MPD2    H712212   2.900   1.740  13.539 -0.4005 -0.5355 -0.5193
  827MPD2     C12213   2.369   3.582  10.146 -0.0022 -0.1482 -0.3324
  827MPD2    C112214   2.339   3.456  10.189  0.1746  0.1143 -0.4529
  827MPD2    C212215   2.209   3.414  10.161 -0.6336 -0.7088 -0.0475
  827MPD2    C312216   2.120   3.498  10.094 -0.4118  0.5392 -0.1089
  827MPD2    C412217   2.159   3.627  10.050  0.0648 -0.0572 -0.5978
  827MPD2    C512218   2.281   3.673  10.087  0.1042  0.1506 -0.6084
  827MPD2     H12219   2.169   3.319  10.196 -0.2848 -0.8392 -0.0028
  827MPD2    H112220   2.089   3.698  10.007  0.9266  1.5809  0.6740
  827MPD2    H212221   2.471   3.618  10.155  0.1780 -0.2642 -2.0569
  827MPD2    H312222   2.333   3.765  10.063 -0.8385  0.5561 -1.0721
  827MPD2     N12223   1.985   3.461  10.073  0.5237 -0.6684 -0.3350
  827MPD2    H512224   1.922   3.541  10.064  0.7350 -0.5319 -0.5975
  827MPD2    N112225   2.437   3.382  10.261 -0.3521 -0.5313 -0.1562
  827MPD2    H712226   2.530   3.421  10.270 -0.0444 -1.2610 -0.2647
  828MPD2     C12227   1.404   3.257  12.490  0.1336  0.5356 -0.5375
  828MPD2    C112228   1.298   3.268  12.401  0.3927 -0.1492  0.6115
  828MPD2    C212229   1.329   3.246  12.269  0.4977 -0.6628  0.4273
  828MPD2    C312230   1.459   3.212  12.220  0.4615  0.2596  0.4242
  828MPD2    C412231   1.563   3.199  12.317  0.5404 -0.0855  0.4809
  828MPD2    C512232   1.534   3.222  12.448  0.9385  0.5915  0.8546
  828MPD2     H12233   1.252   3.275  12.199  1.3984 -0.1363 -0.3432
  828MPD2    H112234   1.668   3.183  12.297 -0.1257 -1.0043 -2.3672
  828MPD2    H212235   1.402   3.283  12.595 -1.0217  0.0971 -0.4525
  828MPD2    H312236   1.611   3.229  12.524  2.5410  0.9986 -0.8146
  828MPD2     N12237   1.496   3.205  12.083 -0.4859 -0.1860 -0.1198
  828MPD2    H512238   1.593   3.186  12.057 -0.2882 -0.8689  1.1125
  828MPD2    N112239   1.162   3.291  12.440 -0.3902  0.0301 -0.1946
  828MPD2    H712240   1.092   3.285  12.367  0.3960  0.0399 -0.9415
  829MPD2     C12241   0.448   3.262  11.963  0.4731  0.3326  0.0222
  829MPD2    C112242   0.384   3.259  12.094  0.6022  0.1378 -0.1987
  829MPD2    C212243   0.461   3.291  12.205 -0.5336 -0.5723  0.6678
  829MPD2    C312244   0.591   3.335  12.195  0.3482 -0.2382  0.2137
  829MPD2    C412245   0.643   3.353  12.064 -0.0292  0.2286  0.2909
  829MPD2    C512246   0.572   3.317  11.955 -0.2486 -0.0533 -0.1337
  829MPD2     H12247   0.419   3.284  12.304 -0.6403  0.0902  0.6650
  829MPD2    H112248   0.744   3.391  12.056  0.0664 -0.3895 -1.2556
  829MPD2    H212249   0.393   3.236  11.873  1.6712 -0.1560 -0.5658
  829MPD2    H312250   0.605   3.337  11.853  1.4507 -0.3321  0.3584
  829MPD2     N12251   0.674   3.365  12.308  0.4572 -0.4036 -0.0994
  829MPD2    H512252   0.762   3.407  12.281  0.0072  0.6203  0.0565
  829MPD2    N112253   0.245   3.227  12.090  0.2391 -0.1389 -0.4810
  829MPD2    H712254   0.200   3.221  11.999 -0.2520 -2.0702 -0.1043
  830MPD2     C12255   1.499   1.441  15.794 -0.4296 -0.1955 -0.0845
  830MPD2    C112256   1.487   1.583  15.772 -0.8414 -0.2658  0.4529
  830MPD2    C212257   1.546   1.638  15.665  0.0970  0.2166  0.4058
  830MPD2    C312258   1.611   1.564  15.568  0.7656 -0.3870 -0.7239
  830MPD2    C412259   1.631   1.427  15.596  0.1220  0.3745 -0.0603
  830MPD2    C512260   1.572   1.371  15.710 -0.2717 -0.1249 -0.1562
  830MPD2     H12261   1.534   1.744  15.646  1.2507 -0.3184 -3.3371
  830MPD2    H112262   1.680   1.360  15.526 -0.5137  0.3916 -0.5238
  830MPD2    H212263   1.429   1.394  15.863 -1.7174  1.0820 -0.5063
  830MPD2    H312264   1.569   1.264  15.723  1.6076 -0.4541 -2.3539
  830MPD2     N12265   1.665   1.641  15.458  1.1537 -0.1255 -0.2544
  830MPD2    H512266   1.653   1.741  15.471  0.8231 -0.3116  0.8151
  830MPD2    N112267   1.392   1.661  15.853  0.1223  0.6083  0.3605
  830MPD2    H712268   1.364   1.608  15.936  0.0626  2.4535  1.5141
  831MPD2     C12269   1.437   3.495  16.231  1.3831 -0.4706  0.6990
  831MPD2    C112270   1.424   3.397  16.142  0.4460  0.2621  0.3143
  831MPD2    C212271   1.326   3.299  16.151  0.1209 -0.4551 -0.4076
  831MPD2    C312272   1.233   3.311  16.243  0.1053  0.4059 -0.6415
  831MPD2    C412273   1.241   3.413  16.336 -0.3109 -0.0993 -0.4908
  831MPD2    C512274   1.346   3.504  16.330 -0.7692  0.2382  0.0415
  831MPD2     H12275   1.335   3.211  16.088  1.2963 -1.0505  0.5804
  831MPD2    H112276   1.168   3.425  16.415 -0.4499  1.3769 -0.8549
  831MPD2    H212277   1.519   3.566  16.229  1.8602 -1.0551 -0.6452
  831MPD2    H312278   1.351   3.576  16.411 -0.7072 -1.3406  1.4466
  831MPD2     N12279   1.123   3.216  16.255  0.3099 -0.5456 -0.3497
  831MPD2    H512280   1.094   3.215  16.353  1.2602  1.0578 -0.0446
  831MPD2    N112281   1.524   3.395  16.041 -0.2988  0.1916 -0.0913
  831MPD2    H712282   1.578   3.480  16.038  1.5870 -1.0402 -1.0532
  832MPD2     C12283   4.600   4.651  17.302  0.4109  0.8383  0.5171
  832MPD2    C112284   4.539   0.029  17.267  0.4035  0.7143 -0.4694
  832MPD2    C212285   4.427   0.011  17.183  0.5932 -0.9377 -0.3211
  832MPD2    C312286   4.384   4.629  17.136  0.1319  0.0754  0.2965
  832MPD2    C412287   4.440   4.516  17.197  0.6965  0.2734  0.2918
  832MPD2    C512288   4.550   4.528  17.277 -0.4289  0.0759 -0.1080
  832MPD2     H12289   4.366   0.092  17.145 -0.8766 -0.9941  1.8946
  832MPD2    H112290   4.396   4.418  17.182  0.5044  0.5562 -0.9796
  832MPD2    H212291   4.687   4.665  17.365  1.4258  2.1066 -1.1638
  832MPD2    H312292   4.586   4.435  17.321 -3.2870 -0.2725  1.4713
  832MPD2     N12293   4.283   4.613  17.046  0.0697  0.0768 -0.7532
  832MPD2    H512294   4.267   4.518  17.015 -1.3511 -0.3549  1.3234
  832MPD2    N112295   4.597   0.153  17.302  0.0766 -0.4619 -0.0896
  832MPD2    H712296   4.679   0.146  17.362  0.5027  1.7178 -0.4239
  833MPD2     C12297   1.362   1.269  12.789 -0.0146 -0.3822  0.1178
  833MPD2    C112298   1.396   1.362  12.680  0.4362  0.8239 -0.0986
  833MPD2    C212299   1.459   1.306  12.566 -0.1093  0.2235  0.2730
  833MPD2    C312300   1.473   1.169  12.547 -0.3858  0.5639 -0.0948
  833MPD2    C412301   1.421   1.093  12.649  0.3365  0.9266  0.8220
  833MPD2    C512302   1.378   1.135  12.772 -0.0875 -0.1546 -0.2943
  833MPD2     H12303   1.485   1.376  12.488 -0.3500 -1.3288 -1.2002
  833MPD2    H112304   1.420   0.986  12.636  0.2846  1.1469 -0.9639
  833MPD2    H212305   1.320   1.299  12.884  0.7754  2.5773 -0.4647
  833MPD2    H312306   1.343   1.064  12.846 -1.4016  0.2092 -0.5644
  833MPD2     N12307   1.525   1.109  12.433  0.3419  0.0838  0.0803
  833MPD2    H512308   1.508   1.009  12.423  1.9785 -0.0695 -1.0340
  833MPD2    N112309   1.355   1.500  12.690  0.3928  0.5619 -0.6318
  833MPD2    H712310   1.288   1.529  12.761 -0.0163 -1.1514 -0.3092
  834MPD2     C12311   1.708   0.422  11.770  0.4124 -0.8537  0.5546
  834MPD2    C112312   1.680   0.529  11.690  0.0285 -0.4184  0.1784
  834MPD2    C212313   1.604   0.627  11.751 -0.3914 -0.4226  0.1580
  834MPD2    C312314   1.582   0.630  11.891  0.7078 -0.1997  0.1718
  834MPD2    C412315   1.619   0.521  11.968 -0.2926  0.0832 -0.1451
  834MPD2    C512316   1.681   0.418  11.903 -0.0336 -0.1697  0.2243
  834MPD2     H12317   1.564   0.706  11.689 -1.3860 -1.2543 -0.2463
  834MPD2    H112318   1.579   0.503  12.067 -3.2430  0.4809 -1.2598
  834MPD2    H212319   1.764   0.338  11.729 -1.1041 -1.7726  0.3677
  834MPD2    H312320   1.705   0.323  11.950 -0.2874 -2.0659 -3.5047
  834MPD2     N12321   1.527   0.744  11.944 -0.4149 -0.0735 -0.1840
  834MPD2    H512322   1.504   0.812  11.872  2.8803  0.4335 -0.7514
  834MPD2    N112323   1.715   0.537  11.551 -0.6568 -0.4523 -0.4927
  834MPD2    H712324   1.742   0.448  11.510  0.7939 -0.2334 -0.0221
  835MPD2     C12325   1.957   2.857  11.071  0.7271  0.3127  0.1872
  835MPD2    C112326   1.953   2.994  11.071  0.0294 -0.0388 -0.7370
  835MPD2    C212327   1.976   3.074  11.191 -0.0901  0.1552  0.9823
  835MPD2    C312328   2.004   2.998  11.307  0.1980 -0.1751  0.5089
  835MPD2    C412329   2.020   2.865  11.307  0.0412 -0.4485  0.9324
  835MPD2    C512330   1.992   2.795  11.192 -0.5966  0.2732 -0.7322
  835MPD2     H12331   1.975   3.182  11.195 -2.5162  0.1033  1.8055
  835MPD2    H112332   2.057   2.818  11.397 -1.2223 -0.7436  1.2916
  835MPD2    H212333   1.950   2.793  10.984 -0.3405  0.3962  0.2225
  835MPD2    H312334   2.000   2.687  11.192  0.0672  0.3185  0.0634
  835MPD2     N12335   2.024   3.062  11.431 -0.0639  0.2220  0.0662
  835MPD2    H512336   2.052   3.008  11.512  0.2605  1.2366  0.6241
  835MPD2    N112337   1.905   3.060  10.956  0.6985  0.2628  0.7963
  835MPD2    H712338   1.884   3.159  10.962 -1.5429 -0.1794  0.0272
  836MPD2     C12339   1.597   3.534  11.737  0.7968  0.3222  0.2145
  836MPD2    C112340   1.689   3.505  11.837  0.3030  1.1634  0.1009
  836MPD2    C212341   1.660   3.520  11.971  0.0035 -0.0880  1.0423
  836MPD2    C312342   1.540   3.573  12.010  0.1929 -0.2567  0.1857
  836MPD2    C412343   1.451   3.593  11.908  0.4680  0.0314 -0.4256
  836MPD2    C512344   1.472   3.574  11.774  0.2049 -0.2405 -0.6775
  836MPD2     H12345   1.730   3.489  12.049 -0.8764  0.2289  1.9648
  836MPD2    H112346   1.351   3.620  11.937  0.4704  3.0892 -3.2585
  836MPD2    H212347   1.610   3.514  11.631  1.6322  1.8273  0.0389
  836MPD2    H312348   1.387   3.583  11.707  0.5051 -1.0696 -1.1734
  836MPD2     N12349   1.496   3.590  12.138 -0.4079 -0.8802  0.3831
  836MPD2    H512350   1.406   3.637  12.144 -0.1852 -0.2464 -1.5275
  836MPD2    N112351   1.812   3.454  11.798 -0.0565  0.1567 -0.1697
  836MPD2    H712352   1.821   3.410  11.707  3.4050 -1.4255  0.9304
  837MPD2     C12353   4.520   3.174  10.441  0.5858  0.1832 -0.1144
  837MPD2    C112354   4.408   3.157  10.371  0.5314  1.5935  1.3600
  837MPD2    C212355   4.331   3.262  10.338  0.0793 -0.1742  0.5195
  837MPD2    C312356   4.360   3.391  10.383  0.0191 -0.1803 -0.2707
  837MPD2    C412357   4.466   3.401  10.468  0.0667 -0.1255 -0.5444
  837MPD2    C512358   4.554   3.297  10.477  0.2412  0.5127  0.0175
  837MPD2     H12359   4.239   3.244  10.284  0.0605 -2.0162  1.1794
  837MPD2    H112360   4.504   3.487  10.523  1.6078 -0.2588 -1.3974
  837MPD2    H212361   4.579   3.085  10.463  0.4098  0.0224 -0.2943
  837MPD2    H312362   4.642   3.309  10.540  0.6331 -2.7520  0.0666
  837MPD2     N12363   4.272   3.504  10.357 -0.1933 -0.1530  0.0508
  837MPD2    H512364   4.196   3.475  10.296 -1.7953  2.3560  0.8426
  837MPD2    N112365   4.360   3.037  10.319  0.1076 -0.1902  0.5953
  837MPD2    H712366   4.282   3.039  10.255 -0.5590  2.8970  1.4690
  838MPD2     C12367   2.416   1.063  12.014  0.3722  0.1669 -0.6530
  838MPD2    C112368   2.511   1.020  11.924  1.2039 -0.0963  0.0427
  838MPD2    C212369   2.469   0.956  11.804 -0.0089  0.3590  0.2335
  838MPD2    C312370   2.337   0.924  11.778  0.6131  0.7276  0.3350
  838MPD2    C412371   2.241   0.976  11.864  0.2439 -0.5700  0.2717
  838MPD2    C512372   2.285   1.044  11.980 -0.3271  0.0528 -0.5176
  838MPD2     H12373   2.537   0.923  11.725  1.1210 -1.2046  1.8379
  838MPD2    H112374   2.135   0.977  11.844  0.3585  0.5655 -0.2678
  838MPD2    H212375   2.442   1.116  12.105 -0.3815  0.0919 -0.3981
  838MPD2    H312376   2.210   1.077  12.050 -0.7896  2.0623 -1.9929
  838MPD2     N12377   2.306   0.863  11.648 -0.5140  0.6832 -0.4174
  838MPD2    H512378   2.380   0.882  11.580  0.6395  0.8307  0.8812
  838MPD2    N112379   2.650   1.041  11.931  0.3966  0.3072 -0.3557
  838MPD2    H712380   2.715   1.010  11.860  1.9672 -1.3628  1.7959
  839MPD2     C12381   2.985   0.767  11.266  0.0882  0.7860  0.1397
  839MPD2    C112382   2.878   0.763  11.353  0.2707  0.1811  0.8273
  839MPD2    C212383   2.897   0.795  11.488 -0.1714 -0.0978 -0.7751
  839MPD2    C312384   3.021   0.847  11.525  0.5319 -0.3952 -0.5802
  839MPD2    C412385   3.128   0.859  11.436  0.0002 -0.4221  0.4748
  839MPD2    C512386   3.108   0.819  11.311  0.4596  0.2061 -0.0295
  839MPD2     H12387   2.818   0.792  11.562  2.7803  1.2263  2.4263
  839MPD2    H112388   3.226   0.898  11.461  0.7457 -1.4187 -0.8876
  839MPD2    H212389   2.998   0.726  11.166 -3.4463 -0.2730  0.1366
  839MPD2    H312390   3.193   0.807  11.245  0.8142 -1.3813  0.7106
  839MPD2     N12391   3.048   0.908  11.653 -0.3453  0.0232 -0.1526
  839MPD2    H512392   3.142   0.946  11.662 -0.6427  0.4675  1.0794
  839MPD2    N112393   2.760   0.700  11.320 -0.4361  0.4947 -0.1156
  839MPD2    H712394   2.700   0.682  11.400  0.5851 -0.6045  0.3934
  840MPD2     C12395   2.971   3.667  10.371  0.0700 -0.4538  0.3298
  840MPD2    C112396   2.953   3.590  10.482 -1.1178 -0.0589  0.2229
  840MPD2    C212397   3.034   3.617  10.592 -0.2944  0.7248 -0.4546
  840MPD2    C312398   3.130   3.712  10.591 -0.0468  0.2954 -0.1888
  840MPD2    C412399   3.149   3.784  10.479 -0.2147  0.2273 -0.5101
  840MPD2    C512400   3.072   3.764  10.367  0.1224  0.3176 -0.2681
  840MPD2     H12401   3.018   3.569  10.688  0.4778 -0.6407 -1.0100
  840MPD2    H112402   3.218   3.868  10.473 -0.1354  0.2673  1.0487
  840MPD2    H212403   2.917   3.645  10.280 -0.3973  1.1018  0.2212
  840MPD2    H312404   3.080   3.830  10.281  0.4406 -1.9999 -2.0050
  840MPD2     N12405   3.196   3.747  10.709  0.2732 -0.1682  0.1285
  840MPD2    H512406   3.274   3.811  10.693  0.7325 -0.2943  1.8451
  840MPD2    N112407   2.856   3.480  10.474 -0.0138 -0.2858  0.5680
  840MPD2    H712408   2.800   3.467  10.391  2.0742 -0.3515 -0.8258
  841MPD2     C12409   3.125   3.139  14.286 -0.3282  1.4502 -0.0064
  841MPD2    C112410   2.998   3.194  14.264  0.2970  0.5021  0.7488
  841MPD2    C212411   2.930   3.269  14.366  0.4465 -0.1240 -0.0244
  841MPD2    C312412   2.999   3.294  14.485  0.0617  0.4011  1.1361
  841MPD2    C412413   3.132   3.246  14.499 -1.4724  0.7802 -0.2265
  841MPD2    C512414   3.190   3.169  14.402  0.1004  0.1512 -0.5054
  841MPD2     H12415   2.831   3.312  14.356  0.3638 -1.0785 -3.3651
  841MPD2    H112416   3.202   3.273  14.577  0.1329 -2.5648 -0.4917
  841MPD2    H212417   3.176   3.072  14.218 -0.5314  0.4985  0.7832
  841MPD2    H312418   3.291   3.133  14.419  0.2257  0.3090 -0.9263
  841MPD2     N12419   2.945   3.383  14.581  0.8561  0.5081  0.4444
  841MPD2    H512420   2.847   3.409  14.574  0.9484  0.4141 -1.1163
  841MPD2    N112421   2.930   3.177  14.136 -0.3328 -0.0112  0.6930
  841MPD2    H712422   2.830   3.192  14.141 -0.1336  1.0490  1.4352
  842MPD2     C12423   3.636   4.669  16.692  0.8945 -0.1438  0.1928
  842MPD2    C112424   3.541   4.580  16.728 -0.5174  0.3220  0.2303
  842MPD2    C212425   3.510   4.565  16.862  0.1751  0.0296 -0.0209
  842MPD2    C312426   3.583   4.620  16.967  0.7308  0.1115 -0.1456
  842MPD2    C412427   3.677   4.717  16.925  0.3037 -0.0017 -0.1579
  842MPD2    C512428   3.698   4.741  16.790 -1.2970  0.0571  0.3894
  842MPD2     H12429   3.449   4.478  16.885 -0.1266  0.3145  0.2348
  842MPD2    H112430   3.735   0.034  16.995 -1.3653 -2.0479  2.9984
  842MPD2    H212431   3.641   4.683  16.584  0.9260  3.1340  0.6369
  842MPD2    H312432   3.760   0.081  16.756 -2.5890  0.8597 -0.0485
  842MPD2     N12433   3.558   4.606  17.106 -0.2875 -0.2412 -0.0333
  842MPD2    H512434   3.616   4.664  17.166  0.9541 -1.1985 -0.2993
  842MPD2    N112435   3.459   4.526  16.623  0.4014  0.0520  0.0565
  842MPD2    H712436   3.497   4.553  16.533 -0.8527 -0.5078 -0.6392
  843MPD2     C12437   0.545   1.119   0.823 -0.0172  0.1378  0.0026
  843MPD2    C112438   0.606   1.016   0.762 -0.4614  0.7029  0.3022
  843MPD2    C212439   0.742   1.029   0.714 -0.5429 -0.3541 -0.7926
  843MPD2    C312440   0.815   1.145   0.732 -0.7375 -0.1761  0.6148
  843MPD2    C412441   0.748   1.247   0.796  0.9285  0.1310  0.3686
  843MPD2    C512442   0.614   1.234   0.837 -0.0769  0.2734 -0.1474
  843MPD2     H12443   0.795   0.952   0.659 -3.8832 -2.3907 -1.1347
  843MPD2    H112444   0.808   1.335   0.816  0.9948  0.7735 -2.6407
  843MPD2    H212445   0.444   1.123   0.863  0.9083  0.1400  2.3822
  843MPD2    H312446   0.580   1.317   0.898 -1.1715 -0.2746 -0.0070
  843MPD2     N12447   0.945   1.178   0.690 -0.6010 -0.1771  0.3535
  843MPD2    H512448   0.980   1.271   0.713 -0.3552 -0.4189  0.9488
  843MPD2    N112449   0.527   0.900   0.738 -0.7210 -0.1261  0.1424
  843MPD2    H712450   0.427   0.896   0.748 -0.5708  0.2533  1.7093
  844MPD2     C12451   4.378   4.153  16.774 -0.1924  0.5456  0.2734
  844MPD2    C112452   4.343   4.253  16.684  0.0597  0.4096 -0.3908
  844MPD2    C212453   4.401   4.375  16.712 -0.8160 -0.1670  0.7311
  844MPD2    C312454   4.489   4.389  16.816 -0.0388 -0.1077 -0.6523
  844MPD2    C412455   4.530   4.286  16.900 -0.5055  0.3286  0.2760
  844MPD2    C512456   4.470   4.164  16.880 -0.2406 -0.2989  0.0499
  844MPD2     H12457   4.362   4.464  16.665  1.8282  0.5992 -0.0172
  844MPD2    H112458   4.605   4.291  16.978  0.2306  1.9442 -0.5440
  844MPD2    H212459   4.342   4.052  16.762  1.2059  0.0490  0.2130
  844MPD2    H312460   4.498   4.082  16.945 -0.6458 -0.7588 -0.3548
  844MPD2     N12461   4.551   4.516  16.842  0.2567 -0.2859 -0.4339
  844MPD2    H512462   4.621   4.507  16.915  0.0940  1.2344 -0.0918
  844MPD2    N112463   4.256   4.235  16.581 -0.5379  0.4734  0.1747
  844MPD2    H712464   4.247   4.316  16.521  0.7754  1.8003  1.7409
  845MPD2     C12465   4.357   0.673  16.523 -0.2194  0.1274 -0.2713
  845MPD2    C112466   4.355   0.665  16.657 -0.4250  0.0021  0.1673
  845MPD2    C212467   4.433   0.570  16.726 -0.1979  0.8330  0.5707
  845MPD2    C312468   4.501   0.472  16.651  0.4143 -0.2136  0.5255
  845MPD2    C412469   4.493   0.479  16.516  0.2247  0.0920 -0.2975
  845MPD2    C512470   4.432   0.584  16.453  1.2717  0.2454 -0.1731
  845MPD2     H12471   4.438   0.572  16.834  3.2825  0.9315  0.4286
  845MPD2    H112472   4.551   0.416  16.449 -0.2134 -1.0070  0.3662
  845MPD2    H212473   4.301   0.754  16.476  2.8164  1.7655 -1.0576
  845MPD2    H312474   4.432   0.587  16.344  0.0655  1.0368 -0.1531
  845MPD2     N12475   4.579   0.373  16.712  0.6040 -0.2625  0.0180
  845MPD2    H512476   4.624   0.304  16.652 -1.0599 -0.3689 -1.1185
  845MPD2    N112477   4.289   0.763  16.729  0.1836  0.6078  0.2505
  845MPD2    H712478   4.254   0.834  16.665  0.4184 -0.0548 -0.6130
  846MPD2     C12479   1.297   0.613  14.129  0.2438  0.0929  0.1204
  846MPD2    C112480   1.173   0.602  14.069 -0.3098 -0.1190  0.1267
  846MPD2    C212481   1.060   0.592  14.154 -0.3227 -0.2469 -0.0600
  846MPD2    C312482   1.073   0.591  14.292  0.2307 -0.2067 -0.2094
  846MPD2    C412483   1.198   0.616  14.345  0.5415 -0.0179 -0.2363
  846MPD2    C512484   1.311   0.622  14.264 -0.1474 -0.2963 -0.7674
  846MPD2     H12485   0.960   0.571  14.116 -0.7396 -1.2649  1.6062
  846MPD2    H112486   1.225   0.612  14.450 -0.6114  0.2669  0.0672
  846MPD2    H212487   1.377   0.602  14.057  1.6067 -0.4165  1.7117
  846MPD2    H312488   1.409   0.620  14.310 -0.2193  2.5248 -0.4787
  846MPD2     N12489   0.959   0.559  14.370 -0.0625  0.6022 -0.8506
  846MPD2    H512490   0.885   0.502  14.332  0.5491  0.8627 -2.4170
  846MPD2    N112491   1.177   0.587  13.931 -0.1992  0.0379  0.8986
  846MPD2    H712492   1.267   0.581  13.883 -0.4162  0.2353  0.4631
  847MPD2     C12493   1.331   1.477  14.336 -0.4905 -0.1912  0.0702
  847MPD2    C112494   1.460   1.529  14.324 -0.2513  0.2376 -0.8040
  847MPD2    C212495   1.567   1.452  14.380 -0.8195 -0.2242  0.0132
  847MPD2    C312496   1.547   1.342  14.458 -0.1202 -0.6717  0.7256
  847MPD2    C412497   1.418   1.301  14.474  0.4893 -0.7845  0.4078
  847MPD2    C512498   1.317   1.363  14.411  0.2165  0.1235 -0.2889
  847MPD2     H12499   1.667   1.486  14.357 -0.2399 -1.8023  0.2797
  847MPD2    H112500   1.387   1.217  14.535  0.8035 -1.0174  0.2442
  847MPD2    H212501   1.240   1.517  14.292 -1.4727  0.6406  2.9238
  847MPD2    H312502   1.212   1.339  14.420  0.0790  0.9524  0.3361
  847MPD2     N12503   1.643   1.281  14.536 -0.0935  0.4529  0.8004
  847MPD2    H512504   1.611   1.210  14.601  0.0423  1.2114  1.6972
  847MPD2    N112505   1.495   1.650  14.262 -0.1837 -0.1885  0.1131
  847MPD2    H712506   1.590   1.675  14.288  0.1299  1.1924 -2.3909
  848MPD2     C12507   4.044   4.720  16.229  0.1905 -0.2021 -0.2767
  848MPD2    C112508   4.031   0.067  16.333  0.2362 -1.1587 -0.4376
  848MPD2    C212509   3.989   0.195  16.305 -0.0836  0.3556  0.1997
  848MPD2    C312510   3.958   0.230  16.177 -0.3510 -0.5305 -0.7624
  848MPD2    C412511   3.981   0.149  16.069  0.0234  0.8963  0.2579
  848MPD2    C512512   4.021   0.023  16.101  0.7106  0.7032 -0.3002
  848MPD2     H12513   3.962   0.254  16.392 -1.4929  0.6356 -0.4318
  848MPD2    H112514   3.940   0.163  15.970  1.3454  0.1193 -0.3962
  848MPD2    H212515   4.059   4.614  16.244 -0.5839  0.0475  2.2030
  848MPD2    H312516   4.017   4.690  16.023  0.8957  0.7535 -0.3594
  848MPD2     N12517   3.874   0.335  16.140 -0.0325 -0.1378 -0.5174
  848MPD2    H512518   3.835   0.333  16.046 -0.4913  2.4375 -0.3738
  848MPD2    N112519   4.040   0.029  16.472  0.3994 -0.0904 -0.3422
  848MPD2    H712520   4.025   0.103  16.541 -1.5226 -1.4593  0.7094
  849MPD2     C12521   2.205   3.996  14.621  0.0096 -0.2947 -0.0385
  849MPD2    C112522   2.274   3.938  14.518  0.3060 -0.0752  0.0322
  849MPD2    C212523   2.411   3.915  14.536 -0.1917 -0.7098  0.3796
  849MPD2    C312524   2.480   3.961  14.647 -0.7192 -0.7765 -0.3456
  849MPD2    C412525   2.410   4.036  14.745  0.2692  0.3551  0.5552
  849MPD2    C512526   2.275   4.041  14.731  0.2425  1.4175  0.2796
  849MPD2     H12527   2.468   3.854  14.467 -0.1393  0.0912 -0.2792
  849MPD2    H112528   2.471   4.088  14.819 -0.3980  0.7908  0.7949
  849MPD2    H212529   2.100   4.023  14.613 -0.3863 -1.0388  2.4553
  849MPD2    H312530   2.223   4.110  14.797  0.5746  1.3223  0.6419
  849MPD2     N12531   2.620   3.947  14.643  0.3210  0.3300 -0.7118
  849MPD2    H512532   2.657   3.896  14.563 -0.2009  0.6666 -1.1711
  849MPD2    N112533   2.214   3.880  14.404 -0.9042 -0.2671  0.7214
  849MPD2    H712534   2.279   3.833  14.342 -1.9336  0.0900 -0.6144
  850MPD2     C12535   1.146   2.395  14.629  0.2053 -0.1813  0.4286
  850MPD2    C112536   1.125   2.489  14.728  0.3848  0.6502 -0.3285
  850MPD2    C212537   1.239   2.539  14.786  0.1093 -0.0828  0.2585
  850MPD2    C312538   1.363   2.488  14.752  0.3734  0.2973 -0.0967
  850MPD2    C412539   1.375   2.396  14.651  0.3847 -0.2924 -0.0163
  850MPD2    C512540   1.263   2.352  14.585 -0.1867  0.4274  0.3040
  850MPD2     H12541   1.236   2.623  14.854  1.4133 -0.0392  0.2535
  850MPD2    H112542   1.469   2.348  14.627  0.3140 -0.0208 -0.8617
  850MPD2    H212543   1.054   2.356  14.585  0.4650 -1.1820  0.7699
  850MPD2    H312544   1.263   2.283  14.501  2.0960  0.0195  0.6315
  850MPD2     N12545   1.473   2.537  14.812  0.1091 -0.1877 -0.4342
  850MPD2    H512546   1.564   2.497  14.789  1.0927  3.0599 -2.1679
  850MPD2    N112547   1.000   2.540  14.756  0.1532  0.2228 -0.1745
  850MPD2    H712548   0.933   2.539  14.680  1.7272  0.7237 -1.5872
  851MPD2     C12549   1.614   2.486  15.358 -0.2992  0.2009  0.0301
  851MPD2    C112550   1.526   2.410  15.274 -0.3196  0.1047 -0.3165
  851MPD2    C212551   1.569   2.286  15.230 -0.6384 -0.3138  0.0723
  851MPD2    C312552   1.697   2.236  15.266 -0.1593 -0.4150 -0.1348
  851MPD2    C412553   1.775   2.304  15.353  0.4368 -0.2976 -0.1925
  851MPD2    C512554   1.733   2.433  15.389 -0.6238 -0.2800 -0.4625
  851MPD2     H12555   1.501   2.220  15.177 -1.8216  0.8787  0.0967
  851MPD2    H112556   1.878   2.276  15.373  0.2894 -1.8050 -1.5213
  851MPD2    H212557   1.586   2.573  15.415 -0.0892 -0.0165  0.4677
  851MPD2    H312558   1.797   2.485  15.459  0.1562 -1.7960 -0.0641
  851MPD2     N12559   1.731   2.112  15.218  0.3491 -0.1496 -0.1331
  851MPD2    H512560   1.652   2.072  15.169  0.1545  1.1137 -0.8499
  851MPD2    N112561   1.384   2.457  15.260  0.0740  0.2867 -0.4691
  851MPD2    H712562   1.361   2.544  15.306 -0.0475  0.5027 -0.9333
  852MPD2     C12563   0.611   0.646   9.638 -0.5006  0.0503 -0.8228
  852MPD2    C112564   0.599   0.559   9.741  0.5305  0.0330  0.4877
  852MPD2    C212565   0.679   0.585   9.858 -0.1241  0.2380 -0.2203
  852MPD2    C312566   0.764   0.694   9.875 -0.2851 -0.3942  0.1082
  852MPD2    C412567   0.763   0.786   9.771  0.5452  0.1902 -0.2394
  852MPD2    C512568   0.693   0.759   9.656  0.7343 -0.1112  0.0803
  852MPD2     H12569   0.676   0.510   9.936  0.2218  0.0605 -0.3786
  852MPD2    H112570   0.815   0.881   9.780  2.1088 -0.5089 -2.1734
  852MPD2    H212571   0.557   0.624   9.546 -0.7099 -0.1284 -0.6556
  852MPD2    H312572   0.696   0.837   9.580 -1.0559 -0.4443 -0.3203
  852MPD2     N12573   0.861   0.702   9.986 -0.4141 -0.5245 -0.2617
  852MPD2    H512574   0.852   0.631  10.058  0.2573  0.0471  0.3924
  852MPD2    N112575   0.517   0.453   9.720 -0.5605  0.5381 -0.0342
  852MPD2    H712576   0.481   0.444   9.625  1.3765 -2.5911 -0.4702
  853MPD2     C12577   2.802   0.109  12.348  0.3505  0.0533  0.1107
  853MPD2    C112578   2.661   0.091  12.342  0.3530 -0.1099  0.3406
  853MPD2    C212579   2.600   0.009  12.246 -0.1612  0.2862  0.4386
  853MPD2    C312580   2.683   4.681  12.162 -0.0601 -0.0565  0.6201
  853MPD2    C412581   2.823   4.692  12.168  0.7166 -0.8774 -0.0274
  853MPD2    C512582   2.884   0.032  12.269 -0.2374  0.2616 -0.7199
  853MPD2     H12583   2.493   4.738  12.248 -0.0681 -0.7099 -1.4407
  853MPD2    H112584   2.877   4.623  12.104  0.4973  0.3737 -1.5472
  853MPD2    H212585   2.854   0.169  12.422 -0.0708  0.4901  0.0530
  853MPD2    H312586   2.992   0.039  12.279 -0.3661 -1.6216  1.8800
  853MPD2     N12587   2.637   4.589  12.067  0.0968 -0.1584 -0.3892
  853MPD2    H512588   2.707   4.542  12.011 -0.0446  0.9654 -1.5187
  853MPD2    N112589   2.591   0.164  12.441  0.0202  0.1227  0.1809
  853MPD2    H712590   2.644   0.201  12.519  0.6739  1.6784 -1.0123
  854MPD2     C12591   0.162   0.211  12.569  0.5191 -0.5672 -0.1053
  854MPD2    C112592   0.072   0.166  12.663  0.1831  0.2250 -0.8885
  854MPD2    C212593   0.098   0.045  12.724  0.5572 -0.3739 -0.3782
  854MPD2    C312594   0.217   4.721  12.701  0.5258  0.3350 -0.2671
  854MPD2    C412595   0.300   0.018  12.600  0.7323  0.2345 -0.0523
  854MPD2    C512596   0.274   0.136  12.539 -0.1936 -1.4561  0.1853
  854MPD2     H12597   0.022   4.731  12.777 -0.9355  0.7657 -1.3207
  854MPD2    H112598   0.395   4.713  12.578  0.6832  0.2907 -0.3779
  854MPD2    H212599   0.139   0.301  12.513 -2.2578 -0.5295  1.0929
  854MPD2    H312600   0.328   0.179  12.456  0.4787 -0.8936  0.9079
  854MPD2     N12601   0.236   4.595  12.764  0.1992 -0.9802 -0.6647
  854MPD2    H512602   0.304   4.526  12.734  1.5129 -0.4851  1.2341
  854MPD2    N112603   4.697   0.242  12.674 -0.0800 -0.3999  0.0654
  854MPD2    H712604   4.677   0.320  12.612  1.1669  0.1250  0.3178
  855MPD2     C12605   0.725   4.270  13.593  0.2904 -0.2030 -0.5272
  855MPD2    C112606   0.588   4.289  13.593  0.0403  0.3508 -0.0552
  855MPD2    C212607   0.512   4.279  13.481 -0.5233 -0.1503 -0.6378
  855MPD2    C312608   0.575   4.244  13.359 -0.1335 -0.1839 -0.8963
  855MPD2    C412609   0.714   4.235  13.355 -1.4909 -0.5501 -0.6650
  855MPD2    C512610   0.785   4.246  13.470 -0.4998 -0.1258  0.0012
  855MPD2     H12611   0.405   4.289  13.490 -0.6575 -0.6150 -1.8003
  855MPD2    H112612   0.771   4.210  13.266 -1.2292 -0.7967 -0.4294
  855MPD2    H212613   0.792   4.266  13.677  0.1151  3.8408 -0.1831
  855MPD2    H312614   0.889   4.218  13.477 -0.1788  1.2629  0.7038
  855MPD2     N12615   0.497   4.225  13.238 -0.1875 -0.1267  0.3953
  855MPD2    H512616   0.544   4.220  13.148  0.2558 -2.2496  0.7305
  855MPD2    N112617   0.505   4.305  13.709 -0.3413  0.5201 -0.0594
  855MPD2    H712618   0.408   4.278  13.696 -0.1462  0.7171 -1.9411
  856MPD2     C12619   2.248   0.466  13.982  0.2102 -0.3775 -0.5397
  856MPD2    C112620   2.348   0.561  13.969 -0.1678  0.2377  0.1602
  856MPD2    C212621   2.326   0.659  13.875  0.1721 -0.2173 -0.5438
  856MPD2    C312622   2.211   0.676  13.804 -0.0073  0.2371 -0.3296
  856MPD2    C412623   2.110   0.582  13.823  0.2198 -0.0744 -0.2937
  856MPD2    C512624   2.132   0.488  13.918  0.3295 -0.0097  0.1878
  856MPD2     H12625   2.408   0.729  13.867  0.4872 -0.4770  0.4585
  856MPD2    H112626   2.012   0.582  13.777 -1.1431 -1.2672  2.5710
  856MPD2    H212627   2.257   0.376  14.041  0.5201 -1.4424 -2.2162
  856MPD2    H312628   2.052   0.415  13.928  2.2521 -1.8428  2.1673
  856MPD2     N12629   2.187   0.778  13.705  0.1443  0.1273  0.2219
  856MPD2    H512630   2.090   0.783  13.675 -0.2929 -0.6166  1.5129
  856MPD2    N112631   2.464   0.580  14.053  0.9482  1.2131  0.4990
  856MPD2    H712632   2.524   0.659  14.030  0.4092  1.0547 -1.4291
  857MPD2     C12633   3.633   2.853  13.092  0.1522  0.1887 -0.4732
  857MPD2    C112634   3.714   2.933  13.023  0.9928 -0.4178 -0.5367
  857MPD2    C212635   3.715   3.070  13.060 -0.4654 -0.7819  0.5590
  857MPD2    C312636   3.631   3.119  13.161 -0.0781  0.0342  0.2202
  857MPD2    C412637   3.548   3.030  13.227 -0.2059  0.7886 -0.1946
  857MPD2    C512638   3.551   2.901  13.195  0.6523 -0.0014  0.8464
  857MPD2     H12639   3.776   3.144  13.010 -1.3504  0.0829  0.7463
  857MPD2    H112640   3.476   3.067  13.299 -0.6179 -0.0963 -0.1536
  857MPD2    H212641   3.629   2.747  13.068 -0.8067  0.3601 -1.0960
  857MPD2    H312642   3.487   2.838  13.256  1.3050 -2.1803 -0.7082
  857MPD2     N12643   3.620   3.254  13.196 -0.3840 -0.2716  0.5943
  857MPD2    H512644   3.558   3.267  13.275 -1.3644 -0.7293 -0.1019
  857MPD2    N112645   3.792   2.880  12.918 -0.5176  0.5123 -0.0159
  857MPD2    H712646   3.785   2.779  12.905  0.0443  0.6399 -1.2558
  858MPD2     C12647   4.511   2.653  16.479 -0.8436  0.4089  0.1697
  858MPD2    C112648   4.473   2.528  16.529  0.9220  0.5001 -0.7444
  858MPD2    C212649   4.473   2.510  16.668 -0.4815  0.3712 -0.0586
  858MPD2    C312650   4.508   2.616  16.752  0.0409 -0.9606 -0.1912
  858MPD2    C412651   4.529   2.739  16.693 -0.5358  0.1839  0.6748
  858MPD2    C512652   4.545   2.755  16.562 -0.5387 -0.5990  0.1244
  858MPD2     H12653   4.462   2.411  16.712 -0.3789  0.7231  0.7673
  858MPD2    H112654   4.551   2.819  16.763  0.8418 -0.8424  1.4054
  858MPD2    H212655   4.500   2.681  16.375  0.7007  2.0104  0.4521
  858MPD2    H312656   4.567   2.853  16.522 -2.9218 -0.6388 -1.2716
  858MPD2     N12657   4.509   2.612  16.894  0.4581  0.5364  0.0860
  858MPD2    H512658   4.522   2.699  16.945 -3.5528  0.4521  1.1910
  858MPD2    N112659   4.442   2.416  16.443  0.2483  0.5171 -0.1832
  858MPD2    H712660   4.459   2.428  16.344 -4.8201  2.5695 -0.8338
  859MPD2     C12661   2.868   3.851  16.153  0.3453 -0.6739  0.4868
  859MPD2    C112662   2.816   3.809  16.034  0.3495  0.3267 -0.4963
  859MPD2    C212663   2.806   3.676  16.014  0.7468  0.2390 -0.1816
  859MPD2    C312664   2.856   3.576  16.098  0.8257  0.0729  0.1034
  859MPD2    C412665   2.896   3.616  16.222  0.2142  0.3496  0.5063
  859MPD2    C512666   2.898   3.755  16.244  1.0431  0.4562 -0.0937
  859MPD2     H12667   2.765   3.639  15.921 -1.4274 -2.3010  1.7815
  859MPD2    H112668   2.932   3.554  16.304  0.4128  0.4642  0.5075
  859MPD2    H212669   2.873   3.956  16.181 -0.1848 -0.7015  0.6809
  859MPD2    H312670   2.946   3.788  16.336  1.5205  0.2271 -0.2601
  859MPD2     N12671   2.855   3.438  16.059 -0.2438  0.0381 -0.1584
  859MPD2    H512672   2.888   3.377  16.133  1.2052 -1.1330 -1.7492
  859MPD2    N112673   2.779   3.908  15.938 -0.1480 -0.5432  0.4506
  859MPD2    H712674   2.800   4.002  15.970 -0.4742 -0.7529  1.2568
  860MPD2     C12675   1.108   4.428  11.741 -0.7155  0.5885  0.2640
  860MPD2    C112676   1.047   4.444  11.862 -0.4525  0.4910  1.1102
  860MPD2    C212677   0.916   4.402  11.886  0.0531  1.0843  0.3022
  860MPD2    C312678   0.850   4.336  11.786 -0.2121 -0.5630  0.4454
  860MPD2    C412679   0.917   4.308  11.668 -0.1912 -0.3084 -0.2725
  860MPD2    C512680   1.043   4.353  11.641  0.0357 -0.3449  0.0859
  860MPD2     H12681   0.866   4.439  11.975 -0.7442 -0.2849  0.4211
  860MPD2    H112682   0.868   4.258  11.585  0.3227 -1.5250  0.1582
  860MPD2    H212683   1.212   4.455  11.722 -0.1251 -1.9459 -0.0877
  860MPD2    H312684   1.084   4.332  11.543 -1.7650  0.2555 -0.7987
  860MPD2     N12685   0.715   4.312  11.808  0.1622 -0.0254  0.3591
  860MPD2    H512686   0.679   4.329  11.901 -0.1726 -0.8827  0.3869
  860MPD2    N112687   1.110   4.516  11.967 -0.1645  0.0317  0.2734
  860MPD2    H712688   1.071   4.503  12.060 -3.0224 -1.8964 -1.1940
  861MPD2     C12689   4.455   2.630  11.279  0.3066 -0.2852 -0.0506
  861MPD2    C112690   4.347   2.556  11.320 -0.5741  0.6630  0.0992
  861MPD2    C212691   4.239   2.546  11.235 -0.4820  0.1189 -0.2084
  861MPD2    C312692   4.247   2.608  11.112 -0.3260  0.0392  0.3194
  861MPD2    C412693   4.358   2.680  11.074  0.2405 -0.5147  0.3352
  861MPD2    C512694   4.460   2.687  11.156 -0.0810  0.5113 -0.2099
  861MPD2     H12695   4.148   2.503  11.277 -1.8019  2.2439 -0.8925
  861MPD2    H112696   4.373   2.728  10.978  1.3308  0.9015  1.2215
  861MPD2    H212697   4.546   2.643  11.335  1.2551 -0.7976 -1.4734
  861MPD2    H312698   4.549   2.742  11.131 -2.1056  3.5618 -0.7820
  861MPD2     N12699   4.136   2.631  11.029  0.8265 -1.2412  0.7285
  861MPD2    H512700   4.152   2.676  10.940 -0.6379 -1.8243  0.1690
  861MPD2    N112701   4.333   2.500  11.443 -0.1114  0.7415  0.3595
  861MPD2    H712702   4.242   2.461  11.465 -0.6364  0.9902 -1.3570
  862MPD2     C12703   3.794   2.640  10.384 -0.7952  0.7974  0.3392
  862MPD2    C112704   3.705   2.680  10.487 -0.0603 -0.1578 -0.1464
  862MPD2    C212705   3.570   2.653  10.465  0.5134  0.2367 -0.3358
  862MPD2    C312706   3.519   2.593  10.353 -0.7730 -0.1101  0.0038
  862MPD2    C412707   3.605   2.548  10.260  0.4359  0.4580 -0.1538
  862MPD2    C512708   3.744   2.574  10.276  0.1921 -0.7737 -0.4640
  862MPD2     H12709   3.499   2.681  10.542  1.5329  2.4214 -0.2039
  862MPD2    H112710   3.566   2.488  10.179 -1.7786  2.1339 -0.3144
  862MPD2    H212711   3.899   2.666  10.381 -0.5131 -0.4207 -0.0774
  862MPD2    H312712   3.822   2.545  10.207 -0.6164 -0.2961 -1.5740
  862MPD2     N12713   3.385   2.551  10.351  0.3011  0.2125 -1.0586
  862MPD2    H512714   3.362   2.471  10.292 -1.3022  0.9101 -1.3646
  862MPD2    N112715   3.753   2.741  10.609 -0.3736  0.3416  0.1007
  862MPD2    H712716   3.678   2.759  10.675  0.2603  2.4576  0.2581
  863MPD2     C12717   2.373   0.832  16.982 -0.0179  0.8871 -0.3628
  863MPD2    C112718   2.398   0.965  16.967  0.0298 -0.0338 -0.1000
  863MPD2    C212719   2.508   1.028  17.033 -1.0263 -0.1081  0.1830
  863MPD2    C312720   2.589   0.949  17.111 -0.5143 -0.5132 -0.7153
  863MPD2    C412721   2.555   0.812  17.119  0.0330 -0.2750  0.2098
  863MPD2    C512722   2.454   0.756  17.057 -0.0631  0.1437  0.0471
  863MPD2     H12723   2.526   1.134  17.018 -0.1245 -0.3231 -0.2457
  863MPD2    H112724   2.614   0.744  17.179  1.6050 -1.0497 -2.2076
  863MPD2    H212725   2.291   0.781  16.931  1.9212 -2.0731 -0.5305
  863MPD2    H312726   2.439   0.650  17.077  0.6117  0.8551  4.4584
  863MPD2     N12727   2.703   0.990  17.181 -0.1736 -0.8709  0.5380
  863MPD2    H512728   2.753   0.922  17.238 -0.2140 -0.1316  1.4453
  863MPD2    N112729   2.311   1.043  16.879 -0.1095  0.2344  0.3128
  863MPD2    H712730   2.241   1.002  16.818  0.2226 -0.0045  0.0898
  864MPD2     C12731   2.964   2.253  17.443 -0.9332 -0.4846 -0.0738
  864MPD2    C112732   3.009   2.162  17.351  0.3629 -0.5229 -0.4937
  864MPD2    C212733   3.111   2.203  17.259  0.0243 -0.8929 -0.0167
  864MPD2    C312734   3.180   2.320  17.286 -0.4992  0.2340 -0.2545
  864MPD2    C412735   3.138   2.409  17.383 -0.1652  0.7035 -0.5736
  864MPD2    C512736   3.024   2.374  17.451  0.6184  0.4578 -0.7707
  864MPD2     H12737   3.151   2.131  17.189 -1.4395 -2.2066  0.4749
  864MPD2    H112738   3.187   2.505  17.395 -0.4081  0.9576 -1.5582
  864MPD2    H212739   2.869   2.246  17.495 -0.8149  0.6275  0.3006
  864MPD2    H312740   2.972   2.443  17.517  2.4618  1.6003 -0.5111
  864MPD2     N12741   3.288   2.365  17.210 -0.1835 -0.5390  0.3545
  864MPD2    H512742   3.320   2.458  17.236 -2.0717 -0.5980  2.8992
  864MPD2    N112743   2.940   2.039  17.340  0.8181 -0.2638 -0.0923
  864MPD2    H712744   2.864   2.023  17.406  0.7977 -0.3691 -0.1416
  865MPD2     C12745   3.493   2.624  16.419 -0.3959  0.5251  0.5412
  865MPD2    C112746   3.470   2.532  16.522  0.7655 -0.7921 -0.2249
  865MPD2    C212747   3.461   2.580  16.654 -0.1004  0.1525 -0.6058
  865MPD2    C312748   3.479   2.715  16.674 -0.1575 -0.1987 -0.2922
  865MPD2    C412749   3.505   2.797  16.569  0.9969  0.1852 -0.4161
  865MPD2    C512750   3.502   2.757  16.446 -0.3246 -0.3648 -0.6256
  865MPD2     H12751   3.429   2.512  16.731 -1.9981 -0.2575 -1.7586
  865MPD2    H112752   3.539   2.899  16.585  1.8243 -0.0292 -0.8244
  865MPD2    H212753   3.488   2.603  16.312 -0.3713  1.6319  0.3311
  865MPD2    H312754   3.507   2.837  16.373 -0.9272  0.3768  0.1426
  865MPD2     N12755   3.480   2.783  16.800 -1.3793 -0.2556 -0.2392
  865MPD2    H512756   3.501   2.882  16.797 -2.2827 -0.0860 -0.9333
  865MPD2    N112757   3.458   2.396  16.494 -0.1068  0.0831 -0.2960
  865MPD2    H712758   3.472   2.379  16.394 -1.3699 -0.3325 -0.4041
  866MPD2     C12759   4.645   2.821  11.908  0.0161 -0.4194  0.4349
  866MPD2    C112760   4.686   2.831  11.776 -0.1037 -0.3838 -0.8255
  866MPD2    C212761   4.597   2.844  11.666 -0.2340 -0.4278  0.2791
  866MPD2    C312762   4.475   2.892  11.692 -0.3045  0.0329 -0.2339
  866MPD2    C412763   4.435   2.898  11.825  0.0230  0.7739 -0.4726
  866MPD2    C512764   4.520   2.861  11.931 -0.0851  0.1764  0.4224
  866MPD2     H12765   4.625   2.836  11.562 -0.8703  0.2938  0.0555
  866MPD2    H112766   4.334   2.930  11.848  0.0306 -0.2875  1.1233
  866MPD2    H212767   4.718   2.828  11.989 -1.5982 -0.3460  1.8823
  866MPD2    H312768   4.482   2.885  12.029  0.5545 -1.3384  1.0280
  866MPD2     N12769   4.379   2.937  11.599 -0.8161 -0.1077 -0.2508
  866MPD2    H512770   4.288   2.969  11.631  0.3837  1.8850  1.1206
  866MPD2    N112771   0.074   2.798  11.740 -0.0451  0.3861  0.1494
  866MPD2    H712772   0.132   2.757  11.813 -1.3581 -0.8696  0.5078
  867MPD2     C12773   1.865   2.715  16.895  0.8795  0.1016 -0.1847
  867MPD2    C112774   1.990   2.681  16.948  0.3164 -0.1510  0.1076
  867MPD2    C212775   2.064   2.782  17.010  0.5844 -0.4175  0.2704
  867MPD2    C312776   2.025   2.917  17.008 -0.5256 -0.1021 -0.1698
  867MPD2    C412777   1.906   2.952  16.945 -0.3131  0.0154  0.0666
  867MPD2    C512778   1.829   2.849  16.896 -0.6485  0.5032 -0.5570
  867MPD2     H12779   2.152   2.752  17.065  0.9506 -1.1801 -0.7420
  867MPD2    H112780   1.866   3.052  16.938 -0.7291 -0.1525  0.0713
  867MPD2    H212781   1.801   2.644  16.845  0.6477  0.1177  0.0891
  867MPD2    H312782   1.731   2.882  16.863 -1.3036  0.1067  0.9774
  867MPD2     N12783   2.098   3.027  17.059  0.4644  0.0711 -0.1184
  867MPD2    H512784   2.046   3.112  17.044  1.8386  0.9618  0.2246
  867MPD2    N112785   2.019   2.546  16.934 -0.6670  0.1720 -0.3882
  867MPD2    H712786   1.963   2.489  16.872  0.8429 -0.3640 -1.2501
  868MPD2     C12787   3.904   1.610  13.441  0.0368 -0.1694 -0.5185
  868MPD2    C112788   3.870   1.485  13.490  0.6575  0.1400  0.1608
  868MPD2    C212789   3.796   1.474  13.611 -0.0466  0.2215  0.3261
  868MPD2    C312790   3.767   1.595  13.685  0.3818 -0.4445  0.2795
  868MPD2    C412791   3.797   1.716  13.623  0.0165  0.4682  0.0816
  868MPD2    C512792   3.862   1.727  13.500  0.7321 -0.0857 -0.5034
  868MPD2     H12793   3.748   1.384  13.647  0.1636 -0.4639 -1.1058
  868MPD2    H112794   3.763   1.811  13.665 -2.7511 -0.0651 -0.9596
  868MPD2    H212795   3.949   1.630  13.344 -0.6548 -1.5917 -1.1361
  868MPD2    H312796   3.878   1.824  13.455 -0.3828  0.5228  0.4129
  868MPD2     N12797   3.689   1.590  13.804  0.5240 -0.6348 -0.1083
  868MPD2    H512798   3.683   1.497  13.843 -1.8264 -0.7930 -0.8656
  868MPD2    N112799   3.915   1.374  13.415  0.3264 -0.3490  0.1859
  868MPD2    H712800   3.958   1.402  13.327 -1.5614 -0.4542 -0.7612
  869MPD2     C12801   4.528   4.569   0.790 -0.1175  0.1208  0.2005
  869MPD2    C112802   4.540   4.434   0.792  0.4650  1.1959  0.3547
  869MPD2    C212803   4.641   4.377   0.720  0.2710 -0.3821 -0.8626
  869MPD2    C312804   4.741   4.457   0.663 -0.3191 -0.0179  0.0911
  869MPD2    C412805   4.716   4.591   0.665  0.4784  0.4408 -0.6628
  869MPD2    C512806   4.614   4.646   0.728  0.3070  0.4005 -0.0964
  869MPD2     H12807   4.658   4.270   0.730 -0.8206 -0.6056 -1.3110
  869MPD2    H112808   0.034   4.662   0.609  0.1997  1.7714  0.7167
  869MPD2    H212809   4.449   4.622   0.841  0.3341 -0.4493  1.4775
  869MPD2    H312810   4.604   0.012   0.721  2.1910  0.6379  0.7679
  869MPD2     N12811   0.123   4.407   0.612 -0.0793 -0.2807  0.0954
  869MPD2    H512812   0.191   4.478   0.591 -1.4557  0.9668 -0.1564
  869MPD2    N112813   4.458   4.368   0.883 -0.8438  0.1388 -0.0437
  869MPD2    H712814   4.387   4.424   0.928 -1.0074  0.5424 -0.8167
  870MPD2     C12815   0.844   3.748   0.886 -0.1134 -0.2336  0.5431
  870MPD2    C112816   0.749   3.657   0.924  0.1369  0.5587 -0.2133
  870MPD2    C212817   0.621   3.699   0.950 -0.6087 -0.4878 -0.2314
  870MPD2    C312818   0.600   3.838   0.955  0.3284 -0.2018  0.1507
  870MPD2    C412819   0.694   3.922   0.906 -0.0345  0.5280  1.2304
  870MPD2    C512820   0.815   3.874   0.882  0.3185  0.1291  0.2736
  870MPD2     H12821   0.553   3.634   1.005  2.9091 -3.8931  0.0811
  870MPD2    H112822   0.683   4.029   0.893 -1.0622  0.4612  1.4885
  870MPD2    H212823   0.947   3.718   0.868 -0.6473 -1.2259 -0.8351
  870MPD2    H312824   0.886   3.952   0.857 -1.5429  1.3220 -1.3044
  870MPD2     N12825   0.467   3.881   0.980  1.1198  1.3321 -0.1582
  870MPD2    H512826   0.402   3.803   0.977  1.0355  1.4064 -0.2670
  870MPD2    N112827   0.793   3.525   0.943 -0.1199  0.2561  0.2406
  870MPD2    H712828   0.893   3.513   0.932 -0.4037  0.0560 -2.1165
  871MPD2     C12829   1.193   2.685  16.313 -0.4091 -0.3168 -0.1096
  871MPD2    C112830   1.170   2.641  16.445  0.1553 -0.0917  0.9502
  871MPD2    C212831   1.159   2.506  16.472  0.2199 -0.1280 -0.6575
  871MPD2    C312832   1.159   2.418  16.368 -0.2608  0.2212  0.2905
  871MPD2    C412833   1.159   2.465  16.235  0.4693 -0.2096  0.0110
  871MPD2    C512834   1.172   2.598  16.214  0.1093 -0.1600 -0.2720
  871MPD2     H12835   1.151   2.465  16.572  1.7004  1.2550  0.0372
  871MPD2    H112836   1.151   2.399  16.150 -2.2287  1.6913 -1.2523
  871MPD2    H212837   1.225   2.787  16.295 -1.7046  0.0349 -0.4002
  871MPD2    H312838   1.171   2.626  16.109  1.2227  3.2891  0.6466
  871MPD2     N12839   1.143   2.283  16.399  0.0206 -0.1653  0.4256
  871MPD2    H512840   1.125   2.263  16.497 -2.7823 -0.6741 -0.1973
  871MPD2    N112841   1.156   2.743  16.540  0.2323 -0.0471  0.3457
  871MPD2    H712842   1.192   2.836  16.519 -0.7132  0.6463  1.7881
  872MPD2     C12843   2.019   4.723  14.641  0.1775 -0.0391  0.3743
  872MPD2    C112844   2.023   0.066  14.533 -0.1451  0.1429 -0.0227
  872MPD2    C212845   1.910   0.137  14.500  0.1246  0.3533  0.2582
  872MPD2    C312846   1.796   0.131  14.578 -0.1990  0.0311  0.0873
  872MPD2    C412847   1.801   0.043  14.685  0.0675 -0.4673 -0.4006
  872MPD2    C512848   1.908   4.720  14.724 -0.0716 -0.3609  0.4313
  872MPD2     H12849   1.914   0.196  14.410 -1.2404 -0.7880 -0.5628
  872MPD2    H112850   1.717   0.019  14.749 -0.2015  2.4250  0.3543
  872MPD2    H212851   2.104   4.662  14.670 -1.9367 -1.1185  4.3119
  872MPD2    H312852   1.900   4.670  14.819  0.2568 -0.4499  0.4112
  872MPD2     N12853   1.683   0.202  14.551  0.5881  0.0142  0.0663
  872MPD2    H512854   1.600   0.182  14.606  1.5201  0.6111  1.7042
  872MPD2    N112855   2.134   0.073  14.448  0.1267  0.4325 -0.0797
  872MPD2    H712856   2.137   0.148  14.380  2.0913  1.4778  1.1656
  873MPD2     C12857   4.282   0.342   1.064 -0.3424  0.6501  0.2553
  873MPD2    C112858   4.199   0.439   1.114  0.3704 -0.0443  1.0127
  873MPD2    C212859   4.066   0.406   1.159 -0.1321  0.5832 -0.0310
  873MPD2    C312860   4.027   0.281   1.141 -0.1740 -0.0022  0.0269
  873MPD2    C412861   4.116   0.185   1.101  0.2433  0.2329  0.5291
  873MPD2    C512862   4.236   0.219   1.051 -0.1330 -0.4563  0.0358
  873MPD2     H12863   4.004   0.487   1.197 -0.0338  0.4614  0.3904
  873MPD2    H112864   4.083   0.086   1.072 -1.7612  0.7364  1.0766
  873MPD2    H212865   4.378   0.370   1.024  0.5241 -2.2210  0.3448
  873MPD2    H312866   4.293   0.141   1.002 -3.1759 -1.3324 -2.1526
  873MPD2     N12867   3.901   0.231   1.187  0.2610 -0.4318 -0.0209
  873MPD2    H512868   3.869   0.138   1.165  0.8489 -0.3066 -1.3684
  873MPD2    N112869   4.256   0.568   1.123  0.6044 -0.1484 -0.5093
  873MPD2    H712870   4.356   0.583   1.120  0.6351 -0.4754 -1.1736
  874MPD2     C12871   2.999   0.234  16.345  0.9159 -1.1332 -0.1396
  874MPD2    C112872   3.107   0.174  16.306  0.1518 -0.6841 -0.7523
  874MPD2    C212873   3.194   0.245  16.230 -0.0515 -0.0394 -0.4456
  874MPD2    C312874   3.178   0.383  16.205  0.2673 -0.0830 -0.5014
  874MPD2    C412875   3.066   0.446  16.255 -0.1771  0.6567 -0.9362
  874MPD2    C512876   2.981   0.368  16.328  0.0866 -0.4889  0.5808
  874MPD2     H12877   3.287   0.197  16.203  0.3460 -0.9528  2.5423
  874MPD2    H112878   3.046   0.552  16.240 -0.5388  0.5573 -1.1463
  874MPD2    H212879   2.925   0.178  16.401  1.0998  0.7751  1.9919
  874MPD2    H312880   2.898   0.415  16.380  0.4985 -1.7761  2.4059
  874MPD2     N12881   3.269   0.465  16.135  0.3848 -0.1470 -0.2569
  874MPD2    H512882   3.266   0.563  16.161  2.0424  0.0002 -0.6180
  874MPD2    N112883   3.119   0.037  16.333  0.6154 -0.9897  0.1630
  874MPD2    H712884   3.058   4.732  16.399  1.8695 -1.9421  0.6523
  875MPD2     C12885   4.551   3.345  15.015  0.2493  0.0099 -0.3252
  875MPD2    C112886   4.436   3.415  15.009 -0.2887  0.3983 -0.0853
  875MPD2    C212887   4.409   3.505  15.117  0.4686 -0.0955 -0.8228
  875MPD2    C312888   4.479   3.489  15.237 -0.2357 -0.1600 -0.2389
  875MPD2    C412889   4.599   3.420  15.236  0.0292  0.4047  0.8162
  875MPD2    C512890   4.642   3.362  15.121 -0.0008 -0.4030 -0.4075
  875MPD2     H12891   4.319   3.566  15.118 -0.3592 -1.3219 -0.3074
  875MPD2    H112892   4.665   3.420  15.322  0.1283 -2.7357  0.7351
  875MPD2    H212893   4.587   3.288  14.930  0.4467  0.1554 -0.3404
  875MPD2    H312894   4.736   3.308  15.116 -1.2520 -2.3249 -3.2551
  875MPD2     N12895   4.442   3.558  15.360  0.1888  0.4803  0.2385
  875MPD2    H512896   4.501   3.536  15.439  0.0865 -2.0917 -0.4174
  875MPD2    N112897   4.341   3.408  14.902 -0.2839  0.0373 -0.3596
  875MPD2    H712898   4.260   3.467  14.915 -1.8595 -1.9110 -1.3703
  876MPD2     C12899   3.688   0.019  16.167 -0.6705  0.2696  0.4939
  876MPD2    C112900   3.662   4.669  16.062  0.0110 -0.7585 -1.2942
  876MPD2    C212901   3.645   4.535  16.099 -0.6325 -0.0688  0.1214
  876MPD2    C312902   3.681   4.496  16.226  0.1284  0.8139 -0.0845
  876MPD2    C412903   3.719   4.584  16.324  0.0095  1.2421  0.6509
  876MPD2    C512904   3.713   4.715  16.289 -0.2210 -0.0345  0.1033
  876MPD2     H12905   3.614   4.462  16.025 -0.2318 -1.2264  1.0889
  876MPD2    H112906   3.761   4.561  16.422 -0.1258  0.2642  0.4746
  876MPD2    H212907   3.682   0.126  16.147  0.4454  0.5024  1.4216
  876MPD2    H312908   3.726   0.043  16.372  0.0018  0.6006 -0.4659
  876MPD2     N12909   3.668   4.349  16.234  0.2080  0.0500  0.3809
  876MPD2    H512910   3.632   4.294  16.157  3.0468 -0.0807 -0.8258
  876MPD2    N112911   3.650   4.698  15.921 -0.0251  0.2787  0.6700
  876MPD2    H712912   3.610   4.622  15.868 -1.4149  1.6933 -0.3095
  877MPD2     C12913   3.519   0.455  15.210 -0.2287 -0.7732  0.3879
  877MPD2    C112914   3.534   0.315  15.193 -0.0346  0.9268 -0.3040
  877MPD2    C212915   3.531   0.260  15.067  0.4223 -0.0749 -0.4942
  877MPD2    C312916   3.511   0.346  14.954 -0.1000  0.1980 -0.4363
  877MPD2    C412917   3.484   0.475  14.979  0.6223  0.1225  0.2106
  877MPD2    C512918   3.492   0.527  15.104  0.4614  0.2235 -0.5309
  877MPD2     H12919   3.537   0.151  15.062  1.3996  0.0027 -1.0731
  877MPD2    H112920   3.459   0.544  14.898  0.1358 -0.4824 -0.1524
  877MPD2    H212921   3.520   0.504  15.306 -0.2770  2.9702 -1.5518
  877MPD2    H312922   3.458   0.630  15.113  1.3422  0.4923 -0.3268
  877MPD2     N12923   3.496   0.287  14.821 -0.6382  0.3032  0.1313
  877MPD2    H512924   3.459   0.346  14.747 -2.7942 -0.6068  0.4888
  877MPD2    N112925   3.556   0.230  15.303 -0.3164  0.5451  0.5524
  877MPD2    H712926   3.557   0.130  15.285  0.7457  0.6791 -0.1026
  878MPD2     C12927   2.066   4.476  13.615 -0.2230 -0.1412 -0.1366
  878MPD2    C112928   2.196   4.474  13.663 -0.5629  0.3175  0.5538
  878MPD2    C212929   2.226   4.384  13.764 -0.2517  0.2385  0.1858
  878MPD2    C312930   2.125   4.312  13.820 -0.1552  0.0082  0.2138
  878MPD2    C412931   1.994   4.330  13.781 -0.3163  0.2201  0.0761
  878MPD2    C512932   1.964   4.413  13.676 -0.1985  1.2978  0.0436
  878MPD2     H12933   2.327   4.364  13.798 -0.5844  0.0783  1.0648
  878MPD2    H112934   1.921   4.256  13.810 -0.7696  0.8638  0.5861
  878MPD2    H212935   2.040   4.539  13.531 -1.3304  0.0204  0.3249
  878MPD2    H312936   1.867   4.416  13.629 -0.1335  1.8624 -0.0524
  878MPD2     N12937   2.156   4.200  13.903 -0.2321 -0.4780 -0.4175
  878MPD2    H512938   2.250   4.166  13.919 -0.1901 -0.0942  0.1557
  878MPD2    N112939   2.298   4.547  13.597  0.6522  0.3617  0.3789
  878MPD2    H712940   2.270   4.602  13.516 -0.2042 -2.9991 -1.6048
  879MPD2     C12941   3.951   0.709  17.749  0.3151  0.0221 -0.3938
  879MPD2    C112942   3.986   0.812  17.664  0.6054  0.0980 -0.1235
  879MPD2    C212943   3.886   0.861  17.577 -0.0739  0.3088 -0.3942
  879MPD2    C312944   3.762   0.803  17.566 -0.0192  0.3497  0.1246
  879MPD2    C412945   3.728   0.712  17.663 -0.0272  0.3199 -0.5445
  879MPD2    C512946   3.821   0.665  17.753 -0.1228  0.9391  0.6156
  879MPD2     H12947   3.917   0.935  17.504  0.2318 -0.8440 -1.4427
  879MPD2    H112948   3.626   0.676  17.673  1.2583 -3.1918 -0.4132
  879MPD2    H212949   4.022   0.678   0.059 -1.1013 -1.2252  0.4287
  879MPD2    H312950   3.800   0.591   0.064 -1.5244  1.0059  0.3086
  879MPD2     N12951   3.661   0.851  17.479 -0.4465 -0.4400 -0.2370
  879MPD2    H512952   3.571   0.805  17.485 -1.2189  1.4217  2.5338
  879MPD2    N112953   4.116   0.871  17.677  0.3002  0.0449 -0.2220
  879MPD2    H712954   4.177   0.842  17.753  3.9745  1.2174 -2.7394
  880MPD2     C12955   4.700   2.755   0.465  0.4186  0.0530  0.1400
  880MPD2    C112956   0.065   2.846   0.450  0.1003  0.1012  0.5298
  880MPD2    C212957   0.191   2.816   0.497  0.4968  0.1587 -0.8987
  880MPD2    C312958   0.212   2.695   0.563 -0.0181  0.4836 -0.8921
  880MPD2    C412959   0.110   2.602   0.564 -0.1120 -0.0739  0.0479
  880MPD2    C512960   4.726   2.631   0.515 -0.0156 -0.0696 -0.1801
  880MPD2     H12961   0.272   2.886   0.492  2.0554 -1.6911 -1.5243
  880MPD2    H112962   0.127   2.503   0.607 -1.3944 -0.0898  0.5407
  880MPD2    H212963   4.601   2.781   0.430 -0.3229 -3.6951 -0.5084
  880MPD2    H312964   4.654   2.553   0.537  0.9248 -0.8404  0.1958
  880MPD2     N12965   0.342   2.677   0.616  0.1537 -0.3119  0.4164
  880MPD2    H512966   0.408   2.753   0.602 -0.5230 -0.0796 -1.5057
  880MPD2    N112967   0.024   2.976   0.398  0.4861 -0.1971  0.0200
  880MPD2    H712968   4.673   2.989   0.360 -0.3907  0.9267  2.5592
  881MPD2     C12969   0.158   3.794  17.505  0.2044  0.5910  0.8532
  881MPD2    C112970   0.258   3.719  17.565 -0.7818  0.0070 -0.1873
  881MPD2    C212971   0.223   3.647  17.677 -0.9313  0.1088  0.5306
  881MPD2    C312972   0.102   3.673  17.741 -0.6801 -0.4868  0.0979
  881MPD2    C412973   0.008   3.760  17.682 -0.1276 -0.3587 -0.0602
  881MPD2    C512974   0.040   3.822  17.570 -0.0687  0.5188  0.0650
  881MPD2     H12975   0.290   3.568  17.710 -0.7629  0.2474  0.5219
  881MPD2    H112976   4.654   3.781  17.728  1.0150  0.7197  1.8338
  881MPD2    H212977   0.179   3.854  17.417 -1.0651  1.3217  1.0395
  881MPD2    H312978   4.704   3.880  17.523 -0.1328 -2.1735 -3.2133
  881MPD2     N12979   0.062   3.594   0.087 -0.4087  0.2735 -0.1125
  881MPD2    H512980   4.714   3.609   0.131 -1.3118  0.0453 -1.9080
  881MPD2    N112981   0.359   3.683  17.474 -0.2996 -0.5728 -0.0521
  881MPD2    H712982   0.367   3.738  17.390 -1.4065 -1.0478 -0.4732
  882MPD2     C12983   3.269   0.129  14.042 -0.0668  0.5974 -0.3347
  882MPD2    C112984   3.292   0.155  14.170  0.4366  0.2134 -0.3782
  882MPD2    C212985   3.210   0.095  14.261  0.3757 -0.3303 -0.0713
  882MPD2    C312986   3.101   0.017  14.219  0.1128  0.1512 -0.0193
  882MPD2    C412987   3.077   4.740  14.089  0.1175 -0.6216 -0.3656
  882MPD2    C512988   3.156   0.057  13.999 -0.1978 -0.1258  0.1256
  882MPD2     H12989   3.236   0.096  14.366 -0.0243 -1.1267  0.0305
  882MPD2    H112990   2.998   4.676  14.053 -0.5482  0.3075 -0.5423
  882MPD2    H212991   3.315   0.173  13.954 -0.0636 -0.2923 -0.7712
  882MPD2    H312992   3.135   0.044  13.894  0.1615  0.6677 -0.0438
  882MPD2     N12993   3.014   4.690  14.303 -0.3398  0.6462 -0.1791
  882MPD2    H512994   2.931   4.652  14.260  1.0586 -0.8263 -1.5498
  882MPD2    N112995   3.404   0.243  14.202 -0.1698 -0.1807 -0.1903
  882MPD2    H712996   3.432   0.301  14.124  0.1535 -1.7800 -1.2550
  883MPD2     C12997   0.466   0.168  16.336  0.8292 -0.1660  0.5425
  883MPD2    C112998   0.480   0.235  16.216 -0.4614  0.6230 -0.8426
  883MPD2    C212999   0.551   0.350  16.217  0.6530 -0.1108 -0.6221
  883MPD2    C313000   0.612   0.404  16.331 -1.1692 -0.6240 -0.3739
  883MPD2    C413001   0.601   0.338  16.444 -0.5169 -0.1585 -0.3914
  883MPD2    C513002   0.525   0.218  16.447 -0.3044 -0.0053  0.2488
  883MPD2     H13003   0.566   0.406  16.125 -0.0721  2.6388  0.9399
  883MPD2    H113004   0.646   0.373  16.536  0.7068 -3.5390  0.3206
  883MPD2    H213005   0.406   0.078  16.350  0.1597  0.3252  0.8331
  883MPD2    H313006   0.520   0.169  16.543  0.6531 -0.4213  0.0845
  883MPD2     N13007   0.693   0.517  16.321  1.0333  0.0297  0.0659
  883MPD2    H513008   0.703   0.564  16.231 -0.5155 -0.9427 -0.6224
  883MPD2    N113009   0.420   0.198  16.096 -0.6063 -0.0067  0.5384
  883MPD2    H713010   0.440   0.255  16.014 -1.1344 -1.3343 -0.5276
  884MPD2     C13011   2.850   1.128  15.087  0.1931  0.2380 -0.4906
  884MPD2    C113012   2.812   1.212  15.191 -0.3234  0.3416 -0.3154
  884MPD2    C213013   2.680   1.198  15.246  0.1534  0.0899 -0.4924
  884MPD2    C313014   2.597   1.097  15.205 -0.2012  0.1035 -0.0610
  884MPD2    C413015   2.637   1.005  15.113 -0.3590  0.2422  0.3704
  884MPD2    C513016   2.762   1.026  15.052  0.1401 -0.0684  0.8621
  884MPD2     H13017   2.642   1.271  15.316  0.6536  1.0251 -1.2023
  884MPD2    H113018   2.578   0.933  15.057  1.1676 -0.5908 -0.1520
  884MPD2    H213019   2.951   1.124  15.047  0.2640 -1.1653 -0.1682
  884MPD2    H313020   2.783   0.967  14.963 -1.3248  0.8711 -0.1039
  884MPD2     N13021   2.474   1.090  15.270 -0.0873  0.1649  0.5608
  884MPD2    H513022   2.439   1.168  15.325  0.6612  1.0565 -0.2175
  884MPD2    N113023   2.889   1.326  15.227 -1.2835 -0.5618 -0.7838
  884MPD2    H713024   2.850   1.399  15.286  2.8029  0.7740  0.2754
  885MPD2     C13025   0.693   2.130   0.274  0.7097  0.1931 -1.0560
  885MPD2    C113026   0.757   2.009   0.278  0.2718  0.1718  0.7726
  885MPD2    C213027   0.771   1.931   0.164 -0.4748  0.2252 -0.0273
  885MPD2    C313028   0.728   1.980   0.043 -0.0272 -0.1938  0.7799
  885MPD2    C413029   0.677   2.112   0.034  0.1871 -0.1307 -0.4838
  885MPD2    C513030   0.651   2.178   0.153  0.2997 -0.1343  0.0541
  885MPD2     H13031   0.826   1.838   0.167 -1.2868 -0.2327  0.7643
  885MPD2    H113032   0.632   2.153  17.710 -0.8830  2.9901  1.5023
  885MPD2    H213033   0.674   2.188   0.363  0.6049 -0.4525 -0.6620
  885MPD2    H313034   0.609   2.277   0.155  0.0841 -0.2593  1.7807
  885MPD2     N13035   0.727   1.889  17.698 -0.9746 -0.3592 -0.4347
  885MPD2    H513036   0.789   1.809  17.704 -1.8786 -1.2078 -2.4709
  885MPD2    N113037   0.807   1.971   0.406  0.6100  0.4254 -0.5528
  885MPD2    H713038   0.800   2.045   0.476 -1.2098  0.5230 -0.8347
  886MPD2     C13039   2.118   4.274  15.474 -0.1055 -0.4214 -0.8089
  886MPD2    C113040   2.231   4.333  15.515 -0.1185  0.0498  0.1208
  886MPD2    C213041   2.273   4.448  15.449  0.0012 -0.0044  0.2357
  886MPD2    C313042   2.202   4.505  15.347  0.0863 -0.5814  0.6462
  886MPD2    C413043   2.084   4.445  15.309  0.8370 -0.1840 -0.2931
  886MPD2    C513044   2.043   4.336  15.380 -0.0654  0.3485  0.1908
  886MPD2     H13045   2.369   4.492  15.472 -0.6743  2.9433 -2.7080
  886MPD2    H113046   2.019   4.485  15.232 -1.0434 -0.4023  1.1939
  886MPD2    H213047   2.070   4.206  15.542  2.4694 -1.1187  0.3145
  886MPD2    H313048   1.943   4.299  15.362 -0.3492  0.0131  2.4738
  886MPD2     N13049   2.239   4.632  15.284 -0.0123 -0.5001 -0.5356
  886MPD2    H513050   2.175   4.651  15.207  0.1022  0.2594 -0.4442
  886MPD2    N113051   2.302   4.289  15.632 -0.2363  0.0730 -0.0852
  886MPD2    H713052   2.396   4.325  15.645 -0.1018 -0.1954 -0.3180
  887MPD2     C13053   2.914   4.467  16.019  0.0266 -0.0740  0.5512
  887MPD2    C113054   2.786   4.502  15.970 -0.5553  0.4154 -0.1915
  887MPD2    C213055   2.770   4.642  15.949  0.5948  0.5440  0.3216
  887MPD2    C313056   2.878   4.731  15.954  0.9152 -0.1888 -0.1958
  887MPD2    C413057   3.003   4.683  15.988 -0.7063 -0.5989 -0.2139
  887MPD2    C513058   3.019   4.553  16.022  0.9443 -0.2702  0.7516
  887MPD2     H13059   2.672   4.684  15.928  1.3761  1.8954 -0.6051
  887MPD2    H113060   3.088   0.008  15.990 -1.2712  0.0794  1.2055
  887MPD2    H213061   2.942   4.364  16.038 -1.7826 -0.5323  0.8261
  887MPD2    H313062   3.123   4.535  16.048  1.5115 -0.9272 -1.9266
  887MPD2     N13063   2.861   0.133  15.922 -0.2806 -0.3390  0.7665
  887MPD2    H513064   2.768   0.173  15.916 -0.8588 -1.7518  0.1964
  887MPD2    N113065   2.671   4.414  15.947 -0.0579 -0.2264 -0.6194
  887MPD2    H713066   2.586   4.463  15.921  0.0561 -0.2031 -0.9469
  888MPD2     C13067   4.588   4.354  15.498  0.5523  0.4417 -0.2635
  888MPD2    C113068   4.519   4.437  15.582 -0.8301 -0.2170 -0.3479
  888MPD2    C213069   4.534   4.576  15.592  0.4365 -0.7588  0.3434
  888MPD2    C313070   4.621   4.632  15.498 -1.0415 -0.3417 -0.1194
  888MPD2    C413071   4.694   4.547  15.414 -0.0723 -0.1500  0.4612
  888MPD2    C513072   4.681   4.409  15.419 -0.0576 -0.0130  0.2199
  888MPD2     H13073   4.472   4.626  15.665  0.6200 -0.8357  0.5506
  888MPD2    H113074   0.017   4.578  15.334 -0.5844  1.7483  0.7871
  888MPD2    H213075   4.579   4.246  15.497 -0.6928  0.5551 -0.8956
  888MPD2    H313076   4.724   4.351  15.337 -1.9496  0.2916 -0.9922
  888MPD2     N13077   4.630   0.032  15.493  0.3692 -0.2121 -0.3188
  888MPD2    H513078   4.579   0.086  15.561  0.9814  1.8606 -1.4863
  888MPD2    N113079   4.424   4.376  15.671 -0.0939 -0.3532 -0.0662
  888MPD2    H713080   4.373   4.434  15.736  1.2756  0.1463  0.5630
  889MPD2     C13081   3.697   4.129  13.057 -0.3531 -0.4167  0.0679
  889MPD2    C113082   3.700   4.086  13.192 -0.2070  0.0378  0.7567
  889MPD2    C213083   3.724   4.176  13.294  0.3233 -0.5360 -0.3705
  889MPD2    C313084   3.703   4.310  13.266 -0.5837 -0.4411  0.5410
  889MPD2    C413085   3.685   4.349  13.133  0.7874 -0.1535  0.1473
  889MPD2    C513086   3.695   4.262  13.026 -0.8428  0.4418 -0.2273
  889MPD2     H13087   3.723   4.148  13.399 -0.0997  0.6080 -0.0640
  889MPD2    H113088   3.688   4.450  13.094 -0.1824 -0.0322  0.3798
  889MPD2    H213089   3.690   4.058  12.976 -0.3145 -0.2019 -0.1234
  889MPD2    H313090   3.695   4.293  12.922 -0.3156  1.0458 -0.0456
  889MPD2     N13091   3.713   4.413  13.363 -0.5091 -0.3230  0.1484
  889MPD2    H513092   3.749   4.384  13.453  0.5610 -0.5190 -0.3339
  889MPD2    N113093   3.717   3.950  13.230  0.3719  0.1037  0.1042
  889MPD2    H713094   3.736   3.931  13.328 -1.4833  1.3516  0.7104
  890MPD2     C13095   3.710   0.731  14.721  0.0114  0.4325  0.6964
  890MPD2    C113096   3.710   0.800  14.837 -0.6872 -0.7527 -0.9354
  890MPD2    C213097   3.742   0.735  14.957 -0.1951 -0.1996  0.6390
  890MPD2    C313098   3.784   0.606  14.966 -0.5099  0.1659  0.5983
  890MPD2    C413099   3.789   0.535  14.849 -0.4394  0.4791  0.3137
  890MPD2    C513100   3.749   0.597  14.728 -0.4147 -0.4580  0.0596
  890MPD2     H13101   3.744   0.801  15.043  1.5095 -0.6104  0.9071
  890MPD2    H113102   3.826   0.434  14.832  2.7767  1.6805  0.2550
  890MPD2    H213103   3.692   0.773  14.623  0.8634 -0.0170  0.3433
  890MPD2    H313104   3.753   0.534  14.640 -0.5611 -1.8080  1.0185
  890MPD2     N13105   3.824   0.556  15.088  0.1596 -0.1992  0.1402
  890MPD2    H513106   3.840   0.631  15.155 -1.5511 -0.1444  0.4939
  890MPD2    N113107   3.654   0.933  14.846 -0.4734 -0.2498 -0.3922
  890MPD2    H713108   3.643   0.966  14.941  2.7050 -2.5753  0.8030
  891MPD2     C13109   1.823   4.183  16.725  0.1945  0.7665  0.4313
  891MPD2    C113110   1.768   4.264  16.821 -0.9763 -0.0894  0.2352
  891MPD2    C213111   1.827   4.286  16.942 -0.3200  0.1599 -0.7881
  891MPD2    C313112   1.939   4.219  16.983  0.5556  0.3597 -0.0535
  891MPD2    C413113   2.000   4.145  16.884  0.3044 -0.2213  0.2358
  891MPD2    C513114   1.947   4.134  16.753 -0.2984  0.0128  0.2001
  891MPD2     H13115   1.787   4.358  17.013  1.6161 -0.0525  0.5510
  891MPD2    H113116   2.092   4.091  16.905 -0.2710  0.3341  4.1487
  891MPD2    H213117   1.774   4.168  16.630  0.5870 -0.5940  0.4437
  891MPD2    H313118   2.000   4.081  16.675 -1.2456  0.8332 -0.9780
  891MPD2     N13119   1.995   4.243  17.110  0.0764  0.9684  0.8369
  891MPD2    H513120   1.950   4.312  17.169 -0.4679  0.2686  1.2428
  891MPD2    N113121   1.648   4.340  16.790  0.1586 -0.2723 -0.3349
  891MPD2    H713122   1.617   4.331  16.693 -1.1866  2.7429 -0.1843
  892MPD2     C13123   2.728   0.409  15.037 -0.6071 -0.1059  0.0275
  892MPD2    C113124   2.626   0.372  14.956  0.9209  0.1446 -0.1301
  892MPD2    C213125   2.628   0.248  14.898 -0.1375  0.0909 -0.2559
  892MPD2    C313126   2.739   0.172  14.913  0.2062 -0.2900 -0.7838
  892MPD2    C413127   2.840   0.198  15.004  0.7241 -0.0978 -0.6169
  892MPD2    C513128   2.825   0.317  15.068  0.2460 -0.2044  0.5271
  892MPD2     H13129   2.549   0.222  14.829  0.8847  1.8258 -2.0662
  892MPD2    H113130   2.928   0.138  15.023  1.0463  0.1873 -1.2078
  892MPD2    H213131   2.725   0.507  15.082  0.3516  0.5824 -1.3997
  892MPD2    H313132   2.906   0.361  15.125 -0.3310  0.4551  0.8275
  892MPD2     N13133   2.763   0.054  14.834 -0.3817  0.3385  0.2886
  892MPD2    H513134   2.855   0.011  14.843 -1.9710 -2.6663  2.4626
  892MPD2    N113135   2.513   0.453  14.945 -0.6507  0.6407 -0.8420
  892MPD2    H713136   2.426   0.412  14.913 -2.3546  1.7769  2.2628
  893MPD2     C13137   0.432   3.221   1.307  0.1380  0.3875  0.1404
  893MPD2    C113138   0.542   3.306   1.303  0.7420  0.2081 -0.3321
  893MPD2    C213139   0.662   3.240   1.301 -0.1814  0.5465  0.7086
  893MPD2    C313140   0.669   3.101   1.292  0.1198 -0.1851 -0.0331
  893MPD2    C413141   0.555   3.022   1.288  0.3407  0.3027  0.2841
  893MPD2    C513142   0.438   3.085   1.291 -0.4139 -0.1933 -0.2079
  893MPD2     H13143   0.748   3.306   1.301 -0.9134  1.4834  0.7528
  893MPD2    H113144   0.554   2.914   1.278 -2.1851  0.2889  0.6695
  893MPD2    H213145   0.332   3.262   1.298  0.5239  1.2073 -0.5323
  893MPD2    H313146   0.343   3.034   1.287 -1.0953  1.0037  0.7024
  893MPD2     N13147   0.790   3.036   1.312  0.1606  0.4507 -0.6911
  893MPD2    H513148   0.794   2.935   1.313  0.1983  0.4675  1.4315
  893MPD2    N113149   0.531   3.450   1.315  0.0509  0.2757 -0.4543
  893MPD2    H713150   0.436   3.485   1.308 -0.1245 -0.4628 -1.8532
  894MPD2     C13151   2.789   1.661   1.020 -0.2070 -0.0134  0.6277
  894MPD2    C113152   2.735   1.732   1.126  0.2575 -0.7748  0.0616
  894MPD2    C213153   2.781   1.860   1.151  0.4092 -0.1555  0.2267
  894MPD2    C313154   2.895   1.912   1.080 -0.0207  0.0925 -0.2386
  894MPD2    C413155   2.958   1.826   0.994 -0.2923  0.3148  0.0515
  894MPD2    C513156   2.904   1.701   0.963  0.4252 -0.1447 -0.2579
  894MPD2     H13157   2.734   1.914   1.232  1.8324  3.6701 -1.5048
  894MPD2    H113158   3.052   1.851   0.946 -0.1233  0.0906  0.2662
  894MPD2    H213159   2.754   1.564   0.988  2.8080 -0.8719 -0.1181
  894MPD2    H313160   2.963   1.638   0.898  0.7261  0.6104 -0.7150
  894MPD2     N13161   2.950   2.033   1.117 -0.0508  0.5242  0.6074
  894MPD2    H513162   2.894   2.092   1.178 -1.3828 -2.1797  2.0030
  894MPD2    N113163   2.635   1.688   1.209 -0.4321 -0.4770 -0.1794
  894MPD2    H713164   2.607   1.753   1.282 -0.8890  0.0453 -0.8187
  895MPD2     C13165   1.566   4.073  14.121  0.2422 -0.4576 -0.3351
  895MPD2    C113166   1.538   4.144  14.008 -0.8927 -0.4611 -0.4441
  895MPD2    C213167   1.609   4.123  13.891  0.8115 -0.0170  0.3232
  895MPD2    C313168   1.697   4.016  13.883 -0.0987 -0.4859  0.1372
  895MPD2    C413169   1.716   3.940  13.994  0.5500 -0.4154  0.0366
  895MPD2    C513170   1.647   3.962  14.109 -0.2328  0.1513 -0.1860
  895MPD2     H13171   1.580   4.185  13.807 -0.5524 -1.4750 -0.2750
  895MPD2    H113172   1.783   3.855  13.988  2.0875  0.6500  1.8681
  895MPD2    H213173   1.525   4.086  14.221 -1.4227 -0.7761 -0.9661
  895MPD2    H313174   1.666   3.909  14.202 -0.2639  0.9691  0.2914
  895MPD2     N13175   1.753   3.983  13.760 -0.1700 -0.5215  0.5239
  895MPD2    H513176   1.805   3.896  13.762 -0.3740 -0.6483  0.0556
  895MPD2    N113177   1.447   4.252  14.010  0.0394 -0.6062 -0.1432
  895MPD2    H713178   1.444   4.312  13.928  1.0549  0.8851  0.9193
  896MPD2     C13179   4.565   2.204   1.080 -0.1192 -0.6414 -0.0865
  896MPD2    C113180   4.482   2.274   0.995  0.4392  0.7387 -0.4244
  896MPD2    C213181   4.356   2.232   0.974 -0.3361 -0.9158  0.0755
  896MPD2    C313182   4.307   2.121   1.039 -0.4253 -0.2006  0.3359
  896MPD2    C413183   4.395   2.037   1.101  0.4414  0.0493  0.4093
  896MPD2    C513184   4.524   2.076   1.118  0.3199 -0.9311 -1.3113
  896MPD2     H13185   4.284   2.301   0.932  0.2855 -2.7099 -3.9004
  896MPD2    H113186   4.368   1.942   1.146  1.7588 -0.4652  0.1070
  896MPD2    H213187   4.663   2.247   1.099 -1.0209  1.2299  0.3852
  896MPD2    H313188   4.587   2.011   1.178 -0.6197  0.9962  1.7393
  896MPD2     N13189   4.173   2.094   1.031  0.0901  0.0584 -0.4660
  896MPD2    H513190   4.112   2.172   1.010 -0.0545  0.2692  0.7183
  896MPD2    N113191   4.540   2.391   0.940 -0.1405 -0.2603 -0.3740
  896MPD2    H713192   4.638   2.411   0.955 -0.4091  1.1025 -0.4537
  897MPD2     C13193   0.160   3.418  10.640  0.0264 -0.2733  0.8770
  897MPD2    C113194   0.082   3.530  10.633  0.0245  0.3449 -0.1055
  897MPD2    C213195   4.707   3.534  10.706  0.2772  0.1581 -0.6377
  897MPD2    C313196   4.667   3.432  10.790  0.5886 -0.1805 -0.6135
  897MPD2    C413197   0.002   3.317  10.798  0.5105  0.5737  0.6716
  897MPD2    C513198   0.114   3.315  10.720  0.8392  0.1011  0.4053
  897MPD2     H13199   4.647   3.624  10.705 -0.9119 -0.6010  1.0177
  897MPD2    H113200   4.714   3.229  10.853  0.1206 -0.4471 -1.1963
  897MPD2    H213201   0.256   3.419  10.591 -0.8000  1.2307 -0.6716
  897MPD2    H313202   0.169   3.222  10.730 -0.1854 -0.6616 -1.0746
  897MPD2     N13203   4.554   3.450  10.872 -1.1005 -0.0504  0.1194
  897MPD2    H513204   4.500   3.533  10.851 -1.1600  0.7532  3.3409
  897MPD2    N113205   0.127   3.630  10.551  0.3015 -0.8108 -0.1153
  897MPD2    H713206   0.204   3.617  10.486  1.2530 -1.5746  1.1584
  898MPD2     C13207   1.278   0.206  17.709 -0.5328  0.2327 -0.8024
  898MPD2    C113208   1.415   0.190  17.704 -0.0475 -0.0297  0.9256
  898MPD2    C213209   1.496   0.301  17.666 -0.1342 -0.2693  0.5797
  898MPD2    C313210   1.437   0.426  17.634  0.0296 -0.0074 -0.0228
  898MPD2    C413211   1.293   0.440  17.652  0.2123  0.5645  0.0932
  898MPD2    C513212   1.222   0.328  17.679 -0.1724  0.3172  0.4707
  898MPD2     H13213   1.603   0.285  17.654 -0.1152 -0.0827  0.4929
  898MPD2    H113214   1.242   0.535  17.643  1.8233  1.5757  1.6400
  898MPD2    H213215   1.208   0.129  17.738  0.6084 -0.5964 -0.2576
  898MPD2    H313216   1.114   0.331  17.680 -0.1313  2.2672  0.0166
  898MPD2     N13217   1.523   0.530  17.599  0.4887  0.0958 -0.3178
  898MPD2    H513218   1.620   0.500  17.599  0.5068  0.1520 -0.4328
  898MPD2    N113219   1.491   0.069  17.739 -0.5830  0.8793  0.6473
  898MPD2    H713220   1.593   0.072  17.736 -0.5096 -3.1669 -0.5663
  899MPD2     C13221   2.780   0.732  17.677  0.0314  0.2344  0.6528
  899MPD2    C113222   2.862   0.838  17.712 -1.1445 -0.8409  0.2486
  899MPD2    C213223   2.907   0.852   0.079 -0.3246 -0.2560  0.9678
  899MPD2    C313224   2.855   0.766   0.180  0.1599  0.0547  0.0658
  899MPD2    C413225   2.769   0.666   0.142 -0.2284 -0.5266 -0.2389
  899MPD2    C513226   2.734   0.648   0.007 -0.4762 -0.5806 -0.4812
  899MPD2     H13227   2.964   0.937   0.115  0.4090 -1.0201  1.6188
  899MPD2    H113228   2.725   0.596   0.211 -1.3422  0.1007 -0.3216
  899MPD2    H213229   2.751   0.714  17.575 -0.3600 -1.0287  0.9898
  899MPD2    H313230   2.665   0.569  17.748 -1.9877  1.3745 -2.4825
  899MPD2     N13231   2.882   0.764   0.318 -0.0399  0.0353  0.0256
  899MPD2    H513232   2.847   0.690   0.377 -0.4219  1.2331  1.2874
  899MPD2    N113233   2.893   0.923  17.606 -0.2954  0.0197  0.2502
  899MPD2    H713234   2.870   0.899  17.510 -0.4026  2.2586 -0.2724
  900MPD2     C13235   2.288   2.357  12.329 -0.0031 -0.2891 -0.1167
  900MPD2    C113236   2.189   2.260  12.316  0.0641 -0.0549 -0.0528
  900MPD2    C213237   2.079   2.289  12.236 -0.0689  0.6867 -0.0684
  900MPD2    C313238   2.066   2.405  12.165  1.0177  0.0117  0.2923
  900MPD2    C413239   2.163   2.499  12.188  0.0461 -0.2561  0.5497
  900MPD2    C513240   2.268   2.477  12.267 -0.4459  0.2450  0.3080
  900MPD2     H13241   2.004   2.212  12.231 -0.8015  1.2577  1.8768
  900MPD2    H113242   2.156   2.595  12.137  0.3625 -0.8674 -0.6446
  900MPD2    H213243   2.378   2.347  12.389  0.9168  0.0353 -1.4431
  900MPD2    H313244   2.339   2.558  12.275  0.0397 -0.3204  1.7058
  900MPD2     N13245   1.956   2.425  12.084  0.1436 -0.9213 -0.2790
  900MPD2    H513246   1.890   2.347  12.086 -0.2330 -0.6208 -0.8705
  900MPD2    N113247   2.220   2.138  12.384 -0.0039  0.0217  0.4394
  900MPD2    H713248   2.312   2.122  12.425  0.5229  2.6845  0.2812
  901MPD2     C13249   1.993   1.086  12.541 -0.1038  0.1779 -0.1128
  901MPD2    C113250   2.122   1.110  12.569 -0.5406 -0.8284 -0.6322
  901MPD2    C213251   2.160   1.240  12.575  0.7647 -0.6336 -1.0876
  901MPD2    C313252   2.073   1.354  12.562  0.3969  0.0927  1.1670
  901MPD2    C413253   1.939   1.315  12.524 -0.0266  0.6082  0.1797
  901MPD2    C513254   1.905   1.188  12.525  0.1655  0.0169  0.5284
  901MPD2     H13255   2.263   1.255  12.603  0.8794 -0.5154 -1.5829
  901MPD2    H113256   1.854   1.379  12.503 -0.7577 -0.5808 -0.4768
  901MPD2    H213257   1.959   0.983  12.531 -1.2890  0.4004  1.6261
  901MPD2    H313258   1.805   1.162  12.491  0.4005  0.7559 -0.7535
  901MPD2     N13259   2.120   1.484  12.581 -0.1965 -0.5971  0.4100
  901MPD2    H513260   2.216   1.493  12.610 -0.0041  0.7781 -0.6439
  901MPD2    N113261   2.204   0.999  12.609 -0.0280 -0.7364  0.0990
  901MPD2    H713262   2.160   0.910  12.630 -0.2578 -0.7483 -0.4425
  902MPD2     C13263   1.804   4.466  13.068 -0.1494 -0.1073 -0.8074
  902MPD2    C113264   1.838   4.588  13.016  0.5007  0.0616 -0.7731
  902MPD2    C213265   1.942   4.593  12.932 -0.5080  0.1284  0.7203
  902MPD2    C313266   2.011   4.481  12.895 -0.1567 -0.2220  0.6866
  902MPD2    C413267   1.988   4.356  12.961  0.1298  0.0825 -0.4488
  902MPD2    C513268   1.885   4.354  13.050  0.2676 -0.8110  0.0688
  902MPD2     H13269   1.972   4.692  12.897 -1.5269 -0.3078 -1.3892
  902MPD2    H113270   2.045   4.265  12.948 -1.6378 -1.2895  1.5498
  902MPD2    H213271   1.709   4.462  13.121 -0.5007  0.4775 -1.3872
  902MPD2    H313272   1.867   4.257  13.096 -0.1228 -0.5896  0.3841
  902MPD2     N13273   2.103   4.475  12.787  0.2357  0.5153  0.2403
  902MPD2    H513274   2.148   4.388  12.760 -0.9361  0.9000 -2.9664
  902MPD2    N113275   1.743   4.692  13.038  0.4934  0.4523  0.1771
  902MPD2    H713276   1.653   4.665  13.077  0.0539  3.1806  1.0549
  903MPD2     C13277   2.041   0.252  12.250  0.1850  0.3771  0.3197
  903MPD2    C113278   2.032   0.116  12.248 -0.0602 -0.7476 -0.1478
  903MPD2    C213279   1.910   0.062  12.214  0.6000 -0.1413 -0.2516
  903MPD2    C313280   1.803   0.138  12.198 -0.2779  0.1069 -0.4084
  903MPD2    C413281   1.813   0.277  12.192 -0.2896  0.1089 -0.5123
  903MPD2    C513282   1.934   0.329  12.223  0.9484 -1.0737  0.1010
  903MPD2     H13283   1.888   4.698  12.227 -0.7382  0.0129 -1.2317
  903MPD2    H113284   1.725   0.337  12.175 -0.7054 -0.2892  0.2192
  903MPD2    H213285   2.131   0.306  12.276  0.4689 -0.0320  0.1948
  903MPD2    H313286   1.939   0.438  12.221 -1.7925 -0.8928  2.1769
  903MPD2     N13287   1.683   0.069  12.185 -0.1092  0.4553 -0.5822
  903MPD2    H513288   1.697   4.711  12.173  0.7770  0.5302 -0.1808
  903MPD2    N113289   2.147   0.037  12.279  0.1261  0.3060  0.6940
  903MPD2    H713290   2.222   0.090  12.321  0.4646  1.9263 -1.9311
  904MPD2     C13291   1.510   3.673  14.453 -0.7172 -0.3826  0.7652
  904MPD2    C113292   1.486   3.705  14.321  0.4940  0.2418 -0.4957
  904MPD2    C213293   1.575   3.664  14.220 -0.3342 -0.0059  0.1459
  904MPD2    C313294   1.681   3.578  14.247 -0.3518 -0.2537  0.4911
  904MPD2    C413295   1.692   3.541  14.378  0.3780 -0.3745 -0.3084
  904MPD2    C513296   1.612   3.581  14.478 -0.6624  0.8413 -0.0604
  904MPD2     H13297   1.552   3.696  14.118  2.3085  1.0547 -0.1099
  904MPD2    H113298   1.763   3.465  14.408  0.2806 -0.8535 -1.3004
  904MPD2    H213299   1.445   3.703  14.534 -1.2184  1.5147 -0.3437
  904MPD2    H313300   1.633   3.537  14.575  0.5233  2.0423  0.2249
  904MPD2     N13301   1.779   3.547  14.148  0.4624  0.4865 -0.4712
  904MPD2    H513302   1.759   3.570  14.051  0.6400  0.2721 -0.5594
  904MPD2    N113303   1.388   3.791  14.272 -0.2596  0.1559  0.0669
  904MPD2    H713304   1.375   3.787  14.172  1.7838 -1.3250 -0.1351
  905MPD2     C13305   1.072   4.261  13.708  0.0727  0.1269 -0.2934
  905MPD2    C113306   1.113   4.144  13.763  0.3039 -0.4788 -0.0333
  905MPD2    C213307   1.199   4.069  13.689 -0.6395 -0.3452 -0.2544
  905MPD2    C313308   1.235   4.103  13.560  0.4147 -0.1727 -0.7811
  905MPD2    C413309   1.196   4.221  13.507 -0.3983 -0.4179 -0.4656
  905MPD2    C513310   1.125   4.305  13.584 -0.7939 -0.0848 -0.5399
  905MPD2     H13311   1.242   3.983  13.738 -0.5535 -1.0297 -1.5371
  905MPD2    H113312   1.233   4.256  13.411 -0.9373 -0.1485 -0.5727
  905MPD2    H213313   1.014   4.335  13.764 -1.2841 -0.0506 -1.4583
  905MPD2    H313314   1.098   4.406  13.555  0.3362  0.6617  0.9503
  905MPD2     N13315   1.328   4.032  13.485  0.8495 -0.2096  0.4216
  905MPD2    H513316   1.368   4.077  13.404 -1.9876 -2.3826 -2.1781
  905MPD2    N113317   1.072   4.103  13.893 -0.3833 -0.9700 -0.4123
  905MPD2    H713318   1.030   4.173  13.953 -3.5898 -0.6912 -2.9638
  906MPD2     C13319   3.197   3.830  11.566 -0.2575  0.2399  1.0442
  906MPD2    C113320   3.174   3.743  11.459 -0.1017  0.2748 -1.1341
  906MPD2    C213321   3.083   3.641  11.480  0.0050  0.8995 -0.1420
  906MPD2    C313322   3.034   3.616  11.606  0.1253 -0.0535  0.5819
  906MPD2    C413323   3.091   3.683  11.716  0.1466  0.5100  0.4181
  906MPD2    C513324   3.156   3.798  11.694  1.1594 -0.3873 -0.8256
  906MPD2     H13325   3.057   3.562  11.410  0.6627  1.9311 -1.5535
  906MPD2    H113326   3.068   3.657  11.819  0.0189  0.7331  0.4473
  906MPD2    H213327   3.249   3.925  11.557  0.3427 -0.3971 -2.2824
  906MPD2    H313328   3.175   3.863  11.779  0.6069  1.1947 -1.9051
  906MPD2     N13329   2.939   3.520  11.627  0.6104  0.2279 -1.2095
  906MPD2    H513330   2.926   3.498  11.725 -2.0070  1.6494 -1.2390
  906MPD2    N113331   3.225   3.759  11.326 -0.2674  0.1531 -0.2792
  906MPD2    H713332   3.212   3.675  11.272 -2.6709  0.3256  0.0518
  907MPD2     C13333   2.502   3.172  15.786 -0.1284 -0.0980  0.2446
  907MPD2    C113334   2.502   3.034  15.794  0.3348  0.0343 -0.2712
  907MPD2    C213335   2.499   2.978  15.915 -0.4959  0.5445 -0.0956
  907MPD2    C313336   2.500   3.061  16.026 -0.6598  0.3933  0.5419
  907MPD2    C413337   2.499   3.194  16.022  0.3133 -0.2420  0.3944
  907MPD2    C513338   2.502   3.252  15.897  0.7104 -0.4846  0.4192
  907MPD2     H13339   2.494   2.871  15.923 -1.7682  0.5525 -0.9011
  907MPD2    H113340   2.484   3.264  16.104 -0.3254 -0.0385  0.1019
  907MPD2    H213341   2.526   3.226  15.695  0.9439  0.5444  0.9046
  907MPD2    H313342   2.490   3.360  15.890 -1.9462 -0.7339  0.8591
  907MPD2     N13343   2.522   2.999  16.157  0.1756  0.0358  0.5125
  907MPD2    H513344   2.497   2.901  16.165 -2.5134  0.7056  0.4403
  907MPD2    N113345   2.501   2.949  15.682 -0.0868 -0.0387 -0.3383
  907MPD2    H713346   2.519   2.851  15.700 -1.7966 -0.3067 -0.0976
  908MPD2     C13347   0.114   3.398   9.834 -0.3284  0.1063 -0.1636
  908MPD2    C113348   0.188   3.366   9.945 -0.1809  0.5458  0.8078
  908MPD2    C213349   0.245   3.468  10.022  0.6191  0.4526 -0.1697
  908MPD2    C313350   0.211   3.600  10.000 -0.3605 -0.0045 -0.1422
  908MPD2    C413351   0.131   3.632   9.892 -0.4515  0.1690 -0.0146
  908MPD2    C513352   0.093   3.526   9.810 -0.3681  0.0911 -0.1444
  908MPD2     H13353   0.305   3.439  10.107  2.3528  2.9250 -0.5474
  908MPD2    H113354   0.107   3.729   9.850 -0.2066  0.9944  1.7443
  908MPD2    H213355   0.078   3.323   9.764 -1.1966 -0.2739  0.7004
  908MPD2    H313356   0.027   3.555   9.730  0.3944 -0.8214 -1.1068
  908MPD2     N13357   0.242   3.690  10.102  0.1989  0.5724 -0.6416
  908MPD2    H513358   0.267   3.646  10.190 -0.3687  0.2746 -0.6277
  908MPD2    N113359   0.219   3.235   9.985 -0.0983 -0.7881 -0.1449
  908MPD2    H713360   0.272   3.222  10.071 -1.8981  1.0880  1.2320
  909MPD2     C13361   0.757   1.883  12.377  0.3622 -0.0918  0.6555
  909MPD2    C113362   0.696   1.970  12.285 -0.1783 -1.0215 -0.2695
  909MPD2    C213363   0.584   2.041  12.328  0.1381  0.7497 -0.4108
  909MPD2    C313364   0.533   2.032  12.460  0.1879 -0.3516  0.0958
  909MPD2    C413365   0.599   1.950  12.544 -0.1785  0.2200 -0.0106
  909MPD2    C513366   0.707   1.876  12.504  0.1680  0.2555  0.1829
  909MPD2     H13367   0.520   2.089  12.255  0.4052 -2.6879 -2.9304
  909MPD2    H113368   0.580   1.948  12.650  3.6494  0.6093  0.6525
  909MPD2    H213369   0.837   1.818  12.344 -0.9903 -0.0609 -2.7350
  909MPD2    H313370   0.756   1.820  12.584  0.6635  1.3684  0.6600
  909MPD2     N13371   0.420   2.107  12.499 -0.8712  0.0732 -0.7618
  909MPD2    H513372   0.388   2.177  12.432  0.4322  0.9083 -0.5222
  909MPD2    N113373   0.718   1.973  12.146  0.3004 -0.2663 -0.0868
  909MPD2    H713374   0.669   2.046  12.095  0.1087  1.6252  2.8103
  910MPD2     C13375   2.166   4.016  16.278  0.4488  0.2045 -0.5772
  910MPD2    C113376   2.086   3.906  16.241  0.3896 -0.2847  1.0577
  910MPD2    C213377   1.990   3.921  16.137  0.6154 -0.0461 -0.0441
  910MPD2    C313378   1.982   4.045  16.072 -0.5026 -0.1574 -0.5856
  910MPD2    C413379   2.056   4.148  16.120 -0.0632  0.4221  0.2202
  910MPD2    C513380   2.147   4.139  16.222 -0.0596  0.1891  0.3607
  910MPD2     H13381   1.929   3.838  16.104  1.0366  0.2956 -1.6859
  910MPD2    H113382   2.038   4.246  16.078  0.3489  0.5756  0.3972
  910MPD2    H213383   2.249   4.008  16.347 -0.7060 -0.1809  0.7483
  910MPD2    H313384   2.199   4.223  16.267  1.5899 -1.6942  1.9182
  910MPD2     N13385   1.886   4.090  15.988 -0.0782 -0.5625 -0.0922
  910MPD2    H513386   1.892   4.186  15.957 -0.3922 -0.4974  0.0489
  910MPD2    N113387   2.103   3.777  16.301 -0.9237  0.3153 -0.7253
  910MPD2    H713388   2.053   3.701  16.256  0.5170 -0.4079 -1.0986
  911MPD2     C13389   4.715   4.231  16.534  0.4269  0.5968  0.2843
  911MPD2    C113390   0.066   4.308  16.601 -0.2837  0.1267  0.6922
  911MPD2    C213391   0.054   4.446  16.580  0.0616 -0.5775 -0.1112
  911MPD2    C313392   4.701   4.491  16.492  1.0273  0.6907 -0.1193
  911MPD2    C413393   4.606   4.411  16.446  0.1881 -0.5933  0.5453
  911MPD2    C513394   4.617   4.277  16.457  0.3660  0.0791  0.4867
  911MPD2     H13395   0.123   4.514  16.628  0.1338 -0.1123 -0.8826
  911MPD2    H113396   4.532   4.464  16.388  1.2367 -0.4477 -0.6572
  911MPD2    H213397   4.721   4.123  16.546  0.9594  0.2947 -2.7980
  911MPD2    H313398   4.536   4.213  16.422  1.2858 -1.6458  1.4735
  911MPD2     N13399   4.684   4.628  16.453 -0.5907  0.3029 -0.5737
  911MPD2    H513400   4.600   4.655  16.403 -1.5267 -0.1293  0.7935
  911MPD2    N113401   0.170   4.248  16.666  0.1170  0.2287  0.3735
  911MPD2    H713402   0.186   4.149  16.653  1.8085  0.5677 -0.1680
  912MPD2     C13403   4.326   4.702  15.910 -0.0004 -0.4363  1.1359
  912MPD2    C113404   4.368   4.681  16.042  0.5102  0.6964  0.3704
  912MPD2    C213405   4.329   4.564  16.106 -0.0760 -0.0834  0.1927
  912MPD2    C313406   4.245   4.474  16.053  0.6304 -0.6739  0.1141
  912MPD2    C413407   4.222   4.492  15.914  0.2879 -0.4230 -0.5229
  912MPD2    C513408   4.273   4.601  15.845 -0.3213  0.3571 -0.0611
  912MPD2     H13409   4.354   4.543  16.210 -2.1267  1.1950  0.9580
  912MPD2    H113410   4.157   4.430  15.854 -2.0259  0.8514  0.6270
  912MPD2    H213411   4.337   0.056  15.861 -0.3748 -1.3399 -0.7152
  912MPD2    H313412   4.241   4.621  15.743  0.0256  0.9109 -0.0562
  912MPD2     N13413   4.182   4.388  16.136  0.3598  0.2661 -0.2828
  912MPD2    H513414   4.217   4.397  16.231 -1.8336  0.0114  0.5456
  912MPD2    N113415   4.431   0.043  16.112 -0.3560  0.2809 -0.1789
  912MPD2    H713416   4.449   0.131  16.065 -0.6289  0.4384  0.0119
  913MPD2     C13417   4.611   0.188  10.458  0.1860 -0.3885 -0.8339
  913MPD2    C113418   4.662   0.238  10.571 -0.8347 -0.1326  0.1293
  913MPD2    C213419   0.044   0.309  10.578 -0.6842  0.1837  0.8991
  913MPD2    C313420   0.115   0.329  10.459  0.9451  0.1139 -0.1706
  913MPD2    C413421   0.057   0.275  10.343 -0.2371 -0.0320  0.2306
  913MPD2    C513422   4.687   0.191  10.342 -0.4987  0.3892  0.3891
  913MPD2     H13423   0.089   0.349  10.668 -0.2019 -0.0052  0.7431
  913MPD2    H113424   0.098   0.296  10.244  1.5547  0.6715  1.1184
  913MPD2    H213425   4.515   0.139  10.461  0.7264 -1.5619 -3.2040
  913MPD2    H313426   4.649   0.143  10.253 -0.2895 -0.8777  0.9843
  913MPD2     N13427   0.240   0.400  10.437  0.2277  0.8083  0.1476
  913MPD2    H513428   0.277   0.403  10.343  1.7152 -3.2306  0.6165
  913MPD2    N113429   4.581   0.217  10.683  0.2882 -0.3416 -0.2444
  913MPD2    H713430   4.503   0.152  10.677  0.2572 -0.4425  1.2763
  914MPD2     C13431   2.493   0.402  12.063 -0.1077 -0.3013 -0.2038
  914MPD2    C113432   2.393   0.494  12.089  0.2967  0.1197 -0.2038
  914MPD2    C213433   2.394   0.564  12.214 -0.0125 -0.0370  0.7833
  914MPD2    C313434   2.496   0.550  12.310  0.6112 -0.7269 -0.4764
  914MPD2    C413435   2.592   0.459  12.273  0.0624  0.5032 -0.5686
  914MPD2    C513436   2.589   0.392  12.161  0.5563  0.2793  0.4210
  914MPD2     H13437   2.326   0.648  12.220  0.5843  0.4121  1.3413
  914MPD2    H113438   2.685   0.443  12.326  0.2299  1.7691 -0.4745
  914MPD2    H213439   2.484   0.350  11.968 -1.1251  0.0678 -0.3121
  914MPD2    H313440   2.667   0.323  12.131  0.2757  1.4653 -3.0181
  914MPD2     N13441   2.494   0.634  12.430 -0.2260 -0.4133  0.0995
  914MPD2    H513442   2.419   0.702  12.431  0.1412 -0.0281  0.5636
  914MPD2    N113443   2.299   0.514  11.987  0.6735  0.2387  0.2439
  914MPD2    H713444   2.306   0.473  11.894  0.7075 -1.0291  0.7957
  915MPD2     C13445   1.005   1.258  15.642 -0.5930 -0.5308 -0.2507
  915MPD2    C113446   0.875   1.214  15.650  0.0654 -0.0344  0.5032
  915MPD2    C213447   0.788   1.263  15.746  0.0505  0.2181  0.4464
  915MPD2    C313448   0.828   1.371  15.831 -0.1993 -0.5038  0.0488
  915MPD2    C413449   0.958   1.414  15.818 -0.0179 -0.4082  0.0671
  915MPD2    C513450   1.052   1.351  15.736 -0.0877 -1.3577  0.3602
  915MPD2     H13451   0.684   1.232  15.749 -0.1901  0.7894 -2.1852
  915MPD2    H113452   0.980   1.487  15.894 -0.5195  0.3891 -0.5451
  915MPD2    H213453   1.073   1.208  15.574  0.0701  1.4079 -0.9958
  915MPD2    H313454   1.157   1.375  15.737 -0.1922 -0.8789 -1.1956
  915MPD2     N13455   0.737   1.426  15.929  0.1801 -0.4510  0.0679
  915MPD2    H513456   0.649   1.378  15.942  0.1934 -0.7298 -0.8863
  915MPD2    N113457   0.843   1.103  15.568  0.3621 -1.1150  0.7953
  915MPD2    H713458   0.905   1.082  15.491  1.2190  0.6736  0.9965
  916MPD2     C13459   3.779   3.973  15.730  0.7242 -0.4319  0.5594
  916MPD2    C113460   3.690   3.918  15.817  0.6334  0.2570  0.5236
  916MPD2    C213461   3.619   3.805  15.777 -0.0077 -0.1516 -0.4939
  916MPD2    C313462   3.623   3.771  15.646  0.3728  0.2905 -0.5154
  916MPD2    C413463   3.699   3.845  15.552 -0.4601 -0.2481  0.1241
  916MPD2    C513464   3.774   3.946  15.597  0.1057 -0.6490  0.1959
  916MPD2     H13465   3.549   3.753  15.842 -0.1411  1.7487  0.9161
  916MPD2    H113466   3.706   3.827  15.445 -0.3131  0.8575 -0.0528
  916MPD2    H213467   3.848   4.043  15.775 -0.5065  0.9434  0.3467
  916MPD2    H313468   3.841   3.998  15.530 -0.4600  0.0167  0.1524
  916MPD2     N13469   3.545   3.661  15.615 -0.0889 -0.5571  0.2308
  916MPD2    H513470   3.487   3.623  15.690  0.5147  0.7511  1.3590
  916MPD2    N113471   3.693   3.957  15.955 -0.0912 -0.7894 -0.1601
  916MPD2    H713472   3.728   4.050  15.977  1.3481 -0.2621 -4.6595
  917MPD2     C13473   3.908   2.128  11.950  0.2071  0.8108 -0.6428
  917MPD2    C113474   3.822   2.044  11.879  0.3224  0.6840 -0.4025
  917MPD2    C213475   3.838   2.039  11.744  0.0226 -1.0037  0.1891
  917MPD2    C313476   3.920   2.110  11.671 -1.0191  1.1172  0.2006
  917MPD2    C413477   4.005   2.197  11.739 -0.1435 -0.3007 -0.5521
  917MPD2    C513478   3.994   2.205  11.874  0.1181 -0.1240 -0.3785
  917MPD2     H13479   3.793   1.954  11.695 -1.4342  0.2756 -0.6872
  917MPD2    H113480   4.088   2.252  11.696 -0.3152  1.3258  1.1915
  917MPD2    H213481   3.904   2.124  12.058 -0.5541 -1.6690 -0.7420
  917MPD2    H313482   4.066   2.264  11.930  0.0342 -1.0896  0.7501
  917MPD2     N13483   3.906   2.111  11.529 -0.0812  0.0173  0.3478
  917MPD2    H513484   3.974   2.169  11.480 -2.9233  3.3757  0.4061
  917MPD2    N113485   3.738   1.952  11.950 -0.0559 -0.3446  0.0189
  917MPD2    H713486   3.756   1.946  12.050 -2.2962  0.2313  0.4544
  918MPD2     C13487   3.807   1.879  12.781 -0.4234 -0.6394  0.2618
  918MPD2    C113488   3.893   1.891  12.681 -0.4823 -0.1488 -0.1824
  918MPD2    C213489   3.860   1.850  12.549  0.4909  0.4590 -0.9718
  918MPD2    C313490   3.732   1.815  12.523 -0.4242  0.5562  0.5077
  918MPD2    C413491   3.642   1.817  12.619 -0.4491  0.5186  0.2803
  918MPD2    C513492   3.683   1.833  12.748  0.1108  0.7370 -0.3172
  918MPD2     H13493   3.938   1.849  12.473 -0.0147  1.2121 -1.4965
  918MPD2    H113494   3.539   1.786  12.601  0.3448 -1.2951 -1.1195
  918MPD2    H213495   3.839   1.886  12.884  1.9408  0.6637 -0.5732
  918MPD2    H313496   3.607   1.827  12.825 -0.0795 -0.8230 -0.6115
  918MPD2     N13497   3.694   1.774  12.387  0.3145  0.4787 -0.6204
  918MPD2    H513498   3.764   1.777  12.314  3.8195  2.7526  2.8740
  918MPD2    N113499   4.027   1.944  12.697  0.5498 -0.2196 -0.0593
  918MPD2    H713500   4.098   1.938  12.625 -0.5930  2.1313 -1.3860
  919MPD2     C13501   4.429   0.597  12.059  0.0764  0.2295 -0.3365
  919MPD2    C113502   4.418   0.473  12.000 -0.1364 -0.0512 -0.3635
  919MPD2    C213503   4.385   0.475  11.862 -0.1124  0.4629 -0.1430
  919MPD2    C313504   4.353   0.590  11.802 -0.4346 -0.1218 -0.0804
  919MPD2    C413505   4.367   0.712  11.862  0.3919  0.2899 -0.1491
  919MPD2    C513506   4.407   0.716  11.991  0.0893 -0.1771  0.0238
  919MPD2     H13507   4.376   0.388  11.798  0.9969  0.3381 -0.1350
  919MPD2    H113508   4.351   0.804  11.808  2.0908 -0.2682 -1.6026
  919MPD2    H213509   4.451   0.608  12.165  0.0419  0.0989 -0.3159
  919MPD2    H313510   4.399   0.818  12.028 -1.0906  0.2657 -1.4405
  919MPD2     N13511   4.312   0.567  11.668 -0.5607  0.1047 -0.0365
  919MPD2    H513512   4.302   0.468  11.648 -0.0515  0.3949 -1.7305
  919MPD2    N113513   4.432   0.351  12.071  0.2803  0.1612 -0.2915
  919MPD2    H713514   4.436   0.354  12.172  2.0362 -1.3171 -0.3177
  920MPD2     C13515   4.299   0.475  10.605  0.4811  0.4235 -0.3154
  920MPD2    C113516   4.171   0.462  10.647  0.8313  0.2433  0.1977
  920MPD2    C213517   4.141   0.488  10.782  0.4863 -0.1484 -0.0283
  920MPD2    C313518   4.238   0.549  10.860 -0.7141 -0.3455  0.6029
  920MPD2    C413519   4.367   0.560  10.809 -0.7609  1.0670  0.6479
  920MPD2    C513520   4.400   0.525  10.685 -0.6194  0.2102  0.0992
  920MPD2     H13521   4.040   0.462  10.813 -0.0378  0.5527 -1.1458
  920MPD2    H113522   4.452   0.585  10.871  1.3807  0.7970 -2.1546
  920MPD2    H213523   4.329   0.462  10.501  0.4979  0.3120 -0.2964
  920MPD2    H313524   4.498   0.559  10.654 -1.3326  1.8547 -0.3267
  920MPD2     N13525   4.201   0.589  10.989  0.2456  0.5425  0.2411
  920MPD2    H513526   4.102   0.583  11.011 -0.2028  0.3818 -1.8268
  920MPD2    N113527   4.066   0.416  10.560 -0.0022  0.5362 -0.4767
  920MPD2    H713528   3.976   0.419  10.606  0.2292  1.9513 -0.1327
  921MPD2     C13529   0.985   4.695  17.128 -0.0412  0.4919 -0.3640
  921MPD2    C113530   1.011   4.646  17.002 -0.1016  0.1261  0.7682
  921MPD2    C213531   0.908   4.568  16.939 -0.1731  0.3707  0.3054
  921MPD2    C313532   0.784   4.542  17.000  0.1744 -0.4263  0.7618
  921MPD2    C413533   0.756   4.606  17.114 -0.1568  0.1220  0.3902
  921MPD2    C513534   0.849   4.686  17.174  0.2365  0.6064 -0.0227
  921MPD2     H13535   0.935   4.520  16.845  1.5234 -1.3273  1.6507
  921MPD2    H113536   0.656   4.606  17.156 -0.9165 -1.7934 -1.4484
  921MPD2    H213537   1.060   0.011  17.180 -0.5061 -0.6602  1.5706
  921MPD2    H313538   0.823   4.736  17.267 -2.2404 -2.5071  0.9338
  921MPD2     N13539   0.695   4.452  16.946  0.1110 -0.1841  0.5203
  921MPD2    H513540   0.613   4.431  17.003  1.7497 -0.9954  2.5623
  921MPD2    N113541   1.139   4.664  16.945  0.3014 -0.2557  0.7817
  921MPD2    H713542   1.212   4.714  16.996 -0.7411  1.4826  0.5901
  922MPD2     C13543   1.254   2.750  17.545 -0.1334  0.5622  0.2914
  922MPD2    C113544   1.230   2.686  17.669 -0.1442 -0.1824 -0.2553
  922MPD2    C213545   1.170   2.559  17.668  0.3042  0.1109  0.4737
  922MPD2    C313546   1.135   2.496  17.549 -0.0544 -0.4485  0.3878
  922MPD2    C413547   1.174   2.554  17.426  0.3979  0.2354 -0.3813
  922MPD2    C513548   1.233   2.680  17.427  0.1891 -0.4062 -0.4961
  922MPD2     H13549   1.136   2.513  17.761  2.3495  1.0487  1.7013
  922MPD2    H113550   1.155   2.519  17.325  0.3361 -0.5521 -0.1003
  922MPD2    H213551   1.294   2.850  17.546  1.3738 -0.0307 -0.9587
  922MPD2    H313552   1.267   2.722  17.333 -2.1136  3.5759  0.4546
  922MPD2     N13553   1.047   2.384  17.555 -0.3219  0.1485  0.2788
  922MPD2    H513554   1.004   2.358  17.643  0.8245 -1.6597  0.3061
  922MPD2    N113555   1.270   2.757   0.021  0.0918  0.2623  0.1173
  922MPD2    H713556   1.312   2.846  17.764  1.5532 -0.2751  0.6818
  923MPD2     C13557   2.748   3.022   9.528  0.3579  0.1137 -0.4313
  923MPD2    C113558   2.731   3.161   9.531  0.1999 -0.8954  1.0419
  923MPD2    C213559   2.815   3.236   9.616  0.1101 -0.1043 -0.3236
  923MPD2    C313560   2.900   3.178   9.708 -0.6808  0.1193  0.2912
  923MPD2    C413561   2.915   3.042   9.691  0.7237  0.2388 -0.2742
  923MPD2    C513562   2.845   2.964   9.603 -0.2123  0.1664 -0.2431
  923MPD2     H13563   2.808   3.344   9.606 -1.1903 -0.2555 -1.1722
  923MPD2    H113564   2.988   2.988   9.751  1.3895  1.0473 -0.3517
  923MPD2    H213565   2.681   2.952   9.479  1.5396 -1.4246  0.1638
  923MPD2    H313566   2.863   2.858   9.610 -0.6753  0.0091 -1.3638
  923MPD2     N13567   2.967   3.248   9.811 -0.5670 -0.2590 -0.0665
  923MPD2    H513568   3.002   3.193   9.889 -1.7463  0.8662  1.2600
  923MPD2    N113569   2.630   3.219   9.446 -0.1327 -0.1244  0.5869
  923MPD2    H713570   2.592   3.155   9.377 -1.3040  0.9500  0.2405
  924MPD2     C13571   2.604   2.207  16.218  0.2448 -0.4184 -0.9231
  924MPD2    C113572   2.586   2.248  16.348 -0.1787 -0.0101 -0.5670
  924MPD2    C213573   2.648   2.367  16.391 -0.4672 -0.8968  0.9117
  924MPD2    C313574   2.702   2.458  16.299  0.0766 -0.2564  0.2503
  924MPD2    C413575   2.705   2.422  16.167 -0.1783 -0.0103 -0.1519
  924MPD2    C513576   2.661   2.294  16.124  0.1733  0.2871  0.6078
  924MPD2     H13577   2.641   2.388  16.497 -3.0189 -0.1783  0.6154
  924MPD2    H113578   2.749   2.492  16.097  0.9123 -0.0499  0.5038
  924MPD2    H213579   2.578   2.109  16.179  0.9945 -0.1643 -2.0684
  924MPD2    H313580   2.685   2.265  16.022 -2.5936  2.0532 -0.5621
  924MPD2     N13581   2.730   2.590  16.326  0.4374 -0.1291 -0.2618
  924MPD2    H513582   2.745   2.653  16.249 -2.7425  0.6872 -0.2284
  924MPD2    N113583   2.529   2.156  16.437  0.1259  0.1094  0.1858
  924MPD2    H713584   2.524   2.058  16.410 -1.0668  0.1204  0.3484
  925MPD2     C13585   1.472   0.344  15.069 -0.3932  0.8179  0.7047
  925MPD2    C113586   1.402   0.455  15.028  0.0570 -0.1725 -0.0366
  925MPD2    C213587   1.326   0.512  15.126  0.0672 -0.3016 -0.4558
  925MPD2    C313588   1.330   0.476  15.260 -0.2826  0.3629  0.3279
  925MPD2    C413589   1.410   0.379  15.295 -0.0458  0.3559 -0.8968
  925MPD2    C513590   1.475   0.307  15.198  0.2886 -0.0954 -0.5923
  925MPD2     H13591   1.259   0.591  15.093  2.2214  1.5657 -0.3794
  925MPD2    H113592   1.413   0.342  15.397  0.7332  1.9939 -0.3222
  925MPD2    H213593   1.507   0.273  14.994  1.5006 -1.1564  3.4749
  925MPD2    H313594   1.528   0.216  15.224  0.9666  0.6279  0.5533
  925MPD2     N13595   1.266   0.537  15.366  0.3348  0.6135  0.4190
  925MPD2    H513596   1.277   0.485  15.453  0.9743  1.2577  0.7231
  925MPD2    N113597   1.393   0.493  14.895 -0.3764 -0.0098  0.3742
  925MPD2    H713598   1.325   0.564  14.873  2.1738  2.0777 -0.7447
  926MPD2     C13599   4.680   3.299  14.030  0.3237 -0.0416 -0.4723
  926MPD2    C113600   4.686   3.421  13.964  0.1878  0.9155  0.0524
  926MPD2    C213601   0.056   3.447  13.886  0.3942  0.2373  0.4030
  926MPD2    C313602   0.150   3.349  13.859  0.0048  0.3835  0.3963
  926MPD2    C413603   0.151   3.234  13.930  0.1721  0.0881  1.2115
  926MPD2    C513604   0.038   3.210  14.004 -0.2843 -0.6855  0.2892
  926MPD2     H13605   0.058   3.541  13.832 -2.0027  0.5094  0.7781
  926MPD2    H113606   0.219   3.152  13.908 -0.1215  0.0020  0.6284
  926MPD2    H213607   4.599   3.264  14.093 -1.3364 -0.3863 -2.7958
  926MPD2    H313608   0.026   3.112  14.048  0.8500 -1.7053 -1.6814
  926MPD2     N13609   0.262   3.364  13.768  0.1411  0.3203  0.6244
  926MPD2    H513610   0.329   3.288  13.771 -1.0580 -0.7209  0.8123
  926MPD2    N113611   4.582   3.519  13.982  0.0653 -0.0691  0.4585
  926MPD2    H713612   4.589   3.600  13.922  0.4156 -0.4128  0.0244
  927MPD2     C13613   4.550   1.510   0.155  0.1629  0.0150 -0.2737
  927MPD2    C113614   4.605   1.383   0.124 -0.1797 -0.4124 -0.2045
  927MPD2    C213615   4.659   1.371  17.764  0.1891  0.2137 -0.1183
  927MPD2    C313616   4.667   1.473  17.671  0.0595  0.7449 -0.4272
  927MPD2    C413617   4.617   1.599  17.706 -0.4125 -0.4011 -0.6045
  927MPD2    C513618   4.559   1.616   0.064 -0.4186  0.5119  0.7487
  927MPD2     H13619   4.693   1.272  17.737 -2.3561 -0.0017 -2.5761
  927MPD2    H113620   4.633   1.688  17.646 -0.4864 -0.6886 -1.0527
  927MPD2    H213621   4.504   1.520   0.252  0.0495  2.0780 -0.5303
  927MPD2    H313622   4.523   1.712   0.099 -1.5442  1.1627 -2.1627
  927MPD2     N13623   4.730   1.440  17.546  0.9094 -0.2042  0.3907
  927MPD2    H513624   0.020   1.346  17.525  0.5856 -0.2418  0.0657
  927MPD2    N113625   4.590   1.281   0.219  0.2464  0.4026 -0.8144
  927MPD2    H713626   4.577   1.305   0.317 -0.5750  2.7782 -1.4927
  928MPD2     C13627   3.062   0.080   1.154  0.5404  0.1955 -0.0549
  928MPD2    C113628   3.174   0.147   1.117 -0.9909 -0.6420  0.3661
  928MPD2    C213629   3.264   0.095   1.025  0.2493  0.4688  0.7494
  928MPD2    C313630   3.245   4.718   0.955 -0.4997 -0.7225  0.7028
  928MPD2    C413631   3.120   4.653   0.993  0.0453  0.1117  0.3604
  928MPD2    C513632   3.036   4.704   1.087 -0.0256  0.4192 -0.9140
  928MPD2     H13633   3.357   0.145   1.003 -0.5211  0.8431 -1.6704
  928MPD2    H113634   3.088   4.556   0.957 -0.9488  0.2313  0.9269
  928MPD2    H213635   2.990   0.111   1.230  0.9269 -0.5398  0.6096
  928MPD2    H313636   2.946   4.648   1.109  0.4361 -0.4227 -1.1698
  928MPD2     N13637   3.335   4.658   0.858 -0.0075  0.4792 -0.7522
  928MPD2    H513638   3.292   4.577   0.816 -1.3164 -0.6056  2.6865
  928MPD2    N113639   3.194   0.262   1.192  0.1521  0.4095  0.1926
  928MPD2    H713640   3.126   0.284   1.263  0.3205  0.9325  0.1952
  929MPD2     C13641   2.716   3.906  10.276  0.3696  0.2211 -0.0175
  929MPD2    C113642   2.582   3.929  10.264  0.7302 -0.1618 -0.1055
  929MPD2    C213643   2.535   3.993  10.155  0.6715 -0.0038 -0.3636
  929MPD2    C313644   2.614   4.036  10.050 -0.2240  0.4338  0.3199
  929MPD2    C413645   2.749   4.010  10.058 -0.2774  0.1241 -0.2963
  929MPD2    C513646   2.797   3.951  10.173 -0.7632  0.2484  0.1588
  929MPD2     H13647   2.431   4.024  10.161  1.1878  1.6529 -0.1001
  929MPD2    H113648   2.823   4.052   9.990 -2.3273  0.5728 -2.2725
  929MPD2    H213649   2.760   3.869  10.368 -0.1659 -2.8807 -1.0085
  929MPD2    H313650   2.905   3.948  10.178 -0.7819 -1.3337 -0.3812
  929MPD2     N13651   2.575   4.113   9.942 -0.8651  0.2811 -0.4396
  929MPD2    H513652   2.647   4.143   9.876 -0.0198  2.0521  1.2829
  929MPD2    N113653   2.503   3.881  10.369  0.5024  0.3142 -1.0304
  929MPD2    H713654   2.546   3.842  10.452 -0.3979  2.6960  0.5763
  930MPD2     C13655   4.378   1.485  14.286  1.0196  0.2477  0.4238
  930MPD2    C113656   4.507   1.446  14.259 -0.0925  0.3031 -0.1601
  930MPD2    C213657   4.533   1.339  14.176  0.0023  0.0354 -0.0449
  930MPD2    C313658   4.427   1.272  14.125 -0.8213 -0.0449  0.8107
  930MPD2    C413659   4.300   1.305  14.153 -1.0098  0.3074 -0.3543
  930MPD2    C513660   4.278   1.406  14.240  0.3900 -0.0059  0.4234
  930MPD2     H13661   4.634   1.307  14.154 -0.1805 -0.3935 -0.2693
  930MPD2    H113662   4.216   1.255  14.106 -1.0864 -0.1129  0.2253
  930MPD2    H213663   4.357   1.566  14.356 -1.0233  0.9797 -1.0414
  930MPD2    H313664   4.177   1.432  14.267 -0.0893 -2.5085  1.0164
  930MPD2     N13665   4.439   1.181  14.017 -0.1450 -0.5771  0.0361
  930MPD2    H513666   4.349   1.156  13.977  0.6683 -3.3382 -0.0288
  930MPD2    N113667   4.610   1.526  14.312  0.3007  0.2221 -0.5026
  930MPD2    H713668   4.583   1.620  14.341 -0.1573  0.3633 -1.3799
  931MPD2     C13669   4.706   0.488   0.251  0.1729  0.3753 -0.2960
  931MPD2    C113670   4.680   0.549   0.369 -0.0337 -0.4817  0.8245
  931MPD2    C213671   4.732   0.495   0.491  0.0169 -0.1658  0.4258
  931MPD2    C313672   0.062   0.376   0.495  0.2775  0.1179  0.1900
  931MPD2    C413673   0.089   0.319   0.376 -0.2553  0.3832  1.1289
  931MPD2    C513674   0.041   0.372   0.258  0.0980  0.2089 -0.3747
  931MPD2     H13675   4.702   0.537   0.586  0.5505  0.9176  0.1102
  931MPD2    H113676   0.162   0.240   0.364 -3.1951 -2.2273  0.2226
  931MPD2    H213677   4.667   0.514   0.153  1.7510 -2.6133 -1.7330
  931MPD2    H313678   0.064   0.319   0.166 -1.3495 -2.4990  0.8457
  931MPD2     N13679   0.116   0.318   0.610  0.0170 -0.3559  0.2228
  931MPD2    H513680   0.151   0.223   0.598 -3.7654 -1.7796  0.6557
  931MPD2    N113681   4.616   0.674   0.368  0.2602  0.2493 -0.0775
  931MPD2    H713682   4.595   0.714   0.277 -2.4954  2.3998  1.4867
  932MPD2     C13683   1.648   0.094  11.018 -0.7541 -0.5213 -1.0050
  932MPD2    C113684   1.720   0.128  11.139  0.0697 -0.5742  0.8706
  932MPD2    C213685   1.740   0.028  11.233 -0.2231  0.5686  0.3125
  932MPD2    C313686   1.681   4.646  11.218 -0.0355 -0.4586  0.5567
  932MPD2    C413687   1.613   4.617  11.099  0.0533 -0.1575  0.2575
  932MPD2    C513688   1.603   4.712  11.000  0.3976 -0.2018  0.1625
  932MPD2     H13689   1.807   0.050  11.315 -0.3421  0.2808  0.4874
  932MPD2    H113690   1.583   4.513  11.089 -0.6949  0.1025 -0.1636
  932MPD2    H213691   1.623   0.167  10.942 -1.5146  0.1985 -0.0586
  932MPD2    H313692   1.554   4.682  10.909 -0.3693  0.6004  0.3061
  932MPD2     N13693   1.676   4.548  11.321 -0.2485 -0.4109  0.0754
  932MPD2    H513694   1.627   4.461  11.302  0.3152 -0.5314 -0.8163
  932MPD2    N113695   1.759   0.255  11.170 -0.0489  0.2330 -0.1701
  932MPD2    H713696   1.782   0.268  11.268  0.9654  0.9136 -0.4950
  933MPD2     C13697   2.798   0.906   1.535 -0.9114 -0.9932  0.0652
  933MPD2    C113698   2.820   0.827   1.429  0.6343 -0.0628 -0.2193
  933MPD2    C213699   2.713   0.783   1.355 -0.1365 -0.7058 -0.3904
  933MPD2    C313700   2.583   0.804   1.398  0.1778  0.4122 -0.1087
  933MPD2    C413701   2.564   0.878   1.513  0.1373 -0.0317  0.3441
  933MPD2    C513702   2.675   0.940   1.573 -0.7358 -0.4745  0.4551
  933MPD2     H13703   2.730   0.729   1.262 -0.3002 -2.6772  0.7071
  933MPD2    H113704   2.470   0.890   1.565 -0.8738 -0.9163 -1.2790
  933MPD2    H213705   2.885   0.942   1.589 -0.0940 -0.1857 -1.7477
  933MPD2    H313706   2.656   1.004   1.658 -0.4096  0.7919 -0.4255
  933MPD2     N13707   2.478   0.757   1.322 -0.9822  0.3119 -0.3793
  933MPD2    H513708   2.492   0.710   1.233 -2.4065 -1.4584  0.3502
  933MPD2    N113709   2.954   0.789   1.402 -0.3303  0.8367 -0.0046
  933MPD2    H713710   3.031   0.825   1.458  0.7570  0.5728 -1.3307
  934MPD2     C13711   4.600   2.236   1.671 -0.7745 -0.1993 -0.1729
  934MPD2    C113712   4.643   2.130   1.590  0.8310  0.3248 -0.0327
  934MPD2    C213713   4.544   2.055   1.530 -0.0257 -0.3007 -0.6609
  934MPD2    C313714   4.406   2.086   1.556 -0.6470  0.9049 -0.3356
  934MPD2    C413715   4.373   2.192   1.640  0.6385 -0.1257  0.2778
  934MPD2    C513716   4.469   2.261   1.701  0.2650  0.5324 -0.3131
  934MPD2     H13717   4.580   1.980   1.461 -2.2040  0.2253 -2.3843
  934MPD2    H113718   4.272   2.225   1.662  1.2167  2.2935 -0.7952
  934MPD2    H213719   4.673   2.297   1.722  0.7234 -2.4179  0.2813
  934MPD2    H313720   4.453   2.345   1.767 -0.2727  0.7186 -0.6833
  934MPD2     N13721   4.302   2.004   1.502  0.5710 -0.1211  1.0214
  934MPD2    H513722   4.208   2.043   1.503  0.4458 -0.4313  1.2822
  934MPD2    N113723   0.035   2.102   1.582  0.1298 -0.3982 -0.4884
  934MPD2    H713724   0.059   2.029   1.515  1.4402  0.9283 -1.4596
  935MPD2     C13725   4.404   1.185   0.962  0.0980 -0.1182  0.0401
  935MPD2    C113726   4.271   1.176   0.990 -0.5089  0.1292  0.1723
  935MPD2    C213727   4.207   1.283   1.053  0.1693 -0.5483  0.3391
  935MPD2    C313728   4.287   1.384   1.104 -0.6158  0.2479 -0.2373
  935MPD2    C413729   4.419   1.391   1.079 -0.1272 -0.7644  0.2493
  935MPD2    C513730   4.473   1.297   0.999 -0.0056  0.3277 -0.3850
  935MPD2     H13731   4.101   1.286   1.077 -0.1887 -1.4943 -1.1456
  935MPD2    H113732   4.479   1.475   1.112  0.5288 -0.2271 -2.3218
  935MPD2    H213733   4.455   1.111   0.902  0.6407  0.5176 -0.2909
  935MPD2    H313734   4.581   1.294   0.984 -0.2630  1.1773 -2.3648
  935MPD2     N13735   4.237   1.497   1.180  0.3602  0.0210 -0.3810
  935MPD2    H513736   4.308   1.562   1.213  1.2571 -1.0827 -0.1382
  935MPD2    N113737   4.191   1.065   0.941  0.2424 -0.0586 -0.1833
  935MPD2    H713738   4.093   1.083   0.959  0.5090 -0.1121  1.3339
  936MPD2     C13739   1.691   2.420  12.687 -0.0565 -0.9823  0.0861
  936MPD2    C113740   1.736   2.444  12.815 -0.6430 -0.0171 -0.5682
  936MPD2    C213741   1.832   2.540  12.841 -0.4102  0.8217 -0.2326
  936MPD2    C313742   1.894   2.613  12.739  0.2145  0.4174  0.0643
  936MPD2    C413743   1.855   2.582  12.608 -0.2742  0.4841 -0.3544
  936MPD2    C513744   1.752   2.495  12.586  0.3618  0.1978  0.3783
  936MPD2     H13745   1.844   2.559  12.947 -2.6803 -0.6488  0.2898
  936MPD2    H113746   1.886   2.639  12.521  1.7441  0.3956  0.3300
  936MPD2    H213747   1.610   2.354  12.659 -0.7366  0.0069 -0.3115
  936MPD2    H313748   1.719   2.487  12.482 -2.3649 -0.6190  1.2993
  936MPD2     N13749   1.983   2.722  12.773 -0.5816  0.2728  0.1588
  936MPD2    H513750   2.007   2.777  12.691  0.9079 -1.1525 -0.3648
  936MPD2    N113751   1.687   2.376  12.924  0.6789  0.4507 -0.0354
  936MPD2    H713752   1.736   2.405  13.008 -1.5151  0.8760  1.0846
  937MPD2     C13753   4.628   4.281  11.909 -0.1967  0.0327  0.3489
  937MPD2    C113754   4.656   4.411  11.890 -0.3100  0.4325 -0.2679
  937MPD2    C213755   4.715   4.449  11.771 -0.6755 -0.1565  0.3554
  937MPD2    C313756   0.006   4.351  11.676  0.6827 -0.1766 -0.6294
  937MPD2    C413757   4.702   4.225  11.690  0.0117 -0.3052  0.0805
  937MPD2    C513758   4.646   4.189  11.807  0.7577 -0.0371 -0.0708
  937MPD2     H13759   4.733   4.554  11.751 -0.9208 -0.3384 -0.8221
  937MPD2    H113760   4.719   4.147  11.616  0.2517 -0.7548  0.6026
  937MPD2    H213761   4.572   4.232  11.988 -2.1563  0.7232 -0.6274
  937MPD2    H313762   4.605   4.090  11.819  2.1460 -0.8810 -2.3755
  937MPD2     N13763   0.073   4.399  11.560  0.0503  0.1737 -0.2464
  937MPD2    H513764   0.102   4.496  11.560 -2.0817  0.8268  0.4145
  937MPD2    N113765   4.600   4.511  11.969 -0.3998  0.5438  0.3872
  937MPD2    H713766   4.606   4.604  11.929 -0.2231 -0.2491 -1.4317
  938MPD2     C13767   2.455   1.670   0.589  0.0225 -0.4945 -0.0897
  938MPD2    C113768   2.581   1.650   0.648 -0.5571 -0.3665  0.4577
  938MPD2    C213769   2.611   1.535   0.718  0.3248 -0.2424  0.1420
  938MPD2    C313770   2.510   1.442   0.739 -0.0410 -0.5124 -0.3238
  938MPD2    C413771   2.384   1.462   0.689 -0.0011  0.4029  0.1666
  938MPD2    C513772   2.356   1.571   0.609  0.3204 -0.1493  0.2244
  938MPD2     H13773   2.712   1.530   0.756 -0.2454 -0.3680  1.6389
  938MPD2    H113774   2.298   1.399   0.706 -0.8775  2.0449  1.8450
  938MPD2    H213775   2.439   1.751   0.518 -1.0804 -0.4953  0.1551
  938MPD2    H313776   2.257   1.596   0.573  0.0650  1.2610  1.8807
  938MPD2     N13777   2.523   1.332   0.818  0.4453  0.3873 -0.0598
  938MPD2    H513778   2.430   1.297   0.841  1.5915 -1.1764  2.1661
  938MPD2    N113779   2.692   1.738   0.616 -0.5792  0.0166 -0.3956
  938MPD2    H713780   2.784   1.710   0.648  0.0818  1.6294 -0.9360
  939MPD2     C13781   3.935   3.132   0.433  0.1199 -0.2616 -0.1075
  939MPD2    C113782   3.949   3.005   0.490  0.2136  0.2680  0.4557
  939MPD2    C213783   3.889   2.892   0.432  0.3753 -0.0662  1.3842
  939MPD2    C313784   3.819   2.907   0.312 -0.1066  0.0418  0.1930
  939MPD2    C413785   3.813   3.034   0.251  0.5200  0.0987  0.4027
  939MPD2    C513786   3.878   3.139   0.305  0.0623 -0.5807  0.2140
  939MPD2     H13787   3.900   2.793   0.475  1.8880 -0.3981  0.2399
  939MPD2    H113788   3.765   3.052   0.155 -0.7482  1.3700  1.2872
  939MPD2    H213789   3.970   3.225   0.475  0.5076 -0.7684  0.6900
  939MPD2    H313790   3.867   3.237   0.260 -0.1297 -0.7467 -0.0959
  939MPD2     N13791   3.745   2.803   0.264 -0.4528 -0.3722 -0.3927
  939MPD2    H513792   3.730   2.729   0.332  2.5014 -0.0738  0.5728
  939MPD2    N113793   4.024   2.997   0.611 -0.4468 -0.4834  0.2757
  939MPD2    H713794   4.077   3.079   0.637  0.8920 -0.6833 -1.8189
  940MPD2     C13795   3.245   3.062  12.542  0.2478 -0.2006 -0.9902
  940MPD2    C113796   3.114   3.025  12.541 -0.0537 -0.1700 -0.5383
  940MPD2    C213797   3.073   2.907  12.482 -0.2406 -0.4773 -0.8958
  940MPD2    C313798   3.170   2.817  12.456 -0.2912  0.1033 -0.1344
  940MPD2    C413799   3.304   2.853  12.455  0.1298  0.1694  0.4821
  940MPD2    C513800   3.340   2.981  12.496 -0.5458 -0.0815 -0.0730
  940MPD2     H13801   2.965   2.893  12.479  0.0548 -3.3078  2.5177
  940MPD2    H113802   3.386   2.789  12.425  0.6707  0.9240  0.3673
  940MPD2    H213803   3.268   3.159  12.586  0.7248 -1.0611  0.6631
  940MPD2    H313804   3.442   3.018  12.496 -0.9305  0.9464  1.2851
  940MPD2     N13805   3.138   2.684  12.408 -0.7003  0.0939 -0.6966
  940MPD2    H513806   3.214   2.622  12.384 -0.3711  0.0672  0.4378
  940MPD2    N113807   3.007   3.114  12.590 -0.4112  0.0519  0.0057
  940MPD2    H713808   2.908   3.095  12.579 -0.4728  0.3167  0.1078
  941MPD2     C13809   1.016   2.523  10.183  0.1177 -0.4705  0.3575
  941MPD2    C113810   1.117   2.463  10.250  0.4311 -0.4822  0.2593
  941MPD2    C213811   1.096   2.358  10.334  0.4865 -0.0798  0.0024
  941MPD2    C313812   0.972   2.295  10.348  0.2850 -0.4608 -0.0006
  941MPD2    C413813   0.868   2.365  10.295  0.0703  0.4420  0.5354
  941MPD2    C513814   0.889   2.472  10.212 -0.5999  0.0214 -0.0793
  941MPD2     H13815   1.185   2.321  10.383  0.4093  0.7752  0.7842
  941MPD2    H113816   0.768   2.325  10.300 -0.5821  1.9302 -0.5317
  941MPD2    H213817   1.029   2.608  10.117 -0.4442  0.4165  1.3934
  941MPD2    H313818   0.798   2.511  10.168  1.1465  1.4989 -2.3819
  941MPD2     N13819   0.952   2.174  10.426 -0.2456 -0.3182 -0.0981
  941MPD2    H513820   0.855   2.157  10.447 -0.5327  3.0269  1.3720
  941MPD2    N113821   1.249   2.516  10.255 -0.2877 -0.3261  0.0827
  941MPD2    H713822   1.315   2.477  10.321  0.4121  0.1159 -0.3583
  942MPD2     C13823   1.096   3.860   9.746  0.0933 -0.8410 -0.0134
  942MPD2    C113824   1.087   3.764   9.645 -0.1245  0.1347 -0.8777
  942MPD2    C213825   1.206   3.720   9.584  0.0779 -0.4878 -0.0763
  942MPD2    C313826   1.327   3.762   9.631  0.4681  0.2691  0.5517
  942MPD2    C413827   1.331   3.856   9.735  0.7469  1.1882 -0.3102
  942MPD2    C513828   1.216   3.897   9.787  0.3828 -0.0091  0.4722
  942MPD2     H13829   1.200   3.645   9.505 -1.7331 -0.4656  0.0422
  942MPD2    H113830   1.418   3.897   9.786  1.1527 -0.2625  0.1545
  942MPD2    H213831   1.013   3.899   9.803 -1.1645 -2.0392 -0.9993
  942MPD2    H313832   1.216   3.968   9.869 -0.6396  0.3404  0.1663
  942MPD2     N13833   1.453   3.715   9.579 -0.1559 -0.2454  0.1910
  942MPD2    H513834   1.537   3.748   9.626 -1.5344  1.3724  1.5489
  942MPD2    N113835   0.964   3.718   9.589 -0.5605  0.4395 -0.3870
  942MPD2    H713836   0.966   3.640   9.525 -1.4203 -2.7534  3.5011
  943MPD2     C13837   0.487   2.169  10.090  0.1406  0.5902  0.6355
  943MPD2    C113838   0.515   2.080  10.192 -0.3485  0.4372  0.0837
  943MPD2    C213839   0.530   2.129  10.318 -0.1150 -0.5416 -0.3446
  943MPD2    C313840   0.503   2.262  10.343 -0.4294 -0.0101  0.0546
  943MPD2    C413841   0.474   2.346  10.240 -0.9128 -0.3143 -0.2800
  943MPD2    C513842   0.464   2.300  10.115 -0.8900 -0.3808 -0.2872
  943MPD2     H13843   0.576   2.070  10.396  1.4898  0.1520 -0.7720
  943MPD2    H113844   0.459   2.451  10.262  2.6128 -0.4161  2.5562
  943MPD2    H213845   0.474   2.130   9.989 -1.9772  3.4689 -0.2200
  943MPD2    H313846   0.436   2.363  10.032  0.1115 -1.4635 -1.4459
  943MPD2     N13847   0.537   2.324  10.470 -0.4065  0.5243 -0.4553
  943MPD2    H513848   0.505   2.419  10.487  2.1932  1.6377 -1.8515
  943MPD2    N113849   0.535   1.947  10.157  0.2285 -0.4190 -0.0495
  943MPD2    H713850   0.520   1.913  10.062  3.0731 -0.1003 -0.6049
  944MPD2     C13851   0.607   0.796  12.532 -0.1168  0.1324  0.4977
  944MPD2    C113852   0.595   0.829  12.393 -0.1229  0.5308 -0.0347
  944MPD2    C213853   0.590   0.962  12.354  0.7785 -0.2217  0.4348
  944MPD2    C313854   0.600   1.063  12.444 -0.2659  0.5147  0.3523
  944MPD2    C413855   0.612   1.027  12.575  0.0790 -0.3796 -0.1147
  944MPD2    C513856   0.618   0.900  12.617  0.2784 -0.6993  0.0126
  944MPD2     H13857   0.565   0.977  12.250 -3.4260 -1.8066  1.1723
  944MPD2    H113858   0.624   1.097  12.657  0.6526 -0.4100 -0.1703
  944MPD2    H213859   0.606   0.697  12.575  0.7612 -0.8436 -1.7351
  944MPD2    H313860   0.623   0.879  12.724  0.7791  0.4993  0.2159
  944MPD2     N13861   0.597   1.192  12.393  0.9047 -0.3800  0.0116
  944MPD2    H513862   0.595   1.202  12.292 -1.1528  1.0630  0.1762
  944MPD2    N113863   0.558   0.717  12.310 -0.4756  0.8006  0.6732
  944MPD2    H713864   0.561   0.627  12.356  2.2879  0.1943 -0.6603
    1TMC1    C113865   3.568   2.531  14.589 -0.1986  0.0719 -1.2162
    1TMC1    C213866   3.460   2.517  14.508  0.1933  0.3072 -0.3719
    1TMC1    C313867   3.435   2.394  14.454 -0.7328 -0.3387 -0.2406
    1TMC1    C413868   3.648   2.422  14.627  0.1475 -0.1545  0.1169
    1TMC1    C513869   3.623   2.303  14.567  0.1431  0.3101  0.7452
    1TMC1    C613870   3.516   2.282  14.478 -0.3292 -0.6808 -0.0240
    1TMC1     C13871   3.553   2.624  14.697 -0.1099  1.3397  0.4473
    1TMC1     O13872   3.621   2.599  14.795  0.0704 -0.0328  0.6054
    1TMC1     H13873   3.383   2.590  14.485 -0.3328 -0.4372 -1.0001
    1TMC1    H113874   3.722   2.418  14.706  0.8819  0.3611 -0.5447
    1TMC1    H213875   3.500   2.179  14.450  2.6450 -1.0814 -0.2291
    1TMC1    C713876   3.696   2.186  14.615  0.0047  0.3045  0.1361
    1TMC1    C813877   3.294   2.366  14.440  0.6910 -0.9093  0.0207
    1TMC1    O113878   3.745   2.176  14.730  0.2990  0.5407  0.0966
    1TMC1    O213879   3.215   2.420  14.514 -0.4105 -0.4265  0.0902
    1TMC1    O313880   3.692   2.089  14.525 -0.1256  0.0401  0.0621
    1TMC1    H313881   3.669   2.115  14.433  1.8507  2.1801  0.1627
    1TMC1    O513882   3.281   2.320  14.316  0.8171  0.4069 -0.6639
    1TMC1    H513883   3.361   2.272  14.285  0.7754  0.6639 -1.1641
    2MPD2     C13884   3.456   3.086  14.886  0.5557  0.7051  0.8725
    2MPD2    C113885   3.472   3.090  14.746 -0.2587 -0.2383 -0.3155
    2MPD2    C213886   3.485   2.971  14.673 -0.6132  0.5721  0.5834
    2MPD2    C313887   3.490   2.851  14.741 -0.1454 -0.7452 -0.6122
    2MPD2    C413888   3.474   2.845  14.877  0.1147  0.3935  0.0317
    2MPD2    C513889   3.453   2.966  14.949 -0.0876  0.6177 -0.0522
    2MPD2     H13890   3.481   2.968  14.565  0.1622  1.1231  0.5342
    2MPD2    H113891   3.460   2.753  14.934  1.7151  1.5384  2.3027
    2MPD2    H213892   3.453   3.176  14.946  2.4131  1.6889 -0.5051
    2MPD2    H313893   3.444   2.969  15.057  0.7932 -0.0934  0.0388
    2MPD2     N13894   3.504   2.745  14.655  0.1686 -0.1616 -0.9589
    2MPD2    H513895   3.492   2.767  14.556 -0.0611  1.2571 -0.6091
    2MPD2    N113896   3.489   3.220  14.690  0.1609 -0.0423  0.2931
    2MPD2    H713897   3.494   3.302  14.750 -0.6689 -0.1210  0.4740
    3TMC2    C113898   3.525   3.390  14.533 -0.2149  0.0781  0.4249
    3TMC2    C213899   3.415   3.455  14.582 -0.1014  0.7171  0.2661
    3TMC2    C313900   3.353   3.548  14.499 -0.1563 -0.0808 -0.0607
    3TMC2    C413901   3.572   3.413  14.405 -0.3009 -0.4309  0.0592
    3TMC2    C513902   3.510   3.508  14.326  0.5096 -0.0790 -0.0614
    3TMC2    C613903   3.402   3.580  14.374 -0.0433  0.0825  0.3415
    3TMC2     C13904   3.530   3.249  14.564  0.8105 -0.4588 -0.1371
    3TMC2     O13905   3.564   3.172  14.477 -0.0630 -0.7069  0.0129
    3TMC2     H13906   3.377   3.447  14.683 -1.9024 -1.0296 -0.5600
    3TMC2    H113907   3.666   3.374  14.368 -0.2584 -1.8622  1.6981
    3TMC2    H213908   3.357   3.660  14.317  1.3650 -0.3145 -1.3461
    3TMC2    C713909   3.593   3.566  14.218  0.1264 -0.0208  0.0025
    3TMC2    C813910   3.286   3.666  14.557  0.2494  0.2928 -0.3320
    3TMC2    O113911   3.713   3.549  14.231 -0.1651 -0.3389 -0.6843
    3TMC2    O213912   3.304   3.690  14.677 -0.5782  0.2540  0.5907
    3TMC2    O513913   3.166   3.677  14.502 -0.2160 -0.8223  0.5553
    3TMC2    H513914   3.166   3.612  14.428 -0.2835 -1.1417  0.8355
    4TMC2    C113915   3.032   4.254  13.772 -0.5563 -0.0085 -0.3362
    4TMC2    C213916   3.111   4.355  13.711  0.9311 -0.7215  0.6962
    4TMC2    C313917   3.249   4.357  13.717 -1.1332  0.3226  0.4236
    4TMC2    C413918   3.100   4.141  13.819  0.8948 -0.4655  0.0820
    4TMC2    C513919   3.234   4.145  13.828  0.1379  0.3951  0.0401
    4TMC2    C613920   3.311   4.254  13.783  0.4551  0.1115 -1.0623
    4TMC2     C13921   2.896   4.239  13.723 -0.0389 -0.6477 -0.3105
    4TMC2     O13922   2.824   4.338  13.732  0.0384 -0.2187  0.3808
    4TMC2     H13923   3.071   4.451  13.679  2.2236 -0.4408 -0.0708
    4TMC2    H113924   3.035   4.060  13.851  1.1330 -1.1216 -1.0659
    4TMC2    H213925   3.417   4.267  13.803  0.3654 -0.2926 -0.3230
    4TMC2    C713926   3.302   4.024  13.876  0.5972  0.1789 -0.2395
    4TMC2    C813927   3.324   4.451  13.629 -0.5438 -1.0908  0.5482
    4TMC2    O113928   3.237   3.956  13.952  0.3199 -0.4680 -0.2893
    4TMC2    O213929   3.275   4.484  13.524 -0.1926  0.2531 -0.5133
    4TMC2    O513930   3.411   4.514  13.707  0.2898 -0.2211 -0.4514
    4TMC2    H513931   3.437   4.460  13.785  1.9364  0.2788 -0.6441
    5MPD2     C13932   2.556   4.009  13.418 -0.2064  0.2634  0.0813
    5MPD2    C113933   2.634   3.912  13.485 -0.3312  0.2381 -0.2097
    5MPD2    C213934   2.737   3.960  13.568 -0.4476 -0.0254  0.1769
    5MPD2    C313935   2.766   4.096  13.568 -0.2771 -0.1946 -0.8084
    5MPD2    C413936   2.686   4.191  13.511 -0.0179  0.0442  0.1651
    5MPD2    C513937   2.581   4.143  13.434  0.2340  0.4563 -0.5568
    5MPD2     H13938   2.803   3.895  13.624 -1.2966 -1.8292 -0.8986
    5MPD2    H113939   2.708   4.297  13.512  2.0134 -0.3806  0.3688
    5MPD2    H213940   2.473   3.974  13.357  2.0238  0.6967 -3.1963
    5MPD2    H313941   2.534   4.219  13.371  0.5759  2.3398  1.4503
    5MPD2     N13942   2.880   4.124  13.647  0.0167  0.4423 -0.3750
    5MPD2    H513943   2.949   4.050  13.657 -0.7792 -0.3057 -0.4149
    5MPD2    N113944   2.603   3.782  13.469  0.2214 -0.0223  0.1629
    5MPD2    H713945   2.530   3.765  13.401 -1.2429  0.0591  1.7072
    6MPD1     C13946   1.082   3.884  13.152 -0.1203 -0.2077  0.1865
    6MPD1    C113947   1.122   3.822  13.268  0.2265 -0.3628  0.4587
    6MPD1    C213948   1.221   3.725  13.256 -1.0134 -0.0597  0.1471
    6MPD1    C313949   1.287   3.701  13.140  0.2371 -0.2062  0.3504
    6MPD1    C413950   1.257   3.772  13.026 -0.3944  0.2553  0.1060
    6MPD1    C513951   1.155   3.872  13.037  0.5223  0.3578 -0.4647
    6MPD1     H13952   1.245   3.666  13.344 -0.3584 -0.6771 -0.4496
    6MPD1    H113953   1.298   3.753  12.928  1.1234  1.7689  0.4428
    6MPD1    H213954   0.996   3.949  13.151  0.0749  0.0652  2.2627
    6MPD1    H313955   1.122   3.929  12.951  0.4966 -1.2771 -1.5495
    6MPD1     N13956   1.388   3.605  13.129  0.0274  0.0537 -0.5732
    6MPD1    H513957   1.431   3.597  13.037  1.4604  0.9257  0.0177
    6MPD1    N113958   1.045   3.850  13.380  0.0232 -0.3769  0.2154
    6MPD1    H613959   1.011   3.946  13.378 -1.3889 -0.8679  0.4757
    6MPD1    H713960   1.086   3.824  13.470  0.4108  1.8468  0.6792
    7MPD2     C13961   1.959   3.181  13.675 -0.4208  0.4406 -0.5159
    7MPD2    C113962   1.997   3.202  13.544  0.2265  0.0578 -0.9095
    7MPD2    C213963   2.127   3.197  13.512 -0.0971  0.7670 -0.7658
    7MPD2    C313964   2.232   3.184  13.605 -0.5081  0.3987  0.1988
    7MPD2    C413965   2.190   3.165  13.737 -0.2830  0.4618 -0.0821
    7MPD2    C513966   2.054   3.169  13.771  0.4142  0.4605 -0.1781
    7MPD2     H13967   2.160   3.223  13.412 -0.6263 -2.0106 -1.6642
    7MPD2    H113968   2.266   3.147  13.812 -0.2733 -0.5734 -0.3369
    7MPD2    H213969   1.856   3.199  13.705  0.3557  3.0520  0.5579
    7MPD2    H313970   2.016   3.170  13.872 -0.2875 -0.4526 -0.4324
    7MPD2     N13971   2.365   3.211  13.565 -0.6011 -0.0769  0.2117
    7MPD2    H513972   2.384   3.216  13.465  0.5408 -3.2421  0.2717
    7MPD2    N113973   1.911   3.233  13.435  0.0826 -0.4126 -0.6622
    7MPD2    H713974   1.957   3.230  13.345  1.8812  2.8454  0.1374
    8TMC3    C113975   2.562   3.332  13.561  0.1582  0.1462 -0.1864
    8TMC3    C213976   2.583   3.459  13.600  0.0104 -0.3433 -0.8048
    8TMC3    C313977   2.596   3.554  13.504  0.1330  0.4904  0.4906
    8TMC3    C413978   2.560   3.297  13.428  0.0639  0.4292 -0.0542
    8TMC3    C513979   2.568   3.391  13.332 -0.3749 -0.8808 -0.0924
    8TMC3    C613980   2.598   3.518  13.368  0.4174  0.2255  0.0881
    8TMC3     C13981   2.464   3.259  13.654 -0.2825 -0.0756 -0.3326
    8TMC3     O13982   2.446   3.309  13.763  0.2145 -0.4254 -0.2327
    8TMC3     H13983   2.592   3.489  13.704  0.5669  1.3167 -1.3265
    8TMC3    H113984   2.549   3.192  13.405  0.8242  0.5767 -1.0728
    8TMC3    H213985   2.585   3.604  13.303  1.6562  1.6209  1.6849
    8TMC3    C713986   2.452   3.382  13.250  0.4347  0.3560  0.3688
    8TMC3    C813987   2.641   3.681  13.551  0.0381  0.0063 -0.0852
    8TMC3    O113988   2.372   3.297  13.281  0.3821  0.3397  0.1204
    8TMC3    O213989   2.693   3.691  13.663 -0.2517 -0.5228  0.0350
    9TMC3    C113990   1.566   3.454  13.218 -0.2594  0.7937  0.0203
    9TMC3    C213991   1.645   3.495  13.115  0.1721 -0.1918  0.5904
    9TMC3    C313992   1.772   3.449  13.120 -0.0278 -0.1927 -0.3322
    9TMC3    C413993   1.598   3.361  13.318 -1.0735  0.8390 -0.0107
    9TMC3    C513994   1.729   3.316  13.311  0.2109  0.0976  1.2321
    9TMC3    C613995   1.817   3.358  13.215 -0.1162  0.0199  0.1461
    9TMC3     C13996   1.433   3.517  13.237  0.4317  0.0611 -0.3393
    9TMC3     O13997   1.381   3.497  13.344  0.1306  0.2973 -0.5338
    9TMC3     H13998   1.624   3.583  13.055 -0.2329 -0.8951 -0.2946
    9TMC3    H113999   1.524   3.327  13.389  0.0938  1.8513  1.6977
    9TMC3    H214000   1.918   3.317  13.213 -0.9852 -2.0988 -0.7348
    9TMC3    C714001   1.776   3.259  13.437 -0.2485  0.1738 -0.2088
    9TMC3    C814002   1.868   3.518  13.044 -0.0119  1.2056 -0.2132
    9TMC3    O114003   1.695   3.241  13.526  0.2631  0.1292 -0.5248
    9TMC3    O214004   1.834   3.581  12.945 -0.0783  0.2292 -0.2076
   10MPD2     C14005   2.365   3.555  12.938  0.7346 -0.5631  0.5351
   10MPD2    C114006   2.355   3.491  13.058 -0.1668 -0.8285 -0.1866
   10MPD2    C214007   2.221   3.467  13.095 -0.0438  0.4389 -0.0329
   10MPD2    C314008   2.116   3.514  13.027  0.4388  0.7663 -0.6695
   10MPD2    C414009   2.130   3.573  12.904  0.3671 -0.5606  0.5741
   10MPD2    C514010   2.260   3.591  12.862  0.5255 -0.3126 -0.5020
   10MPD2     H14011   2.197   3.419  13.189  1.7129 -1.1080 -0.3579
   10MPD2    H114012   2.046   3.606  12.845  0.9554 -0.2618 -0.0964
   10MPD2    H214013   2.464   3.569  12.896  0.8435  0.3927  1.1154
   10MPD2    H314014   2.279   3.630  12.762  3.0274  0.3595  0.2572
   10MPD2     N14015   1.993   3.486  13.092 -0.5068 -0.6510 -0.1809
   10MPD2    H514016   2.005   3.458  13.189 -2.1595 -1.0871 -0.0980
   10MPD2    N114017   2.464   3.455  13.139 -0.9691 -0.1242  0.0691
   10MPD2    H714018   2.558   3.485  13.116 -1.4715 -0.2967 -2.1934
   11MPD2     C14019   3.727   3.768  14.022 -1.0228 -0.0570  0.0114
   11MPD2    C114020   3.591   3.743  14.050 -0.4788  0.0254 -0.7217
   11MPD2    C214021   3.497   3.814  13.976  0.2644  0.2483  0.1255
   11MPD2    C314022   3.535   3.921  13.900 -0.3540 -0.1731  0.3003
   11MPD2    C414023   3.669   3.934  13.869 -0.1247  0.0406  0.0814
   11MPD2    C514024   3.762   3.851  13.920  0.3580 -0.6342 -0.4785
   11MPD2     H14025   3.394   3.808  14.009  0.0177 -0.3030 -0.7725
   11MPD2    H114026   3.700   4.014  13.803 -0.9723  1.7580  1.7855
   11MPD2    H214027   3.804   3.711  14.072 -0.9357 -0.1163 -0.1913
   11MPD2    H314028   3.866   3.855  13.890  0.7449  1.1817  1.1068
   11MPD2     N14029   3.436   4.015  13.847  0.3104  0.3036  0.5515
   11MPD2    H514030   3.486   4.081  13.789 -0.0273  0.8685  0.9049
   11MPD2    N114031   3.525   3.650  14.134 -0.3109 -0.1914  0.3362
   11MPD2    H714032   3.425   3.637  14.125 -0.0764 -0.4202 -2.0653
    1MPD1     C14033   0.868   0.520  17.367 -0.2715  0.0244 -0.1302
    1MPD1    C114034   0.994   0.454  17.361 -0.5205 -0.6493  0.4489
    1MPD1    C214035   1.108   0.534  17.342  0.2956 -0.6028  0.2264
    1MPD1    C314036   1.090   0.674  17.333  0.3473 -0.1308 -0.6227
    1MPD1    C414037   0.960   0.732  17.346  0.1327 -0.1427 -0.5108
    1MPD1    C514038   0.850   0.653  17.364 -0.2049 -0.0280  0.3444
    1MPD1     H14039   1.208   0.492  17.344 -1.3352 -4.4236  0.2768
    1MPD1    H114040   0.946   0.838  17.325  0.6684  0.0310  0.0199
    1MPD1    H214041   0.777   0.465  17.389  0.2456 -0.6076  0.3879
    1MPD1    H314042   0.752   0.698  17.373 -0.4194 -0.6977  1.3091
    1MPD1     N14043   1.197   0.770  17.318 -0.5678  0.2395 -0.1593
    1MPD1    H514044   1.177   0.869  17.328  1.0502  0.8137 -2.6262
    1MPD1    N114045   0.988   0.313  17.349 -0.3594  0.5821  0.1876
    1MPD1    H614046   1.077   0.271  17.375 -0.6682  0.1243  0.5036
    1MPD1    H714047   0.909   0.271  17.396  4.5472 -6.0438  2.4346
    2MPD1     C14048   1.101   1.574  17.021  0.1459 -0.2451 -0.4674
    2MPD1    C114049   1.063   1.532  17.144 -0.6538 -0.5120  0.3777
    2MPD1    C214050   1.131   1.432  17.205 -0.3207 -0.5576  0.0946
    2MPD1    C314051   1.245   1.365  17.144 -0.4392  0.3149  0.3543
    2MPD1    C414052   1.273   1.406  17.009  0.8049  0.9625 -0.0857
    2MPD1    C514053   1.210   1.512  16.958  0.3343 -0.0008 -0.9985
    2MPD1     H14054   1.084   1.396  17.296 -0.6695  0.7298  0.4185
    2MPD1    H114055   1.350   1.358  16.949  0.0719  0.5285 -0.6828
    2MPD1    H214056   1.055   1.658  16.970  2.3027  2.5469  2.1557
    2MPD1    H314057   1.236   1.543  16.858 -0.0918 -2.3949 -1.8392
    2MPD1     N14058   1.318   1.262  17.207  0.4671 -0.7969  0.1142
    2MPD1    H514059   1.283   1.226  17.295 -0.5047 -1.0369 -0.3734
    2MPD1    N114060   0.976   1.620  17.221 -0.3658 -0.3234  0.0538
    2MPD1    H614061   0.925   1.568  17.292 -0.1219 -0.5157  0.0877
    2MPD1    H714062   0.911   1.669  17.159  0.0690  1.1973  0.7887
    3TMC3    C114063   1.480   1.081  17.229 -0.3304  0.2418  0.0269
    3TMC3    C214064   1.606   1.042  17.188 -0.2404 -0.0337 -0.5600
    3TMC3    C314065   1.631   0.908  17.168  0.7123 -0.3488 -0.2246
    3TMC3    C414066   1.382   0.984  17.259  0.5381  0.1603  0.0079
    3TMC3    C514067   1.416   0.849  17.238 -0.6667 -1.6580  0.1356
    3TMC3    C614068   1.539   0.806  17.191  0.2268  0.1952 -0.0457
    3TMC3     C14069   1.431   1.196  17.154 -0.0404  0.6577 -0.7079
    3TMC3     O14070   1.469   1.197  17.040 -0.2703 -0.2931 -0.4897
    3TMC3     H14071   1.674   1.119  17.154 -0.6520  0.8750  0.6803
    3TMC3    H114072   1.279   1.005  17.284  0.0537 -1.1822 -0.8489
    3TMC3    H214073   1.554   0.700  17.178  2.0860  0.2567  1.5878
    3TMC3    C714074   1.327   0.737  17.277  0.1696 -0.1096  0.1113
    3TMC3    C814075   1.766   0.870  17.119 -0.8172  0.7727  0.1501
    3TMC3    O114076   1.367   0.627  17.248 -0.8905  0.1380 -0.3307
    3TMC3    O214077   1.872   0.916  17.170 -0.2916 -0.0698  0.2740
    4MPD1     C14078   2.034   0.530  16.853 -0.7126  0.8677 -0.0420
    4MPD1    C114079   1.908   0.515  16.811 -0.3749  0.2605  0.1213
    4MPD1    C214080   1.816   0.597  16.872  0.4713  0.6473  0.1690
    4MPD1    C314081   1.850   0.683  16.971  0.5992 -0.0064  0.6454
    4MPD1    C414082   1.974   0.679  17.030 -0.0126  0.0847  0.4950
    4MPD1    C514083   2.061   0.598  16.970  0.3838  0.3761  0.6016
    4MPD1     H14084   1.714   0.605  16.835  0.4884 -0.5772 -0.1534
    4MPD1    H114085   1.993   0.734  17.121  2.7200 -2.5037  1.4980
    4MPD1    H214086   2.119   0.490  16.798 -0.5707 -0.1075  0.9078
    4MPD1    H314087   2.153   0.577  17.025  0.0908 -1.0183  0.5584
    4MPD1     N14088   1.748   0.768  17.027 -0.1427  0.0657  0.3859
    4MPD1    H514089   1.658   0.763  16.979 -0.8503 -0.9128  1.8043
    4MPD1    N114090   1.880   0.440  16.699  0.0107 -0.1946  0.1199
    4MPD1    H614091   1.799   0.388  16.732 -0.7177  0.2638 -0.9395
    4MPD1    H714092   1.953   0.371  16.686 -0.2334 -0.0487 -1.9689
    1TCq1    O114093   3.953   3.595  11.434  0.8613  0.1746  0.1174
    1TCq1    C114094   3.907   3.493  11.503 -0.0394  0.0261  0.5325
    1TCq1    O214095   3.838   3.402  11.462 -0.1029  0.2765  0.0015
    1TCq1    C214096   3.949   3.511  11.642  0.3606  0.2544 -0.4006
    1TCq1    C314097   3.867   3.455  11.743 -0.2920  0.1620 -0.8806
    1TCq1    C414098   3.919   3.473  11.872 -0.5632 -0.1085  0.1046
    1TCq1    C514099   4.044   3.512  11.902 -0.6704  0.2001  0.3323
    1TCq1    C614100   4.123   3.545  11.794 -0.1877  0.3267 -0.2171
    1TCq1    C714101   4.075   3.550  11.665 -0.0482 -0.0540 -0.4121
    1TCq1    C814102   4.268   3.586  11.818 -0.9116 -0.2843 -0.1055
    1TCq1    O414103   4.329   3.620  11.715 -0.5533  0.1789 -0.3592
    1TCq1    C914104   3.846   3.415  11.986  0.0005  0.3346 -0.4661
    1TCq1    O514105   3.751   3.336  11.958  0.0225  0.1667 -0.5122
    1TCq1    O614106   3.865   3.466  12.098 -0.3655  0.0559 -0.4928
    1TCq1    H114107   3.991   3.667  11.487  0.2635  0.3501  0.3090
    1TCq1    H214108   3.762   3.437  11.725 -0.6536  2.9905 -1.5988
    1TCq1    H314109   4.071   3.513  12.007  2.1803 -1.8887 -0.3954
    1TCq1    H414110   4.150   3.558  11.587  0.3194 -3.9423 -0.4645
    2MPD1     C14111   4.671   3.519  12.107  0.4956  0.3564  0.8484
    2MPD1    C114112   4.559   3.516  12.186  0.3669 -0.4837  0.5810
    2MPD1    C214113   4.438   3.550  12.132 -0.2273  0.4815 -0.0501
    2MPD1    C314114   4.435   3.568  11.995  0.4264  0.9225 -0.0710
    2MPD1    C414115   4.542   3.567  11.919 -0.0712 -0.1046  0.3939
    2MPD1    C514116   4.661   3.553  11.977  0.5153  0.4676 -0.3864
    2MPD1     H14117   4.343   3.537  12.182  0.2858 -0.9526  0.5677
    2MPD1    H114118   4.538   3.573  11.811 -2.7857  1.2446  0.5693
    2MPD1    H214119   0.029   3.497  12.142 -0.0356 -1.8406  0.9376
    2MPD1    H314120   0.008   3.560  11.916  0.6964  0.3473 -0.1394
    2MPD1     N14121   4.300   3.582  11.954  0.3403  0.5153 -0.6616
    2MPD1    H514122   4.222   3.559  12.015  1.3070  1.1684  0.8331
    2MPD1    N114123   4.572   3.475  12.320 -0.0215  0.0727  0.2932
    2MPD1    H614124   4.512   3.515  12.392  2.5836  1.1604  1.8664
    2MPD1    H714125   4.665   3.499  12.354  1.5451  0.2738 -4.1233
    1TMC1    C114126   0.217   1.753   0.159  0.3506 -0.1139  0.5757
    1TMC1    C214127   0.259   1.872   0.209 -0.4016  0.3124 -0.7118
    1TMC1    C314128   0.310   1.959   0.116  0.4028  0.2653  0.5012
    1TMC1    C414129   0.224   1.723   0.026  0.1438  0.4399  0.8521
    1TMC1    C514130   0.291   1.806  17.705  0.2716  0.7520  0.2023
    1TMC1    C614131   0.321   1.933  17.749 -0.0727 -0.2399 -1.0360
    1TMC1     C14132   0.200   1.646   0.245 -0.8886  1.1600 -0.4697
    1TMC1     O14133   0.096   1.588   0.249 -0.4785  0.4548 -0.0843
    1TMC1     H14134   0.238   1.893   0.314  2.5551 -0.1346 -0.0369
    1TMC1    H114135   0.188   1.626  17.756 -0.1628  0.5889  0.7606
    1TMC1    H214136   0.384   1.997  17.688 -0.5377 -0.4557 -1.7389
    1TMC1    C714137   0.306   1.770  17.567 -0.7838 -0.2672 -0.1215
    1TMC1    C814138   0.310   2.097   0.160  0.1668 -0.8622 -0.0830
    1TMC1    O114139   0.326   1.852  17.476 -0.5721  0.0387  0.4582
    1TMC1    O214140   0.293   2.136   0.273  0.2377 -0.1417  0.4517
    1TMC1    O314141   0.360   1.649  17.571 -0.1995 -0.5336 -0.3343
    1TMC1    H314142   0.392   1.616  17.658  2.0129 -1.7964 -1.6316
    1TMC1    O514143   0.253   2.169   0.061 -0.5133  0.0569 -0.3701
    1TMC1    H514144   0.246   2.120  17.742  1.5228  1.1724 -1.1710
    2MPD1     C14145   0.368   1.249   0.517  0.4917  0.4731  0.5730
    2MPD1    C114146   0.486   1.320   0.485 -0.9771 -0.3748 -0.4139
    2MPD1    C214147   0.462   1.442   0.415  0.4879 -0.0246 -0.5050
    2MPD1    C314148   0.330   1.485   0.383 -0.4106  0.1290 -0.2693
    2MPD1    C414149   0.224   1.415   0.431 -0.0170 -0.3151  0.4966
    2MPD1    C514150   0.240   1.297   0.498  0.2948 -0.7075  0.1531
    2MPD1     H14151   0.546   1.495   0.373  1.2816 -2.2374 -1.6948
    2MPD1    H114152   0.122   1.445   0.414  0.1751  0.4900  0.7721
    2MPD1    H214153   0.376   1.145   0.547  1.2412  0.0314 -1.1495
    2MPD1    H314154   0.158   1.235   0.532 -0.5637 -0.2309 -1.0823
    2MPD1     N14155   0.319   1.606   0.312 -0.1961  0.5495  0.7045
    2MPD1    H514156   0.406   1.652   0.287 -0.5047  2.1913  2.6348
    2MPD1    N114157   0.611   1.258   0.497 -0.1070  0.4964  0.4380
    2MPD1    H614158   0.675   1.337   0.503  0.6276 -0.1254  0.6849
    2MPD1    H714159   0.628   1.198   0.577  2.3476 -0.3232 -0.7219
    1MPD1     C14160   3.299   0.414  11.586 -0.1808  0.4905 -0.2295
    1MPD1    C114161   3.434   0.415  11.547 -0.3696  0.0012 -0.3099
    1MPD1    C214162   3.530   0.389  11.642  0.0684 -0.0108 -0.3737
    1MPD1    C314163   3.500   0.330  11.758  0.5229  0.3138  0.5339
    1MPD1    C414164   3.372   0.293  11.782 -0.0461 -0.0738 -0.4506
    1MPD1    C514165   3.273   0.342  11.697 -0.1689 -0.0074 -0.0022
    1MPD1     H14166   3.634   0.400  11.613 -0.4604  0.9710 -1.9300
    1MPD1    H114167   3.339   0.235  11.868  0.8122  0.7585  0.4405
    1MPD1    H214168   3.228   0.440  11.508  0.9923  2.2996 -0.6901
    1MPD1    H314169   3.170   0.317  11.719  0.0907 -2.0622 -1.1334
    1MPD1     N14170   3.604   0.298  11.845 -0.4452  0.5246  0.1451
    1MPD1    H514171   3.694   0.337  11.817  0.4719 -1.7937 -0.1360
    1MPD1    N114172   3.467   0.478  11.428 -0.5236 -0.1841 -0.2629
    1MPD1    H614173   3.558   0.471  11.384  0.5450  0.8928  1.7686
    1MPD1    H714174   3.396   0.476  11.355 -0.6879 -0.9726 -0.0878
    2MPD1     C14175   3.728   4.344  10.397 -0.0366  0.7767  0.3519
    2MPD1    C114176   3.660   4.378  10.514 -0.8892 -0.7446 -0.0775
    2MPD1    C214177   3.715   4.335  10.633  0.0723 -0.0528 -0.4421
    2MPD1    C314178   3.838   4.261  10.638  0.3792 -0.1489 -0.2702
    2MPD1    C414179   3.903   4.245  10.521  0.3385 -0.8133 -0.1953
    2MPD1    C514180   3.849   4.272  10.405  0.7805  0.1621 -0.4419
    2MPD1     H14181   3.653   4.358  10.720 -0.5574 -2.5921 -0.2124
    2MPD1    H114182   3.996   4.189  10.516  1.5254  1.2062 -0.7970
    2MPD1    H214183   3.678   4.356  10.302 -0.7260  0.0070  0.6168
    2MPD1    H314184   3.895   4.253  10.308 -1.0372  3.7929 -2.0337
    2MPD1     N14185   3.895   4.222  10.757 -0.1239 -0.0242 -0.2284
    2MPD1    H514186   3.991   4.195  10.772 -0.3140 -0.8443 -0.5101
    2MPD1    N114187   3.536   4.446  10.503 -0.0653 -0.3683 -0.0150
    2MPD1    H614188   3.506   4.498  10.585  2.1409  0.0775  0.5071
    2MPD1    H714189   3.529   4.517  10.430  0.6578 -0.7042 -0.4089
    3MPD1     C14190   4.512   3.617  11.279 -0.2976 -0.4966 -0.3139
    3MPD1    C114191   4.396   3.625  11.351 -0.0068 -0.4726  0.1697
    3MPD1    C214192   4.283   3.678  11.296  0.1052 -0.4129 -0.3314
    3MPD1    C314193   4.295   3.753  11.180  0.2597 -0.3475  0.1903
    3MPD1    C414194   4.416   3.769  11.115  0.0687 -0.7086  0.5415
    3MPD1    C514195   4.524   3.697  11.165  1.4145  0.1164  0.4257
    3MPD1     H14196   4.187   3.682  11.345  0.7293 -0.6832  0.9216
    3MPD1    H114197   4.428   3.826  11.023 -1.2816 -0.7143  0.3695
    3MPD1    H214198   4.601   3.561  11.307 -0.4044 -0.9954 -0.9817
    3MPD1    H314199   4.619   3.691  11.113  2.3722 -0.6347  2.2499
    3MPD1     N14200   4.172   3.806  11.126 -0.4311 -0.2256 -0.2390
    3MPD1    H514201   4.089   3.766  11.169 -2.1655  1.6667 -1.7809
    3MPD1    N114202   4.379   3.540  11.457 -0.0207  0.7526 -0.6041
    3MPD1    H614203   4.471   3.512  11.489 -0.6074 -3.5497 -2.6146
    3MPD1    H714204   4.340   3.587  11.539  0.3083  1.6838 -0.9764
    4MPD2     C14205   4.234   4.644  11.887  0.1931 -0.3468 -0.4842
    4MPD2    C114206   4.133   4.634  11.983 -0.4836 -0.2188 -0.0685
    4MPD2    C214207   4.097   4.505  12.027  0.0139  0.6155 -0.2650
    4MPD2    C314208   4.156   4.399  11.971 -0.3029 -1.0832 -0.6367
    4MPD2    C414209   4.260   4.410  11.880 -0.0831 -0.1587  1.1592
    4MPD2    C514210   4.294   4.531  11.840  0.0691 -0.1496  0.0737
    4MPD2     H14211   4.030   4.491  12.111 -1.0818 -2.9989 -1.7637
    4MPD2    H114212   4.300   4.321  11.835  1.5331  0.6293  1.0471
    4MPD2    H214213   4.266   4.741  11.851  0.8551 -0.3478  0.0899
    4MPD2    H314214   4.359   4.539  11.754  2.3454  1.5410  1.9363
    4MPD2     N14215   4.113   4.269  12.004 -0.0188 -0.2080  0.1186
    4MPD2    H514216   4.140   4.198  11.937  0.1063  0.1900 -0.2579
    4MPD2    N114217   4.052   0.003  12.033  0.1849 -0.2721  0.2706
    4MPD2    H714218   3.993   4.721  12.112  1.2434  2.9029  2.0574
    5TMC3    C114219   3.948   0.206  12.060 -0.2615 -0.3412 -0.0116
    5TMC3    C214220   3.843   0.213  11.971 -0.3649  0.0071  0.1486
    5TMC3    C314221   3.719   0.191  12.032 -0.2589  1.2868  0.5805
    5TMC3    C414222   3.934   0.161  12.190 -0.2154 -0.2419 -0.4729
    5TMC3    C514223   3.814   0.126  12.238 -0.2266  0.0590  0.3240
    5TMC3    C614224   3.699   0.141  12.159 -0.7121  0.0971  1.2391
    5TMC3     C14225   4.054   0.132  11.992 -0.5782  0.4840 -0.0555
    5TMC3     O14226   4.099   0.170  11.886 -0.2875 -0.0714 -0.8748
    5TMC3     H14227   3.846   0.251  11.869 -1.8053 -1.1361 -0.3118
    5TMC3    H114228   4.014   0.170  12.263  0.5253 -0.7290 -1.2287
    5TMC3    H214229   3.600   0.118  12.196 -0.9386 -2.4814 -0.9216
    5TMC3    C714230   3.816   4.728  12.278 -0.8125  0.5767  0.0763
    5TMC3    C814231   3.597   0.224  11.962 -0.1044 -0.1890 -0.2716
    5TMC3    O114232   3.902   4.654  12.228 -0.4505  0.4384  0.0442
    5TMC3    O214233   3.500   0.166  12.004  0.3849  0.5628  0.8826
    6TMC3    C114234   3.868   4.119  10.978  0.3567 -0.0011  0.1624
    6TMC3    C214235   3.980   4.049  10.950 -0.1419  0.2122  0.1186
    6TMC3    C314236   4.022   3.962  11.043  0.1960  0.2544 -0.1381
    6TMC3    C414237   3.811   4.125  11.103 -0.1087  0.2683  0.0490
    6TMC3    C514238   3.853   4.031  11.197 -0.6274  0.6542  1.0652
    6TMC3    C614239   3.957   3.950  11.169  0.3482  0.0792 -1.1246
    6TMC3     C14240   3.830   4.218  10.879  0.5259 -0.4488  0.3479
    6TMC3     O14241   3.722   4.268  10.910 -0.1759  0.0648  0.3939
    6TMC3     H14242   4.025   4.059  10.852 -0.5679 -1.9927 -0.3083
    6TMC3    H114243   3.734   4.196  11.134  0.5165  2.1770 -2.7417
    6TMC3    H214244   3.993   3.886  11.249  0.6023  0.6313 -0.7938
    6TMC3    C714245   3.793   4.012  11.324 -0.5503 -0.2318  0.3056
    6TMC3    C814246   4.151   3.903  11.029  0.6139 -0.2278  1.4232
    6TMC3    O114247   3.775   4.104  11.404 -0.3847  0.3828 -0.2153
    6TMC3    O214248   4.232   3.959  10.960 -0.5311  0.2191  0.0529
    7MPD2     C14249   3.529   4.304  12.350 -0.3501  0.0419 -0.0518
    7MPD2    C114250   3.661   4.317  12.315  0.9363  1.0545  0.0697
    7MPD2    C214251   3.719   4.443  12.325  0.1644  0.1606  0.8395
    7MPD2    C314252   3.651   4.554  12.355 -0.5960 -0.2029  0.5428
    7MPD2    C414253   3.524   4.530  12.409  0.1783  0.6069 -0.0261
    7MPD2    C514254   3.466   4.411  12.401  0.5020 -0.0157  0.5611
    7MPD2     H14255   3.820   4.455  12.288 -0.7001  0.2814 -1.4606
    7MPD2    H114256   3.456   4.612  12.427  1.2606  1.4464  0.2237
    7MPD2    H214257   3.478   4.208  12.349 -2.2846  1.0755  0.9773
    7MPD2    H314258   3.362   4.404  12.429  0.7513 -0.5542  1.3556
    7MPD2     N14259   3.694   4.689  12.337  0.6927  0.2254  0.2698
    7MPD2    H514260   3.626   0.022  12.345  0.6156  0.3203 -1.3184
    7MPD2    N114261   3.739   4.204  12.275  0.5752  0.1766 -0.4766
    7MPD2    H714262   3.840   4.212  12.262  0.4174  1.0756 -1.1282
    8TMC3    C114263   3.803   3.988  12.195 -0.1847  0.0652  0.3818
    8TMC3    C214264   3.764   3.936  12.077  0.2801  0.2135  0.0774
    8TMC3    C314265   3.852   3.968  11.974 -0.6943 -0.4370 -0.4180
    8TMC3    C414266   3.923   4.060  12.212 -0.2279 -0.1457 -0.2992
    8TMC3    C514267   3.995   4.087  12.103 -0.1975 -0.1092  0.5929
    8TMC3    C614268   3.966   4.048  11.979 -1.1463  0.1647  0.7887
    8TMC3     C14269   3.696   4.079  12.240 -0.2851 -0.0729  0.1658
    8TMC3     O14270   3.580   4.037  12.218  0.1702 -0.1884  0.3359
    8TMC3     H14271   3.670   3.884  12.062  0.0954 -0.0677  2.1993
    8TMC3    H114272   3.969   4.075  12.309  1.5670 -1.5874 -0.9212
    8TMC3    H214273   4.033   4.072  11.898  0.2750 -1.8158  1.3602
    8TMC3    C714274   4.041   4.223  12.111 -0.1736  0.1746  0.4057
    8TMC3    C814275   3.830   3.925  11.833  0.0702 -2.0624 -0.0142
    8TMC3    O114276   4.023   4.276  12.222 -0.0804 -0.3390  0.1236
    8TMC3    O214277   3.925   3.946  11.758 -0.1510  0.6649 -0.1902
    9MPD2     C14278   3.591   3.714  11.673 -0.0923 -0.6919  0.0297
    9MPD2    C114279   3.673   3.820  11.680 -0.3867 -0.1851 -0.2159
    9MPD2    C214280   3.718   3.876  11.566 -0.6831  0.2933 -0.1358
    9MPD2    C314281   3.681   3.830  11.441 -0.2959  0.6234  0.5984
    9MPD2    C414282   3.613   3.710  11.432  0.0848  0.8215 -0.0801
    9MPD2    C514283   3.565   3.662  11.549 -0.6122  0.7371 -0.1502
    9MPD2     H14284   3.786   3.960  11.579  0.9279 -0.9894 -0.2075
    9MPD2    H114285   3.583   3.673  11.334 -0.2202 -1.2346  0.8015
    9MPD2    H214286   3.552   3.665  11.761  1.4133  1.1353  1.6905
    9MPD2    H314287   3.501   3.575  11.545 -0.3156  0.4802  0.7764
    9MPD2     N14288   3.744   3.884  11.328  0.0489  0.0402 -0.0795
    9MPD2    H514289   3.756   3.832  11.242 -0.2717 -0.2162  0.0291
    9MPD2    N114290   3.711   3.864  11.808  0.1515  0.5727 -0.2521
    9MPD2    H714291   3.660   3.822  11.885  1.7610 -0.6518  0.1585
    1MPD1     C14292   3.540   3.238  16.659  0.2609 -0.4711  0.0653
    1MPD1    C114293   3.448   3.137  16.653 -0.0253 -0.3901  0.5058
    1MPD1    C214294   3.392   3.100  16.536 -0.0006  0.3353 -0.1682
    1MPD1    C314295   3.430   3.162  16.421  0.2541  0.2665 -0.4193
    1MPD1    C414296   3.523   3.264  16.427 -0.1994 -0.3075 -0.3067
    1MPD1    C514297   3.566   3.310  16.548 -0.3349 -0.0451 -0.6742
    1MPD1     H14298   3.328   3.013  16.532  0.4779 -0.1452  3.0550
    1MPD1    H114299   3.544   3.325  16.340 -0.9066 -0.2626 -0.4474
    1MPD1    H214300   3.586   3.257  16.756  1.9794  2.8553 -1.4190
    1MPD1    H314301   3.627   3.401  16.548 -1.8093  0.9428 -1.2188
    1MPD1     N14302   3.380   3.131  16.288  0.3374  0.0178  0.1656
    1MPD1    H514303   3.415   3.191  16.214  0.0573  0.5744  0.4841
    1MPD1    N114304   3.426   3.058  16.765 -0.0002  0.5033  0.4127
    1MPD1    H614305   3.458   3.106  16.848  1.9174 -0.0369  0.0087
    1MPD1    H714306   3.328   3.032  16.767  0.6713 -2.3362 -1.5965
    2TMC2    C114307   3.257   3.059  15.886 -0.3670  0.0080  0.6838
    2TMC2    C214308   3.230   2.929  15.853  0.4771 -0.7250 -0.2138
    2TMC2    C314309   3.211   2.840  15.959 -0.0351 -0.4150 -0.3362
    2TMC2    C414310   3.269   3.090  16.016 -0.5784 -0.2296 -0.4626
    2TMC2    C514311   3.264   2.996  16.117 -0.3226  1.0566 -0.3758
    2TMC2    C614312   3.231   2.865  16.089  1.0814 -0.5136  0.5232
    2TMC2     C14313   3.220   3.164  15.794 -0.6065  0.4410 -1.1875
    2TMC2     O14314   3.199   3.279  15.835  0.0530  1.1001  0.8272
    2TMC2     H14315   3.219   2.891  15.752 -1.1889 -3.7583  1.1395
    2TMC2    H114316   3.306   3.188  16.047 -1.8385 -0.4842  1.8745
    2TMC2    H214317   3.203   2.791  16.164  2.1648  0.8429  2.2550
    2TMC2    C714318   3.305   3.015  16.255 -0.1690  0.3643  0.1390
    2TMC2    C814319   3.201   2.705  15.918  0.3484  0.9055 -0.3182
    2TMC2    O114320   3.254   2.935  16.330 -0.2386 -0.7386  0.2383
    2TMC2    O214321   3.236   2.671  15.808 -0.1386  0.2647 -0.5422
    2TMC2    O514322   3.131   2.625  16.000  0.6824  0.3919  0.3948
    2TMC2    H514323   3.098   2.665  16.084 -0.3052  1.0920 -0.3373
    3MPD1     C14324   3.151   3.321  15.314 -0.1948 -0.1225 -0.8032
    3MPD1    C114325   3.183   3.188  15.308 -0.7211  0.3711  0.2907
    3MPD1    C214326   3.208   3.121  15.426  0.2238  0.0710  0.2534
    3MPD1    C314327   3.203   3.188  15.550  0.3093  0.6053 -0.4498
    3MPD1    C414328   3.167   3.320  15.550 -0.1435 -0.2261  0.2580
    3MPD1    C514329   3.135   3.381  15.430 -0.1570  0.8941  0.3183
    3MPD1     H14330   3.252   3.022  15.417 -1.1270 -0.6535  1.7364
    3MPD1    H114331   3.153   3.387  15.634  0.8553  0.9409 -0.5094
    3MPD1    H214332   3.128   3.367  15.219 -2.5270 -1.2522 -0.7903
    3MPD1    H314333   3.101   3.483  15.429  0.5367  1.1205 -0.8315
    3MPD1     N14334   3.232   3.116  15.667  0.0452 -0.6373  0.4484
    3MPD1    H514335   3.278   3.027  15.651 -1.0989 -1.5214  2.0667
    3MPD1    N114336   3.242   3.135  15.189  0.1372 -0.0068  0.3937
    3MPD1    H614337   3.227   3.199  15.111  2.7059 -1.1309 -1.0252
    3MPD1    H714338   3.202   3.046  15.161 -0.3283  0.2181  0.3415
    1TMC1    C114339   3.397   1.463  13.190 -0.0534 -0.3302  0.1314
    1TMC1    C214340   3.291   1.390  13.155 -0.5595 -0.1919 -0.1124
    1TMC1    C314341   3.306   1.254  13.139 -0.2909  0.4881 -0.1727
    1TMC1    C414342   3.517   1.404  13.226  0.1797  0.1476 -0.3132
    1TMC1    C514343   3.522   1.262  13.218 -0.2889  0.3585 -0.1503
    1TMC1    C614344   3.423   1.188  13.170  0.2664  0.2655  0.0901
    1TMC1     C14345   3.383   1.599  13.212  0.3698 -0.2667  0.4913
    1TMC1     O14346   3.324   1.656  13.118  0.4092 -0.0291  0.4288
    1TMC1     H14347   3.201   1.449  13.142  1.1873  2.3684 -0.6269
    1TMC1    H114348   3.609   1.455  13.252  1.7454 -2.2321 -1.2714
    1TMC1    H214349   3.430   1.086  13.134 -0.1204  0.5458 -0.7685
    1TMC1    C714350   3.656   1.193  13.220 -0.5312 -0.4913 -0.2574
    1TMC1    C814351   3.205   1.173  13.072  0.0542  0.3461  0.3231
    1TMC1    O114352   3.743   1.245  13.152  0.4080 -0.1130 -0.9603
    1TMC1    O214353   3.243   1.089  12.990  0.2853 -0.3918 -0.2267
    1TMC1    O314354   3.639   1.058  13.235  0.0179 -0.3247 -1.0114
    1TMC1    H314355   3.563   1.048  13.296  2.0644 -3.1844  1.0437
    1TMC1    O514356   3.104   1.255  13.058 -0.4481  0.2679 -0.1696
    1TMC1    H514357   3.079   1.285  13.149 -0.3814 -1.5882  0.4529
    2MPD2     C14358   3.364   1.887  13.280  0.3686 -0.4046 -0.0445
    2MPD2    C114359   3.426   1.793  13.365 -0.3211  0.1289  0.2021
    2MPD2    C214360   3.464   1.829  13.494  0.3720 -0.8668 -0.0886
    2MPD2    C314361   3.459   1.962  13.530  0.5629 -0.4660  0.3823
    2MPD2    C414362   3.387   2.047  13.450 -0.2954  0.4699  0.1036
    2MPD2    C514363   3.343   2.012  13.327  0.4553 -0.1484  0.0144
    2MPD2     H14364   3.517   1.759  13.557 -1.6120 -0.9067  1.5622
    2MPD2    H114365   3.376   2.151  13.476 -0.0792  0.2422  1.1121
    2MPD2    H214366   3.333   1.861  13.179  1.7180 -0.7183 -0.3804
    2MPD2    H314367   3.294   2.091  13.272 -0.2088  0.5700  1.6270
    2MPD2     N14368   3.518   2.002  13.652 -0.3696 -0.9254 -0.3944
    2MPD2    H514369   3.569   1.934  13.707  1.6774 -0.9469 -2.3212
    2MPD2    N114370   3.432   1.655  13.333 -0.2623  0.4835  0.3209
    2MPD2    H714371   3.465   1.592  13.406  0.8830 -0.5917 -1.1208
    3TCq1    O114372   3.947   1.916  13.966 -0.1075 -0.2598 -0.0308
    3TCq1    C114373   3.934   2.020  13.879 -0.0220 -0.4283  0.9246
    3TCq1    O214374   3.984   2.032  13.766  0.2324  0.0756  0.4246
    3TCq1    C214375   3.807   2.068  13.906 -0.0936  0.0314  0.9213
    3TCq1    C314376   3.765   2.082  14.039 -0.7291  0.1991  0.3418
    3TCq1    C414377   3.633   2.131  14.060  0.1117  0.7139 -0.0121
    3TCq1    C514378   3.551   2.160  13.954 -0.5348 -0.0781 -0.5328
    3TCq1    C614379   3.586   2.128  13.830  1.0425 -0.6945 -0.7594
    3TCq1    C714380   3.718   2.082  13.801 -0.0680 -0.0838 -0.4666
    3TCq1    C814381   3.497   2.122  13.717 -0.4626  1.2538  0.1862
    3TCq1    O414382   3.425   2.224  13.702 -0.1797  0.0531 -0.5570
    3TCq1    C914383   3.589   2.148  14.191 -0.0986 -0.3461 -0.0092
    3TCq1    O514384   3.461   2.174  14.201  0.3163 -0.3133 -0.0710
    3TCq1    O614385   3.673   2.140  14.285  0.0138 -0.2119 -0.3256
    3TCq1    H114386   3.871   1.922  14.028 -0.8569 -1.8549 -0.7867
    3TCq1    H214387   3.831   2.074  14.124 -1.2979 -1.6228  0.6020
    3TCq1    H314388   3.447   2.186  13.973 -0.5476  1.0432 -2.1897
    3TCq1    H414389   3.749   2.053  13.702  0.5017 -1.4459  0.1145
    1MPD2     C14390   1.509   3.803  14.824  0.5348  1.1675 -0.1364
    1MPD2    C114391   1.423   3.693  14.797 -0.4387 -0.2943 -0.2552
    1MPD2    C214392   1.459   3.570  14.841  1.0329  0.0111 -0.0314
    1MPD2    C314393   1.585   3.552  14.903  0.3999 -0.5075 -0.5522
    1MPD2    C414394   1.661   3.664  14.938  0.4766 -0.1283  0.1213
    1MPD2    C514395   1.622   3.786  14.893  0.6864  0.2839 -0.4579
    1MPD2     H14396   1.399   3.481  14.825  1.9416 -0.4223 -1.0082
    1MPD2    H114397   1.753   3.654  14.994  0.2593 -0.0403  0.4901
    1MPD2    H214398   1.479   3.904  14.802  0.8582  0.7160 -2.6634
    1MPD2    H314399   1.683   3.874  14.909  0.0930  0.7913 -0.9718
    1MPD2     N14400   1.635   3.433  14.961  0.4679 -0.3986  0.4101
    1MPD2    H514401   1.720   3.429  15.015  0.7423  0.6202  0.0592
    1MPD2    N114402   1.304   3.716  14.731 -0.2132 -0.3603  0.2294
    1MPD2    H714403   1.280   3.814  14.716 -1.0308 -0.4000  1.2584
    2TMC3    C114404   1.096   3.656  14.624 -0.5906 -0.5229 -0.2238
    2TMC3    C214405   1.013   3.549  14.612  0.1752  0.1083  0.5300
    2TMC3    C314406   0.896   3.557  14.676  0.0612 -0.6662 -0.3391
    2TMC3    C414407   1.045   3.771  14.668 -0.4323  0.8028  0.0033
    2TMC3    C514408   0.918   3.785  14.717 -0.2194 -0.5086  0.8122
    2TMC3    C614409   0.836   3.676  14.719 -0.4843  0.2007 -0.4473
    2TMC3     C14410   1.229   3.615  14.668  0.4398  0.3099  0.1605
    2TMC3     O14411   1.260   3.501  14.638  0.1029  0.0657 -0.1344
    2TMC3     H14412   1.039   3.461  14.554  0.7457 -0.3476  1.4746
    2TMC3    H114413   1.113   3.855  14.678  0.9559 -0.2329 -0.7606
    2TMC3    H214414   0.743   3.676  14.774 -1.3716 -1.8453 -1.9276
    2TMC3    C714415   0.859   3.919  14.704  0.2355 -0.8609  0.6975
    2TMC3    C814416   0.876   3.447  14.771 -1.2168  0.8971  0.0793
    2TMC3    O114417   0.737   3.920  14.682 -0.1780 -0.3210 -0.2900
    2TMC3    O214418   0.769   3.450  14.831 -0.4013 -0.4264 -0.4998
    3TCq1    O114419   1.194   4.674  15.436  0.1890  0.5262 -0.3314
    3TCq1    C114420   1.268   0.016  15.368  0.4629 -0.5739  0.2857
    3TCq1    O214421   1.355   0.083  15.418  0.0561  0.3901  0.6497
    3TCq1    C214422   1.259   4.724  15.228 -0.5187  0.4500 -0.0972
    3TCq1    C314423   1.380   4.704  15.161 -0.3891  0.6648 -0.1708
    3TCq1    C414424   1.386   4.635  15.048  0.3233 -0.0704  0.1962
    3TCq1    C514425   1.273   4.589  14.985  0.4114 -0.5364  0.1432
    3TCq1    C614426   1.148   4.615  15.043  0.6694  0.5696  0.2611
    3TCq1    C714427   1.136   4.686  15.165 -0.2436  0.7542 -0.0000
    3TCq1    C814428   1.031   4.565  14.971 -0.2707 -0.0170  0.3148
    3TCq1    O414429   0.929   4.622  14.991 -0.0694 -0.0049  0.1777
    3TCq1    C914430   1.515   4.638  14.976 -0.0899  0.2423  0.4538
    3TCq1    O514431   1.624   4.660  15.038  0.3044 -0.0444  0.5078
    3TCq1    O614432   1.512   4.635  14.848  0.7323 -0.1258 -0.1846
    3TCq1    H114433   1.135   4.618  15.382  1.5382 -0.1225 -1.1480
    3TCq1    H214434   1.467   4.742  15.213  0.2657 -1.0404 -0.0261
    3TCq1    H314435   1.293   4.528  14.897  0.2527 -0.1763 -0.1400
    3TCq1    H414436   1.040   4.691  15.215 -0.3098 -1.0041  0.0801
    4MPD2     C14437   0.853   4.424  14.783  0.2858 -1.1901 -0.3309
    4MPD2    C114438   0.969   4.370  14.836  0.3201 -0.2813 -0.4912
    4MPD2    C214439   1.003   4.237  14.814 -0.1767 -0.6230 -0.0198
    4MPD2    C314440   0.916   4.155  14.736  0.5041 -0.0343 -0.3282
    4MPD2    C414441   0.792   4.201  14.690 -0.0918 -0.2943 -0.3175
    4MPD2    C514442   0.771   4.338  14.713  0.4122 -0.0517 -0.5492
    4MPD2     H14443   1.076   4.185  14.876  2.5007  1.4574 -1.4164
    4MPD2    H114444   0.728   4.150  14.619 -2.3371 -0.4023  1.7972
    4MPD2    H214445   0.831   4.530  14.780 -0.6793 -1.2901  3.6186
    4MPD2    H314446   0.685   4.390  14.675  0.1898 -0.7298 -0.9691
    4MPD2     N14447   0.948   4.019  14.729 -0.4199 -0.3895  0.2028
    4MPD2    H514448   1.042   3.990  14.754 -0.6949 -0.2870  1.3730
    4MPD2    N114449   1.056   4.444  14.912 -0.0792  0.2021 -0.6653
    4MPD2    H714450   1.148   4.403  14.925  0.1943  1.1034  0.2968
    5TMC2    C114451   1.503   3.036  15.131 -0.1944 -0.2163 -0.0003
    5TMC2    C214452   1.527   3.079  15.254  0.6104 -0.3305 -0.8683
    5TMC2    C314453   1.598   3.197  15.267  0.3207 -0.0122  0.0271
    5TMC2    C414454   1.559   3.099  15.021 -0.3089  0.6417 -0.8020
    5TMC2    C514455   1.626   3.214  15.037  0.1751  0.6892 -0.3118
    5TMC2    C614456   1.646   3.261  15.161  0.0560 -0.2908  0.3455
    5TMC2     C14457   1.358   3.015  15.118  0.3365 -0.2711 -0.4534
    5TMC2     O14458   1.302   2.948  15.204 -0.0014  0.1509  0.7139
    5TMC2     H14459   1.476   3.032  15.338  2.5413 -1.6865 -0.4583
    5TMC2    H114460   1.525   3.059  14.926  1.4534 -0.5698 -0.9473
    5TMC2    H214461   1.702   3.353  15.175 -0.2133 -0.1895  0.7673
    5TMC2    C714462   1.571   3.314  14.949 -0.3468  0.3272  0.0457
    5TMC2    C814463   1.614   3.261  15.389  0.3872  0.2200  0.4715
    5TMC2    O114464   1.481   3.278  14.879  0.6483  0.3641  0.7850
    5TMC2    O214465   1.677   3.211  15.479 -0.2208  0.0586  0.1118
    5TMC2    O514466   1.598   3.396  15.371 -0.2597  0.0748  0.0713
    5TMC2    H514467   1.542   3.416  15.294  0.9086  3.4842  0.1080
    6MPD2     C14468   0.905   3.216  14.949 -0.0798 -0.0937 -0.2909
    6MPD2    C114469   1.014   3.290  14.907  0.0199 -0.4629 -0.4980
    6MPD2    C214470   1.142   3.252  14.937 -0.2419  0.4137 -0.2454
    6MPD2    C314471   1.164   3.141  15.012  0.8999 -0.3547 -0.1859
    6MPD2    C414472   1.053   3.068  15.056  0.1260 -0.3687  0.6389
    6MPD2    C514473   0.925   3.104  15.025 -0.7011  0.4986 -0.3874
    6MPD2     H14474   1.216   3.322  14.901 -0.7274  1.4877  0.8737
    6MPD2    H114475   1.066   2.972  15.105  0.7965 -0.9951 -0.7754
    6MPD2    H214476   0.802   3.244  14.933 -0.2492 -0.5169  0.0960
    6MPD2    H314477   0.840   3.038  15.041 -0.3982  0.2857  0.3264
    6MPD2     N14478   1.297   3.100  15.029  0.0658 -0.6751 -0.0719
    6MPD2    H514479   1.364   3.154  14.975 -0.6442 -1.2283 -1.4911
    6MPD2    N114480   0.996   3.392  14.809 -0.1099  0.7398  0.1718
    6MPD2    H714481   1.079   3.426  14.762  1.6900 -0.4003  2.5376
  945NH4     N114482   2.654   1.429   3.085  0.6465  0.0030 -0.2999
  945NH4     H214483   2.614   1.523   3.067 -2.1676 -0.5952  2.7138
  945NH4     H314484   2.670   1.416   3.187  0.1304  0.5128 -0.1543
  945NH4     H414485   2.744   1.412   3.035 -2.0241  1.7499 -5.6952
  945NH4     H514486   2.576   1.370   3.049 -0.1226  0.3559  0.7792
  946SOD     NA14487   2.738   1.143  12.365  0.6103 -0.4794  0.0402
  947SOD     NA14488   2.371   3.295  15.427 -0.3049  0.2353 -0.3519
  948SOD     NA14489   0.704   1.602  13.403 -0.0891 -0.2655 -0.0280
  949SOD     NA14490   3.099   0.477  15.355 -0.5931 -0.4390  0.0011
  950SOD     NA14491   3.694   2.798   9.031 -0.0008  0.1192  0.0653
  951SOD     NA14492   0.926   3.112  10.886  0.6350  0.0657 -0.2061
  952SOD     NA14493   0.918   1.431   9.337 -0.3207 -0.1943  0.0398
  953SOL     OW14494   1.592   2.583   9.072 -0.1140 -0.5557  0.1989
  953SOL    HW114495   1.521   2.592   9.136 -0.5130 -0.3836 -0.2656
  953SOL    HW214496   1.617   2.496   9.103  2.7764 -0.4989 -1.9853
  954SOL     OW14497   2.071   3.581  14.482 -0.0675 -0.3251 -0.7298
  954SOL    HW114498   2.158   3.570  14.445  0.8729 -1.8972  2.0200
  954SOL    HW214499   2.027   3.529  14.414 -0.7606  0.3476 -0.8048
  955SOL     OW14500   4.622   1.517   5.653 -0.1660  0.4497 -0.6168
  955SOL    HW114501   4.611   1.590   5.714 -1.1093 -0.4957  0.3189
  955SOL    HW214502   4.535   1.508   5.615  0.6254  0.7563 -2.4946
  956SOL     OW14503   3.752   0.775   5.936 -0.1997  0.3545 -0.1296
  956SOL    HW114504   3.822   0.824   5.894  0.0845 -1.8543 -2.2369
  956SOL    HW214505   3.766   0.685   5.906  0.2531 -0.2952  2.0074
  957SOL     OW14506   1.550   0.530   2.034 -0.5429 -0.3255  0.2808
  957SOL    HW114507   1.560   0.436   2.050  0.2432 -0.1261  0.9697
  957SOL    HW214508   1.520   0.528   1.943  0.5699  1.4146 -0.1247
  958SOL     OW14509   0.988   4.605   5.846  0.2075 -0.1087  0.4393
  958SOL    HW114510   0.929   4.531   5.829 -1.1335  1.2112 -0.6545
  958SOL    HW214511   0.971   4.663   5.773 -1.3647 -1.2564 -0.1046
  959SOL     OW14512   3.189   0.104   9.186  0.8935  0.3121  0.6464
  959SOL    HW114513   3.237   0.140   9.260  2.2032  0.2646 -0.1884
  959SOL    HW214514   3.257   0.055   9.139  0.0620 -1.5467  1.3598
  960SOL     OW14515   0.168   3.211   7.531  0.7897 -0.0429  0.3682
  960SOL    HW114516   0.110   3.142   7.562  0.6475  0.8088  2.0158
  960SOL    HW214517   0.102   3.275   7.502  1.2819  0.4826  0.4090
  961SOL     OW14518   3.075   4.490   8.990 -0.0593 -0.5546 -0.2664
  961SOL    HW114519   3.111   4.402   8.977 -1.4553 -1.0134 -0.9733
  961SOL    HW214520   3.131   4.533   8.925 -2.0574 -0.7212 -2.0601
  962SOL     OW14521   0.262   0.685   2.254 -0.6514  0.4155 -0.2275
  962SOL    HW114522   0.214   0.615   2.298 -0.5755 -0.5819 -1.7351
  962SOL    HW214523   0.202   0.759   2.265 -1.1728  0.3049 -2.3395
  963SOL     OW14524   0.946   1.560   6.849  0.1393  0.0276  0.2590
  963SOL    HW114525   1.024   1.611   6.872  1.2961 -0.9205 -1.6149
  963SOL    HW214526   0.885   1.633   6.838  0.2837  0.4128  2.0065
  964SOL     OW14527   1.969   1.991   4.365  0.6844 -0.1530 -0.4456
  964SOL    HW114528   2.052   1.981   4.410  1.3782  0.2385 -1.6361
  964SOL    HW214529   1.968   1.921   4.299 -0.4204  0.3485 -0.9601
  965SOL     OW14530   4.232   0.786   2.984 -0.2540 -0.4654  0.3135
  965SOL    HW114531   4.152   0.835   2.966 -0.2189  0.0477  1.5944
  965SOL    HW214532   4.278   0.855   3.031 -1.2861 -0.5042  1.3719
  966SOL     OW14533   0.935   2.690   8.191  1.0094  0.0670  0.6215
  966SOL    HW114534   0.894   2.625   8.134 -0.8905  1.6649  0.1297
  966SOL    HW214535   0.950   2.746   8.115 -0.9693 -0.0367  0.1477
  967SOL     OW14536   1.044   3.908  11.514  0.0800 -0.0200 -0.3986
  967SOL    HW114537   1.050   3.817  11.484 -0.0591 -0.1676  0.0241
  967SOL    HW214538   0.951   3.913  11.538  0.7712 -1.6365  2.5592
  968SOL     OW14539   4.035   1.646   8.135  0.5257  0.8921  0.2554
  968SOL    HW114540   4.079   1.729   8.117  0.5826  0.6095 -0.9538
  968SOL    HW214541   4.002   1.637   8.045  0.4966  0.2723  0.3290
  969SOL     OW14542   3.551   4.226   5.802  0.0630 -0.1230  0.1186
  969SOL    HW114543   3.494   4.254   5.874  1.4456  0.6331  0.9381
  969SOL    HW214544   3.506   4.143   5.789  3.7277 -1.8753 -1.4029
  970SOL     OW14545   3.854   1.266  14.417 -0.0887  0.6151 -0.1545
  970SOL    HW114546   3.813   1.321  14.350  1.9720  0.0540 -1.8968
  970SOL    HW214547   3.846   1.181  14.373 -0.1283  0.5632 -0.0457
  971SOL     OW14548   1.593   2.825  17.213  0.0398 -0.1448  0.2703
  971SOL    HW114549   1.654   2.751  17.217  0.0200 -0.0372  2.1330
  971SOL    HW214550   1.607   2.872  17.294  0.9843 -0.7123  0.4339
  972SOL     OW14551   2.995   1.469   3.336  0.6599  0.8333 -1.0202
  972SOL    HW114552   3.031   1.422   3.411 -1.6996  0.5405 -0.0713
  972SOL    HW214553   3.023   1.411   3.265  1.6858 -1.0724  0.9239
  973SOL     OW14554   3.417   4.600  10.715 -0.4614  0.1839 -0.0357
  973SOL    HW114555   3.349   4.611  10.782 -0.8149 -0.0030 -0.3648
  973SOL    HW214556   3.385   4.652  10.641  1.3119  1.1603 -0.1266
  974SOL     OW14557   3.901   3.390  14.112  0.0426  0.0797  0.1590
  974SOL    HW114558   3.843   3.463  14.133 -0.5638 -0.8740  1.7414
  974SOL    HW214559   3.926   3.355  14.197 -0.1391  1.5149  0.8073
  975SOL     OW14560   1.484   3.816   4.836  0.4450 -0.3917 -1.0226
  975SOL    HW114561   1.558   3.842   4.780  0.3344 -1.0452 -1.4702
  975SOL    HW214562   1.532   3.804   4.918  1.0203  0.5444 -1.2204
  976SOL     OW14563   1.675   3.516   0.106  0.2948 -0.3042  0.6699
  976SOL    HW114564   1.646   3.585   0.047 -1.2727  0.7130  2.6402
  976SOL    HW214565   1.658   3.562   0.189 -0.3429  1.4846 -0.4455
  977SOL     OW14566   3.787   3.461   6.830  0.5756 -0.6138  0.1653
  977SOL    HW114567   3.784   3.525   6.901  0.4402  0.3968 -0.7433
  977SOL    HW214568   3.765   3.515   6.754 -1.0950 -1.6566 -0.1053
  978SOL     OW14569   1.381   0.216   2.553 -0.4441  0.6904 -0.1178
  978SOL    HW114570   1.301   0.265   2.536 -1.7239 -1.2013  0.4203
  978SOL    HW214571   1.431   0.221   2.471 -0.8414  1.6034 -0.3047
  979SOL     OW14572   4.014   1.057   7.121 -0.0080 -0.3753  0.0053
  979SOL    HW114573   4.046   1.113   7.192  0.3134 -0.7265  0.1339
  979SOL    HW214574   3.967   1.115   7.061  1.8515  1.5136  0.3643
  980SOL     OW14575   1.241   2.008   2.595 -0.1776  0.5782  0.0906
  980SOL    HW114576   1.318   1.952   2.584 -1.1804 -0.6638 -0.6600
  980SOL    HW214577   1.274   2.097   2.591  0.4591  0.3610  0.4472
  981SOL     OW14578   2.696   1.734   8.686 -0.2522  0.0632  0.3119
  981SOL    HW114579   2.685   1.724   8.781 -1.8376  2.2994  0.3893
  981SOL    HW214580   2.609   1.708   8.657 -0.7563  0.3137  1.5705
  982SOL     OW14581   2.812   0.528  17.184  0.0435  0.0605  0.3184
  982SOL    HW114582   2.892   0.477  17.186  1.6074  2.4659 -1.1410
  982SOL    HW214583   2.743   0.461  17.183  1.0719 -0.9790 -3.3051
  983SOL     OW14584   0.195   4.614  15.097  0.6544  0.0684 -0.3416
  983SOL    HW114585   0.243   4.543  15.055  0.9834  1.2638 -2.0165
  983SOL    HW214586   0.123   4.627  15.034 -0.9878  2.6128  2.0176
  984SOL     OW14587   1.386   2.259   2.081 -0.3885  0.0259 -0.2799
  984SOL    HW114588   1.321   2.197   2.048 -0.6870  0.8510 -1.2134
  984SOL    HW214589   1.341   2.342   2.072 -0.4920  0.0418  0.3529
  985SOL     OW14590   1.032   4.633   6.117  0.2354  0.2910  0.0273
  985SOL    HW114591   1.031   4.626   6.021  1.6136 -0.0452  0.0336
  985SOL    HW214592   1.033   4.540   6.137 -0.8885  0.0322 -1.0520
  986SOL     OW14593   2.185   1.676   4.838 -0.2618 -0.0562  0.2477
  986SOL    HW114594   2.254   1.613   4.818  0.1485 -0.7047  3.6539
  986SOL    HW214595   2.176   1.727   4.757 -0.1468 -1.8274 -0.8753
  987SOL     OW14596   3.515   3.422   7.417  0.2814 -0.1148 -0.0235
  987SOL    HW114597   3.464   3.359   7.367  1.0159 -0.7760  0.0488
  987SOL    HW214598   3.590   3.438   7.360  0.8397 -1.2352  0.3986
  988SOL     OW14599   2.583   1.515   7.479  0.4781 -0.3681 -0.0023
  988SOL    HW114600   2.499   1.527   7.523 -0.4739  1.5416 -2.3366
  988SOL    HW214601   2.573   1.430   7.436 -2.2764 -0.3155  0.5324
  989SOL     OW14602   4.206   3.561   3.013 -0.3429  0.2056 -0.8141
  989SOL    HW114603   4.139   3.621   3.046  0.3325 -1.9775  4.5692
  989SOL    HW214604   4.155   3.481   3.016 -0.4385  0.2774 -0.4108
  990SOL     OW14605   2.121   3.471   5.680  0.1823  0.2713  0.5598
  990SOL    HW114606   2.153   3.418   5.607 -0.7244  1.1334 -0.4541
  990SOL    HW214607   2.171   3.420   5.744  0.1303 -0.9301 -0.3431
  991SOL     OW14608   0.048   0.177  10.011 -0.6832  0.0021 -0.6138
  991SOL    HW114609   4.718   0.115  10.001 -0.8492 -0.5592  4.0758
  991SOL    HW214610   0.023   0.253   9.959 -0.8563  0.2991 -0.0998
  992SOL     OW14611   2.705   2.517   8.149 -0.2481  0.9611 -0.2202
  992SOL    HW114612   2.752   2.519   8.232  0.6802 -0.4795 -0.7036
  992SOL    HW214613   2.757   2.584   8.104 -1.3687  1.6314 -0.4916
  993SOL     OW14614   3.241   4.703  15.058  0.1012 -0.2910  0.0783
  993SOL    HW114615   3.321   4.650  15.060 -0.1231 -0.6617 -1.2382
  993SOL    HW214616   3.231   4.714  14.964  1.9519 -1.6908 -0.2703
  994SOL     OW14617   1.557   1.767   6.212 -0.1081 -0.2664  0.6454
  994SOL    HW114618   1.500   1.701   6.173  0.0915  0.3737 -0.7418
  994SOL    HW214619   1.540   1.743   6.303  0.2063 -0.2632  0.7026
  995SOL     OW14620   2.890   2.231   5.429  0.1067  0.1978 -0.0178
  995SOL    HW114621   2.795   2.241   5.423  0.0709  0.6553  1.3628
  995SOL    HW214622   2.898   2.193   5.341  0.7779  0.4580 -0.0685
  996SOL     OW14623   4.623   4.009  11.025 -0.1836 -0.2465 -0.4588
  996SOL    HW114624   4.647   4.008  11.118  0.1473 -1.6772 -0.5604
  996SOL    HW214625   4.680   3.936  10.999  1.1549  0.1199  1.4800
  997SOL     OW14626   2.892   4.171   1.396 -0.4425 -0.1237 -0.2547
  997SOL    HW114627   2.892   4.105   1.465 -0.6959  0.3969  0.2426
  997SOL    HW214628   2.983   4.165   1.366  0.1745 -1.4751  1.9002
  998SOL     OW14629   4.428   3.536   6.288  0.4025 -0.2949  0.5823
  998SOL    HW114630   4.435   3.440   6.283  1.7877 -0.1622 -0.0267
  998SOL    HW214631   4.336   3.554   6.304  0.3867  0.0821  0.0789
  999SOL     OW14632   4.033   0.114   4.585 -0.0089 -0.6420 -0.4041
  999SOL    HW114633   4.106   0.059   4.614 -0.4116 -1.5489 -1.1073
  999SOL    HW214634   4.073   0.200   4.598  0.2110 -0.8881  0.5140
 1000SOL     OW14635   0.225   0.807   3.231 -0.1271  0.3198 -0.1794
 1000SOL    HW114636   0.171   0.843   3.161  1.2585  0.5586 -1.1165
 1000SOL    HW214637   0.215   0.713   3.217 -1.1055  0.5158 -0.8240
 1001SOL     OW14638   4.119   1.699   7.290  0.5179  0.0570 -0.1958
 1001SOL    HW114639   4.211   1.719   7.307  0.9413  0.0129 -2.4372
 1001SOL    HW214640   4.123   1.645   7.212 -0.3389  3.1396 -2.3913
 1002SOL     OW14641   1.243   2.813   8.876  0.3680  0.7000 -0.3858
 1002SOL    HW114642   1.279   2.725   8.872 -1.4845  0.0031 -1.8566
 1002SOL    HW214643   1.214   2.824   8.967 -0.1603  1.2037 -0.6185
 1003SOL     OW14644   0.588   2.671   8.221  0.2596  0.1944 -0.5046
 1003SOL    HW114645   0.579   2.616   8.143 -2.0641  1.2523 -0.9788
 1003SOL    HW214646   0.666   2.641   8.267  0.6433  0.2678 -1.1122
 1004SOL     OW14647   1.160   0.916  13.051 -0.1263  0.1795 -0.2545
 1004SOL    HW114648   1.103   0.864  12.994 -3.4291 -0.2804  3.4528
 1004SOL    HW214649   1.242   0.875  13.023 -0.2977 -1.5234  1.6669
 1005SOL     OW14650   3.711   1.311   2.433  0.4404 -0.3439 -0.2128
 1005SOL    HW114651   3.623   1.338   2.407  0.4131 -1.4767 -1.3143
 1005SOL    HW214652   3.723   1.253   2.358 -0.6358  0.5513 -1.0877
 1006SOL     OW14653   3.238   3.931   1.205  0.5905 -0.1007 -0.1658
 1006SOL    HW114654   3.216   4.017   1.169 -0.8376 -0.8871 -1.2210
 1006SOL    HW214655   3.148   3.904   1.225  0.0151  1.4063 -0.7245
 1007SOL     OW14656   3.794   4.679   8.939 -0.0195 -0.0873 -0.5263
 1007SOL    HW114657   3.846   4.689   9.019 -0.6997  0.9541 -0.2229
 1007SOL    HW214658   3.716   4.637   8.976  0.3337 -1.1821 -1.0086
 1008SOL     OW14659   1.075   3.812   7.837 -0.0654 -0.3980 -0.3990
 1008SOL    HW114660   1.046   3.806   7.928  0.1608  1.3136 -0.2184
 1008SOL    HW214661   1.096   3.904   7.824  1.3222 -0.6442  0.0213
 1009SOL     OW14662   2.982   2.149  10.336 -0.2925  0.5010 -0.6633
 1009SOL    HW114663   2.965   2.072  10.390  1.6849 -0.2634 -1.1541
 1009SOL    HW214664   3.002   2.105  10.254 -1.5495 -0.1390 -0.6251
 1010SOL     OW14665   2.473   1.893  16.769 -0.1975 -0.1330  0.1928
 1010SOL    HW114666   2.489   1.969  16.713 -1.0416 -1.3859 -1.7821
 1010SOL    HW214667   2.518   1.921  16.848 -1.2842  0.0653  0.7301
 1011SOL     OW14668   3.242   0.458  10.669  0.2827  0.4024  0.0152
 1011SOL    HW114669   3.157   0.427  10.639 -0.4228  2.0939  0.2735
 1011SOL    HW214670   3.281   0.371  10.669 -1.9592 -0.5887  1.0165
 1012SOL     OW14671   0.596   1.638  13.063  0.9828 -0.4771  0.2234
 1012SOL    HW114672   0.638   1.558  13.095 -1.2027 -1.0188  1.7743
 1012SOL    HW214673   0.521   1.594  13.023  1.2451  0.5390 -1.3634
 1013SOL     OW14674   4.589   2.741  14.061 -0.0318 -0.3051 -0.5850
 1013SOL    HW114675   4.594   2.758  14.155  1.3467 -0.9927 -0.5319
 1013SOL    HW214676   4.622   2.821  14.021  1.9826 -0.4050  0.8547
 1014SOL     OW14677   1.905   2.861   8.547  0.0021 -0.4137  0.1005
 1014SOL    HW114678   1.857   2.783   8.521 -0.5464 -0.1737  0.3838
 1014SOL    HW214679   1.981   2.816   8.583 -0.3951 -0.1989  1.2153
 1015SOL     OW14680   3.395   0.208   5.769  0.0158  0.1178 -0.0074
 1015SOL    HW114681   3.453   0.142   5.807 -0.6698 -1.1700 -1.1844
 1015SOL    HW214682   3.330   0.220   5.839 -0.6418  2.7492 -1.0687
 1016SOL     OW14683   4.476   0.988  16.466  0.2140  0.0681  0.3324
 1016SOL    HW114684   4.568   0.969  16.482  0.7385  2.7773  0.4282
 1016SOL    HW214685   4.449   0.949  16.383 -2.9396  1.4138  0.7169
 1017SOL     OW14686   0.957   0.968  16.180  0.0211 -0.1895  0.5329
 1017SOL    HW114687   0.947   0.930  16.093 -2.8707 -1.4135  1.3888
 1017SOL    HW214688   0.915   1.054  16.182  2.9102  1.2037  1.4596
 1018SOL     OW14689   0.407   2.824   8.408  0.1469 -0.4414 -0.2394
 1018SOL    HW114690   0.446   2.911   8.398 -2.2154  0.7837  1.2440
 1018SOL    HW214691   0.437   2.772   8.333 -2.0582 -0.5291 -1.0372
 1019SOL     OW14692   1.408   2.048   5.443 -1.2925  0.3633 -0.2622
 1019SOL    HW114693   1.463   1.970   5.452 -0.6192  0.7485 -1.0172
 1019SOL    HW214694   1.461   2.111   5.394 -0.4028  0.6615  1.0832
 1020SOL     OW14695   2.185   0.583   8.582 -0.6236 -0.2093 -0.1523
 1020SOL    HW114696   2.098   0.599   8.546  1.0704 -1.2416 -4.7440
 1020SOL    HW214697   2.196   0.629   8.665 -0.3978 -1.8726  0.7422
 1021SOL     OW14698   2.285   0.283   8.334 -0.2784 -0.0956 -0.1190
 1021SOL    HW114699   2.283   0.199   8.289 -2.5937 -0.2400  0.2974
 1021SOL    HW214700   2.205   0.323   8.300  0.2039  1.3189  0.3814
 1022SOL     OW14701   1.761   1.431   9.757  1.0809 -0.2183  0.1420
 1022SOL    HW114702   1.785   1.460   9.669  1.9170 -0.2464  0.3639
 1022SOL    HW214703   1.845   1.420   9.801  1.0895 -0.6440  0.0130
 1023SOL     OW14704   2.931   1.777   3.544 -0.5906 -0.4525 -0.4124
 1023SOL    HW114705   2.840   1.792   3.569 -0.4393  2.2497 -1.4524
 1023SOL    HW214706   2.962   1.723   3.616  0.1435 -3.6149 -3.1132
 1024SOL     OW14707   4.212   4.320  17.033 -0.1367  0.3908  0.2500
 1024SOL    HW114708   4.236   4.230  17.056 -0.9087  0.8147  2.7426
 1024SOL    HW214709   4.117   4.307  17.037 -0.2475  1.3691  1.1058
 1025SOL     OW14710   2.209   2.446  17.375 -0.7019 -0.4993 -0.5609
 1025SOL    HW114711   2.113   2.439  17.369 -0.8411  0.0740  1.0872
 1025SOL    HW214712   2.243   2.484  17.294 -1.2147 -0.0787 -0.5737
 1026SOL     OW14713   3.773   1.611   6.112  0.8588  0.0438 -0.2262
 1026SOL    HW114714   3.721   1.592   6.034  2.4724  0.3445 -1.3827
 1026SOL    HW214715   3.720   1.577   6.184  1.0753 -1.1164 -0.6181
 1027SOL     OW14716   2.865   1.445   7.370  0.7546  0.4046  0.5367
 1027SOL    HW114717   2.771   1.429   7.364  1.2653 -2.0326 -0.9223
 1027SOL    HW214718   2.869   1.541   7.370 -0.6672  0.4581 -0.8306
 1028SOL     OW14719   4.392   3.627   7.952 -0.3037  0.3377  0.2328
 1028SOL    HW114720   4.388   3.570   7.875  0.0769  1.2414 -0.4558
 1028SOL    HW214721   4.440   3.701   7.915  1.0017 -0.6668 -0.0752
 1029SOL     OW14722   2.042   3.698   7.905 -0.0051 -0.7162 -0.0726
 1029SOL    HW114723   2.118   3.660   7.860 -0.7460  0.0473 -1.9748
 1029SOL    HW214724   1.982   3.624   7.906  1.4981 -1.9286  0.8566
 1030SOL     OW14725   2.865   0.404  13.472  0.8411  0.6994  0.3991
 1030SOL    HW114726   2.898   0.336  13.530  0.2771  1.6423  1.8253
 1030SOL    HW214727   2.809   0.455  13.531  0.0114 -1.1369  1.2110
 1031SOL     OW14728   4.560   1.226   7.665  0.2994 -0.0246 -0.3255
 1031SOL    HW114729   4.542   1.132   7.665 -1.1585  0.2641  2.3150
 1031SOL    HW214730   4.597   1.240   7.752  0.1647 -0.6301 -0.1745
 1032SOL     OW14731   4.040   4.299   4.839 -0.1199  0.3421 -0.1694
 1032SOL    HW114732   3.956   4.270   4.875  0.0840 -0.3915 -0.2879
 1032SOL    HW214733   4.055   4.382   4.884 -0.5349 -0.8214  2.0828
 1033SOL     OW14734   1.983   3.506  14.791 -0.1515 -0.1287 -0.4058
 1033SOL    HW114735   2.031   3.537  14.868 -1.5440  1.1182 -0.0255
 1033SOL    HW214736   2.049   3.443  14.762  0.3278  0.5126 -0.7056
 1034SOL     OW14737   3.349   1.714   8.938  0.1319 -0.3632  0.1532
 1034SOL    HW114738   3.406   1.660   8.993 -0.3095 -0.2818  0.6857
 1034SOL    HW214739   3.365   1.663   8.858 -1.6645 -2.7525  1.3422
 1035SOL     OW14740   1.551   2.247   4.991 -0.0211  0.9158  0.3150
 1035SOL    HW114741   1.527   2.237   5.083  0.9590  0.7756  0.5603
 1035SOL    HW214742   1.495   2.190   4.939 -0.1164 -1.3475  2.9389
 1036SOL     OW14743   4.581   3.664   2.302  0.2864  0.0987 -0.4792
 1036SOL    HW114744   4.515   3.732   2.320 -0.4950 -0.8152  0.0969
 1036SOL    HW214745   4.582   3.618   2.386  0.8533 -1.2894 -1.2605
 1037SOL     OW14746   1.753   1.840   3.818  0.9822  0.5542 -0.1597
 1037SOL    HW114747   1.845   1.835   3.791  0.8246 -0.3179 -0.5547
 1037SOL    HW214748   1.716   1.881   3.740  1.8030 -0.6862 -1.2213
 1038SOL     OW14749   0.240   3.664   6.302 -0.1457  0.3504 -0.8091
 1038SOL    HW114750   0.149   3.638   6.291 -0.0660 -0.1706 -0.2323
 1038SOL    HW214751   0.286   3.647   6.220  2.1874 -0.0439  0.5763
 1039SOL     OW14752   0.026   1.986   2.557 -0.0383 -0.5106 -0.0862
 1039SOL    HW114753   0.012   1.991   2.462 -0.7612 -0.0429  0.0490
 1039SOL    HW214754   0.063   2.070   2.582  1.2585 -0.7823 -1.0811
 1040SOL     OW14755   2.077   1.344   2.137 -0.6995  0.4321 -0.4377
 1040SOL    HW114756   2.080   1.266   2.193  1.4291  0.6043 -0.3457
 1040SOL    HW214757   2.097   1.300   2.054  1.1962  0.5348 -0.0223
 1041SOL     OW14758   4.395   1.348   5.269  0.3422  0.0313  0.5009
 1041SOL    HW114759   4.332   1.381   5.206  1.5359  1.0187 -0.1668
 1041SOL    HW214760   4.485   1.359   5.238 -0.0715  0.3620 -0.5529
 1042SOL     OW14761   0.075   0.246   2.848  0.4667 -0.1217 -0.6157
 1042SOL    HW114762   0.161   0.238   2.890 -0.6131 -2.2711  1.2128
 1042SOL    HW214763   0.085   0.323   2.793  0.3073  1.0282  0.9475
 1043SOL     OW14764   2.225   2.826   6.974  0.1958 -0.3070 -0.2424
 1043SOL    HW114765   2.244   2.795   6.886  3.2202 -0.3367  0.4361
 1043SOL    HW214766   2.138   2.866   6.973 -0.5390 -1.8125  2.6475
 1044SOL     OW14767   0.969   0.870   8.417 -0.2358  0.3803  0.1328
 1044SOL    HW114768   0.898   0.897   8.474 -0.6193 -1.8932  0.7227
 1044SOL    HW214769   1.035   0.854   8.485  1.0529  2.8152 -0.5374
 1045SOL     OW14770   1.848   4.451   3.419 -0.2464 -0.8256  0.0846
 1045SOL    HW114771   1.789   4.505   3.367  1.7639  0.0176 -1.3150
 1045SOL    HW214772   1.825   4.361   3.394  0.3497 -1.2244  0.9937
 1046SOL     OW14773   1.843   1.188   7.611 -0.7399  0.5032 -0.5728
 1046SOL    HW114774   1.899   1.235   7.674  2.4718 -1.3571 -2.0375
 1046SOL    HW214775   1.874   1.098   7.605  0.0344  0.5594  2.4690
 1047SOL     OW14776   1.261   1.956  11.257 -0.2039 -0.4368 -0.3211
 1047SOL    HW114777   1.354   1.936  11.248 -0.5217 -1.5966 -1.0969
 1047SOL    HW214778   1.268   2.051  11.255  0.3564 -0.4524  0.6527
 1048SOL     OW14779   2.877   3.059  17.226 -0.3649  0.1408 -0.1609
 1048SOL    HW114780   2.931   3.119  17.174  0.0906 -0.1803 -0.0523
 1048SOL    HW214781   2.784   3.067  17.203 -0.1786  0.9409 -0.6312
 1049SOL     OW14782   3.574   0.590  17.325 -0.0900  0.2637 -1.0424
 1049SOL    HW114783   3.595   0.585  17.231  1.3908 -2.1469 -0.5840
 1049SOL    HW214784   3.641   0.529  17.356  1.4717  2.4824 -0.0742
 1050SOL     OW14785   0.180   2.391   8.043 -0.0402 -0.2003  0.2858
 1050SOL    HW114786   0.255   2.350   8.000  0.1531 -2.0060  2.3635
 1050SOL    HW214787   0.208   2.381   8.134  2.0493  2.3431 -0.0837
 1051SOL     OW14788   4.557   1.990   4.704  0.5104  0.1662 -0.1671
 1051SOL    HW114789   4.509   1.944   4.773  0.2341  2.7597  1.3596
 1051SOL    HW214790   4.633   2.031   4.744  0.3724  0.8914 -0.6560
 1052SOL     OW14791   4.334   4.232   0.542  0.0724  0.5024  0.7177
 1052SOL    HW114792   4.284   4.191   0.612 -1.7560  1.7324  0.1250
 1052SOL    HW214793   4.422   4.197   0.557 -0.6261 -2.0710 -1.2691
 1053SOL     OW14794   2.224   1.375   3.037  0.0879  0.5088 -0.0749
 1053SOL    HW114795   2.137   1.337   3.049 -1.4283  2.3218 -5.1774
 1053SOL    HW214796   2.244   1.398   3.128 -1.0140  1.7179 -0.1472
 1054SOL     OW14797   3.649   2.450   9.435  0.0898  0.7788  0.5645
 1054SOL    HW114798   3.685   2.455   9.524 -0.9322 -0.7413  1.0721
 1054SOL    HW214799   3.559   2.479   9.453 -1.0865 -2.9183  0.8813
 1055SOL     OW14800   4.199   1.050  13.964 -0.0549  0.0358 -0.1302
 1055SOL    HW114801   4.228   0.960  13.952  1.4054  0.8426 -2.4809
 1055SOL    HW214802   4.146   1.081  13.890  1.0084  1.1842 -0.3964
 1056SOL     OW14803   3.294   2.002  14.084 -0.2271 -0.4192  0.4689
 1056SOL    HW114804   3.369   2.055  14.112  0.5516 -0.0192 -2.4047
 1056SOL    HW214805   3.222   2.055  14.120 -1.5943 -1.7616 -0.3066
 1057SOL     OW14806   0.549   0.855   1.904  0.0253 -0.4799  0.1799
 1057SOL    HW114807   0.526   0.934   1.953  3.4293 -0.1521  1.2864
 1057SOL    HW214808   0.507   0.787   1.956 -0.4035  0.2508  0.7920
 1058SOL     OW14809   3.201   4.326   6.480  0.0419  0.2017  0.3533
 1058SOL    HW114810   3.173   4.402   6.531 -2.0757 -1.5124  1.7807
 1058SOL    HW214811   3.133   4.325   6.412  0.8938 -0.1167 -0.4802
 1059SOL     OW14812   4.363   4.486   6.112  0.1608 -0.1743 -0.3431
 1059SOL    HW114813   4.429   4.418   6.109 -0.4919 -0.8357  0.5326
 1059SOL    HW214814   4.284   4.434   6.125  1.4103 -1.8722  0.4167
 1060SOL     OW14815   4.181   3.912   8.892 -0.2113  0.3214 -0.0482
 1060SOL    HW114816   4.211   3.901   8.982 -0.5811 -0.0793  0.0274
 1060SOL    HW214817   4.168   3.820   8.871  0.0730  0.3726 -0.4429
 1061SOL     OW14818   0.186   2.730   8.581  0.0993 -0.5565  0.0292
 1061SOL    HW114819   0.207   2.638   8.563  1.5997 -0.1540 -0.2766
 1061SOL    HW214820   0.248   2.781   8.528 -0.0131 -0.1256  0.3111
 1062SOL     OW14821   2.701   1.535  11.926  0.3986 -0.2099  0.0106
 1062SOL    HW114822   2.765   1.562  11.991 -0.7486 -0.2024  1.1375
 1062SOL    HW214823   2.637   1.495  11.984  0.0839  0.0919 -0.1224
 1063SOL     OW14824   2.494   2.173   0.909  0.4391 -0.7072  0.3747
 1063SOL    HW114825   2.476   2.145   0.819  1.2179  2.3058 -0.7307
 1063SOL    HW214826   2.444   2.107   0.958 -0.4903  0.5138  1.0526
 1064SOL     OW14827   3.009   1.307  13.305 -0.0443 -0.3104  0.1662
 1064SOL    HW114828   3.060   1.237  13.346 -0.5128 -1.9542 -2.1292
 1064SOL    HW214829   2.918   1.289  13.328  0.3345  0.2759  2.1546
 1065SOL     OW14830   2.439   2.766  17.266  0.3642  0.2184 -0.4989
 1065SOL    HW114831   2.473   2.757  17.177 -0.7455  0.1097 -0.9187
 1065SOL    HW214832   2.363   2.821  17.248 -1.2469 -1.6693  0.4861
 1066SOL     OW14833   3.021   0.403   5.226  0.1826 -0.2688  0.0920
 1066SOL    HW114834   3.018   0.490   5.267  2.0276  0.0958 -0.5473
 1066SOL    HW214835   3.063   0.358   5.299 -1.7691 -1.9946  0.1596
 1067SOL     OW14836   0.025   0.263   5.462  0.5633 -0.5449 -0.1757
 1067SOL    HW114837   4.671   0.267   5.463  0.6014 -1.0143  2.7643
 1067SOL    HW214838   0.033   0.246   5.368 -0.2202  0.1030 -0.3692
 1068SOL     OW14839   3.226   2.788   9.115  0.3051  0.1924 -0.2890
 1068SOL    HW114840   3.172   2.710   9.130  0.5335  0.5832  2.6531
 1068SOL    HW214841   3.167   2.852   9.153  0.3014 -0.2391  0.4432
 1069SOL     OW14842   1.854   1.959   4.058  0.0803  0.4788  0.4064
 1069SOL    HW114843   1.800   1.920   4.127 -0.8707 -1.7685 -1.5991
 1069SOL    HW214844   1.816   1.911   3.984  1.5714  0.7302 -0.5131
 1070SOL     OW14845   0.102   1.116  12.093 -0.2239 -0.4926 -0.0127
 1070SOL    HW114846   0.102   1.129  12.188 -0.1332  0.2075 -0.1092
 1070SOL    HW214847   0.186   1.070  12.091  1.0607  1.7222  2.4690
 1071SOL     OW14848   2.564   2.512   0.204 -0.2032  0.3569 -0.0673
 1071SOL    HW114849   2.571   2.455   0.128 -0.7172  2.4612 -1.6723
 1071SOL    HW214850   2.626   2.578   0.172 -0.1081 -0.3894 -1.4207
 1072SOL     OW14851   2.161   3.598   3.636  0.3386  0.0151 -0.5389
 1072SOL    HW114852   2.201   3.565   3.716 -1.7833 -1.7788 -0.2113
 1072SOL    HW214853   2.082   3.544   3.634  0.9404 -0.8309 -1.4828
 1073SOL     OW14854   4.335   4.357   0.210  0.1143 -0.4664 -0.1489
 1073SOL    HW114855   4.332   4.263   0.228 -0.4072  0.0989  2.7038
 1073SOL    HW214856   4.281   4.386   0.284  1.4406  3.0778 -0.5487
 1074SOL     OW14857   3.987   3.685  12.186 -0.0090  0.6238 -0.0652
 1074SOL    HW114858   3.940   3.692  12.269 -1.5327 -0.7472 -0.8149
 1074SOL    HW214859   3.950   3.603  12.152  1.2382 -0.5487  1.4254
 1075SOL     OW14860   2.167   0.471   4.949 -0.3831 -0.5911  0.4662
 1075SOL    HW114861   2.180   0.440   5.039  1.2446  0.2537  0.5309
 1075SOL    HW214862   2.237   0.424   4.903 -1.5281 -3.0912  1.2881
 1076SOL     OW14863   1.567   1.659   6.482 -0.2783 -0.0037  0.1682
 1076SOL    HW114864   1.655   1.673   6.519  0.0025 -1.6309  0.1013
 1076SOL    HW214865   1.551   1.566   6.466  1.4981 -0.3547  0.3851
 1077SOL     OW14866   4.718   0.535   4.730  0.3350  0.3950  0.2550
 1077SOL    HW114867   4.678   0.487   4.657  2.7982  0.3120 -1.0249
 1077SOL    HW214868   4.658   0.610   4.723  1.5107  1.2008 -0.9559
 1078SOL     OW14869   0.018   0.101  17.548 -0.2252  0.3100 -0.4243
 1078SOL    HW114870   0.101   0.053  17.544 -0.5416 -0.2970  0.2002
 1078SOL    HW214871   4.738   0.074  17.638 -0.2498  0.0909 -0.4968
 1079SOL     OW14872   0.905   0.977   5.614 -0.1018  0.1446  0.6597
 1079SOL    HW114873   0.840   0.994   5.682  0.5630  3.7114  0.4189
 1079SOL    HW214874   0.896   0.882   5.608 -2.4723  0.3421  0.8753
 1080SOL     OW14875   3.816   2.599   6.386  0.4219  0.4085 -0.4623
 1080SOL    HW114876   3.811   2.561   6.473 -0.6074  0.2563 -0.5943
 1080SOL    HW214877   3.873   2.536   6.341  1.0054  1.5135 -1.2692
 1081SOL     OW14878   0.716   1.365   9.408 -0.0882  0.5656 -0.4600
 1081SOL    HW114879   0.675   1.283   9.381  1.6435 -0.7481  0.8589
 1081SOL    HW214880   0.657   1.397   9.477 -0.5718 -0.1818 -0.5339
 1082SOL     OW14881   2.021   3.143  16.622  0.4734 -0.1079 -0.0870
 1082SOL    HW114882   2.095   3.108  16.672 -1.1817  0.7879  3.0015
 1082SOL    HW214883   1.976   3.198  16.687  1.9045  0.4991  0.3794
 1083SOL     OW14884   0.987   4.541   8.387 -0.7183  0.0730  0.1372
 1083SOL    HW114885   0.999   4.591   8.306  0.9229 -0.0320  0.3172
 1083SOL    HW214886   1.074   4.529   8.425 -0.5733  0.3396 -0.1148
 1084SOL     OW14887   2.406   0.433   9.079  0.1358  0.0804  0.0100
 1084SOL    HW114888   2.496   0.399   9.082  0.2371  0.3783  0.3403
 1084SOL    HW214889   2.433   0.517   9.042 -2.1948  1.2078  0.8615
 1085SOL     OW14890   0.011   0.603  15.741 -0.5069  0.3984 -0.0214
 1085SOL    HW114891   4.669   0.619  15.697 -0.6484  1.2646  0.5606
 1085SOL    HW214892   0.075   0.625  15.673 -0.5677 -3.0823 -1.2163
 1086SOL     OW14893   4.631   3.093   9.663  0.0334  0.0397 -0.3394
 1086SOL    HW114894   4.691   3.106   9.737 -1.3797  4.2386  0.0571
 1086SOL    HW214895   4.561   3.040   9.701 -0.7644  1.2366 -0.1393
 1087SOL     OW14896   3.116   1.414  14.411 -0.0825 -0.7037  0.2825
 1087SOL    HW114897   3.177   1.453  14.348 -0.3837 -2.3269 -0.9976
 1087SOL    HW214898   3.169   1.381  14.484 -1.2681 -0.4473  1.2473
 1088SOL     OW14899   1.958   1.354  10.487  0.1115 -0.5282 -0.3016
 1088SOL    HW114900   2.038   1.392  10.452 -0.5842  0.7024 -0.5618
 1088SOL    HW214901   1.982   1.335  10.578  1.9949 -1.2472 -0.9505
 1089SOL     OW14902   3.929   0.645  17.342 -0.2217 -0.3530  0.5311
 1089SOL    HW114903   3.963   0.733  17.355 -0.2832 -0.3629  0.7519
 1089SOL    HW214904   3.845   0.663  17.298  0.1817  0.1285 -0.0505
 1090SOL     OW14905   2.916   4.061   5.698 -0.0874 -0.3024  0.0454
 1090SOL    HW114906   2.824   4.083   5.682  1.0276  3.2724 -1.5081
 1090SOL    HW214907   2.931   3.997   5.628 -1.9528 -1.5052  0.7255
 1091SOL     OW14908   3.280   2.415   2.189 -0.3571 -0.1696  0.1670
 1091SOL    HW114909   3.286   2.457   2.103  0.9159 -1.0033 -0.1602
 1091SOL    HW214910   3.370   2.431   2.219 -1.0501 -2.5907  3.5210
 1092SOL     OW14911   4.284   3.504   1.323 -0.1766  0.0747  0.1106
 1092SOL    HW114912   4.217   3.530   1.386 -0.0502 -1.6516  0.9463
 1092SOL    HW214913   4.315   3.433   1.379 -0.7458 -0.4073 -0.1929
 1093SOL     OW14914   0.692   0.793  14.324 -0.0453  0.0779 -0.7123
 1093SOL    HW114915   0.721   0.704  14.303  1.7131  0.8137 -1.4029
 1093SOL    HW214916   0.771   0.820  14.371 -0.6717 -0.4256  0.6318
 1094SOL     OW14917   4.707   4.389  13.402  0.3146  0.1543 -0.7078
 1094SOL    HW114918   4.734   4.325  13.336  1.2613 -0.8677  0.6675
 1094SOL    HW214919   4.613   4.373  13.401  0.4641 -0.7860  0.0691
 1095SOL     OW14920   4.688   3.403   3.391 -0.3019  0.1201 -0.3371
 1095SOL    HW114921   0.009   3.464   3.428 -0.3460 -0.1523  0.1980
 1095SOL    HW214922   0.003   3.333   3.360  0.0561 -0.3893  1.4509
 1096SOL     OW14923   0.691   3.354   2.311  0.5682  0.2147  0.4045
 1096SOL    HW114924   0.674   3.267   2.346  0.8471 -0.1050 -0.2545
 1096SOL    HW214925   0.604   3.388   2.334  1.2568  2.1656  0.0965
 1097SOL     OW14926   0.755   4.065  12.822  0.0923 -0.3797  0.2994
 1097SOL    HW114927   0.799   4.015  12.753  3.0044  1.1116  1.0544
 1097SOL    HW214928   0.665   4.054  12.791 -0.0574  0.2974  0.5080
 1098SOL     OW14929   1.402   2.070   3.456  0.9639  0.1695 -0.1608
 1098SOL    HW114930   1.398   2.108   3.368 -0.5320  1.0368  0.2867
 1098SOL    HW214931   1.346   2.135   3.499 -1.4053 -2.0211  0.0380
 1099SOL     OW14932   4.309   3.885   9.576 -0.1409  0.4819 -0.3057
 1099SOL    HW114933   4.344   3.911   9.661  0.6778  0.0476 -0.5050
 1099SOL    HW214934   4.380   3.829   9.544 -0.3046 -0.2759  0.6578
 1100SOL     OW14935   1.753   3.465   7.083 -0.2549 -0.0397  0.2773
 1100SOL    HW114936   1.704   3.526   7.028  2.1096  0.3758 -1.3845
 1100SOL    HW214937   1.760   3.388   7.026  3.2674 -0.7317  1.6382
 1101SOL     OW14938   3.282   4.216   2.039  0.2682  0.0265 -0.3182
 1101SOL    HW114939   3.353   4.154   2.053  0.1466  0.3467  1.7893
 1101SOL    HW214940   3.310   4.285   2.100 -0.5605 -0.5366  0.6895
 1102SOL     OW14941   2.773   3.775   5.355  0.0520  0.1075 -0.1579
 1102SOL    HW114942   2.786   3.727   5.273  0.2035 -1.5937  0.8554
 1102SOL    HW214943   2.679   3.760   5.364  0.9063 -4.5851  0.7131
 1103SOL     OW14944   3.174   2.709   4.535 -0.0089 -0.3298 -0.2245
 1103SOL    HW114945   3.139   2.798   4.534 -1.4023 -0.8925 -1.7684
 1103SOL    HW214946   3.107   2.665   4.587  1.2081 -1.4829  0.3448
 1104SOL     OW14947   4.323   0.005  11.522  0.3253 -0.0778  0.1877
 1104SOL    HW114948   4.407   4.705  11.506  0.1114 -0.6466  0.5679
 1104SOL    HW214949   4.327   0.079  11.461 -0.6807  1.2829  1.7939
 1105SOL     OW14950   0.398   0.881   9.733  0.0603  0.1997 -0.5632
 1105SOL    HW114951   0.398   0.820   9.806 -1.3499 -0.7454 -1.3506
 1105SOL    HW214952   0.484   0.920   9.748 -0.5465  2.5593 -3.0910
 1106SOL     OW14953   2.657   2.234   5.824  0.2975 -0.5041  0.4872
 1106SOL    HW114954   2.651   2.308   5.885  1.3437  0.1693 -0.2120
 1106SOL    HW214955   2.656   2.164   5.889  0.0758 -1.0154 -0.0720
 1107SOL     OW14956   0.213   4.277   2.756  0.1963  0.1438  0.0005
 1107SOL    HW114957   0.206   4.249   2.664  1.0535  0.1553 -0.0653
 1107SOL    HW214958   0.121   4.291   2.777  1.1253  0.5058  3.7325
 1108SOL     OW14959   1.943   1.054   7.337 -0.7805  0.0384  0.0454
 1108SOL    HW114960   1.930   1.005   7.419  0.0618  0.3232  0.3569
 1108SOL    HW214961   1.852   1.073   7.317 -1.3485 -1.6463  0.9965
 1109SOL     OW14962   1.907   3.290   8.224  0.2728 -0.4130 -0.2323
 1109SOL    HW114963   1.844   3.259   8.159 -1.1051 -0.9576  1.3613
 1109SOL    HW214964   1.942   3.204   8.244 -0.9392 -0.6405  0.9573
 1110SOL     OW14965   1.384   1.762   6.667  0.4386 -0.1448 -0.1312
 1110SOL    HW114966   1.296   1.739   6.639 -0.1755  0.6494  1.1154
 1110SOL    HW214967   1.439   1.731   6.596 -2.2362 -0.6406 -1.9887
 1111SOL     OW14968   3.650   3.162   1.927 -0.6587 -0.0762  0.4683
 1111SOL    HW114969   3.731   3.114   1.906 -1.6574 -1.5489 -0.0540
 1111SOL    HW214970   3.676   3.235   1.982 -0.8423 -0.6906  1.3660
 1112SOL     OW14971   3.859   3.701   3.865 -0.3869  0.1218 -0.4544
 1112SOL    HW114972   3.895   3.671   3.782 -1.0252  0.6683 -0.9342
 1112SOL    HW214973   3.784   3.643   3.870  0.9889 -1.4396  2.3057
 1113SOL     OW14974   0.465   1.397  15.858  0.2377 -0.3261  0.2662
 1113SOL    HW114975   0.479   1.358  15.771  0.5640  1.2041 -0.3825
 1113SOL    HW214976   0.475   1.489  15.833  0.0064 -0.6567 -1.0696
 1114SOL     OW14977   4.109   4.638   1.271  0.5081  0.3520 -0.3440
 1114SOL    HW114978   4.164   4.712   1.298 -1.5557  0.8769  2.5239
 1114SOL    HW214979   4.177   4.590   1.224 -0.5900 -2.1349  0.6107
 1115SOL     OW14980   2.455   0.741  16.674  0.1349  0.4998 -0.0229
 1115SOL    HW114981   2.520   0.808  16.651 -0.0970 -0.0830 -2.3953
 1115SOL    HW214982   2.381   0.799  16.695 -1.0248 -1.4781  1.3318
 1116SOL     OW14983   3.962   1.489  14.212  0.0383 -0.3809 -0.0201
 1116SOL    HW114984   3.986   1.549  14.142 -0.1493  1.3372  1.3762
 1116SOL    HW214985   3.948   1.410  14.159 -1.1969  0.6115 -1.1513
 1117SOL     OW14986   4.266   3.656   9.412  0.1999 -0.1429  0.5554
 1117SOL    HW114987   4.342   3.647   9.469  0.7553  1.9873  0.1445
 1117SOL    HW214988   4.302   3.679   9.326 -0.1310  2.8104  1.2086
 1118SOL     OW14989   3.269   3.794   1.869  0.3440  0.7230  0.1890
 1118SOL    HW114990   3.271   3.802   1.964  0.6120 -2.0714  0.4115
 1118SOL    HW214991   3.251   3.700   1.873  2.4307  0.4456  2.5602
 1119SOL     OW14992   1.189   4.268   2.204  0.3151  0.6126 -0.3087
 1119SOL    HW114993   1.267   4.287   2.153  0.0669 -2.2606 -1.7064
 1119SOL    HW214994   1.185   4.175   2.182 -0.1450  0.6645 -0.4444
 1120SOL     OW14995   1.018   4.111   1.598 -0.1579 -0.1405  0.3931
 1120SOL    HW114996   1.072   4.131   1.522 -0.5349 -1.8185 -0.3107
 1120SOL    HW214997   1.064   4.042   1.646 -0.3932 -0.6893 -0.1751
 1121SOL     OW14998   0.790   4.089   6.838  0.0039 -0.0830  0.4610
 1121SOL    HW114999   0.810   4.045   6.755 -2.4000  0.1947 -0.2772
 1121SOL    HW215000   0.861   4.069   6.898 -0.1520 -1.2789  0.2354
 1122SOL     OW15001   1.381   0.476  13.265 -0.3428  0.1362 -0.6413
 1122SOL    HW115002   1.471   0.507  13.272 -0.4402 -0.0102  1.5122
 1122SOL    HW215003   1.354   0.464  13.356  0.6556 -0.2842 -0.4117
 1123SOL     OW15004   1.126   1.769  11.099 -0.0327 -0.7337 -0.0966
 1123SOL    HW115005   1.167   1.690  11.134 -0.4398 -0.9768 -0.1764
 1123SOL    HW215006   1.142   1.834  11.168  3.5025 -0.4975 -1.1454
 1124SOL     OW15007   3.709   1.482   1.953 -0.5254 -0.3377 -0.0813
 1124SOL    HW115008   3.705   1.402   1.900 -1.2750 -0.4803  0.1902
 1124SOL    HW215009   3.733   1.555   1.896  2.1230 -1.8976 -0.9388
 1125SOL     OW15010   3.585   2.282   4.341  0.2766 -0.1561 -0.1164
 1125SOL    HW115011   3.641   2.214   4.379 -1.1738 -1.3947 -0.2221
 1125SOL    HW215012   3.607   2.292   4.249 -0.8302 -0.4720 -0.4103
 1126SOL     OW15013   2.872   0.958   2.809  0.8909 -0.1796 -0.4746
 1126SOL    HW115014   2.887   0.946   2.715  1.6976 -0.9080 -0.2565
 1126SOL    HW215015   2.825   0.881   2.840 -0.3897  2.1325  3.2255
 1127SOL     OW15016   2.867   2.899   3.205 -0.0197  0.7993 -0.1971
 1127SOL    HW115017   2.890   2.815   3.167  0.2000  0.6567  0.2597
 1127SOL    HW215018   2.774   2.904   3.181 -0.2869 -1.0134  0.4748
 1128SOL     OW15019   2.085   2.894   7.253 -0.2013  0.1066 -0.3254
 1128SOL    HW115020   2.058   2.979   7.219  2.8427  1.3146  0.2519
 1128SOL    HW215021   2.181   2.896   7.248 -0.1396  1.3130  1.0783
 1129SOL     OW15022   4.155   0.034   9.961 -0.0098  0.1524 -0.1091
 1129SOL    HW115023   4.083   0.086   9.925 -0.9977 -0.8948  0.3565
 1129SOL    HW215024   4.188   0.086  10.034  1.7385 -2.8341  1.1934
 1130SOL     OW15025   2.101   3.434   1.141 -0.1752 -0.2634  0.7200
 1130SOL    HW115026   2.036   3.386   1.193 -0.8835 -0.1560 -0.0582
 1130SOL    HW215027   2.177   3.447   1.197 -0.6999  0.7690  1.1946
 1131SOL     OW15028   3.654   4.698   9.238 -0.3334 -0.8459 -0.7003
 1131SOL    HW115029   3.626   4.678   9.327  0.6906 -3.5891 -1.0018
 1131SOL    HW215030   3.576   4.686   9.184 -0.6031 -0.6408 -0.3618
 1132SOL     OW15031   4.088   0.608  13.635 -0.0226  0.1482 -0.7856
 1132SOL    HW115032   3.994   0.624  13.644 -0.5250 -1.7369 -2.6926
 1132SOL    HW215033   4.122   0.696  13.620 -0.0448  0.1584 -0.7753
 1133SOL     OW15034   3.303   1.954  10.671 -0.0786 -0.2068 -0.2574
 1133SOL    HW115035   3.340   1.868  10.689 -0.8316  0.1829  3.2695
 1133SOL    HW215036   3.337   2.004  10.745  0.0851 -1.3916  0.4654
 1134SOL     OW15037   0.321   2.662   9.111 -0.1188  0.1014 -0.6532
 1134SOL    HW115038   0.239   2.684   9.066 -0.9723  0.0771  0.9027
 1134SOL    HW215039   0.379   2.691   9.041 -0.8103 -0.9270 -1.6489
 1135SOL     OW15040   4.030   1.805   8.904  0.6103 -0.0904 -0.2563
 1135SOL    HW115041   4.097   1.837   8.844  2.3127  0.6289  2.0205
 1135SOL    HW215042   3.949   1.808   8.854  0.4896  0.6600 -0.0193
 1136SOL     OW15043   3.530   4.432   1.690  0.6665  0.8076 -0.0778
 1136SOL    HW115044   3.566   4.521   1.690  1.0249  0.6611  0.1466
 1136SOL    HW215045   3.520   4.425   1.785  1.4825  1.7019  0.0681
 1137SOL     OW15046   3.917   3.599   3.634  0.1544 -1.3720 -0.2892
 1137SOL    HW115047   3.965   3.594   3.551  1.4915 -1.3085  0.4845
 1137SOL    HW215048   3.857   3.530   3.605  1.0447 -2.7145  1.0976
 1138SOL     OW15049   2.109   3.956   4.528  0.7720  0.5018 -0.1655
 1138SOL    HW115050   2.045   3.972   4.458  0.4945  1.2259  0.2598
 1138SOL    HW215051   2.068   4.018   4.588  1.1083  1.0667 -0.5152
 1139SOL     OW15052   1.063   0.673   9.621  0.1107 -0.3009  0.5262
 1139SOL    HW115053   1.030   0.739   9.682  1.2251 -0.6686  1.5076
 1139SOL    HW215054   1.078   0.721   9.539 -0.2740 -0.4248  0.3784
 1140SOL     OW15055   0.103   4.315   5.757 -0.2177  0.1293  0.1182
 1140SOL    HW115056   0.087   4.374   5.683  0.6805  0.3378  0.0965
 1140SOL    HW215057   0.024   4.262   5.747 -0.6307  0.9631 -1.1152
 1141SOL     OW15058   1.033   1.744   8.932  0.4123  0.2529  0.0303
 1141SOL    HW115059   1.085   1.683   8.879  0.3034 -0.1847  0.4197
 1141SOL    HW215060   1.084   1.751   9.013  0.5738 -0.5441 -0.0023
 1142SOL     OW15061   2.878   2.191   8.818  0.5461 -0.2112  0.2666
 1142SOL    HW115062   2.809   2.191   8.884 -1.0862 -1.2013 -1.4378
 1142SOL    HW215063   2.859   2.108   8.773  0.8712 -0.6333  0.8985
 1143SOL     OW15064   2.346   3.682   8.098 -0.3997  0.4946  0.6974
 1143SOL    HW115065   2.391   3.607   8.059 -0.8680 -0.5280  2.0940
 1143SOL    HW215066   2.370   3.753   8.039  0.3456 -1.4971 -1.3684
 1144SOL     OW15067   0.832   1.280   8.123  0.0334 -0.6526 -0.1741
 1144SOL    HW115068   0.838   1.353   8.184  1.2108 -0.1617 -0.8877
 1144SOL    HW215069   0.922   1.246   8.122 -0.1271 -1.1161  1.2165
 1145SOL     OW15070   2.948   0.814   5.192  0.0390  0.5227 -0.2122
 1145SOL    HW115071   2.920   0.845   5.106  0.7185  2.0626  0.1231
 1145SOL    HW215072   3.007   0.886   5.215  2.3909 -0.8356 -1.9929
 1146SOL     OW15073   3.180   2.017   5.491  0.3119  0.3514 -0.1838
 1146SOL    HW115074   3.130   2.020   5.573 -1.4339 -4.2907 -1.1077
 1146SOL    HW215075   3.126   1.961   5.436  3.1042 -0.1661 -2.3795
 1147SOL     OW15076   1.594   3.586   7.493  0.4780 -0.6396  0.0637
 1147SOL    HW115077   1.688   3.602   7.488  0.4911 -0.8711 -0.5169
 1147SOL    HW215078   1.574   3.562   7.402 -1.3875 -2.7486  1.0371
 1148SOL     OW15079   0.160   2.187   3.191 -0.4529 -0.4279 -0.3033
 1148SOL    HW115080   0.168   2.274   3.230 -1.2755 -0.1241 -0.8080
 1148SOL    HW215081   0.095   2.143   3.245 -0.2410 -0.2291  0.1140
 1149SOL     OW15082   1.485   4.371  11.960 -0.3853  0.1714 -0.5123
 1149SOL    HW115083   1.507   4.364  12.053 -1.8953 -1.0169 -0.2530
 1149SOL    HW215084   1.441   4.286  11.955 -0.1897  0.0137  0.3968
 1150SOL     OW15085   2.667   0.696   7.557  0.0824 -0.1040 -0.0204
 1150SOL    HW115086   2.638   0.784   7.531  0.2302 -0.5859 -1.7796
 1150SOL    HW215087   2.762   0.703   7.547  0.2006 -0.9212  0.5314
 1151SOL     OW15088   4.090   3.621   5.752 -0.1562 -0.7088 -0.6516
 1151SOL    HW115089   4.122   3.559   5.687  2.1125 -1.9538  1.6658
 1151SOL    HW215090   4.174   3.646   5.790 -1.7340  0.1580  2.3280
 1152SOL     OW15091   2.684   3.480   5.145 -0.0462  0.0981 -0.0503
 1152SOL    HW115092   2.773   3.468   5.180 -0.5503 -1.8872  0.5426
 1152SOL    HW215093   2.693   3.561   5.094 -0.3805  0.5818  0.6556
 1153SOL     OW15094   1.979   2.928   1.399  0.0691  0.2607  0.8480
 1153SOL    HW115095   1.965   2.896   1.310  2.0213 -2.6413  1.6116
 1153SOL    HW215096   1.897   2.889   1.431 -0.3836  1.2779  0.9421
 1154SOL     OW15097   2.191   4.070   6.362 -0.2571  0.0124  0.1818
 1154SOL    HW115098   2.143   4.153   6.368 -0.7691 -0.0044 -3.5769
 1154SOL    HW215099   2.266   4.082   6.420 -0.7790 -0.3039  0.9299
 1155SOL     OW15100   3.669   0.706   2.294  0.3575 -0.6252  0.3405
 1155SOL    HW115101   3.682   0.685   2.201  2.8352 -1.9029  0.9674
 1155SOL    HW215102   3.599   0.646   2.318 -2.2997  2.0321 -0.9035
 1156SOL     OW15103   4.159   2.497   9.192  0.1957  0.2360 -0.6570
 1156SOL    HW115104   4.086   2.541   9.236  0.0743  0.3273 -0.9507
 1156SOL    HW215105   4.206   2.578   9.174 -0.0144  0.2670 -1.0749
 1157SOL     OW15106   3.495   4.134  11.498 -0.3048 -0.4128 -0.2163
 1157SOL    HW115107   3.432   4.072  11.461 -1.5787  1.7042 -1.5562
 1157SOL    HW215108   3.574   4.094  11.462 -0.7610 -0.2631 -1.3890
 1158SOL     OW15109   1.011   3.769   3.507  0.1561  0.2067  0.7452
 1158SOL    HW115110   1.048   3.697   3.455 -0.3586  2.2223 -2.4469
 1158SOL    HW215111   1.071   3.842   3.493 -0.5951  0.6827 -0.0208
 1159SOL     OW15112   0.116   1.268   5.084 -0.3111  0.6956  0.2503
 1159SOL    HW115113   0.123   1.211   5.161 -0.1946  0.8346  0.3430
 1159SOL    HW215114   0.204   1.306   5.091  0.2362 -0.7627  1.4855
 1160SOL     OW15115   3.255   0.246  10.333  0.4335  0.2505 -0.3311
 1160SOL    HW115116   3.227   0.187  10.404  2.1376 -0.7608 -0.5045
 1160SOL    HW215117   3.351   0.246  10.333  0.4216  2.4307 -2.6349
 1161SOL     OW15118   3.725   3.504   9.653 -0.5201 -0.1951 -0.0076
 1161SOL    HW115119   3.761   3.584   9.615 -1.0195 -0.9937 -2.1306
 1161SOL    HW215120   3.744   3.531   9.743  2.3993 -2.3563  0.0304
 1162SOL     OW15121   4.173   4.055   7.828  0.0018  0.0814 -0.0184
 1162SOL    HW115122   4.264   4.069   7.853 -0.5781 -0.0599  2.2088
 1162SOL    HW215123   4.147   4.144   7.807  0.2614  0.1584 -0.0065
 1163SOL     OW15124   4.517   1.725   4.212  0.5495 -0.2726  0.3404
 1163SOL    HW115125   4.423   1.733   4.225  0.4376  0.4405 -0.9262
 1163SOL    HW215126   4.527   1.632   4.228 -1.1404 -0.4264  0.4941
 1164SOL     OW15127   0.578   1.727   1.767  0.0403  0.3535  0.3344
 1164SOL    HW115128   0.535   1.794   1.820 -0.2199  0.9728 -0.6358
 1164SOL    HW215129   0.615   1.673   1.836 -0.1700 -2.7312 -1.9722
 1165SOL     OW15130   2.596   4.413   8.952 -0.4633  0.3451  0.2047
 1165SOL    HW115131   2.569   4.353   9.022  3.2661  0.2852  1.6273
 1165SOL    HW215132   2.672   4.448   9.000  0.3438 -3.5051  1.7721
 1166SOL     OW15133   0.618   2.593  15.404  0.8032 -0.1315  0.1835
 1166SOL    HW115134   0.658   2.659  15.460 -0.7050  0.4486  0.5777
 1166SOL    HW215135   0.615   2.626  15.315 -1.8070  1.5055  0.8648
 1167SOL     OW15136   2.686   4.267   2.970 -0.1715  0.0494 -0.4891
 1167SOL    HW115137   2.651   4.180   2.987  3.1978 -1.2288 -0.0236
 1167SOL    HW215138   2.633   4.281   2.892  1.3677 -0.8758 -1.6924
 1168SOL     OW15139   3.667   2.352   9.897  0.2755 -0.0411  0.2943
 1168SOL    HW115140   3.749   2.383   9.935  0.4101 -1.0947  0.8633
 1168SOL    HW215141   3.655   2.416   9.827 -0.8345 -0.5353  0.0285
 1169SOL     OW15142   0.413   0.225  11.290 -0.1137  0.0886 -0.3716
 1169SOL    HW115143   0.501   0.216  11.327  0.5533 -0.9268 -2.2403
 1169SOL    HW215144   0.386   0.133  11.294 -2.1401  0.7409  1.2260
 1170SOL     OW15145   3.870   0.248   4.275 -0.2462 -0.4049 -0.0701
 1170SOL    HW115146   3.943   0.310   4.276  0.3032 -1.0387 -1.2486
 1170SOL    HW215147   3.806   0.306   4.317  1.1794  0.8490  0.3547
 1171SOL     OW15148   1.889   4.616   3.820 -0.2121 -0.2437 -0.3045
 1171SOL    HW115149   1.825   4.618   3.749  3.2155 -4.1396 -3.5465
 1171SOL    HW215150   1.941   4.691   3.791  0.1293  0.1158  1.2749
 1172SOL     OW15151   2.745   1.805   6.009 -0.5720 -0.0995  0.2713
 1172SOL    HW115152   2.769   1.882   6.061 -3.1418  0.8232  0.0817
 1172SOL    HW215153   2.748   1.842   5.921  0.2273  1.0135  0.7534
 1173SOL     OW15154   3.496   3.051   3.288 -0.4859 -0.2784  0.0120
 1173SOL    HW115155   3.451   2.968   3.298 -0.4802 -0.3590 -0.6020
 1173SOL    HW215156   3.429   3.104   3.244 -1.3002 -1.3639 -0.0358
 1174SOL     OW15157   2.995   3.613   6.380 -0.4060  0.3154 -0.4483
 1174SOL    HW115158   2.938   3.687   6.361  0.6358  1.4426  0.8063
 1174SOL    HW215159   3.050   3.634   6.455 -0.5301 -0.4157 -0.1488
 1175SOL     OW15160   0.197   3.087  11.322 -0.4785 -0.9460  0.1070
 1175SOL    HW115161   0.283   3.113  11.354 -0.3849 -1.2119  0.0644
 1175SOL    HW215162   0.168   3.039  11.400  1.2370 -0.5283  0.9903
 1176SOL     OW15163   1.541   0.202   8.036 -0.2772 -0.3149  0.1758
 1176SOL    HW115164   1.503   0.164   8.115 -0.5862  0.9188  0.6324
 1176SOL    HW215165   1.528   0.139   7.966 -1.3096  2.1206 -1.8367
 1177SOL     OW15166   2.566   0.293   3.895  0.1114 -0.7426 -0.1049
 1177SOL    HW115167   2.538   0.229   3.829 -0.7768 -1.5034  0.9913
 1177SOL    HW215168   2.577   0.234   3.970 -0.1143  1.4244  1.6102
 1178SOL     OW15169   0.010   2.650  12.937  0.4587  0.2403 -0.2284
 1178SOL    HW115170   0.052   2.726  12.979  0.6559 -0.5448  0.9959
 1178SOL    HW215171   0.088   2.602  12.912  0.8159  0.6201  0.1540
 1179SOL     OW15172   0.611   2.412  11.855 -0.5478  0.1871  0.4321
 1179SOL    HW115173   0.597   2.328  11.897  3.1101 -1.7182 -2.1978
 1179SOL    HW215174   0.695   2.399  11.812 -0.8175 -0.2573  0.0434
 1180SOL     OW15175   0.144   4.673   5.650 -0.2817 -0.2781 -0.3287
 1180SOL    HW115176   0.223   4.653   5.701 -0.9128 -4.0819 -0.8226
 1180SOL    HW215177   0.154   4.604   5.584  0.2828 -0.8621  0.3649
 1181SOL     OW15178   1.899   2.722   7.255  0.0129  0.0718  0.4072
 1181SOL    HW115179   1.929   2.643   7.300  0.6953  0.5597  0.8170
 1181SOL    HW215180   1.979   2.775   7.257 -0.2600  0.4337  1.5633
 1182SOL     OW15181   0.955   1.250  16.190 -0.4177 -0.2200 -0.0304
 1182SOL    HW115182   0.992   1.249  16.102  0.8717  2.0998  0.4763
 1182SOL    HW215183   1.035   1.263  16.241 -0.0510 -1.2072 -0.3647
 1183SOL     OW15184   2.158   1.196   1.823 -0.0293  0.2745  0.3147
 1183SOL    HW115185   2.186   1.158   1.741 -1.6690  2.4109 -1.2397
 1183SOL    HW215186   2.158   1.291   1.806 -2.5620  0.5571  1.8124
 1184SOL     OW15187   2.994   0.114  11.613  0.2568 -0.2685  0.0828
 1184SOL    HW115188   2.930   0.150  11.552  0.6531 -1.2645 -0.9266
 1184SOL    HW215189   3.069   0.119  11.553 -0.7245  1.0981 -1.0196
 1185SOL     OW15190   1.877   0.671  13.453 -0.2253  0.0254  0.0029
 1185SOL    HW115191   1.830   0.648  13.533  0.7709 -5.0275 -0.9123
 1185SOL    HW215192   1.948   0.607  13.454 -0.9910 -0.7984  1.8438
 1186SOL     OW15193   0.580   2.222   7.751 -0.2817  0.5243 -0.6782
 1186SOL    HW115194   0.665   2.189   7.778 -1.8095 -1.6704  1.4175
 1186SOL    HW215195   0.603   2.313   7.730  1.7629  0.5018  1.4951
 1187SOL     OW15196   0.885   1.682   1.610  0.2031  0.7622  0.0598
 1187SOL    HW115197   0.925   1.743   1.548  2.2329  0.3645  0.9889
 1187SOL    HW215198   0.948   1.694   1.682  0.8967  1.3498 -0.6453
 1188SOL     OW15199   3.068   2.395   8.446 -0.6303  0.3873  0.6566
 1188SOL    HW115200   2.989   2.439   8.475 -1.6976 -0.0427 -1.6133
 1188SOL    HW215201   3.068   2.315   8.499  0.3078 -0.3664 -0.4521
 1189SOL     OW15202   2.295   3.702  15.274  0.1026  0.4947 -0.4831
 1189SOL    HW115203   2.380   3.698  15.318  0.2596 -0.0423 -0.8405
 1189SOL    HW215204   2.236   3.725  15.346  1.7943 -1.4921  1.5092
 1190SOL     OW15205   2.212   0.934   8.643  0.1711  0.5207  0.1038
 1190SOL    HW115206   2.270   0.880   8.589  0.2993  0.4760  0.2874
 1190SOL    HW215207   2.201   0.879   8.721 -0.1174 -0.7383 -0.8233
 1191SOL     OW15208   2.838   2.855   2.927  0.4275 -0.5540 -0.0146
 1191SOL    HW115209   2.911   2.799   2.955  2.1621  1.1866 -1.0649
 1191SOL    HW215210   2.882   2.900   2.856 -1.4145  1.9734  0.4601
 1192SOL     OW15211   1.382   2.681   6.558 -0.3127  0.0851 -0.4709
 1192SOL    HW115212   1.462   2.683   6.610  1.5153  0.1940 -3.3172
 1192SOL    HW215213   1.317   2.689   6.629 -0.6298 -1.1086 -0.6235
 1193SOL     OW15214   2.408   2.638  15.769 -0.0429 -0.1797 -0.7155
 1193SOL    HW115215   2.443   2.580  15.701 -0.3621 -1.4231  0.1838
 1193SOL    HW215216   2.346   2.573  15.802 -0.4152 -1.2888 -3.5684
 1194SOL     OW15217   0.601   1.548  15.482  0.7584  0.3123  0.0360
 1194SOL    HW115218   0.571   1.630  15.442 -0.4876  0.2136  0.7706
 1194SOL    HW215219   0.679   1.580  15.528  0.8599 -0.3426  0.3177
 1195SOL     OW15220   0.345   1.607  14.617  0.1932  0.2784 -0.0265
 1195SOL    HW115221   0.307   1.694  14.611  1.2458  0.8077  0.8335
 1195SOL    HW215222   0.345   1.585  14.710  1.2082  0.4666  0.0223
 1196SOL     OW15223   3.647   3.676   2.381  0.4172  0.1627  0.5804
 1196SOL    HW115224   3.695   3.759   2.382 -0.0280  0.4021  1.7347
 1196SOL    HW215225   3.560   3.710   2.403  0.5126  0.2489  0.8267
 1197SOL     OW15226   1.978   0.233   6.230  0.3423  0.3150 -0.1523
 1197SOL    HW115227   1.904   0.176   6.207 -0.8525  1.1247  1.6971
 1197SOL    HW215228   2.042   0.167   6.259  1.1944 -0.3497 -3.5323
 1198SOL     OW15229   2.386   2.493  14.644  0.0281  0.0514  0.4636
 1198SOL    HW115230   2.399   2.522  14.734 -0.8520 -1.9520  1.2265
 1198SOL    HW215231   2.406   2.402  14.668  0.7438  0.3990  1.1814
 1199SOL     OW15232   2.874   1.313  14.801 -0.0770 -0.3906  0.4887
 1199SOL    HW115233   2.958   1.273  14.780  0.1036  0.8844 -1.1304
 1199SOL    HW215234   2.835   1.291  14.717 -1.9217 -2.0273  1.7494
 1200SOL     OW15235   2.146   3.337  17.753 -0.1225  0.1864 -0.4571
 1200SOL    HW115236   2.208   3.393   0.034 -0.3626 -0.9224  1.2222
 1200SOL    HW215237   2.164   3.248   0.020  3.1897  0.7098 -0.8756
 1201SOL     OW15238   0.167   4.633  17.618 -0.3316 -0.3678  0.4478
 1201SOL    HW115239   0.078   4.604  17.601 -0.5902  0.4301  0.4667
 1201SOL    HW215240   0.204   4.583  17.545 -0.7514  1.8391 -1.2625
 1202SOL     OW15241   3.388   4.008   0.505  0.2762 -0.6313  0.4177
 1202SOL    HW115242   3.327   3.972   0.441  0.5093 -1.5747  0.7357
 1202SOL    HW215243   3.331   4.005   0.581 -0.7649 -0.5499 -0.3721
 1203SOL     OW15244   4.710   4.016   6.075  0.2028 -0.2258  0.4128
 1203SOL    HW115245   4.686   3.967   6.153  1.0208 -0.9573  0.2046
 1203SOL    HW215246   0.027   3.957   6.027  1.3514  1.6309 -0.4825
 1204SOL     OW15247   3.554   1.514   9.345  0.3594  0.0631  0.1164
 1204SOL    HW115248   3.529   1.453   9.414  1.8425 -0.8694 -0.1848
 1204SOL    HW215249   3.580   1.588   9.400  0.8612 -0.7795  1.0161
 1205SOL     OW15250   4.552   2.015  11.993  0.5067 -0.2396  0.0338
 1205SOL    HW115251   4.579   1.925  12.012  1.9256  0.0844 -0.4507
 1205SOL    HW215252   4.487   2.032  12.062  0.5012 -0.5302  0.1023
 1206SOL     OW15253   2.561   1.397  13.933  0.2741  0.0276  0.6943
 1206SOL    HW115254   2.490   1.419  13.994 -2.1649 -1.7526 -1.5443
 1206SOL    HW215255   2.525   1.393  13.845 -1.0280 -1.9468  1.3257
 1207SOL     OW15256   3.491   1.584   2.069  0.3915 -0.1094  0.0713
 1207SOL    HW115257   3.470   1.509   2.124  0.9897 -0.1087  0.2978
 1207SOL    HW215258   3.569   1.548   2.027  0.8343  0.2391  0.5914
 1208SOL     OW15259   3.648   3.364   4.741 -0.3238 -0.0181 -0.2446
 1208SOL    HW115260   3.633   3.435   4.680 -0.8486  0.4267  0.4027
 1208SOL    HW215261   3.567   3.315   4.726 -0.8293  0.1842  1.8552
 1209SOL     OW15262   1.477   3.843   8.793 -0.0751 -0.1156  0.3664
 1209SOL    HW115263   1.543   3.859   8.860  1.9366 -0.0267 -1.6597
 1209SOL    HW215264   1.524   3.795   8.725  0.4404  0.4429  0.3324
 1210SOL     OW15265   3.137   2.170   2.258 -1.0045  0.8652  0.1276
 1210SOL    HW115266   3.202   2.239   2.244 -0.8608  0.1587 -2.7081
 1210SOL    HW215267   3.167   2.107   2.192  1.2848  0.0372  1.9483
 1211SOL     OW15268   1.496   1.582   4.432 -0.7174  0.3937  0.5629
 1211SOL    HW115269   1.554   1.506   4.434 -0.2945  0.6992 -0.1440
 1211SOL    HW215270   1.466   1.576   4.341  1.5086  0.1974 -0.1777
 1212SOL     OW15271   0.601   1.439   8.001  0.6056  0.2235 -0.3488
 1212SOL    HW115272   0.689   1.439   8.039 -0.1338  1.0072  1.3718
 1212SOL    HW215273   0.615   1.394   7.918  3.8873  2.8873 -1.2521
 1213SOL     OW15274   4.389   3.172   2.993  0.2113 -0.2880  0.3734
 1213SOL    HW115275   4.365   3.092   2.947  1.7553  0.6794 -2.1378
 1213SOL    HW215276   4.310   3.195   3.040  0.5459  1.9980 -0.1739
 1214SOL     OW15277   0.320   3.957   4.722  1.0267 -0.5563 -0.0684
 1214SOL    HW115278   0.385   3.992   4.782 -2.3974  2.3537  1.9526
 1214SOL    HW215279   0.282   3.883   4.771 -0.9210  1.3670  1.3617
 1215SOL     OW15280   1.479   3.029   8.160 -0.2584 -0.1474  0.3453
 1215SOL    HW115281   1.470   3.069   8.074  0.8116  2.1405  1.3100
 1215SOL    HW215282   1.561   2.981   8.150 -0.4555 -0.3291 -0.3923
 1216SOL     OW15283   4.082   4.541   4.944  0.2714 -0.0294 -0.4220
 1216SOL    HW115284   4.114   4.532   5.034 -2.3110 -0.2975  0.4874
 1216SOL    HW215285   4.144   4.604   4.908  2.0729 -2.4190 -1.4335
 1217SOL     OW15286   3.098   3.073   7.728  0.6645 -0.2667  0.0842
 1217SOL    HW115287   3.063   3.157   7.758 -0.0962 -0.0251 -1.4770
 1217SOL    HW215288   3.189   3.095   7.709  0.2436  1.8384  0.4200
 1218SOL     OW15289   1.564   0.050  10.600  0.2519 -0.1729  0.1700
 1218SOL    HW115290   1.594   0.138  10.624  1.0697 -1.7094  4.6787
 1218SOL    HW215291   1.642   0.002  10.572  0.2223  1.8301 -3.3164
 1219SOL     OW15292   0.452   3.349   3.912  0.4574 -0.2810  0.2483
 1219SOL    HW115293   0.450   3.253   3.916 -2.8305 -0.1273  2.8160
 1219SOL    HW215294   0.528   3.365   3.857 -0.0628  0.7459 -0.1672
 1220SOL     OW15295   0.867   3.381   3.052  0.1566  0.5448  0.0940
 1220SOL    HW115296   0.803   3.323   3.094  0.4204 -0.6906 -1.2259
 1220SOL    HW215297   0.910   3.320   2.992 -0.2486 -1.2723  1.6415
 1221SOL     OW15298   4.683   2.393   3.306  0.0538  0.5511  0.2104
 1221SOL    HW115299   0.026   2.432   3.327 -0.6676  2.0402  0.3906
 1221SOL    HW215300   4.708   2.302   3.321 -0.5348  0.2916 -0.3862
 1222SOL     OW15301   1.503   3.065   6.485  1.2253  0.0477  0.1635
 1222SOL    HW115302   1.446   3.111   6.546  0.4327 -2.1957  1.1129
 1222SOL    HW215303   1.521   2.988   6.538  0.6544 -1.4633 -1.8352
 1223SOL     OW15304   1.313   2.694   2.458  0.2938 -0.4656 -0.2378
 1223SOL    HW115305   1.370   2.674   2.533 -2.1983 -0.8903  1.5422
 1223SOL    HW215306   1.300   2.606   2.424 -0.1544 -0.3563 -0.3396
 1224SOL     OW15307   4.145   0.250   3.594  0.4607  0.2559 -0.3601
 1224SOL    HW115308   4.220   0.209   3.551  1.6545  0.4881  1.4823
 1224SOL    HW215309   4.133   0.322   3.533  1.3875  1.8006  1.2869
 1225SOL     OW15310   2.969   3.410   3.458 -0.0058  0.1163  0.4997
 1225SOL    HW115311   2.923   3.336   3.417  1.6764 -0.9516  0.5483
 1225SOL    HW215312   3.060   3.396   3.432 -0.1958  1.8304 -1.1139
 1226SOL     OW15313   4.313   4.111  13.314 -0.6190  0.0626  0.1767
 1226SOL    HW115314   4.294   4.021  13.289  2.6407 -0.2892 -1.0614
 1226SOL    HW215315   4.406   4.108  13.335 -0.5667 -0.1366 -0.0927
 1227SOL     OW15316   4.492   0.257   5.819 -0.8499 -0.4730 -0.5816
 1227SOL    HW115317   4.472   0.176   5.772  0.4013  0.3836 -2.5880
 1227SOL    HW215318   4.403   0.259   5.853 -0.7625  0.1645 -0.3943
 1228SOL     OW15319   1.863   3.497   6.207  0.5552 -0.1176  0.2792
 1228SOL    HW115320   1.907   3.560   6.265 -1.4599 -0.0667  1.7620
 1228SOL    HW215321   1.856   3.431   6.276  0.0961 -1.3357 -0.9306
 1229SOL     OW15322   3.685   2.562   3.230 -0.6648  0.2338  0.0052
 1229SOL    HW115323   3.707   2.567   3.323 -0.8532  0.4568  0.0385
 1229SOL    HW215324   3.659   2.653   3.215 -2.6498 -0.0904  1.4706
 1230SOL     OW15325   2.783   4.538   6.937 -0.3637  0.2303  0.0226
 1230SOL    HW115326   2.692   4.566   6.937 -0.3808  0.1831  2.2271
 1230SOL    HW215327   2.759   4.447   6.954  1.1520 -0.3462 -0.9458
 1231SOL     OW15328   2.274   2.800   6.706  0.1218  0.2224  0.7946
 1231SOL    HW115329   2.256   2.842   6.622 -2.1273 -1.2888  0.5265
 1231SOL    HW215330   2.359   2.757   6.703  0.8869  2.0207 -2.9701
 1232SOL     OW15331   4.713   3.384   7.530  0.8140 -0.0815 -0.2933
 1232SOL    HW115332   4.650   3.424   7.469  1.5273  0.9244 -0.3608
 1232SOL    HW215333   4.663   3.349   7.604  1.3242 -1.3660 -0.5725
 1233SOL     OW15334   0.465   1.443  11.539 -0.1382 -0.2362  0.0609
 1233SOL    HW115335   0.436   1.429  11.449 -1.4015 -1.0903  0.6114
 1233SOL    HW215336   0.544   1.494  11.519  0.0295 -0.4734  0.1309
 1234SOL     OW15337   2.947   2.816   4.883  0.0280 -0.1120  0.1572
 1234SOL    HW115338   2.920   2.902   4.914  0.7695  0.3237 -0.4139
 1234SOL    HW215339   3.033   2.837   4.847 -0.6601  1.0295 -0.8463
 1235SOL     OW15340   4.056   3.864   8.491  0.5372 -0.7101 -0.0277
 1235SOL    HW115341   4.043   3.863   8.396  2.5250 -0.0833 -0.2909
 1235SOL    HW215342   3.981   3.917   8.519  0.1986 -0.0003 -2.3239
 1236SOL     OW15343   1.460   3.563  17.299 -0.2048 -0.0070 -0.2627
 1236SOL    HW115344   1.424   3.595  17.215  3.7725 -1.1683 -2.3924
 1236SOL    HW215345   1.552   3.587  17.305 -0.7565  2.1126 -0.2990
 1237SOL     OW15346   1.594   1.522   5.272  0.1413  0.2367 -0.8917
 1237SOL    HW115347   1.558   1.456   5.331  1.0609  0.5985  0.0626
 1237SOL    HW215348   1.677   1.541   5.316  1.3768 -1.0872 -2.6466
 1238SOL     OW15349   1.707   2.842   4.410  0.0211 -0.2145  0.6025
 1238SOL    HW115350   1.785   2.870   4.457 -1.0452  0.9196  1.6859
 1238SOL    HW215351   1.638   2.864   4.473 -1.3665  1.1225 -1.4055
 1239SOL     OW15352   0.206   0.236   1.913 -0.4769 -0.4752 -0.2298
 1239SOL    HW115353   0.176   0.159   1.865 -1.3431  0.4162 -1.1375
 1239SOL    HW215354   0.273   0.271   1.853  0.3282  0.9182  1.4943
 1240SOL     OW15355   1.506   2.779   7.773  0.1995  0.7528 -0.9629
 1240SOL    HW115356   1.445   2.835   7.725 -1.3420 -0.4403 -0.4058
 1240SOL    HW215357   1.441   2.708   7.775  1.4291 -0.3332  0.3792
 1241SOL     OW15358   1.616   1.119   2.097 -0.1784  0.2627 -0.2479
 1241SOL    HW115359   1.674   1.191   2.119 -1.1367  0.3558  1.9427
 1241SOL    HW215360   1.657   1.053   2.152  1.1315  1.9566  0.7886
 1242SOL     OW15361   2.397   0.300   6.680  0.2978 -0.1420 -0.6799
 1242SOL    HW115362   2.360   0.229   6.733  2.0122 -0.5186  0.0054
 1242SOL    HW215363   2.384   0.371   6.743  1.8180 -0.7156  0.2772
 1243SOL     OW15364   4.366   1.513   5.495 -0.3952  0.5193  0.0213
 1243SOL    HW115365   4.346   1.476   5.409 -0.2190  1.0337 -0.2352
 1243SOL    HW215366   4.358   1.605   5.472  2.1114  0.5848 -0.5795
 1244SOL     OW15367   1.595   3.172   2.925  0.6994  0.0742  0.3160
 1244SOL    HW115368   1.646   3.103   2.884  0.5494 -0.7882  1.5595
 1244SOL    HW215369   1.512   3.174   2.877 -0.5093  1.8896  2.4761
 1245SOL     OW15370   3.357   2.292   8.172 -0.5721  0.0284 -0.0453
 1245SOL    HW115371   3.346   2.241   8.092 -1.1903  1.4523 -0.8522
 1245SOL    HW215372   3.359   2.213   8.227 -1.9060 -0.9347 -1.4010
 1246SOL     OW15373   2.130   0.988  17.173 -0.1659  0.2051  0.1165
 1246SOL    HW115374   2.036   0.970  17.169  0.0303 -0.8905  0.4816
 1246SOL    HW215375   2.167   0.907  17.137 -1.3442 -1.1484  1.9223
 1247SOL     OW15376   2.943   3.806   5.566 -0.6074  0.1900  0.3713
 1247SOL    HW115377   2.890   3.794   5.487 -0.5549 -2.4437  0.7400
 1247SOL    HW215378   3.029   3.805   5.524 -0.3600  1.8650  0.8565
 1248SOL     OW15379   1.509   3.389   8.228  0.6236  0.6510 -0.2289
 1248SOL    HW115380   1.453   3.381   8.151 -0.2859 -0.0433  0.5174
 1248SOL    HW215381   1.557   3.306   8.220  0.1046  0.2374  0.9573
 1249SOL     OW15382   4.479   2.901   3.713 -0.7554  0.3187  0.1259
 1249SOL    HW115383   4.531   2.981   3.706  0.0959 -0.1022  1.5125
 1249SOL    HW215384   4.426   2.898   3.634 -0.1132 -0.8908 -0.2566
 1250SOL     OW15385   0.730   0.413   3.543 -0.0623  0.1418 -0.1451
 1250SOL    HW115386   0.744   0.443   3.453  0.6235  1.1482  0.2970
 1250SOL    HW215387   0.683   0.330   3.542  0.6373 -0.2358 -1.8226
 1251SOL     OW15388   2.331   0.400  10.511  0.0640  0.3574  0.2773
 1251SOL    HW115389   2.339   0.413  10.606 -2.2073  1.2064  0.3643
 1251SOL    HW215390   2.238   0.374  10.508  0.1654  0.3482 -2.4286
 1252SOL     OW15391   2.185   2.855   3.221 -0.2579  0.0011  0.3475
 1252SOL    HW115392   2.101   2.895   3.200  0.5317  1.3725 -0.1953
 1252SOL    HW215393   2.225   2.859   3.133  0.8219  0.0884  0.8391
 1253SOL     OW15394   3.680   3.326  12.403  0.2130  0.4685  0.5029
 1253SOL    HW115395   3.609   3.387  12.422 -0.4594  0.1703 -1.0330
 1253SOL    HW215396   3.688   3.278  12.486  3.4766  0.1824  0.0153
 1254SOL     OW15397   1.461   3.976  16.641  0.6562  0.1315  0.2954
 1254SOL    HW115398   1.416   3.925  16.574  1.1299  2.3315 -1.6585
 1254SOL    HW215399   1.532   3.913  16.654  0.2967 -0.4289 -0.4232
 1255SOL     OW15400   0.784   4.479   8.979  0.1602 -0.4678  0.4051
 1255SOL    HW115401   0.846   4.551   8.967  0.6138 -0.9041  0.1227
 1255SOL    HW215402   0.819   4.405   8.928  1.2583  0.5023 -0.2296
 1256SOL     OW15403   1.139   2.397   7.046  0.2458  0.5597  0.1418
 1256SOL    HW115404   1.135   2.493   7.045  2.5916  0.6455  0.3742
 1256SOL    HW215405   1.059   2.363   7.004  1.2537 -1.8450  0.2001
 1257SOL     OW15406   3.902   1.870   2.133  0.0686  0.0917  0.4660
 1257SOL    HW115407   3.895   1.776   2.151  2.4931 -0.1084  0.2753
 1257SOL    HW215408   3.821   1.890   2.086  0.5093 -1.7753 -1.0768
 1258SOL     OW15409   1.776   3.571   4.877  0.0047  0.0798  0.2055
 1258SOL    HW115410   1.859   3.596   4.837  0.2801  1.3538  1.5754
 1258SOL    HW215411   1.776   3.476   4.877 -1.3592  0.0859  0.9133
 1259SOL     OW15412   1.332   3.528   7.584  0.7522  0.1520  0.2712
 1259SOL    HW115413   1.423   3.540   7.557  0.5805  1.5148  0.2848
 1259SOL    HW215414   1.336   3.540   7.679 -0.0091  1.9552  0.0805
 1260SOL     OW15415   4.614   1.559   2.086 -0.0487 -0.4033  0.1466
 1260SOL    HW115416   4.622   1.561   2.182  0.4001 -1.5459  0.1387
 1260SOL    HW215417   4.699   1.519   2.066 -0.0673 -0.8063  0.8762
 1261SOL     OW15418   4.215   3.286  12.135  0.6380 -0.1661 -0.3117
 1261SOL    HW115419   4.138   3.246  12.175  0.8347  0.3944  0.6342
 1261SOL    HW215420   4.248   3.337  12.209  0.8384  0.6817 -0.9722
 1262SOL     OW15421   4.296   4.166  14.969 -0.0105 -0.3714  0.1070
 1262SOL    HW115422   4.304   4.113  15.048 -2.9145 -0.8936  0.0263
 1262SOL    HW215423   4.237   4.232  15.006  0.7722  0.1171  0.4896
 1263SOL     OW15424   0.782   1.376   2.439  0.0841  0.4426  0.0285
 1263SOL    HW115425   0.753   1.398   2.527  2.0783 -0.7909  0.9728
 1263SOL    HW215426   0.704   1.330   2.408 -0.1079  0.6420  0.2127
 1264SOL     OW15427   4.238   2.626   0.476 -0.0703  0.2139 -0.1570
 1264SOL    HW115428   4.295   2.675   0.536  1.2214  0.0238 -1.2269
 1264SOL    HW215429   4.308   2.588   0.422  1.4328  0.2695  1.7677
 1265SOL     OW15430   0.513   3.946  14.124  0.3541 -0.3315  0.5498
 1265SOL    HW115431   0.589   3.983  14.079 -0.4542 -1.0467 -1.4263
 1265SOL    HW215432   0.550   3.951  14.212  0.5237  2.5711  0.3007
 1266SOL     OW15433   4.385   1.776   9.632  0.0596  0.1264  0.2397
 1266SOL    HW115434   4.396   1.688   9.595  2.4630  0.5277  0.0176
 1266SOL    HW215435   4.387   1.839   9.561 -0.7173  2.0500  1.9197
 1267SOL     OW15436   0.858   1.819  17.006 -0.0570  0.3046 -0.0751
 1267SOL    HW115437   0.857   1.898  17.059  1.8598  1.0161 -1.1019
 1267SOL    HW215438   0.891   1.859  16.925 -0.5579  2.4081  0.7692
 1268SOL     OW15439   1.899   3.407   3.935 -0.4500  0.3988 -0.2144
 1268SOL    HW115440   1.816   3.418   3.889 -1.8900 -1.6910  1.9437
 1268SOL    HW215441   1.953   3.374   3.863  1.1795 -0.5515  1.4638
 1269SOL     OW15442   2.680   4.285   5.257  0.2514  0.5393  0.2388
 1269SOL    HW115443   2.640   4.277   5.344  3.5133  0.6230  1.7335
 1269SOL    HW215444   2.735   4.206   5.264 -0.6664 -0.1314 -0.1463
 1270SOL     OW15445   3.710   0.622   3.881 -0.2407 -0.0549  0.2807
 1270SOL    HW115446   3.698   0.669   3.963 -1.2264 -0.3240  0.2916
 1270SOL    HW215447   3.776   0.564   3.917  0.6462  0.0875 -1.1359
 1271SOL     OW15448   0.415   4.071   2.521  0.1816 -0.2781  0.0773
 1271SOL    HW115449   0.471   4.090   2.596 -1.4042  0.1987  1.1448
 1271SOL    HW215450   0.486   4.061   2.457 -0.0925  3.0582 -0.7535
 1272SOL     OW15451   0.472   4.634   7.335  0.3525 -0.5839  0.2270
 1272SOL    HW115452   0.508   4.626   7.247 -1.6993  1.7301 -0.8061
 1272SOL    HW215453   0.545   4.605   7.389  2.0584 -0.0997 -1.8219
 1273SOL     OW15454   1.073   4.220   3.893  0.2541  0.4346  0.1771
 1273SOL    HW115455   1.016   4.181   3.959 -0.3638 -0.3932 -0.8467
 1273SOL    HW215456   1.073   4.310   3.928  2.7374  0.3549  0.3541
 1274SOL     OW15457   2.252   2.840   7.674 -0.3740 -0.6944  0.3890
 1274SOL    HW115458   2.171   2.808   7.633 -0.9468 -0.8117  1.6222
 1274SOL    HW215459   2.253   2.812   7.766  2.2491  3.3712  1.5825
 1275SOL     OW15460   4.304   1.359   7.631 -0.6554  0.4332 -0.3326
 1275SOL    HW115461   4.307   1.449   7.664 -0.8832 -0.6899  2.7930
 1275SOL    HW215462   4.397   1.341   7.614  0.3519  4.1904  1.3016
 1276SOL     OW15463   1.649   4.398   5.337 -0.7225 -0.5947 -0.1324
 1276SOL    HW115464   1.591   4.472   5.357 -0.2699  0.2378 -1.9401
 1276SOL    HW215465   1.629   4.335   5.406 -1.6739  0.5533  0.6391
 1277SOL     OW15466   4.116   0.211  14.988  0.4184 -0.3572  0.1595
 1277SOL    HW115467   4.037   0.256  15.018  0.7982 -0.7631  1.8141
 1277SOL    HW215468   4.082   0.125  14.966  2.3473 -0.4256 -2.5592
 1278SOL     OW15469   2.162   0.548   1.984 -0.1643  0.2875 -0.2622
 1278SOL    HW115470   2.095   0.617   1.988 -1.0868 -0.5294 -1.7333
 1278SOL    HW215471   2.132   0.485   1.919 -0.8824  0.2713  0.0834
 1279SOL     OW15472   1.883   0.193   5.467 -0.0905  0.5162 -0.3678
 1279SOL    HW115473   1.894   0.262   5.532 -2.3377 -0.0717  0.6303
 1279SOL    HW215474   1.819   0.129   5.499  0.8719 -0.1945  0.1428
 1280SOL     OW15475   0.946   0.436   3.133  0.2787 -0.7488 -0.0817
 1280SOL    HW115476   1.037   0.463   3.125  0.7825 -2.3353  0.3553
 1280SOL    HW215477   0.921   0.404   3.046  0.6775 -0.7287 -0.1997
 1281SOL     OW15478   3.344   4.401   4.427  0.2628 -0.4581 -0.0859
 1281SOL    HW115479   3.370   4.338   4.494 -1.2297 -1.2885 -0.2898
 1281SOL    HW215480   3.266   4.438   4.469  1.0424  2.0752 -0.8537
 1282SOL     OW15481   2.741   0.947   8.672  0.0386  0.5323 -0.6961
 1282SOL    HW115482   2.754   0.956   8.577  5.0246  0.6994  0.0375
 1282SOL    HW215483   2.764   1.036   8.696  1.1551  0.1425 -0.3363
 1283SOL     OW15484   4.214   0.747   7.737  0.1853 -0.1066  0.0366
 1283SOL    HW115485   4.184   0.664   7.699 -1.2484  0.6428 -0.4683
 1283SOL    HW215486   4.301   0.723   7.768 -0.0211  2.7771  2.8262
 1284SOL     OW15487   0.112   2.351   9.204  0.0530 -0.3435  0.1523
 1284SOL    HW115488   0.124   2.436   9.247 -0.3408 -0.8004  1.1878
 1284SOL    HW215489   0.040   2.319   9.259  0.3197 -1.2968 -0.0568
 1285SOL     OW15490   2.089   0.220  16.712 -0.5962  0.7419 -0.1522
 1285SOL    HW115491   2.065   0.225  16.805 -1.2164  2.4586 -0.4053
 1285SOL    HW215492   2.183   0.213  16.731 -0.8025  0.9395  0.9515
 1286SOL     OW15493   0.332   3.065  16.893 -0.5343 -0.2991 -0.4475
 1286SOL    HW115494   0.367   2.976  16.896  1.5092  0.5973  2.5348
 1286SOL    HW215495   0.370   3.090  16.808  1.5687 -1.1327  0.2349
 1287SOL     OW15496   1.722   0.597  13.664 -0.8928 -0.0674  0.0079
 1287SOL    HW115497   1.703   0.524  13.722  0.3818  0.8106  1.5390
 1287SOL    HW215498   1.630   0.617  13.645  0.3421  1.9404 -4.0220
 1288SOL     OW15499   2.608   2.808   5.273  0.3086  0.2215 -0.1529
 1288SOL    HW115500   2.550   2.882   5.251  0.5625  0.4269 -0.1301
 1288SOL    HW215501   2.696   2.841   5.256 -0.6927  2.1250 -1.7631
 1289SOL     OW15502   1.288   0.236  13.753 -0.2548  0.0479  0.0919
 1289SOL    HW115503   1.219   0.261  13.815 -1.3023  0.1114 -1.0712
 1289SOL    HW215504   1.290   0.141  13.761 -1.1602 -0.0236 -0.4761
 1290SOL     OW15505   0.650   0.827   6.126 -0.1973 -0.0763  0.0673
 1290SOL    HW115506   0.569   0.878   6.118 -0.7774 -0.9093  0.6252
 1290SOL    HW215507   0.670   0.817   6.033 -0.4556  1.9758 -0.2198
 1291SOL     OW15508   3.511   4.165   2.816  0.0532  0.1441  0.0082
 1291SOL    HW115509   3.489   4.099   2.751  0.9404  1.6964 -1.8461
 1291SOL    HW215510   3.458   4.237   2.783 -0.6271 -0.3747 -0.0525
 1292SOL     OW15511   4.110   1.078   4.591 -0.0060  0.1233 -0.6790
 1292SOL    HW115512   4.164   1.093   4.513  0.0941  0.1106 -0.6120
 1292SOL    HW215513   4.069   0.999   4.554  0.0641 -1.5129  2.7408
 1293SOL     OW15514   3.225   3.885   6.685  0.0891 -0.1629 -0.3055
 1293SOL    HW115515   3.167   3.958   6.666 -0.2883 -0.4974 -0.4443
 1293SOL    HW215516   3.269   3.924   6.761  0.3176 -0.0415 -0.5014
 1294SOL     OW15517   3.724   0.794   6.849 -0.4555 -0.4332 -0.3861
 1294SOL    HW115518   3.734   0.813   6.756  1.7531 -0.2691 -0.1302
 1294SOL    HW215519   3.693   0.704   6.837 -0.1632 -0.8252  1.8057
 1295SOL     OW15520   2.374   3.130   3.124  0.3496  0.0352 -0.2234
 1295SOL    HW115521   2.304   3.192   3.142  0.1045  0.0117 -1.1007
 1295SOL    HW215522   2.349   3.115   3.033  0.9711 -2.6507  0.0397
 1296SOL     OW15523   4.339   4.191  11.082 -0.1084  0.3191  0.0351
 1296SOL    HW115524   4.296   4.106  11.081  0.5141 -0.0058  0.7606
 1296SOL    HW215525   4.288   4.241  11.145  0.3981  0.1388  0.5882
 1297SOL     OW15526   0.906   0.849   4.951  0.2661  0.1588  0.5479
 1297SOL    HW115527   0.873   0.854   4.862  3.3105  2.7995 -0.4520
 1297SOL    HW215528   0.973   0.917   4.938 -1.3851  2.1737  2.5178
 1298SOL     OW15529   4.348   4.576   1.115 -0.1738  0.4107 -0.0829
 1298SOL    HW115530   4.425   4.633   1.106 -0.2889  0.4435 -0.8929
 1298SOL    HW215531   4.380   4.527   1.190  2.7163 -0.0128 -1.5845
 1299SOL     OW15532   2.643   4.734   1.607  0.0051  0.1355 -0.0621
 1299SOL    HW115533   2.640   4.638   1.600 -1.0271  0.0997  0.9058
 1299SOL    HW215534   2.591   0.007   1.686 -1.7094 -3.1994 -0.5662
 1300SOL     OW15535   2.425   3.585  15.807 -0.2605  0.0135 -0.7146
 1300SOL    HW115536   2.355   3.530  15.841 -0.3126  0.1099 -0.6670
 1300SOL    HW215537   2.426   3.656  15.870  2.3564 -1.0459  0.4534
 1301SOL     OW15538   1.696   1.185   6.928  0.4378  0.2291  0.0406
 1301SOL    HW115539   1.704   1.243   7.003 -3.0729 -0.2176  0.7619
 1301SOL    HW215540   1.688   1.248   6.857  0.5837  1.9045  1.5345
 1302SOL     OW15541   3.079   1.545   7.144 -0.2287 -0.4551 -0.0696
 1302SOL    HW115542   3.011   1.609   7.166 -0.1691  0.0240 -1.2996
 1302SOL    HW215543   3.053   1.510   7.059  1.6646 -1.0057 -0.4242
 1303SOL     OW15544   0.560   4.080   6.404  0.0632  0.2206  0.0458
 1303SOL    HW115545   0.526   4.040   6.325 -0.3614 -1.5660  1.1192
 1303SOL    HW215546   0.483   4.059   6.456 -0.0726 -0.1560 -0.3096
 1304SOL     OW15547   0.448   2.718  13.019  0.0995 -0.3839 -0.0544
 1304SOL    HW115548   0.471   2.808  13.043 -2.1001  0.1705  0.0525
 1304SOL    HW215549   0.536   2.682  13.020  0.6486  0.9226 -2.4353
 1305SOL     OW15550   2.904   1.371   2.939 -0.3782  0.2584 -0.6982
 1305SOL    HW115551   2.878   1.356   2.849 -1.5681 -1.8556 -0.0041
 1305SOL    HW215552   2.956   1.451   2.937 -1.3698  0.9483  0.4270
 1306SOL     OW15553   2.471   3.333   7.153  0.0696 -0.2568 -0.4648
 1306SOL    HW115554   2.393   3.348   7.205 -0.3993 -2.3899 -0.5645
 1306SOL    HW215555   2.496   3.246   7.185 -1.4677 -0.6362 -0.3352
 1307SOL     OW15556   4.347   2.082   9.385  0.3024  0.2463 -0.1718
 1307SOL    HW115557   4.259   2.119   9.383 -0.2389 -1.0731 -1.0119
 1307SOL    HW215558   4.380   2.150   9.443  0.1012 -1.4573  1.9277
 1308SOL     OW15559   1.428   4.379  15.313  0.3891 -0.2213 -0.3615
 1308SOL    HW115560   1.499   4.388  15.249  0.0905 -1.7893 -0.9221
 1308SOL    HW215561   1.475   4.336  15.384 -0.4320 -0.6504 -0.0729
 1309SOL     OW15562   4.054   2.701   2.740 -0.4291 -0.0698 -0.3426
 1309SOL    HW115563   3.963   2.724   2.756 -0.4196  1.2098 -2.0491
 1309SOL    HW215564   4.075   2.792   2.719  0.7566 -0.7620 -2.2600
 1310SOL     OW15565   1.370   4.661  10.501  0.1148  0.0482  0.4529
 1310SOL    HW115566   1.425   4.709  10.562 -0.8671 -0.5831  1.8460
 1310SOL    HW215567   1.346   4.739  10.450  1.9231  0.4982  0.2936
 1311SOL     OW15568   3.595   2.058   3.885  0.0717 -0.5231  0.4640
 1311SOL    HW115569   3.615   1.975   3.928  0.9018  0.4739  2.0060
 1311SOL    HW215570   3.677   2.107   3.900 -0.9050  1.4318 -0.5530
 1312SOL     OW15571   3.605   2.413   7.723  0.1406  0.4301  0.0007
 1312SOL    HW115572   3.601   2.386   7.632 -0.9889  0.3310  0.0781
 1312SOL    HW215573   3.585   2.329   7.766  0.0214  0.8850  0.8358
 1313SOL     OW15574   4.211   3.357  13.265  0.0659  0.1442 -0.1404
 1313SOL    HW115575   4.122   3.350  13.298 -0.6152  0.2443 -1.9439
 1313SOL    HW215576   4.249   3.270  13.275 -1.8515 -0.4384  1.9316
 1314SOL     OW15577   4.269   2.318   6.774 -0.9723 -0.2200  0.4120
 1314SOL    HW115578   4.321   2.301   6.696 -0.2297 -0.5436  0.9735
 1314SOL    HW215579   4.182   2.290   6.747 -0.4455 -0.0974 -1.3698
 1315SOL     OW15580   3.209   1.374  16.596 -0.4420  0.3600  0.4671
 1315SOL    HW115581   3.286   1.397  16.543  1.1099 -0.5124  2.3484
 1315SOL    HW215582   3.141   1.434  16.566 -2.0857 -0.6381  2.2462
 1316SOL     OW15583   3.248   1.527   9.443  0.1404  0.4650 -0.4032
 1316SOL    HW115584   3.275   1.447   9.489 -0.0496 -0.6062 -2.1932
 1316SOL    HW215585   3.270   1.494   9.356  2.6008  0.0871  0.3560
 1317SOL     OW15586   1.388   3.200   2.218 -0.3686 -0.2506 -0.0984
 1317SOL    HW115587   1.369   3.153   2.299 -0.6715 -0.8967 -0.5442
 1317SOL    HW215588   1.476   3.172   2.192 -0.9533 -1.0043 -1.3113
 1318SOL     OW15589   1.851   0.929   7.561  0.3373  0.5274 -0.0129
 1318SOL    HW115590   1.860   0.840   7.595 -0.0143 -0.7694 -3.3110
 1318SOL    HW215591   1.757   0.939   7.548  0.3130 -2.1338 -1.9627
 1319SOL     OW15592   2.284   0.824  15.662 -0.2364 -0.1962 -0.5376
 1319SOL    HW115593   2.272   0.766  15.587  0.7457 -0.5448 -0.4157
 1319SOL    HW215594   2.264   0.762  15.731 -1.2196  2.4472  1.5666
 1320SOL     OW15595   3.740   0.436   8.231 -0.0487 -0.4399 -0.1256
 1320SOL    HW115596   3.749   0.475   8.318 -0.4278 -0.4038 -0.1018
 1320SOL    HW215597   3.645   0.428   8.220  0.0187  0.3210 -1.2720
 1321SOL     OW15598   2.725   3.597   3.745 -0.2686 -0.5142 -0.1100
 1321SOL    HW115599   2.783   3.583   3.820 -0.0442 -0.3753 -0.2592
 1321SOL    HW215600   2.794   3.631   3.689 -0.8272  1.7459  0.5650
 1322SOL     OW15601   1.248   3.434   8.380 -0.5391 -0.3319 -0.1083
 1322SOL    HW115602   1.296   3.416   8.461 -2.3419 -1.3318  0.7072
 1322SOL    HW215603   1.324   3.410   8.325 -1.7370 -1.6798 -1.1674
 1323SOL     OW15604   2.585   0.887   4.621 -0.1017  0.5666  0.1884
 1323SOL    HW115605   2.591   0.834   4.700  0.5773 -1.4501 -1.1964
 1323SOL    HW215606   2.532   0.831   4.565  0.5065  1.0105 -0.8310
 1324SOL     OW15607   0.181   2.881   7.424  0.0089  0.5160 -0.1418
 1324SOL    HW115608   0.227   2.797   7.419  1.0816  1.1710 -0.9203
 1324SOL    HW215609   0.223   2.923   7.499  2.5121  0.1486 -1.3807
 1325SOL     OW15610   3.986   0.360   6.764  0.1515 -0.3603 -0.3226
 1325SOL    HW115611   3.956   0.412   6.838 -0.8250  0.1396 -1.0799
 1325SOL    HW215612   3.918   0.383   6.701 -0.4769 -2.2729 -0.3202
 1326SOL     OW15613   0.957   2.344   6.511  0.0409  0.4712 -0.5821
 1326SOL    HW115614   1.019   2.274   6.490 -1.0137 -0.7645  0.3753
 1326SOL    HW215615   1.013   2.416   6.540 -1.2910  1.1075  0.4064
 1327SOL     OW15616   1.480   3.498   2.614 -0.2305 -0.2733 -0.1510
 1327SOL    HW115617   1.414   3.568   2.619  1.3153  1.2491 -0.9975
 1327SOL    HW215618   1.534   3.498   2.692  0.9648  3.0666 -0.9628
 1328SOL     OW15619   2.381   0.318   4.826 -0.6024 -0.6721 -0.7655
 1328SOL    HW115620   2.406   0.394   4.774 -0.0869 -0.2217  0.1557
 1328SOL    HW215621   2.463   0.270   4.833 -0.7563 -0.8993 -0.5366
 1329SOL     OW15622   2.439   0.928   6.951  0.0467  0.5321  0.1917
 1329SOL    HW115623   2.367   0.864   6.952 -0.9274  1.6280  2.9291
 1329SOL    HW215624   2.479   0.902   6.868  1.1737  0.7579  0.6629
 1330SOL     OW15625   3.076   4.542   7.494  0.0574 -0.9768  0.3297
 1330SOL    HW115626   3.041   4.575   7.411 -1.1431 -2.8795  0.0855
 1330SOL    HW215627   3.169   4.544   7.471 -0.7918  0.6460 -2.9503
 1331SOL     OW15628   1.135   1.987   3.045  0.3795  0.0392 -0.0261
 1331SOL    HW115629   1.214   1.981   2.992 -0.2704  1.3785 -1.1679
 1331SOL    HW215630   1.071   2.025   2.984 -0.1570 -3.1173 -1.4124
 1332SOL     OW15631   4.247   3.047   5.231 -0.0542 -0.4583  0.2643
 1332SOL    HW115632   4.305   3.050   5.307  1.0969  1.0246 -0.6800
 1332SOL    HW215633   4.272   3.129   5.189 -1.6414  0.0798  0.3537
 1333SOL     OW15634   0.872   3.906  12.614  0.3983  0.7435  0.5039
 1333SOL    HW115635   0.952   3.856  12.628  0.8115  1.6814  1.5575
 1333SOL    HW215636   0.814   3.838  12.581  1.8553 -0.2113 -0.1004
 1334SOL     OW15637   2.759   3.932   4.171  0.5143  0.0630 -0.1320
 1334SOL    HW115638   2.736   4.023   4.154  1.2730  0.2193 -0.3348
 1334SOL    HW215639   2.838   3.914   4.120 -0.1025  0.1897 -1.1339
 1335SOL     OW15640   2.330   2.403   2.551  0.5328  0.5691  0.3033
 1335SOL    HW115641   2.314   2.452   2.632  0.8555 -0.5259  1.0324
 1335SOL    HW215642   2.416   2.370   2.579  0.3543 -0.0597  0.1105
 1336SOL     OW15643   1.864   1.659   2.443 -0.3909  0.1345  0.7190
 1336SOL    HW115644   1.853   1.564   2.450 -0.7674  0.0925 -0.4583
 1336SOL    HW215645   1.798   1.688   2.380 -0.8580 -1.8061  0.3357
 1337SOL     OW15646   2.407   0.975  14.886  0.2807 -0.0756  0.0484
 1337SOL    HW115647   2.385   0.955  14.977 -1.3487  0.7233 -0.1589
 1337SOL    HW215648   2.458   1.056  14.887 -1.1618  0.8578 -0.9623
 1338SOL     OW15649   3.302   4.146  17.626 -0.5275 -0.2410  0.3846
 1338SOL    HW115650   3.346   4.144  17.541 -0.6919 -1.9394  0.3399
 1338SOL    HW215651   3.286   4.240  17.625  1.0441  0.0196 -1.1404
 1339SOL     OW15652   3.046   2.377  15.805  0.5894 -0.4272 -0.3596
 1339SOL    HW115653   3.056   2.432  15.727  1.5154  0.7136  0.5759
 1339SOL    HW215654   3.032   2.446  15.869 -3.5337  1.0797 -2.8548
 1340SOL     OW15655   3.413   0.873  11.139  0.1618 -0.4481  0.4627
 1340SOL    HW115656   3.344   0.899  11.078  0.4381  0.7845  0.6651
 1340SOL    HW215657   3.387   0.925  11.216 -0.9432 -3.3437  2.0349
 1341SOL     OW15658   4.683   3.902   6.315  0.6296 -0.4778 -0.2274
 1341SOL    HW115659   4.733   3.830   6.352  0.0339 -1.6042 -1.6378
 1341SOL    HW215660   4.606   3.903   6.371 -0.3369  3.1315 -1.5785
 1342SOL     OW15661   0.853   3.220  10.323 -0.3363 -0.1504  0.2177
 1342SOL    HW115662   0.934   3.190  10.282  0.5948 -0.2643  2.1069
 1342SOL    HW215663   0.820   3.138  10.360 -1.7822  1.1727  1.8453
 1343SOL     OW15664   3.506   1.777   7.475 -0.1791  0.7968 -0.7317
 1343SOL    HW115665   3.459   1.703   7.513  1.2415  0.3388  0.1354
 1343SOL    HW215666   3.460   1.791   7.391 -2.5573  2.0218  0.7603
 1344SOL     OW15667   4.169   1.688   9.779 -0.2204 -0.4420 -0.0208
 1344SOL    HW115668   4.240   1.704   9.716 -0.6866  1.9911  0.0555
 1344SOL    HW215669   4.212   1.704   9.864 -0.6654  1.0839 -0.0764
 1345SOL     OW15670   3.753   4.050   8.191  0.0594  0.1647  0.5653
 1345SOL    HW115671   3.805   3.988   8.242 -1.4658 -0.6526  1.1413
 1345SOL    HW215672   3.680   4.078   8.247  0.0804 -1.1194  1.2252
 1346SOL     OW15673   2.677   1.648   6.850 -0.3270 -0.1017  0.4748
 1346SOL    HW115674   2.647   1.639   6.940 -0.9410  1.7227  0.4589
 1346SOL    HW215675   2.602   1.671   6.796  0.2280  1.3899  0.3155
 1347SOL     OW15676   1.126   4.072   7.968 -0.6043  0.1547 -0.3070
 1347SOL    HW115677   1.128   4.155   8.016 -3.0568  0.8477 -1.3888
 1347SOL    HW215678   1.102   4.002   8.029 -0.0185  0.4424  0.2495
 1348SOL     OW15679   1.082   4.586   4.574  0.0372  0.0241  0.1718
 1348SOL    HW115680   0.995   4.548   4.573 -0.8586  2.0322  0.5249
 1348SOL    HW215681   1.088   4.636   4.493  0.8421  1.5704  1.1609
 1349SOL     OW15682   4.079   0.542   5.180  0.0343 -0.0859 -0.3243
 1349SOL    HW115683   4.101   0.449   5.175  0.0236 -0.2841  2.9676
 1349SOL    HW215684   4.156   0.585   5.217  2.5400 -2.3837 -2.9537
 1350SOL     OW15685   3.913   1.305   5.522 -0.4170  0.6205 -0.4954
 1350SOL    HW115686   3.976   1.260   5.578 -1.3182 -0.8889 -0.7016
 1350SOL    HW215687   3.950   1.287   5.436 -2.8381 -1.2363 -1.1636
 1351SOL     OW15688   1.860   2.503   4.520  0.5203  0.0733  0.7827
 1351SOL    HW115689   1.765   2.505   4.530  0.2111 -0.1413 -1.9753
 1351SOL    HW215690   1.880   2.413   4.495 -0.1028 -0.2787  1.5523
 1352SOL     OW15691   4.145   1.742   1.951  0.9211  0.6096  0.3832
 1352SOL    HW115692   4.159   1.698   2.035  1.6900  0.7520  0.3274
 1352SOL    HW215693   4.197   1.822   1.959  2.0806 -0.3114  1.9922
 1353SOL     OW15694   0.170   1.102  15.308  0.0839  0.1811 -0.0612
 1353SOL    HW115695   0.149   1.111  15.401  0.9420  2.5066 -0.0842
 1353SOL    HW215696   0.173   1.007  15.298  3.1746  0.3200 -0.4591
 1354SOL     OW15697   3.346   3.594   1.675 -0.1964 -0.8121  0.0786
 1354SOL    HW115698   3.257   3.627   1.687 -0.7095 -1.4576 -1.8666
 1354SOL    HW215699   3.384   3.606   1.762  1.3722 -0.3720 -0.6608
 1355SOL     OW15700   3.912   3.457   4.777 -0.1955 -0.7603 -0.1459
 1355SOL    HW115701   3.833   3.412   4.746 -1.0585  0.4722  0.2532
 1355SOL    HW215702   3.976   3.452   4.706 -1.0324 -2.6590 -0.7913
 1356SOL     OW15703   3.818   0.451  10.720  0.0257 -0.1586  0.6666
 1356SOL    HW115704   3.809   0.414  10.808  2.6826 -0.2280  0.9116
 1356SOL    HW215705   3.801   0.545  10.731  0.8516  0.0384  0.2140
 1357SOL     OW15706   3.203   3.407  16.391 -0.9687  0.6630  0.0134
 1357SOL    HW115707   3.248   3.472  16.336  0.0861  0.6812  0.9136
 1357SOL    HW215708   3.240   3.426  16.477 -3.0137  0.7432  0.8679
 1358SOL     OW15709   0.503   4.239   8.913  0.4203 -0.4734 -1.2077
 1358SOL    HW115710   0.471   4.317   8.958  0.6964  0.7809 -3.2095
 1358SOL    HW215711   0.556   4.276   8.843  1.4114  1.6344  0.6879
 1359SOL     OW15712   2.778   1.175  13.315  0.8089 -0.1587  0.2805
 1359SOL    HW115713   2.772   1.184  13.410  1.5156 -3.4843  0.6128
 1359SOL    HW215714   2.701   1.220  13.281  0.8792  0.8086  1.3866
 1360SOL     OW15715   1.327   2.072   1.171 -0.3668  0.7514 -0.1668
 1360SOL    HW115716   1.421   2.053   1.163  0.0056  1.7322  2.0851
 1360SOL    HW215717   1.328   2.162   1.202  0.0055  0.1337  1.6436
 1361SOL     OW15718   3.304   0.690   6.750 -0.6162  0.1780 -0.4978
 1361SOL    HW115719   3.218   0.662   6.781 -0.9025 -0.0741 -1.5238
 1361SOL    HW215720   3.332   0.745   6.823  1.9301 -2.9021  0.8261
 1362SOL     OW15721   1.097   1.822   4.476  0.4615 -0.0063  0.0805
 1362SOL    HW115722   1.087   1.734   4.440 -0.3513  0.5235 -0.9902
 1362SOL    HW215723   1.181   1.837   4.433  0.3869 -2.2382 -0.8145
 1363SOL     OW15724   2.832   4.693  12.660 -0.2836  0.3348  0.0596
 1363SOL    HW115725   2.879   0.028  12.692  1.9669 -0.9267 -0.1631
 1363SOL    HW215726   2.885   4.664  12.586 -0.0328  0.2347  0.2751
 1364SOL     OW15727   3.558   0.579   0.615  0.4630  0.1722  0.2481
 1364SOL    HW115728   3.587   0.670   0.618  0.3074  0.2487 -0.4964
 1364SOL    HW215729   3.593   0.544   0.697 -0.1374 -2.0295 -0.4487
 1365SOL     OW15730   2.469   1.110   4.327 -0.9782 -0.1504  0.0737
 1365SOL    HW115731   2.530   1.037   4.313 -2.4781 -1.1349 -1.3354
 1365SOL    HW215732   2.390   1.069   4.361 -1.2359  0.0659 -0.2678
 1366SOL     OW15733   3.631   0.099   7.164  0.1448 -0.0309  0.1284
 1366SOL    HW115734   3.623   0.081   7.257  1.7205 -0.1762  0.2287
 1366SOL    HW215735   3.707   0.044   7.147  0.0782  0.0252 -0.3560
 1367SOL     OW15736   0.098   1.356  13.961 -0.2820  0.0791 -0.2144
 1367SOL    HW115737   0.053   1.276  13.989 -1.8801  1.6596  1.7165
 1367SOL    HW215738   0.165   1.350  14.029  0.4739  1.0729 -0.8743
 1368SOL     OW15739   0.430   4.428  15.354 -0.1713  0.2257  0.4692
 1368SOL    HW115740   0.431   4.450  15.447 -2.8361  0.7523  0.3568
 1368SOL    HW215741   0.522   4.404  15.343 -0.5478 -1.7591  1.6396
 1369SOL     OW15742   4.466   3.624   9.587  0.1164  0.1822  0.3256
 1369SOL    HW115743   4.515   3.680   9.647  0.9371 -1.1251  0.8797
 1369SOL    HW215744   4.508   3.538   9.595  0.1047  0.1211 -0.2530
 1370SOL     OW15745   1.639   2.952   7.915  0.4858 -0.0555 -0.3789
 1370SOL    HW115746   1.719   2.900   7.923  0.1484 -0.4010  0.7060
 1370SOL    HW215747   1.583   2.885   7.875 -0.9347  0.5939  0.5447
 1371SOL     OW15748   2.669   1.422  16.327  0.6094  0.0168 -0.1678
 1371SOL    HW115749   2.588   1.447  16.283  1.4464  0.6917 -1.3131
 1371SOL    HW215750   2.695   1.353  16.265 -0.7449  0.0079 -0.7242
 1372SOL     OW15751   3.713   0.550   7.488 -0.0853  0.4376  0.2605
 1372SOL    HW115752   3.764   0.500   7.552  2.0383 -0.4552 -2.1262
 1372SOL    HW215753   3.772   0.625   7.478  0.9259 -0.1989  1.4011
 1373SOL     OW15754   2.069   2.356   5.445  0.3297  0.0181  0.2651
 1373SOL    HW115755   2.060   2.451   5.440 -0.0138 -0.0273  0.0170
 1373SOL    HW215756   2.095   2.322   5.360  1.4642  0.2157  0.5249
 1374SOL     OW15757   3.412   4.382   5.983 -0.1325  0.5844 -0.1753
 1374SOL    HW115758   3.388   4.361   6.074  1.1417  0.4496  0.1379
 1374SOL    HW215759   3.369   4.466   5.970 -2.4024 -0.5803 -0.2507
 1375SOL     OW15760   1.704   1.620   1.808 -0.4034  0.2949  0.1996
 1375SOL    HW115761   1.729   1.622   1.900 -2.2133  2.1198  0.6612
 1375SOL    HW215762   1.786   1.637   1.762 -0.0899  0.0779  0.6847
 1376SOL     OW15763   2.459   2.762   8.242  0.2864  0.2514 -0.1585
 1376SOL    HW115764   2.515   2.839   8.251 -0.1202  0.5852 -0.4820
 1376SOL    HW215765   2.505   2.710   8.177 -1.2517 -0.7575 -0.4525
 1377SOL     OW15766   1.373   3.690   3.493 -0.8399  0.3146 -0.0726
 1377SOL    HW115767   1.393   3.754   3.561  1.5773 -2.0594  1.4461
 1377SOL    HW215768   1.441   3.716   3.431 -0.0734 -0.8572  0.2754
 1378SOL     OW15769   0.586   0.403   4.614 -0.1829 -0.0071  0.0451
 1378SOL    HW115770   0.673   0.384   4.648  0.3149 -0.6052 -1.5774
 1378SOL    HW215771   0.594   0.361   4.528 -0.3062  1.6714 -0.7875
 1379SOL     OW15772   0.753   4.705  16.402 -0.0165 -0.5788 -0.2928
 1379SOL    HW115773   0.833   0.010  16.426  1.0481 -1.8588 -1.3340
 1379SOL    HW215774   0.691   0.002  16.462 -1.3600 -0.4330 -1.7729
 1380SOL     OW15775   1.815   1.630  16.418 -0.1124 -0.2510  0.5458
 1380SOL    HW115776   1.792   1.573  16.491  0.5136 -0.4403  0.5926
 1380SOL    HW215777   1.904   1.648  16.448 -0.5157  2.2982  0.2763
 1381SOL     OW15778   0.601   0.734  15.877  0.0644 -0.3829  0.0437
 1381SOL    HW115779   0.533   0.668  15.883 -0.7016  0.3606 -0.4584
 1381SOL    HW215780   0.553   0.813  15.903  0.9589 -0.3402  1.5587
 1382SOL     OW15781   4.065   3.249  12.597  0.5591 -0.0954  0.7600
 1382SOL    HW115782   4.148   3.247  12.645  2.0641  1.9191 -1.7739
 1382SOL    HW215783   4.051   3.339  12.567  0.2956  0.0038  1.1794
 1383SOL     OW15784   3.186   1.372   1.084 -0.0150  0.2122  0.6654
 1383SOL    HW115785   3.162   1.300   1.142 -2.8480  0.4309 -0.2709
 1383SOL    HW215786   3.121   1.387   1.016  1.8549 -1.1852 -1.4499
 1384SOL     OW15787   2.274   2.682   5.394  0.1802 -1.0236  0.0623
 1384SOL    HW115788   2.316   2.767   5.406  0.6142 -0.8995 -2.4005
 1384SOL    HW215789   2.192   2.691   5.443 -0.1917  0.2555 -0.8078
 1385SOL     OW15790   0.927   2.318   6.892 -1.0035 -0.1374 -0.0680
 1385SOL    HW115791   0.860   2.383   6.872 -0.9930 -0.2357 -0.4107
 1385SOL    HW215792   0.863   2.252   6.918 -0.7025 -0.2573  0.3796
 1386SOL     OW15793   3.511   4.458   1.948  0.2799  0.2849 -0.0131
 1386SOL    HW115794   3.569   4.481   2.021  1.3536 -1.5025 -0.3166
 1386SOL    HW215795   3.427   4.493   1.979 -0.5781 -1.0494 -0.8176
 1387SOL     OW15796   3.990   2.432   6.254  0.0308 -0.3745  0.2394
 1387SOL    HW115797   4.074   2.412   6.213 -0.2484 -1.0523  0.0018
 1387SOL    HW215798   3.945   2.349   6.235  1.4942 -0.6857 -1.8434
 1388SOL     OW15799   1.837   1.119   3.067  0.1149  0.7195  0.0197
 1388SOL    HW115800   1.918   1.077   3.040 -0.7935 -0.5633 -0.7432
 1388SOL    HW215801   1.883   1.186   3.117  3.4351 -0.3350 -1.6271
 1389SOL     OW15802   3.259   2.572  13.823 -0.5072  0.4420 -0.0730
 1389SOL    HW115803   3.236   2.599  13.911  1.6852  0.3948  0.5355
 1389SOL    HW215804   3.225   2.483  13.833 -0.7130  0.5111 -0.1665
 1390SOL     OW15805   1.616   0.821   3.893 -0.1649  0.5147 -0.5091
 1390SOL    HW115806   1.662   0.871   3.959  1.2495 -1.8186  0.2867
 1390SOL    HW215807   1.699   0.789   3.857 -0.2441  0.0182 -0.2597
 1391SOL     OW15808   3.317   2.363   3.006 -0.4442 -0.2808 -0.5155
 1391SOL    HW115809   3.318   2.273   3.038  3.0174  0.5423  1.6326
 1391SOL    HW215810   3.408   2.382   2.987 -0.4844  0.0109 -0.4153
 1392SOL     OW15811   2.098   0.450   7.917  0.0001 -0.3263 -0.1863
 1392SOL    HW115812   2.177   0.442   7.863 -0.8178 -0.8837 -1.3208
 1392SOL    HW215813   2.027   0.446   7.853 -0.5424 -0.7076  0.4379
 1393SOL     OW15814   4.448   4.323   7.159 -0.0889 -0.6479 -0.1931
 1393SOL    HW115815   4.481   4.406   7.125  1.6207 -1.0487  0.5041
 1393SOL    HW215816   4.402   4.281   7.086 -0.7025 -1.7314  0.8137
 1394SOL     OW15817   1.833   4.425   0.871 -0.1767  0.2406  0.5850
 1394SOL    HW115818   1.842   4.488   0.943  1.4581  1.6807 -0.8659
 1394SOL    HW215819   1.858   4.344   0.915  1.3374 -0.2248 -1.1143
 1395SOL     OW15820   0.705   2.403   6.430 -0.5444 -0.0894  0.6056
 1395SOL    HW115821   0.785   2.352   6.442  0.6606  1.5649 -0.2289
 1395SOL    HW215822   0.742   2.491   6.441 -2.0348  0.8847 -2.2271
 1396SOL     OW15823   3.611   3.551   5.046 -0.0538  0.4136  0.1503
 1396SOL    HW115824   3.687   3.604   5.024  0.6839 -1.5043 -1.8651
 1396SOL    HW215825   3.544   3.588   4.989 -0.1493  1.3233  0.8476
 1397SOL     OW15826   2.870   3.494  13.784 -0.3247 -0.4172  0.2534
 1397SOL    HW115827   2.781   3.485  13.817  0.1083  1.6426  2.0167
 1397SOL    HW215828   2.859   3.583  13.751  1.2899 -0.0297  0.7383
 1398SOL     OW15829   2.637   1.898   3.006  0.1088  0.3324  0.3291
 1398SOL    HW115830   2.637   1.966   3.072 -0.1036  1.0667 -0.4311
 1398SOL    HW215831   2.638   1.940   2.920 -1.9185 -1.5933 -0.6528
 1399SOL     OW15832   0.004   2.040  16.631  0.4474 -0.2000  0.2096
 1399SOL    HW115833   4.713   2.096  16.702  1.1743  0.5465 -0.0378
 1399SOL    HW215834   0.072   1.991  16.678 -0.2535  0.1477  1.5837
 1400SOL     OW15835   1.237   3.534   6.152 -0.3589 -0.2821 -0.0812
 1400SOL    HW115836   1.260   3.447   6.185 -1.0089 -0.1547  0.7250
 1400SOL    HW215837   1.156   3.550   6.200  1.5384  0.1007  2.9769
 1401SOL     OW15838   1.616   0.082  11.694 -0.3245  0.1284 -0.3503
 1401SOL    HW115839   1.552   0.136  11.741  0.3981  0.7026 -0.0238
 1401SOL    HW215840   1.579   4.741  11.721 -0.7947  0.4336 -0.0550
 1402SOL     OW15841   1.840   3.701   1.056  0.0502 -0.3456  0.4135
 1402SOL    HW115842   1.892   3.636   1.008 -1.1159 -0.8031 -0.2310
 1402SOL    HW215843   1.836   3.661   1.143 -0.9282  0.1971  0.6210
 1403SOL     OW15844   0.379   0.972  10.116  0.4810  0.3763  0.2851
 1403SOL    HW115845   0.453   0.957  10.174  2.0965  1.1614 -1.5585
 1403SOL    HW215846   0.382   0.886  10.075 -0.9320  0.8387 -0.7743
 1404SOL     OW15847   2.402   1.143   4.889  0.6115 -0.6029 -0.1233
 1404SOL    HW115848   2.431   1.051   4.891  1.0404 -0.4796 -0.8239
 1404SOL    HW215849   2.485   1.188   4.875 -0.0897  0.9271  0.6765
 1405SOL     OW15850   3.711   1.213  16.931 -0.0814  0.2602  0.3850
 1405SOL    HW115851   3.737   1.303  16.913 -1.9082  0.3559 -1.9544
 1405SOL    HW215852   3.617   1.223  16.949 -0.4404 -2.1231 -0.1281
 1406SOL     OW15853   1.675   1.333  16.066 -0.1053 -0.1106  0.3398
 1406SOL    HW115854   1.769   1.314  16.059 -0.3882 -0.5634 -2.2362
 1406SOL    HW215855   1.654   1.314  15.975  1.6561 -4.0033  0.7463
 1407SOL     OW15856   2.103   2.795  10.158  0.7027 -0.5510 -0.3735
 1407SOL    HW115857   2.008   2.806  10.157  0.8958  0.9311 -2.0402
 1407SOL    HW215858   2.139   2.880  10.135 -0.5437  0.0254 -0.2325
 1408SOL     OW15859   2.842   0.878   4.427  0.3066 -0.8693 -0.5364
 1408SOL    HW115860   2.796   0.867   4.344  0.1287 -0.6386 -0.4687
 1408SOL    HW215861   2.767   0.903   4.482  1.6304  0.0989  0.8196
 1409SOL     OW15862   3.572   3.319   1.709 -0.1776  0.3240 -0.2538
 1409SOL    HW115863   3.612   3.404   1.724 -0.9057  0.5400  0.5227
 1409SOL    HW215864   3.609   3.257   1.773  0.0450  0.8250  0.1005
 1410SOL     OW15865   1.468   2.227   8.001 -0.5434  0.4651  0.2024
 1410SOL    HW115866   1.450   2.174   8.078  2.3535  0.4353  0.8552
 1410SOL    HW215867   1.505   2.158   7.946 -1.5069  1.9772 -2.3564
 1411SOL     OW15868   0.136   2.574   9.329  0.4452  0.3090  0.0768
 1411SOL    HW115869   0.162   2.610   9.414  2.7830 -1.5770  0.1450
 1411SOL    HW215870   0.196   2.621   9.271  2.4931 -1.6964  0.5892
 1412SOL     OW15871   2.389   4.542   7.808 -0.3310 -0.0800 -0.6332
 1412SOL    HW115872   2.358   4.502   7.889  2.5109  0.2100  0.6129
 1412SOL    HW215873   2.334   4.621   7.811 -0.3288 -0.2284  3.3012
 1413SOL     OW15874   1.763   0.379   7.499  0.1335  0.8819  0.4951
 1413SOL    HW115875   1.724   0.313   7.556  0.5397  0.2396  0.0284
 1413SOL    HW215876   1.729   0.355   7.413 -0.2250  0.8469  0.6481
 1414SOL     OW15877   2.144   3.309   6.322  0.3524 -0.0715 -0.3175
 1414SOL    HW115878   2.180   3.386   6.366  0.2453  1.3801 -2.7105
 1414SOL    HW215879   2.181   3.320   6.234  1.5075 -2.0501 -0.0667
 1415SOL     OW15880   1.036   2.933   8.536 -0.5513 -0.1305  0.2004
 1415SOL    HW115881   0.983   3.003   8.575  0.9332  1.5880 -0.8677
 1415SOL    HW215882   1.102   2.978   8.483 -2.0556  2.0654  0.1359
 1416SOL     OW15883   0.134   4.160   2.237 -0.8921 -0.6356  0.1767
 1416SOL    HW115884   0.043   4.163   2.208 -0.3030  0.2282 -1.5868
 1416SOL    HW215885   0.153   4.066   2.239  2.9049  0.1140 -0.7108
 1417SOL     OW15886   1.394   2.764  15.391 -0.2759 -0.2658  0.3906
 1417SOL    HW115887   1.393   2.830  15.321 -0.0574  0.7660  1.3573
 1417SOL    HW215888   1.303   2.770  15.420  0.8705 -0.6523  4.1593
 1418SOL     OW15889   3.534   1.500  16.778  0.1822 -0.3774  0.5021
 1418SOL    HW115890   3.596   1.441  16.820  0.7127 -0.1170  0.0846
 1418SOL    HW215891   3.563   1.583  16.815 -2.0500  0.8425 -0.5092
 1419SOL     OW15892   4.626   3.406  11.533  0.3822 -0.3162  0.4400
 1419SOL    HW115893   4.610   3.419  11.626  2.8404  1.2639  0.6546
 1419SOL    HW215894   4.649   3.314  11.519 -1.7273 -1.1866  2.8162
 1420SOL     OW15895   1.678   1.359   3.870  0.2045 -0.0568  0.2712
 1420SOL    HW115896   1.694   1.393   3.782 -0.9758 -0.1843  0.0062
 1420SOL    HW215897   1.629   1.280   3.845 -0.7262 -0.1820  2.4898
 1421SOL     OW15898   2.810   4.651  17.417  0.1228 -0.3027 -1.0388
 1421SOL    HW115899   2.719   4.680  17.410  0.3154 -0.0921 -2.7062
 1421SOL    HW215900   2.815   4.581  17.352  4.5958  1.5482 -2.6739
 1422SOL     OW15901   4.570   4.581  13.012  0.2563 -0.8329  0.2027
 1422SOL    HW115902   4.647   4.526  12.995  0.7637 -0.3255  0.8705
 1422SOL    HW215903   4.597   4.599  13.102 -2.1382  0.7806  0.5867
 1423SOL     OW15904   0.846   2.573   9.661 -0.7671 -0.5521  0.3031
 1423SOL    HW115905   0.776   2.595   9.599 -0.9263  3.1975  1.7858
 1423SOL    HW215906   0.782   2.540   9.724 -1.6373  1.2719  0.3915
 1424SOL     OW15907   0.116   0.922   4.235  0.2160 -0.3912  0.0892
 1424SOL    HW115908   0.092   0.955   4.321  3.6404 -2.1609  1.6998
 1424SOL    HW215909   0.036   0.921   4.182  0.2448 -1.1949  0.0665
 1425SOL     OW15910   3.940   3.468   0.233 -0.3841 -0.1212 -0.2226
 1425SOL    HW115911   3.944   3.538   0.169 -2.6604  0.4506  0.2540
 1425SOL    HW215912   3.930   3.393   0.175  1.5108 -0.0751 -0.5949
 1426SOL     OW15913   0.908   1.734   8.198 -0.6771  0.6468 -0.4285
 1426SOL    HW115914   0.940   1.775   8.278  0.9135  0.9022 -1.1920
 1426SOL    HW215915   0.853   1.806   8.167  1.9606  3.0509  0.5101
 1427SOL     OW15916   3.942   0.792  15.214 -0.4234 -0.1476 -0.2649
 1427SOL    HW115917   3.889   0.872  15.218 -1.3548 -0.7374 -0.9351
 1427SOL    HW215918   4.011   0.826  15.157 -0.8905  0.0586 -0.7113
 1428SOL     OW15919   4.115   1.166   8.566  0.0837  0.2745 -0.2212
 1428SOL    HW115920   4.113   1.095   8.629  1.0044  1.3602  1.0351
 1428SOL    HW215921   4.024   1.197   8.558 -0.1069 -0.2029  0.0995
 1429SOL     OW15922   4.726   0.720   5.757 -0.2022  0.1641  0.1616
 1429SOL    HW115923   0.051   0.788   5.759 -0.1561  0.1158  0.2690
 1429SOL    HW215924   0.002   0.668   5.679 -0.7121 -1.6226  1.2259
 1430SOL     OW15925   2.312   2.395   1.920  0.1264  0.1871  0.2330
 1430SOL    HW115926   2.333   2.479   1.960  0.8381  0.7098 -1.2087
 1430SOL    HW215927   2.329   2.336   1.993  0.8538  0.0103 -0.0734
 1431SOL     OW15928   1.893   2.270   6.689 -0.2719  0.0369 -0.4609
 1431SOL    HW115929   1.828   2.340   6.677 -1.4215 -0.6176  1.9625
 1431SOL    HW215930   1.971   2.299   6.642 -0.1633  1.0178  0.3096
 1432SOL     OW15931   0.928   3.434   7.490  0.3848  0.0626  0.0201
 1432SOL    HW115932   0.843   3.465   7.461  0.7350  1.1963  0.2099
 1432SOL    HW215933   0.962   3.507   7.541 -1.5737  1.2551 -0.4176
 1433SOL     OW15934   4.739   3.381   2.822  0.1945  0.3726 -0.3082
 1433SOL    HW115935   4.716   3.471   2.798  1.0267  0.8051  0.5621
 1433SOL    HW215936   4.700   3.382   2.910 -1.0647 -1.0942 -0.8467
 1434SOL     OW15937   1.658   0.949   4.200  0.0435  0.1449  0.6465
 1434SOL    HW115938   1.577   0.986   4.165 -0.4808 -0.8526  0.8077
 1434SOL    HW215939   1.631   0.860   4.219  0.1932 -0.0459 -0.0308
 1435SOL     OW15940   0.654   1.128  16.188 -0.5260 -0.0841 -0.3060
 1435SOL    HW115941   0.581   1.181  16.218 -0.1478  1.3209 -1.8621
 1435SOL    HW215942   0.690   1.104  16.273 -0.3676  2.1226  0.2299
 1436SOL     OW15943   1.810   1.800   5.204  0.4536  0.2024  0.2022
 1436SOL    HW115944   1.758   1.722   5.221 -1.3840  1.6365  1.1075
 1436SOL    HW215945   1.869   1.763   5.138  2.0540  0.1444  1.6498
 1437SOL     OW15946   3.142   1.872   8.165 -0.3479 -0.5770 -0.4856
 1437SOL    HW115947   3.061   1.922   8.176  0.3335  0.2381  0.8346
 1437SOL    HW215948   3.120   1.838   8.078 -1.4951  0.8298 -0.7465
 1438SOL     OW15949   0.101   1.781   3.966 -0.3801  0.7998  0.3314
 1438SOL    HW115950   0.138   1.768   4.053  0.6272  2.8791  0.2116
 1438SOL    HW215951   0.016   1.737   3.967  1.7766 -3.4385  0.3201
 1439SOL     OW15952   4.713   0.073   3.063 -0.4146  0.6932  0.7078
 1439SOL    HW115953   0.037   0.055   3.130  1.5773  0.4354 -1.3229
 1439SOL    HW215954   0.009   0.153   3.028  0.8129 -0.1706  0.0426
 1440SOL     OW15955   2.774   1.976   3.292  0.2072  0.0714  0.4008
 1440SOL    HW115956   2.828   2.003   3.218 -0.3572  1.7221  0.5978
 1440SOL    HW215957   2.789   2.040   3.362 -2.0034 -0.3542  1.2659
 1441SOL     OW15958   4.289   2.399   4.457 -0.2985 -0.4606 -0.1002
 1441SOL    HW115959   4.206   2.445   4.442  0.0586 -0.1244 -1.0268
 1441SOL    HW215960   4.295   2.424   4.549 -0.0526 -0.3617 -0.1442
 1442SOL     OW15961   2.330   2.107   4.241 -0.2564  0.2784 -0.2349
 1442SOL    HW115962   2.267   2.140   4.178 -1.3932 -0.0409  0.7326
 1442SOL    HW215963   2.399   2.081   4.181  0.4782  2.6775 -0.4267
 1443SOL     OW15964   1.714   3.248   1.402 -0.7273  0.2787 -0.4081
 1443SOL    HW115965   1.739   3.199   1.481 -1.1282  0.0533 -0.4211
 1443SOL    HW215966   1.633   3.288   1.433 -0.9540  0.5929 -1.3999
 1444SOL     OW15967   2.631   2.637   3.205 -0.4170 -0.3210  0.1739
 1444SOL    HW115968   2.573   2.691   3.258  0.3119 -1.0361  1.7206
 1444SOL    HW215969   2.599   2.659   3.118 -0.4179  0.9001  0.4817
 1445SOL     OW15970   0.652   0.777   8.088 -0.5729 -0.1526 -0.7286
 1445SOL    HW115971   0.636   0.859   8.135  0.6094 -1.2802  1.6951
 1445SOL    HW215972   0.747   0.768   8.094 -0.5077  1.4198  0.6087
 1446SOL     OW15973   2.898   2.921   6.055  0.0768  0.1275 -0.2894
 1446SOL    HW115974   2.984   2.954   6.031  0.6056 -0.3162  1.0052
 1446SOL    HW215975   2.899   2.925   6.151 -2.9753 -1.6351 -0.1754
 1447SOL     OW15976   3.859   2.319  12.273  0.6911 -0.2142  0.6642
 1447SOL    HW115977   3.873   2.379  12.346 -1.2742  0.9412  0.0817
 1447SOL    HW215978   3.868   2.379  12.199  0.7415 -1.0828 -0.0312
 1448SOL     OW15979   1.614   2.427  17.019  0.0686 -0.3463  0.2475
 1448SOL    HW115980   1.655   2.421  16.932 -0.5308 -2.3861  0.1138
 1448SOL    HW215981   1.634   2.519  17.037 -1.6100 -0.0325  0.5200
 1449SOL     OW15982   0.289   3.651   0.981  0.0150 -0.1274 -0.5274
 1449SOL    HW115983   0.197   3.645   0.955 -0.5872  0.7630  1.3232
 1449SOL    HW215984   0.305   3.560   1.005 -0.6163 -0.5611 -1.7920
 1450SOL     OW15985   2.474   2.134   8.344  0.7663 -0.1798 -0.5010
 1450SOL    HW115986   2.492   2.040   8.349  0.7069 -0.1829 -0.3673
 1450SOL    HW215987   2.463   2.147   8.250  1.5152 -1.3227 -0.7500
 1451SOL     OW15988   2.293   1.673  13.257  0.2678  0.0889  0.5457
 1451SOL    HW115989   2.341   1.731  13.197 -1.0141 -0.7493 -1.2761
 1451SOL    HW215990   2.337   1.698  13.338 -1.5217 -1.3223  1.9485
 1452SOL     OW15991   0.867   0.958  13.358  0.1197  0.0244 -0.1923
 1452SOL    HW115992   0.794   0.912  13.317  0.8062 -1.7846  0.5979
 1452SOL    HW215993   0.849   0.953  13.452  0.2027  0.4006 -0.1554
 1453SOL     OW15994   0.059   1.208   2.735 -0.3945  0.1755  0.3109
 1453SOL    HW115995   0.133   1.153   2.708 -0.0476  1.6010 -1.6134
 1453SOL    HW215996   4.734   1.168   2.679  0.8712 -2.4266  0.6320
 1454SOL     OW15997   1.603   4.048   5.766 -0.2532  0.1074  0.1431
 1454SOL    HW115998   1.600   3.970   5.710 -1.0907  0.4979 -0.3628
 1454SOL    HW215999   1.695   4.056   5.792 -0.1770 -2.2982  0.6066
 1455SOL     OW16000   2.093   4.517   7.286  0.3094  0.4233 -0.5391
 1455SOL    HW116001   2.036   4.532   7.211  0.0636  0.9336 -0.2532
 1455SOL    HW216002   2.082   4.604   7.324  3.1748  0.6852 -0.3254
 1456SOL     OW16003   4.233   4.327   9.410  0.2171  0.2428 -0.0036
 1456SOL    HW116004   4.167   4.336   9.479  0.5886  0.3033  0.3481
 1456SOL    HW216005   4.186   4.310   9.329  0.9332 -0.9761 -0.1675
 1457SOL     OW16006   3.204   4.642  10.253  0.0710 -0.0115  0.3742
 1457SOL    HW116007   3.204   4.675  10.343  0.7395  0.7935  0.0738
 1457SOL    HW216008   3.153   4.714  10.217  1.3929 -0.2986 -2.0898
 1458SOL     OW16009   3.010   0.112  13.260 -0.3773  0.6510  0.0812
 1458SOL    HW116010   2.997   0.181  13.325  0.9295 -0.5901  1.6681
 1458SOL    HW216011   3.068   0.048  13.302  1.9131  0.9710 -2.6127
 1459SOL     OW16012   0.950   0.145  16.492 -0.1987  0.4384  0.1556
 1459SOL    HW116013   0.915   0.233  16.478  1.6477  0.6346 -3.1533
 1459SOL    HW216014   0.968   0.141  16.586 -1.3887 -0.3521  0.3473
 1460SOL     OW16015   2.698   3.937   7.946 -0.0467  0.0718  0.0253
 1460SOL    HW116016   2.786   3.914   7.916 -0.4344  0.5756 -1.5099
 1460SOL    HW216017   2.695   3.905   8.036  1.6503 -0.0301  0.0464
 1461SOL     OW16018   1.146   0.345   4.914  0.0039  0.0843 -0.3978
 1461SOL    HW116019   1.172   0.429   4.951  1.4954 -0.7394  0.4011
 1461SOL    HW216020   1.160   0.361   4.820  0.7340 -0.3569 -0.3553
 1462SOL     OW16021   3.831   1.437  16.829  0.1925 -1.0006  0.4052
 1462SOL    HW116022   3.797   1.510  16.777 -2.8002 -1.4170  1.7724
 1462SOL    HW216023   3.925   1.453  16.816  0.2281 -0.2810  1.5265
 1463SOL     OW16024   3.015   0.021   2.722  0.2655  0.6168  0.1141
 1463SOL    HW116025   2.994   0.114   2.711  1.5303  0.7470 -1.2476
 1463SOL    HW216026   2.937   4.722   2.685 -0.0853 -1.0533  2.7212
 1464SOL     OW16027   4.139   4.195   8.937 -0.3205 -0.6654 -0.1674
 1464SOL    HW116028   4.132   4.100   8.933  1.6361 -0.7547 -1.6190
 1464SOL    HW216029   4.162   4.215   8.846 -2.7494  2.1379 -0.1403
 1465SOL     OW16030   3.265   1.050  12.153 -0.9429 -0.0024  0.4142
 1465SOL    HW116031   3.323   1.071  12.226  1.3143 -2.6032 -0.6437
 1465SOL    HW216032   3.221   1.134  12.150  0.6024  0.9721  4.0189
 1466SOL     OW16033   3.255   2.964   7.098 -0.0113 -0.2823  0.2639
 1466SOL    HW116034   3.328   2.943   7.040  0.9172  0.4717  1.1340
 1466SOL    HW216035   3.294   2.951   7.185 -1.3604  1.9297  1.2081
 1467SOL     OW16036   1.171   4.127   8.941 -0.6363 -0.1637  0.0793
 1467SOL    HW116037   1.222   4.146   9.020  0.1174  0.7998 -0.6470
 1467SOL    HW216038   1.104   4.081   8.991  0.0802  0.0117  1.2073
 1468SOL     OW16039   3.180   2.000  13.836  0.9163 -0.0507 -0.0476
 1468SOL    HW116040   3.191   1.909  13.809 -1.6013  0.2787 -2.1908
 1468SOL    HW216041   3.237   1.999  13.913 -0.6557  2.2305  1.1442
 1469SOL     OW16042   0.769   0.765   2.836  0.4981 -0.2963  0.4413
 1469SOL    HW116043   0.834   0.715   2.885  0.8526 -0.4370 -0.1778
 1469SOL    HW216044   0.707   0.788   2.906 -0.2930 -2.5726  0.4754
 1470SOL     OW16045   3.735   1.099   5.117  0.4624  0.3378  0.2686
 1470SOL    HW116046   3.793   1.066   5.048  0.0498  0.6165 -0.2203
 1470SOL    HW216047   3.675   1.028   5.138  0.5891  0.1993  0.1650
 1471SOL     OW16048   0.047   3.522   6.137  0.1477 -0.3713 -0.8349
 1471SOL    HW116049   0.039   3.554   6.047 -2.5983 -1.3807 -0.9418
 1471SOL    HW216050   4.699   3.500   6.158  0.2602  1.8968  1.9509
 1472SOL     OW16051   1.904   2.576   7.821  0.6050  0.3815 -0.0479
 1472SOL    HW116052   1.910   2.647   7.885 -0.9337 -1.1427  1.8093
 1472SOL    HW216053   1.932   2.622   7.742  3.1561 -1.1599 -0.0107
 1473SOL     OW16054   1.779   1.870   9.829 -0.3044 -0.3997  0.4611
 1473SOL    HW116055   1.699   1.917   9.808 -0.6086 -0.5699  1.2602
 1473SOL    HW216056   1.759   1.778   9.847 -1.0202 -0.2755  0.2593
 1474SOL     OW16057   2.072   2.711   2.827 -0.6836 -0.2568 -0.0488
 1474SOL    HW116058   2.069   2.737   2.736  0.2919  0.9469  0.2656
 1474SOL    HW216059   1.977   2.702   2.839 -0.6767  1.2524  1.1617
 1475SOL     OW16060   2.594   1.997   8.855  0.8234  0.1550 -0.6534
 1475SOL    HW116061   2.601   2.092   8.865  0.0377  0.0167  1.1710
 1475SOL    HW216062   2.677   1.981   8.809  1.0627  2.7653 -1.1852
 1476SOL     OW16063   2.358   4.077  12.635 -0.1215 -0.4540 -0.1301
 1476SOL    HW116064   2.367   3.985  12.609 -0.9867 -0.6434  0.2602
 1476SOL    HW216065   2.303   4.106  12.563  0.9210  1.4729 -0.1381
 1477SOL     OW16066   1.412   2.513  10.820  0.3734  0.0440 -0.4799
 1477SOL    HW116067   1.505   2.535  10.821 -0.2039  2.4061  2.9818
 1477SOL    HW216068   1.382   2.532  10.909  2.7693 -0.4617  0.4395
 1478SOL     OW16069   2.235   2.911   2.951 -0.0922 -0.7170  0.6731
 1478SOL    HW116070   2.165   2.851   2.925  0.1647 -0.2917 -1.0121
 1478SOL    HW216071   2.271   2.940   2.867  0.4008  0.0933  1.1660
 1479SOL     OW16072   0.889   1.033  10.304  0.3092 -0.4252 -0.2404
 1479SOL    HW116073   0.968   0.988  10.334  1.6244  1.3313 -1.0957
 1479SOL    HW216074   0.825   1.021  10.374 -1.3298 -0.2649 -1.7021
 1480SOL     OW16075   3.179   2.466   9.681  0.2629  0.0052  0.0854
 1480SOL    HW116076   3.090   2.501   9.683  0.4854  0.4292  1.9456
 1480SOL    HW216077   3.168   2.371   9.688 -0.2448 -0.0298 -1.0867
 1481SOL     OW16078   4.174   0.957  10.039  0.7440  0.4959  0.4186
 1481SOL    HW116079   4.121   1.023  10.085  0.6729  0.6095  0.1753
 1481SOL    HW216080   4.116   0.941   9.964  0.5258  1.5396  0.3616
 1482SOL     OW16081   0.341   3.872   2.795 -0.0860  0.4315  0.1528
 1482SOL    HW116082   0.246   3.876   2.781 -0.1981  3.6976  2.0741
 1482SOL    HW216083   0.367   3.809   2.728 -0.1788 -1.6352  2.0489
 1483SOL     OW16084   3.462   1.825  16.679  0.1584  0.6965  0.1350
 1483SOL    HW116085   3.525   1.836  16.608  1.0705  0.1330  0.8548
 1483SOL    HW216086   3.506   1.781  16.752  0.6737  2.7517  1.0808
 1484SOL     OW16087   0.542   1.932   7.063 -0.1030 -0.6976  0.0514
 1484SOL    HW116088   0.568   1.918   6.972  1.4092  0.5474  0.2837
 1484SOL    HW216089   0.629   1.942   7.102  0.7418 -2.6988 -1.3747
 1485SOL     OW16090   0.225   2.448   4.569  0.1139 -0.2273  0.4003
 1485SOL    HW116091   0.183   2.389   4.506  0.0794 -1.2341  1.3625
 1485SOL    HW216092   0.157   2.443   4.636 -1.3289  0.5830 -0.9989
 1486SOL     OW16093   1.217   0.242   7.635 -0.2875  0.3392 -0.0920
 1486SOL    HW116094   1.296   0.192   7.616 -0.3183 -0.4006  1.7568
 1486SOL    HW216095   1.221   0.232   7.730 -1.1874 -1.1147 -0.1994
 1487SOL     OW16096   3.951   4.463  11.601  0.1174  0.1829 -0.6642
 1487SOL    HW116097   4.003   4.510  11.536 -0.7201 -0.9015 -2.1153
 1487SOL    HW216098   3.902   4.531  11.646 -1.3260 -0.5107 -1.2070
 1488SOL     OW16099   2.423   4.258   5.984 -0.1129  0.0370 -0.0046
 1488SOL    HW116100   2.362   4.331   5.976 -0.8659 -0.7365 -1.2261
 1488SOL    HW216101   2.366   4.192   6.022  0.1614  0.9351  1.9753
 1489SOL     OW16102   3.267   4.075   7.636  0.3561 -0.2214  0.4879
 1489SOL    HW116103   3.179   4.091   7.601  0.6173 -1.4849 -0.7442
 1489SOL    HW216104   3.239   3.996   7.682 -0.0380 -0.8223 -0.7591
 1490SOL     OW16105   1.751   4.719   5.625 -0.0541  0.9851  0.5503
 1490SOL    HW116106   1.662   4.693   5.647  0.2201 -0.1270  0.3209
 1490SOL    HW216107   1.788   4.643   5.580  0.8615  1.4461  0.5080
 1491SOL     OW16108   3.335   4.435  14.798 -0.3517 -0.0674 -0.5428
 1491SOL    HW116109   3.383   4.443  14.716 -0.6788  1.5039 -0.5775
 1491SOL    HW216110   3.387   4.474  14.868  0.3115 -0.0267 -1.0637
 1492SOL     OW16111   2.844   1.011   3.295 -0.1581 -0.6167  0.1633
 1492SOL    HW116112   2.861   1.071   3.222  2.6708 -0.2288  1.1567
 1492SOL    HW216113   2.759   1.041   3.329  0.1454  0.6872 -0.2315
 1493SOL     OW16114   1.125   0.938  13.315  0.1701  0.4979  0.2951
 1493SOL    HW116115   1.129   0.929  13.220 -0.8465 -0.3671  0.3405
 1493SOL    HW216116   1.032   0.922  13.329  0.5356 -0.2353  1.9388
 1494SOL     OW16117   4.506   2.312  11.055 -0.1514 -0.4715 -0.6889
 1494SOL    HW116118   4.583   2.368  11.049 -0.2529 -0.2967 -0.3532
 1494SOL    HW216119   4.486   2.314  10.962  2.4744  3.0198 -1.1657
 1495SOL     OW16120   3.131   1.818  13.526  0.2087 -0.0925 -0.2580
 1495SOL    HW116121   3.170   1.888  13.473 -0.6574  0.9324  0.4520
 1495SOL    HW216122   3.116   1.762  13.449  1.3238 -1.1757  0.3243
 1496SOL     OW16123   4.588   1.057   8.003 -0.0752 -0.3441  0.6687
 1496SOL    HW116124   4.599   1.023   7.914 -1.2243  0.1899  0.3191
 1496SOL    HW216125   4.548   1.143   7.993  0.9578  0.2430  1.4680
 1497SOL     OW16126   0.283   2.705   4.834  0.6042  0.4720  0.1162
 1497SOL    HW116127   0.249   2.737   4.917 -1.6647 -2.4980  0.3289
 1497SOL    HW216128   0.334   2.783   4.811  0.0827  0.3287 -1.5401
 1498SOL     OW16129   3.781   0.641   3.619 -0.7016  0.3504 -0.0600
 1498SOL    HW116130   3.745   0.666   3.704 -0.8467  0.9680 -0.3058
 1498SOL    HW216131   3.853   0.586   3.650 -1.4430 -0.1866  0.7220
 1499SOL     OW16132   0.724   2.922   1.950  0.0016  0.2825  0.2351
 1499SOL    HW116133   0.812   2.932   1.988  0.1987  0.0994 -0.1742
 1499SOL    HW216134   0.680   2.984   2.008 -0.4277  2.0404 -2.0096
 1500SOL     OW16135   4.310   1.692   6.589  0.3130  0.2172  0.2345
 1500SOL    HW116136   4.304   1.715   6.497  0.7752  1.3698  0.4923
 1500SOL    HW216137   4.403   1.692   6.611 -0.0555 -0.4404  1.7938
 1501SOL     OW16138   0.354   2.060  15.935  0.0970  0.3563 -1.0496
 1501SOL    HW116139   0.400   1.992  15.886  1.6240  0.7156 -0.1347
 1501SOL    HW216140   0.392   2.049  16.022 -0.1180 -0.4295 -1.0621
 1502SOL     OW16141   0.798   4.127  13.061  0.2411 -0.0995  0.0464
 1502SOL    HW116142   0.868   4.193  13.063  1.4880 -1.3451 -2.2389
 1502SOL    HW216143   0.776   4.112  12.969 -0.7901  0.6240  0.1739
 1503SOL     OW16144   2.704   3.425   2.475  0.0267  0.1647  0.0639
 1503SOL    HW116145   2.726   3.382   2.558 -1.7060  1.2908  1.0915
 1503SOL    HW216146   2.723   3.362   2.405  0.9695 -0.2957  0.7301
 1504SOL     OW16147   2.332   0.020  16.530  0.1720 -0.3419  0.2660
 1504SOL    HW116148   2.303   0.083  16.596  1.5196 -0.3762  0.8956
 1504SOL    HW216149   2.426   0.026  16.547  0.1107  0.7406  0.1985
 1505SOL     OW16150   0.059   3.351  17.308  0.7603  0.4736  0.7017
 1505SOL    HW116151   0.124   3.416  17.280 -1.4940  0.9395 -3.4718
 1505SOL    HW216152   4.740   3.405  17.358  0.9795  1.4539 -0.0865
 1506SOL     OW16153   1.354   2.217  11.195  0.0220  0.1272 -0.2877
 1506SOL    HW116154   1.435   2.184  11.155  0.6581 -0.5758  1.5679
 1506SOL    HW216155   1.379   2.229  11.286 -1.0274 -1.2091  0.1781
 1507SOL     OW16156   2.150   1.035   3.373  0.0951  0.2459  0.1480
 1507SOL    HW116157   2.205   0.995   3.305 -0.4047  0.4259 -0.3689
 1507SOL    HW216158   2.082   0.967   3.377  3.2851 -2.7722  3.1059
 1508SOL     OW16159   3.911   1.584   2.180 -0.2016  0.3024 -0.2155
 1508SOL    HW116160   3.977   1.518   2.202  1.9482  2.9802  1.3797
 1508SOL    HW216161   3.862   1.538   2.112 -0.1414 -3.4916  2.3364
 1509SOL     OW16162   0.028   4.582   7.738  0.6212  0.1090  1.0014
 1509SOL    HW116163   0.083   4.652   7.773  0.0673  1.3401 -0.6086
 1509SOL    HW216164   0.029   4.607   7.646  0.9788  0.5126  1.1171
 1510SOL     OW16165   0.868   0.371   2.881 -0.0591 -0.1134 -0.8583
 1510SOL    HW116166   0.825   0.285   2.880 -0.9008  0.2956  0.0310
 1510SOL    HW216167   0.814   0.409   2.812  0.5202 -0.6185 -1.5937
 1511SOL     OW16168   4.318   3.844   4.676  0.2255 -0.6928  0.4460
 1511SOL    HW116169   4.380   3.801   4.735  0.9279 -0.8231 -0.3777
 1511SOL    HW216170   4.336   3.935   4.700 -2.9616 -0.5511  2.3580
 1512SOL     OW16171   1.020   2.637  15.623 -0.6211  0.3150 -0.1590
 1512SOL    HW116172   1.092   2.575  15.612 -0.0080  1.0231 -0.0900
 1512SOL    HW216173   1.030   2.693  15.546  0.5964 -0.4315 -0.5345
 1513SOL     OW16174   2.540   3.000  14.140  0.7269  0.1113 -0.1739
 1513SOL    HW116175   2.452   2.964  14.147 -0.0951  1.8941 -1.5506
 1513SOL    HW216176   2.570   2.987  14.231 -1.5459  0.9245  0.6773
 1514SOL     OW16177   1.789   1.805   7.195  0.6049 -0.3032 -0.4445
 1514SOL    HW116178   1.782   1.885   7.247  0.9782  0.3154 -1.3425
 1514SOL    HW216179   1.821   1.832   7.109 -1.2708  1.5228 -0.5623
 1515SOL     OW16180   2.956   3.710   0.167  0.4421  0.1269  0.1802
 1515SOL    HW116181   3.002   3.784   0.206 -0.9391  1.0002  0.1691
 1515SOL    HW216182   2.877   3.704   0.221  0.1071 -0.8667 -0.4190
 1516SOL     OW16183   3.512   0.256   8.185 -0.0986 -0.4179 -0.0594
 1516SOL    HW116184   3.572   0.186   8.161 -0.2058 -0.1054 -1.2456
 1516SOL    HW216185   3.452   0.262   8.110  1.9480  1.1242 -1.5619
 1517SOL     OW16186   2.004   3.820   3.468 -0.1407  0.0461 -0.1440
 1517SOL    HW116187   2.092   3.798   3.499 -0.1414 -0.1460 -0.2745
 1517SOL    HW216188   1.934   3.771   3.512 -0.1839  0.2817  0.0494
 1518SOL     OW16189   4.616   2.621   1.706 -0.0527  0.4326  0.0692
 1518SOL    HW116190   4.607   2.577   1.621 -0.1737  0.3762  0.1117
 1518SOL    HW216191   4.705   2.599   1.733 -0.6222 -1.0185  0.7567
 1519SOL     OW16192   1.562   1.697   3.937  0.3056  0.3334  0.0804
 1519SOL    HW116193   1.650   1.730   3.921 -0.2855  3.1803  2.7763
 1519SOL    HW216194   1.543   1.666   3.848  2.3897 -1.1170  0.1370
 1520SOL     OW16195   3.073   3.775   1.389  0.3759 -0.4869  0.3148
 1520SOL    HW116196   3.165   3.797   1.405  0.1463  1.9290 -1.6977
 1520SOL    HW216197   3.064   3.689   1.431 -0.2102  0.2126  1.6200
 1521SOL     OW16198   2.001   3.680  17.631  0.8128  0.2122 -0.0279
 1521SOL    HW116199   2.043   3.610  17.581 -0.5151 -0.7922  0.2763
 1521SOL    HW216200   1.909   3.664  17.611  1.3059 -1.7876 -0.7771
 1522SOL     OW16201   2.518   2.120   5.598 -0.0086 -0.6151 -0.5178
 1522SOL    HW116202   2.492   2.042   5.647 -1.5695  0.4280  0.2899
 1522SOL    HW216203   2.562   2.166   5.669 -2.0300 -1.5451  1.3436
 1523SOL     OW16204   3.303   2.103   6.253 -0.1973  0.4104 -0.5331
 1523SOL    HW116205   3.372   2.143   6.199 -0.3698 -0.0690 -1.1156
 1523SOL    HW216206   3.239   2.079   6.186  0.9684 -2.1057 -0.7553
 1524SOL     OW16207   0.176   0.140  15.097  0.1160 -0.0294 -0.4383
 1524SOL    HW116208   0.210   0.052  15.080  0.9264  0.3842 -0.9764
 1524SOL    HW216209   0.106   0.118  15.158  0.8154 -0.1886  0.2993
 1525SOL     OW16210   0.401   1.049   3.256 -0.1323  0.0495  0.2572
 1525SOL    HW116211   0.350   0.969   3.250 -1.6092  1.0272 -0.2206
 1525SOL    HW216212   0.473   1.024   3.313 -0.8613 -0.6686  0.8478
 1526SOL     OW16213   3.062   1.856   9.286 -0.5080 -0.0569 -0.5237
 1526SOL    HW116214   3.146   1.821   9.315 -1.3189 -2.6830 -1.3333
 1526SOL    HW216215   3.067   1.846   9.191  4.7973  2.3708 -0.4684
 1527SOL     OW16216   2.314   1.183  13.277 -0.3291  0.2427 -0.0609
 1527SOL    HW116217   2.289   1.106  13.225 -0.4122 -1.2471  2.2237
 1527SOL    HW216218   2.284   1.257  13.224  0.0012 -0.1131 -0.7518
 1528SOL     OW16219   4.647   1.798  12.098  0.5532  0.4720 -0.0471
 1528SOL    HW116220   4.691   1.856  12.161  0.8394 -0.4615  0.6059
 1528SOL    HW216221   4.584   1.756  12.156  1.2699 -1.0086 -0.3613
 1529SOL     OW16222   1.665   0.244   7.280  0.6649  0.0163  0.3450
 1529SOL    HW116223   1.573   0.223   7.263  0.5435 -1.2100  2.4674
 1529SOL    HW216224   1.691   0.208   7.195  0.8751  1.0485 -0.0363
 1530SOL     OW16225   4.589   4.535  10.242 -0.1216 -0.3376 -0.4717
 1530SOL    HW116226   4.540   4.607  10.200 -0.4867  0.4790  1.3640
 1530SOL    HW216227   4.663   4.521  10.183  2.5494  2.3548  2.2225
 1531SOL     OW16228   4.048   1.704  17.510  0.2393  0.5505 -0.5374
 1531SOL    HW116229   4.143   1.713  17.518  0.1770 -0.9861  2.1552
 1531SOL    HW216230   4.035   1.615  17.544  1.2905  1.5853  2.6329
 1532SOL     OW16231   3.035   2.114   8.521 -0.8214 -0.3265  0.1922
 1532SOL    HW116232   3.114   2.132   8.471 -1.0633  1.1889  0.3639
 1532SOL    HW216233   3.071   2.047   8.579 -3.0971 -0.5048  1.4204
 1533SOL     OW16234   1.712   0.187  14.012  0.8494 -0.8266 -0.2773
 1533SOL    HW116235   1.798   0.213  14.045  0.7763  0.9408 -1.4729
 1533SOL    HW216236   1.719   0.092  14.013  0.2510 -0.8745 -0.5952
 1534SOL     OW16237   4.366   3.360   9.415  0.2502 -0.0339  0.3832
 1534SOL    HW116238   4.424   3.424   9.374 -1.0128  1.4733  0.9780
 1534SOL    HW216239   4.315   3.414   9.475 -1.3829 -2.1112  0.8702
 1535SOL     OW16240   3.916   3.497   9.290 -0.4020  0.3446  0.1231
 1535SOL    HW116241   3.935   3.587   9.317 -0.1607 -0.2882  2.0634
 1535SOL    HW216242   3.936   3.502   9.196  0.4918 -2.7930  0.1608
 1536SOL     OW16243   0.104   2.937   1.248  0.3019  1.0542  0.0641
 1536SOL    HW116244   0.128   2.874   1.316 -1.2655 -0.1587 -0.5209
 1536SOL    HW216245   0.082   2.877   1.177  0.3995  0.5196  0.4871
 1537SOL     OW16246   4.511   4.523  17.675  0.1432 -0.1938  0.1347
 1537SOL    HW116247   4.518   4.438  17.718  0.1218  0.5699  1.6284
 1537SOL    HW216248   4.516   4.584  17.748  2.4078 -0.4437  0.1710
 1538SOL     OW16249   3.593   0.476   5.789 -0.2347  0.0973  0.4346
 1538SOL    HW116250   3.584   0.383   5.813 -0.3630 -0.2323 -0.8979
 1538SOL    HW216251   3.689   0.481   5.794 -0.2614  0.6163  0.4205
 1539SOL     OW16252   3.836   2.619  16.420  0.7609 -0.5200 -0.0485
 1539SOL    HW116253   3.788   2.592  16.342  2.0595 -0.5877 -0.8206
 1539SOL    HW216254   3.862   2.539  16.465  1.2163  0.6926  1.8675
 1540SOL     OW16255   4.092   3.274   7.496  1.2662  0.3524 -0.0122
 1540SOL    HW116256   4.026   3.342   7.509  0.8252  0.0791 -0.8659
 1540SOL    HW216257   4.148   3.301   7.423 -0.5804  0.2473 -1.4545
 1541SOL     OW16258   0.423   2.075   2.495 -0.1314 -0.8044  0.1222
 1541SOL    HW116259   0.380   2.017   2.558  0.2092 -2.9077 -1.5500
 1541SOL    HW216260   0.487   2.120   2.550 -2.0983  0.5900  1.2348
 1542SOL     OW16261   2.523   2.361  17.007 -0.0162  0.5537  0.6748
 1542SOL    HW116262   2.609   2.320  17.008 -0.2899 -0.0488 -0.5722
 1542SOL    HW216263   2.493   2.353  17.098  0.3460  0.8891  0.8198
 1543SOL     OW16264   1.361   2.732   1.671  0.1008 -0.2868  0.1205
 1543SOL    HW116265   1.442   2.778   1.689 -0.8164  1.3504  0.0749
 1543SOL    HW216266   1.299   2.769   1.734  1.1411  1.2919  0.2191
 1544SOL     OW16267   0.435   0.367  14.219 -0.0143 -0.2614  0.2461
 1544SOL    HW116268   0.449   0.315  14.298  0.0790  2.0914  1.7919
 1544SOL    HW216269   0.406   0.453  14.249 -0.6642 -1.0616  1.8909
 1545SOL     OW16270   4.138   0.489   7.358 -0.3170 -0.0581  0.1099
 1545SOL    HW116271   4.045   0.506   7.342 -0.0208  0.1787 -1.3518
 1545SOL    HW216272   4.142   0.424   7.288  2.2961 -1.3955  1.5130
 1546SOL     OW16273   2.013   0.149   3.830 -0.4719  0.6240 -0.1133
 1546SOL    HW116274   1.999   0.200   3.910 -0.7694  3.0591 -1.7254
 1546SOL    HW216275   2.102   0.177   3.807 -0.4539  2.8578  2.6676
 1547SOL     OW16276   2.658   2.287   0.356  0.0769  0.2228 -0.0521
 1547SOL    HW116277   2.644   2.234   0.278  0.5219  0.1195 -0.0601
 1547SOL    HW216278   2.620   2.371   0.330  0.1288  0.3065  0.1426
 1548SOL     OW16279   3.474   0.029   0.048  0.1347 -0.4073  0.3095
 1548SOL    HW116280   3.427   0.085   0.111  0.7912 -2.0507  2.2688
 1548SOL    HW216281   3.562   0.031   0.085  0.7177 -0.1149 -1.1351
 1549SOL     OW16282   4.064   4.061   3.803  0.1757 -0.2397 -0.3342
 1549SOL    HW116283   4.004   4.098   3.867  1.4414  2.3542 -0.6666
 1549SOL    HW216284   4.009   4.056   3.725 -2.8875  0.1259  1.8124
 1550SOL     OW16285   4.536   4.057  17.268 -0.1544 -0.3769 -0.0307
 1550SOL    HW116286   4.483   4.041  17.347 -0.2713 -2.1993 -0.4855
 1550SOL    HW216287   4.464   4.064  17.205 -0.3320 -1.2209  0.0803
 1551SOL     OW16288   1.330   1.561   8.650  0.1147 -0.2194 -0.0340
 1551SOL    HW116289   1.407   1.540   8.703  1.1389  1.1691 -0.9974
 1551SOL    HW216290   1.382   1.589   8.575 -0.3930 -1.6005 -0.9094
 1552SOL     OW16291   2.478   3.163   5.116  0.3814  0.3767 -0.4019
 1552SOL    HW116292   2.422   3.086   5.118  0.5476  0.2879  1.3913
 1552SOL    HW216293   2.463   3.190   5.207  0.7474  0.1407 -0.2681
 1553SOL     OW16294   0.396   2.352   7.246 -0.4731 -0.0843 -0.3509
 1553SOL    HW116295   0.399   2.306   7.162  0.3658  0.5900 -0.6834
 1553SOL    HW216296   0.468   2.312   7.295 -1.2912 -0.3866  0.6274
 1554SOL     OW16297   3.180   0.276   1.833  0.0194  0.2441 -0.3086
 1554SOL    HW116298   3.273   0.263   1.814  0.2188 -0.7960  1.3736
 1554SOL    HW216299   3.160   0.184   1.850 -3.1215  0.9547 -0.1348
 1555SOL     OW16300   4.419   0.003   0.454 -0.2964  0.2420  0.0296
 1555SOL    HW116301   4.443   0.094   0.472 -0.9703 -0.0441  2.4005
 1555SOL    HW216302   4.357   4.714   0.520  0.2991 -0.0009  0.4768
 1556SOL     OW16303   0.041   2.749   2.498 -0.2740  0.1303  0.7837
 1556SOL    HW116304   0.034   2.662   2.460  0.0294  0.6708 -0.4896
 1556SOL    HW216305   4.697   2.754   2.539 -0.1327 -2.8292  1.4472
 1557SOL     OW16306   2.200   2.009   1.885  0.5478  0.2149  0.4308
 1557SOL    HW116307   2.260   1.999   1.958  1.1573 -1.3816 -0.3096
 1557SOL    HW216308   2.244   1.943   1.832 -0.8966  0.9709 -1.7523
 1558SOL     OW16309   2.619   2.569   3.989  0.2409 -0.0943 -0.2019
 1558SOL    HW116310   2.596   2.490   4.039 -3.9084  1.0316 -0.3462
 1558SOL    HW216311   2.535   2.586   3.946  0.8547  1.2939 -0.8320
 1559SOL     OW16312   3.200   0.131  15.434 -0.4266 -0.0677  0.2666
 1559SOL    HW116313   3.154   0.087  15.505 -0.7351 -1.5860 -0.8842
 1559SOL    HW216314   3.151   0.093  15.362 -0.4012 -0.3286  0.3882
 1560SOL     OW16315   0.879   1.333   9.142  0.0892 -0.5015  0.0660
 1560SOL    HW116316   0.854   1.248   9.106 -1.6740 -0.1985  0.5435
 1560SOL    HW216317   0.844   1.396   9.079 -1.9923  0.6468  2.3986
 1561SOL     OW16318   2.188   2.819   1.718 -0.4142 -0.8152 -0.2783
 1561SOL    HW116319   2.207   2.839   1.626  0.5815 -0.3352  0.0296
 1561SOL    HW216320   2.149   2.733   1.706  0.7637 -1.3228 -0.4835
 1562SOL     OW16321   1.305   3.136   5.998  0.4472 -0.5974 -0.0349
 1562SOL    HW116322   1.311   3.195   6.073 -2.2513 -1.6091  0.9781
 1562SOL    HW216323   1.261   3.181   5.925  0.7673 -1.1280 -0.5472
 1563SOL     OW16324   2.045   2.236  11.405 -0.1146  0.2945  0.2150
 1563SOL    HW116325   2.060   2.165  11.467  1.8638  0.3777 -0.1432
 1563SOL    HW216326   2.130   2.250  11.363 -0.7472  1.3779 -0.6879
 1564SOL     OW16327   2.809   4.054   5.319 -0.2106 -0.0707  0.1620
 1564SOL    HW116328   2.803   3.959   5.326 -0.6336 -0.2308 -2.3792
 1564SOL    HW216329   2.898   4.070   5.349  0.6843 -1.2480 -1.8819
 1565SOL     OW16330   2.572   2.127   0.123  0.1136 -0.5244 -0.6587
 1565SOL    HW116331   2.650   2.074   0.130  0.7643  0.2747 -1.7853
 1565SOL    HW216332   2.585   2.137   0.028  0.5373 -2.7698 -0.8314
 1566SOL     OW16333   2.469   2.830  12.397  0.0890  0.0620 -0.1427
 1566SOL    HW116334   2.405   2.860  12.332 -0.3229  1.7464  1.0448
 1566SOL    HW216335   2.453   2.885  12.473  0.2494 -2.6048  1.8295
 1567SOL     OW16336   0.182   3.278   4.370 -0.0887  0.8810  0.2740
 1567SOL    HW116337   0.235   3.309   4.296  1.2040 -0.3336  0.6734
 1567SOL    HW216338   0.197   3.185   4.354 -1.8335  0.5569  0.5983
 1568SOL     OW16339   3.387   2.654   1.505  0.1362  0.1814  0.5886
 1568SOL    HW116340   3.388   2.560   1.490  0.8065  0.7679 -2.8815
 1568SOL    HW216341   3.296   2.670   1.531 -0.0632  1.9243 -1.1812
 1569SOL     OW16342   4.505   2.717  15.551 -0.2043 -0.0340 -0.4556
 1569SOL    HW116343   4.479   2.809  15.545 -2.1566 -0.4497  1.6738
 1569SOL    HW216344   4.418   2.677  15.550 -0.2592  0.1277 -2.6882
 1570SOL     OW16345   3.410   3.161   1.251 -0.1150 -0.4451 -0.0287
 1570SOL    HW116346   3.459   3.078   1.248  0.1623 -0.2277 -1.4766
 1570SOL    HW216347   3.437   3.196   1.166 -2.6203 -1.0437 -1.0655
 1571SOL     OW16348   1.155   1.030   9.563 -0.1310 -0.0849 -0.3944
 1571SOL    HW116349   1.242   1.003   9.593 -0.9739 -2.3871 -0.0413
 1571SOL    HW216350   1.143   0.948   9.515 -0.8483  0.5713 -1.3087
 1572SOL     OW16351   3.195   1.302  12.247 -0.8358  0.0087 -0.3880
 1572SOL    HW116352   3.247   1.353  12.185  0.3031  1.1280  1.4976
 1572SOL    HW216353   3.235   1.312  12.333 -0.3878 -1.1781 -0.4544
 1573SOL     OW16354   0.527   3.622   3.196 -0.5061  0.4359  0.7098
 1573SOL    HW116355   0.492   3.553   3.140 -1.3257  2.1635 -0.9094
 1573SOL    HW216356   0.478   3.691   3.152 -0.8868  0.8878  1.8451
 1574SOL     OW16357   3.859   0.486   3.393  0.1897  0.2080 -0.6643
 1574SOL    HW116358   3.818   0.547   3.331 -0.1007  0.1248 -0.5537
 1574SOL    HW216359   3.782   0.442   3.429  0.8114 -0.6808 -0.4141
 1575SOL     OW16360   3.188   3.209   6.675 -0.2976 -0.3590  0.2330
 1575SOL    HW116361   3.207   3.182   6.585  0.0199  0.1003  0.1669
 1575SOL    HW216362   3.106   3.257   6.668  1.0918  2.1604  1.4377
 1576SOL     OW16363   2.378   2.909   7.277  0.1195  1.0024 -0.5239
 1576SOL    HW116364   2.433   2.985   7.258  1.3215  0.4530  0.7878
 1576SOL    HW216365   2.362   2.887   7.185 -0.4572  2.2728 -0.7247
 1577SOL     OW16366   1.623   2.697   5.054 -0.1451 -0.7265  0.2496
 1577SOL    HW116367   1.694   2.638   5.079  1.2213  0.4098 -0.9492
 1577SOL    HW216368   1.578   2.627   5.007 -2.0561 -1.2851  2.8866
 1578SOL     OW16369   0.688   1.835   7.817  0.7209 -0.3048  0.6153
 1578SOL    HW116370   0.668   1.754   7.770  1.2562  0.7225 -1.3898
 1578SOL    HW216371   0.747   1.875   7.752  2.2038  0.0959  2.1978
 1579SOL     OW16372   2.220   0.118  17.623 -0.1234 -0.2952 -0.2371
 1579SOL    HW116373   2.255   0.092  17.708 -2.3876 -1.2689  0.3940
 1579SOL    HW216374   2.184   0.038  17.585  1.2830 -0.2338 -1.6795
 1580SOL     OW16375   1.917   0.309  14.150 -0.1113 -0.1658  0.3708
 1580SOL    HW116376   2.012   0.313  14.163  0.4410 -1.6418 -3.3314
 1580SOL    HW216377   1.879   0.334  14.234 -1.1477  0.4104 -0.2701
 1581SOL     OW16378   0.821   3.760  14.160  0.3175  0.3220  0.0594
 1581SOL    HW116379   0.785   3.845  14.185 -0.1312  0.1572 -0.0276
 1581SOL    HW216380   0.758   3.690  14.178  0.2617 -0.0920 -1.6789
 1582SOL     OW16381   1.789   2.690   6.324 -0.4927  0.5634  0.2058
 1582SOL    HW116382   1.782   2.595   6.331 -0.1100  0.4809 -0.5519
 1582SOL    HW216383   1.696   2.710   6.324  0.2442  3.9403  1.0421
 1583SOL     OW16384   4.066   2.593   3.325  0.2086 -0.3361  0.5634
 1583SOL    HW116385   4.076   2.606   3.230 -2.8256 -0.0514  0.2883
 1583SOL    HW216386   4.141   2.639   3.363  0.8902 -1.3892  0.4997
 1584SOL     OW16387   2.027   4.538   8.180  0.3040  0.4473  0.1508
 1584SOL    HW116388   1.995   4.453   8.150  0.4298 -0.1804  1.7656
 1584SOL    HW216389   1.963   4.553   8.250 -0.4708  2.4442 -0.9744
 1585SOL     OW16390   4.120   1.912   8.476  0.0991  0.6928 -0.0877
 1585SOL    HW116391   4.136   2.005   8.492  0.1359  0.8877 -1.3042
 1585SOL    HW216392   4.170   1.884   8.553 -0.4381  0.9060  0.3385
 1586SOL     OW16393   3.804   2.254   5.918 -0.3726  0.2180  0.5865
 1586SOL    HW116394   3.794   2.339   5.875  1.0201  0.0409 -0.0747
 1586SOL    HW216395   3.868   2.213   5.861 -1.9065 -1.9613  0.4299
 1587SOL     OW16396   2.742   0.703  12.109 -0.1285 -0.1253  0.4803
 1587SOL    HW116397   2.728   0.612  12.133  0.7140 -0.1610  0.8377
 1587SOL    HW216398   2.709   0.694  12.019 -1.8003 -0.3278  1.1223
 1588SOL     OW16399   0.601   4.314   8.391 -0.2272  0.6242 -0.3981
 1588SOL    HW116400   0.607   4.409   8.390 -1.6165  0.6975 -2.4931
 1588SOL    HW216401   0.678   4.285   8.343 -0.7108 -0.0025 -0.8037
 1589SOL     OW16402   3.073   3.268  17.738 -0.5788 -0.2033  0.1237
 1589SOL    HW116403   3.150   3.276  17.681 -1.0622 -1.9507 -0.7859
 1589SOL    HW216404   3.087   3.351   0.017  1.6250  0.6081 -2.0805
 1590SOL     OW16405   1.829   2.125   7.748  0.3518 -0.5596 -0.5999
 1590SOL    HW116406   1.839   2.118   7.843 -1.1557  0.6091 -0.3365
 1590SOL    HW216407   1.863   2.213   7.730 -1.2244  0.3355  0.7464
 1591SOL     OW16408   1.657   3.705   8.616  0.4508 -0.0808 -0.4536
 1591SOL    HW116409   1.612   3.669   8.540  0.1668 -2.1160  0.6842
 1591SOL    HW216410   1.700   3.772   8.563 -0.5018  0.2973 -0.7513
 1592SOL     OW16411   0.700   4.091   8.005 -0.2545  0.1366 -0.4866
 1592SOL    HW116412   0.633   4.049   8.059 -0.1834  1.5006  0.6513
 1592SOL    HW216413   0.673   4.047   7.924  0.4872  0.5788 -0.9714
 1593SOL     OW16414   3.253   1.118  11.565  0.7448  0.2051 -0.5061
 1593SOL    HW116415   3.314   1.123  11.639  0.2278 -0.6389 -0.0103
 1593SOL    HW216416   3.235   1.208  11.538 -0.4977  0.3203  0.7152
 1594SOL     OW16417   4.542   1.002  13.281 -0.3541 -0.0910 -0.8141
 1594SOL    HW116418   4.547   0.935  13.213 -1.5766 -1.3863  0.3758
 1594SOL    HW216419   4.631   1.001  13.316 -1.1812 -1.4988  1.1797
 1595SOL     OW16420   0.774   3.382   8.354 -0.0324  0.3314 -0.1387
 1595SOL    HW116421   0.702   3.446   8.357 -0.8824 -0.6298 -0.1565
 1595SOL    HW216422   0.768   3.326   8.432 -1.2570  0.0667 -0.4175
 1596SOL     OW16423   1.709   4.451   7.582 -0.5500 -0.0761  0.1548
 1596SOL    HW116424   1.748   4.525   7.536 -2.4815  1.6020  1.1696
 1596SOL    HW216425   1.721   4.382   7.517  0.3329 -0.2613  0.5228
 1597SOL     OW16426   1.799   1.676   6.866  0.1660 -0.2351  0.0683
 1597SOL    HW116427   1.707   1.651   6.869 -0.5339  2.0520 -2.1722
 1597SOL    HW216428   1.820   1.594   6.910  0.0422 -0.1504  0.2870
 1598SOL     OW16429   4.706   3.683  16.653 -0.2994 -0.2885  0.4178
 1598SOL    HW116430   4.660   3.678  16.569  0.3581  1.2562 -0.0407
 1598SOL    HW216431   0.054   3.663  16.627  0.0707 -0.1278  1.5448
 1599SOL     OW16432   4.401   2.272   5.435 -0.0333 -0.1303 -0.1335
 1599SOL    HW116433   4.361   2.356   5.457 -1.8302 -0.4812 -2.0092
 1599SOL    HW216434   4.365   2.250   5.349  0.8809  1.4840 -0.9313
 1600SOL     OW16435   2.862   2.082  10.692 -0.1592 -0.3862  0.3447
 1600SOL    HW116436   2.794   2.034  10.739  0.2355 -1.8506 -0.5690
 1600SOL    HW216437   2.819   2.093  10.607 -1.2657 -0.7227  0.8592
 1601SOL     OW16438   2.168   3.094   0.129  0.3089 -0.2477  0.3174
 1601SOL    HW116439   2.107   3.032   0.091  0.1105  0.9583 -1.3432
 1601SOL    HW216440   2.162   3.078   0.223  2.0945  0.1138  0.5026
 1602SOL     OW16441   4.475   0.411  15.875 -0.0792  0.1321 -0.0243
 1602SOL    HW116442   4.406   0.382  15.935  1.9749 -3.9244  0.4187
 1602SOL    HW216443   4.423   0.468  15.818  2.5075  1.2276 -1.2618
 1603SOL     OW16444   1.728   0.044   8.630  0.5770 -0.3635 -0.4713
 1603SOL    HW116445   1.695   4.729   8.700 -1.0341  1.6485  0.4093
 1603SOL    HW216446   1.752   0.118   8.686  1.0614 -0.7986 -0.0990
 1604SOL     OW16447   1.374   2.786   7.433 -0.7205 -0.3526 -0.2796
 1604SOL    HW116448   1.350   2.693   7.429 -1.6941 -0.0734 -0.8657
 1604SOL    HW216449   1.466   2.777   7.409  0.1767  1.3340  2.4684
 1605SOL     OW16450   1.219   2.960   4.232 -0.1683 -0.3342  0.8759
 1605SOL    HW116451   1.190   2.997   4.149 -0.9836  0.8095  1.6551
 1605SOL    HW216452   1.312   2.983   4.227 -0.3185 -0.2262 -1.4003
 1606SOL     OW16453   2.016   0.197  11.903 -0.1215  0.3804  0.0412
 1606SOL    HW116454   2.088   0.169  11.960  0.4646  1.4455 -0.1735
 1606SOL    HW216455   1.941   0.144  11.933  0.8069 -1.6069 -1.1529
 1607SOL     OW16456   3.578   4.432   3.988  0.4771 -0.1423  0.7266
 1607SOL    HW116457   3.631   4.409   4.064 -1.3358 -0.4883  1.8842
 1607SOL    HW216458   3.523   4.499   4.029 -0.7112 -0.6035 -0.1171
 1608SOL     OW16459   2.107   0.990   8.966  0.3717  0.1812 -0.4018
 1608SOL    HW116460   2.017   0.999   8.998  0.7598 -0.2101  0.7744
 1608SOL    HW216461   2.153   1.028   9.041 -1.3448 -0.1129  0.7950
 1609SOL     OW16462   1.179   1.729   6.893 -0.1367  0.3742 -0.1787
 1609SOL    HW116463   1.220   1.737   6.807 -0.5592  0.3595 -0.3810
 1609SOL    HW216464   1.219   1.803   6.939  0.6500  0.9124 -1.7277
 1610SOL     OW16465   4.409   2.754   5.529 -0.3622  0.0921 -0.7106
 1610SOL    HW116466   4.429   2.808   5.453 -0.1122 -0.1938 -0.8504
 1610SOL    HW216467   4.401   2.818   5.600  0.2908 -0.3558 -0.2344
 1611SOL     OW16468   3.126   3.049   5.922 -0.1508  0.5501  0.2599
 1611SOL    HW116469   3.209   3.026   5.964  0.8160  0.0540 -1.9153
 1611SOL    HW216470   3.167   3.098   5.851 -0.4109  1.7569  0.9515
 1612SOL     OW16471   2.992   3.307   8.423  0.6363 -0.7200  0.1782
 1612SOL    HW116472   2.991   3.278   8.332  0.3035  0.7739 -0.2796
 1612SOL    HW216473   3.009   3.400   8.413  0.6393 -0.8227 -0.7594
 1613SOL     OW16474   0.554   1.631   8.907  0.3283 -0.5086 -0.6800
 1613SOL    HW116475   0.490   1.670   8.848  0.2626  1.6236  0.8184
 1613SOL    HW216476   0.531   1.661   8.995  0.1982 -2.4226 -0.0552
 1614SOL     OW16477   3.233   3.595   3.662 -0.1801  0.0535  0.1111
 1614SOL    HW116478   3.215   3.526   3.726  2.1930 -1.5511 -0.9159
 1614SOL    HW216479   3.265   3.541   3.590  1.8199  0.4647  0.6711
 1615SOL     OW16480   0.642   2.447   9.182 -0.9450  0.2026  0.3791
 1615SOL    HW116481   0.566   2.402   9.145 -0.2529 -1.9613  1.6098
 1615SOL    HW216482   0.645   2.411   9.271  1.1725  0.0125  0.2340
 1616SOL     OW16483   3.036   1.050   7.935  0.6148 -0.2071 -0.2462
 1616SOL    HW116484   3.057   0.959   7.914 -1.4001 -0.5380 -0.9046
 1616SOL    HW216485   2.941   1.044   7.952  0.8658 -1.4582  0.7752
 1617SOL     OW16486   4.108   4.369   4.360  0.8679  0.4169  0.0335
 1617SOL    HW116487   4.112   4.431   4.433 -1.0187  2.4671 -1.6300
 1617SOL    HW216488   4.191   4.387   4.315  1.2033 -0.9414  0.0994
 1618SOL     OW16489   4.385   3.274   8.144 -0.3052 -0.2999  0.1125
 1618SOL    HW116490   4.327   3.244   8.213 -1.3014  0.7141 -0.2720
 1618SOL    HW216491   4.327   3.248   8.072 -2.1114 -0.5711  1.6678
 1619SOL     OW16492   0.582   3.775   7.693  1.1342 -0.0932  0.1066
 1619SOL    HW116493   0.517   3.845   7.698  0.2152 -1.1672  3.3741
 1619SOL    HW216494   0.528   3.696   7.687  3.0398 -1.3921 -0.0541
 1620SOL     OW16495   2.513   3.708   5.400 -0.2929 -0.4657 -0.2219
 1620SOL    HW116496   2.449   3.673   5.339  0.2856 -0.4520 -0.8450
 1620SOL    HW216497   2.467   3.695   5.483  0.4311  3.2253  0.7491
 1621SOL     OW16498   2.864   1.714   2.946 -0.0840  0.7761 -0.3751
 1621SOL    HW116499   2.930   1.784   2.950  0.9261 -0.2457  0.5993
 1621SOL    HW216500   2.791   1.754   2.994  0.7336  1.3248  0.4089
 1622SOL     OW16501   3.128   1.987   6.052  0.2219 -0.1375 -0.0789
 1622SOL    HW116502   3.066   2.052   6.019  1.0151  1.0750  0.8065
 1622SOL    HW216503   3.148   1.944   5.969  0.3450  0.0517 -0.1488
 1623SOL     OW16504   2.574   1.837   3.461  0.1923  0.5194  0.0763
 1623SOL    HW116505   2.621   1.900   3.406 -0.3563  1.2015  0.3877
 1623SOL    HW216506   2.494   1.890   3.459 -0.7214 -0.7296  3.2806
 1624SOL     OW16507   0.740   2.890  13.626  0.0105  0.9424  0.4350
 1624SOL    HW116508   0.816   2.852  13.670 -0.9812 -0.1033  1.2541
 1624SOL    HW216509   0.689   2.929  13.697 -1.0010  3.3669 -1.6451
 1625SOL     OW16510   0.364   2.374   2.801  0.1213  1.2334  0.1611
 1625SOL    HW116511   0.339   2.434   2.871  2.0409  0.4145  1.5406
 1625SOL    HW216512   0.402   2.299   2.845  0.0157 -0.1575 -2.0928
 1626SOL     OW16513   3.343   1.095   9.237  0.0789  0.4337 -0.1535
 1626SOL    HW116514   3.432   1.095   9.202  0.0060 -1.4801 -0.3414
 1626SOL    HW216515   3.301   1.073   9.154  1.6769 -0.1890 -0.8027
 1627SOL     OW16516   1.339   4.258   5.292 -0.1998 -0.1200  0.5328
 1627SOL    HW116517   1.364   4.215   5.210 -0.6014  1.6960 -0.5429
 1627SOL    HW216518   1.399   4.225   5.359  2.2786  0.7447 -1.2845
 1628SOL     OW16519   4.243   1.161   6.014 -0.2389  0.2436 -0.0978
 1628SOL    HW116520   4.295   1.128   6.087 -1.4862 -0.6478  0.3996
 1628SOL    HW216521   4.266   1.081   5.967  0.2875  0.6939 -0.5983
 1629SOL     OW16522   0.181   0.108   1.467 -0.0547  0.4734  0.6235
 1629SOL    HW116523   0.120   0.119   1.394  3.0842 -0.0125 -2.0606
 1629SOL    HW216524   0.261   0.154   1.440 -0.2783  0.6345  0.2358
 1630SOL     OW16525   3.640   1.748  16.881 -0.6294  0.3039  0.4965
 1630SOL    HW116526   3.615   1.776  16.969 -3.6194 -1.1739  0.1170
 1630SOL    HW216527   3.734   1.767  16.882 -0.2870 -1.4079  0.4441
 1631SOL     OW16528   2.170   1.849  14.391  0.2043  0.0627  0.5051
 1631SOL    HW116529   2.174   1.928  14.337  0.7551  1.2168  2.2401
 1631SOL    HW216530   2.248   1.861  14.444  0.3856  0.1970  0.2083
 1632SOL     OW16531   4.340   2.087   6.333  0.4693 -0.4167  0.8133
 1632SOL    HW116532   4.277   2.139   6.383 -0.4584  0.8877 -1.7437
 1632SOL    HW216533   4.427   2.109   6.366  0.1773 -2.1377  2.7256
 1633SOL     OW16534   4.645   1.596   2.358 -0.6800 -0.1844  0.9224
 1633SOL    HW116535   4.554   1.567   2.357 -0.8389  0.3180 -0.6489
 1633SOL    HW216536   4.632   1.675   2.410 -0.5065  1.2147 -1.1481
 1634SOL     OW16537   3.106   3.494   0.104 -0.2507  0.1136 -0.2009
 1634SOL    HW116538   3.051   3.563   0.141  0.9413  0.2322  1.3580
 1634SOL    HW216539   3.191   3.536   0.089  1.6305 -2.8587  2.1325
 1635SOL     OW16540   3.718   3.766   1.472  0.0050 -0.2970  0.1994
 1635SOL    HW116541   3.643   3.826   1.478 -0.6828 -0.8710 -2.4694
 1635SOL    HW216542   3.765   3.806   1.399  0.2160  0.0484  0.5299
 1636SOL     OW16543   3.270   3.101   0.458 -0.4967  0.6108 -0.0958
 1636SOL    HW116544   3.177   3.086   0.440 -1.0660  0.8782  2.6072
 1636SOL    HW216545   3.278   3.194   0.438 -0.5832  0.3852 -1.2314
 1637SOL     OW16546   1.432   1.241   1.455 -0.9127  0.1032  0.1597
 1637SOL    HW116547   1.439   1.170   1.391  2.8111 -1.0150  1.8354
 1637SOL    HW216548   1.524   1.266   1.455 -0.6759 -0.7838  0.7321
 1638SOL     OW16549   3.432   1.325   4.765  0.0158  0.2699  0.3248
 1638SOL    HW116550   3.480   1.317   4.848 -0.5980 -4.2058  0.2447
 1638SOL    HW216551   3.507   1.336   4.707 -1.9107  1.6988 -1.9256
 1639SOL     OW16552   1.309   2.438   2.372  0.1828  0.3275 -0.2290
 1639SOL    HW116553   1.362   2.385   2.431 -3.0709 -2.3507  0.2890
 1639SOL    HW216554   1.219   2.407   2.382 -0.4822  1.4455 -2.8264
 1640SOL     OW16555   0.452   1.225  12.096  0.1838 -0.0250 -0.4765
 1640SOL    HW116556   0.391   1.291  12.129  1.9119  1.4129 -0.1213
 1640SOL    HW216557   0.474   1.271  12.014  1.5675 -1.2351 -0.7864
 1641SOL     OW16558   2.789   0.941   1.871 -0.1019  0.1281  0.1235
 1641SOL    HW116559   2.855   0.911   1.934 -0.1311  1.3949  0.7590
 1641SOL    HW216560   2.737   0.995   1.931  2.7979  2.2072  0.7708
 1642SOL     OW16561   1.381   2.749  17.048 -0.4456  0.1985  0.0362
 1642SOL    HW116562   1.454   2.763  17.109 -0.2802  1.0461 -0.3471
 1642SOL    HW216563   1.422   2.774  16.965  1.2442 -0.3385  0.7180
 1643SOL     OW16564   2.601   2.176  17.633  0.4031  0.1911 -0.1932
 1643SOL    HW116565   2.526   2.172  17.573  0.9473  0.6783 -0.9034
 1643SOL    HW216566   2.608   2.270  17.649  2.3791  0.3166 -1.7917
 1644SOL     OW16567   3.494   0.454   4.937 -0.4119 -0.2435  0.0408
 1644SOL    HW116568   3.524   0.467   5.027 -1.1389 -0.5432  0.3254
 1644SOL    HW216569   3.441   0.374   4.937  0.3918 -0.7666 -0.8614
 1645SOL     OW16570   4.605   0.058  11.706  0.2506  0.0638  0.1394
 1645SOL    HW116571   4.552   0.012  11.642 -0.5399 -1.4833  1.9230
 1645SOL    HW216572   4.536   0.097  11.759  2.3522  2.4066  1.1856
 1646SOL     OW16573   0.441   0.685   2.070 -0.0999 -0.4252 -0.4767
 1646SOL    HW116574   0.381   0.678   2.145  1.9840  0.8331  1.3155
 1646SOL    HW216575   0.499   0.610   2.069 -0.8470 -1.0273  0.6595
 1647SOL     OW16576   1.486   1.244   4.949  0.0675 -0.7436  0.2493
 1647SOL    HW116577   1.565   1.229   5.000  1.9711  0.3771 -2.3976
 1647SOL    HW216578   1.439   1.318   4.989 -0.6320 -1.2611  0.3773
 1648SOL     OW16579   0.412   1.137   1.122 -0.4092 -0.4345 -0.6525
 1648SOL    HW116580   0.506   1.123   1.128  0.0380  2.5553 -0.7210
 1648SOL    HW216581   0.412   1.232   1.129  0.5302 -0.5478  0.7322
 1649SOL     OW16582   1.221   1.613   1.369  0.0321 -0.4073  0.5399
 1649SOL    HW116583   1.148   1.674   1.378  0.3607  0.2273 -1.2482
 1649SOL    HW216584   1.276   1.630   1.446  1.4115  2.9726 -1.2004
 1650SOL     OW16585   4.050   2.395   4.155  0.7289  0.4899  0.2867
 1650SOL    HW116586   4.054   2.391   4.060  1.4467 -2.1632  0.4285
 1650SOL    HW216587   4.040   2.303   4.179  2.4278  0.3950  0.6276
 1651SOL     OW16588   4.170   4.303  11.586 -0.7566 -0.2076  0.2340
 1651SOL    HW116589   4.107   4.364  11.624 -1.7070 -1.8821  1.3073
 1651SOL    HW216590   4.171   4.230  11.648  1.5325 -0.9828 -0.7297
 1652SOL     OW16591   0.510   0.959  15.997  0.1234 -0.3818 -0.4646
 1652SOL    HW116592   0.562   1.006  16.062 -1.5464 -0.5031  0.9741
 1652SOL    HW216593   0.432   1.013  15.998  1.0642  0.9832 -1.5027
 1653SOL     OW16594   4.144   2.998   8.860 -0.5784  0.0713  0.2032
 1653SOL    HW116595   4.069   3.044   8.898 -0.1816  0.9298 -0.0517
 1653SOL    HW216596   4.112   2.949   8.785 -1.2161  1.8055 -0.6462
 1654SOL     OW16597   4.172   4.545   1.732  0.4055  0.4793  0.3794
 1654SOL    HW116598   4.093   4.595   1.713  0.6248  0.7746  0.2379
 1654SOL    HW216599   4.239   4.585   1.676 -0.3574  1.3406  0.0986
 1655SOL     OW16600   1.293   0.499   0.355 -0.1281 -0.2542  0.0505
 1655SOL    HW116601   1.269   0.497   0.448  1.7417 -2.6278  0.5013
 1655SOL    HW216602   1.278   0.407   0.332  0.1004  0.3902 -2.7142
 1656SOL     OW16603   0.122   0.206   4.385  0.7165 -0.2625  0.1837
 1656SOL    HW116604   0.144   0.114   4.396  0.1697 -0.4537 -0.3132
 1656SOL    HW216605   0.132   0.213   4.290 -2.5823  0.4108 -0.1233
 1657SOL     OW16606   0.122   2.660  16.631  0.2245 -0.0984  0.5567
 1657SOL    HW116607   0.041   2.617  16.659 -1.4453  3.4653  1.2156
 1657SOL    HW216608   0.129   2.635  16.539 -1.1332 -2.4913  1.1022
 1658SOL     OW16609   0.290   4.697   3.477 -0.2074  0.5454 -0.3527
 1658SOL    HW116610   0.363   4.651   3.518 -1.8897 -1.9665 -0.1402
 1658SOL    HW216611   0.207   4.659   3.507 -0.3717  1.1757 -0.0023
 1659SOL     OW16612   0.532   2.662   6.582  0.2699 -0.2410 -0.5087
 1659SOL    HW116613   0.447   2.626   6.605 -0.4371  1.2599 -0.7833
 1659SOL    HW216614   0.504   2.668   6.490 -0.4420  0.9570 -0.1982
 1660SOL     OW16615   1.209   0.749   5.600 -0.0460  0.0246  0.4333
 1660SOL    HW116616   1.213   0.766   5.506 -0.3307 -3.8047 -0.2763
 1660SOL    HW216617   1.274   0.679   5.610 -2.2613 -2.0069  0.5836
 1661SOL     OW16618   1.445   0.713  16.921  0.0348  0.2343  0.0254
 1661SOL    HW116619   1.358   0.725  16.959  0.3827  0.7755  0.6613
 1661SOL    HW216620   1.441   0.767  16.842 -3.4186  0.1836  0.1625
 1662SOL     OW16621   3.182   4.091  10.770 -0.1528 -0.3428  0.0281
 1662SOL    HW116622   3.270   4.127  10.773 -0.0844 -0.3343 -1.7814
 1662SOL    HW216623   3.132   4.153  10.824  0.5081 -0.7895  1.1452
 1663SOL     OW16624   0.554   1.154   5.386  0.0997 -0.6238 -0.1455
 1663SOL    HW116625   0.511   1.127   5.467  2.7219  0.5103  1.6028
 1663SOL    HW216626   0.620   1.213   5.422  1.2776 -2.7894  1.2203
 1664SOL     OW16627   3.839   0.463   4.024 -0.7911 -0.4934  0.4161
 1664SOL    HW116628   3.917   0.430   4.068 -0.5211  0.5189  0.7115
 1664SOL    HW216629   3.768   0.435   4.081 -1.3585  1.3402  0.6147
 1665SOL     OW16630   3.078   4.569   9.889 -0.2568 -0.2064 -0.4037
 1665SOL    HW116631   3.067   4.661   9.914 -2.3174 -0.1481 -1.5165
 1665SOL    HW216632   3.056   4.538   9.977  0.4721 -2.1785 -0.9088
 1666SOL     OW16633   2.688   2.955   1.468 -0.3064 -0.4015  0.3795
 1666SOL    HW116634   2.628   2.973   1.396  0.0317 -0.5997  0.0425
 1666SOL    HW216635   2.733   3.039   1.481  1.5923 -1.4590  0.7749
 1667SOL     OW16636   3.171   1.905  16.005  0.2969 -0.0048  0.9227
 1667SOL    HW116637   3.166   1.901  16.100  0.3543 -0.4989  0.9039
 1667SOL    HW216638   3.103   1.840  15.989 -0.1062  0.5832  0.2831
 1668SOL     OW16639   1.623   2.174   2.603  0.0438  0.0699 -0.0981
 1668SOL    HW116640   1.576   2.256   2.622  0.1426  0.0970  0.0251
 1668SOL    HW216641   1.597   2.163   2.512  0.8275 -0.8280 -0.2036
 1669SOL     OW16642   4.730   4.040   2.825 -0.0620  0.2013 -0.0781
 1669SOL    HW116643   4.719   4.116   2.882 -0.5985  0.6773 -0.8200
 1669SOL    HW216644   4.683   4.066   2.746  0.0653 -0.1906 -0.2844
 1670SOL     OW16645   0.597   2.573   1.813 -0.2226  0.0220 -0.1881
 1670SOL    HW116646   0.641   2.503   1.766 -0.4785 -0.4202  0.2315
 1670SOL    HW216647   0.649   2.650   1.789 -1.9108  1.2024 -0.1333
 1671SOL     OW16648   4.542   3.016  11.064 -0.3691 -0.7770  0.4423
 1671SOL    HW116649   4.616   2.996  11.122  2.1394  2.3102 -1.6472
 1671SOL    HW216650   4.537   3.112  11.066 -0.7471 -0.7844 -0.2670
 1672SOL     OW16651   4.441   3.176  15.291 -0.1486  0.6712 -0.4886
 1672SOL    HW116652   4.350   3.183  15.262 -0.3845 -1.6283 -0.3350
 1672SOL    HW216653   4.483   3.256  15.260  0.4167  1.0085  1.1184
 1673SOL     OW16654   4.338   2.857   0.250  0.2969  0.3440  0.2769
 1673SOL    HW116655   4.282   2.807   0.192  1.7971 -1.2186  0.1998
 1673SOL    HW216656   4.337   2.797   0.324 -2.3266  0.7396  0.5716
 1674SOL     OW16657   3.510   0.799   5.633 -0.4835  0.4671 -0.2224
 1674SOL    HW116658   3.450   0.826   5.703 -0.3898  0.8145 -0.2746
 1674SOL    HW216659   3.575   0.745   5.678  0.6352  1.8159 -0.2194
 1675SOL     OW16660   1.657   2.119   9.203  0.7580  0.1973  0.4478
 1675SOL    HW116661   1.703   2.035   9.208  1.5185  0.6339  0.8916
 1675SOL    HW216662   1.607   2.112   9.122 -1.0320 -1.1135  1.6595
 1676SOL     OW16663   1.985   0.082   4.324 -0.6266  0.1044  0.0644
 1676SOL    HW116664   2.041   0.043   4.391 -0.0789  0.0472 -0.4311
 1676SOL    HW216665   1.920   0.131   4.374  0.3986  1.2009  0.3334
 1677SOL     OW16666   3.483   3.235   9.891 -0.1826 -0.2551  0.0230
 1677SOL    HW116667   3.470   3.320   9.848  0.6356  0.1333  0.5424
 1677SOL    HW216668   3.488   3.266   9.982  0.5885  2.1335 -0.8423
 1678SOL     OW16669   1.591   1.362   6.714 -0.1465  0.1852  0.2323
 1678SOL    HW116670   1.500   1.333   6.711 -0.0618 -0.3096  2.4525
 1678SOL    HW216671   1.619   1.354   6.622  0.9736 -1.7045  0.7415
 1679SOL     OW16672   1.994   3.327   1.891 -0.0305 -0.4224  0.4853
 1679SOL    HW116673   2.072   3.285   1.853 -1.2434 -1.3404 -0.9971
 1679SOL    HW216674   1.994   3.413   1.849  1.1533 -1.4813 -1.6749
 1680SOL     OW16675   0.950   1.302   7.379  0.2935  0.2327  0.2653
 1680SOL    HW116676   0.915   1.372   7.433  2.0385  0.8428  0.6023
 1680SOL    HW216677   0.872   1.258   7.344 -0.3511  1.2586  0.4108
 1681SOL     OW16678   3.813   1.847  14.869 -0.2664 -0.5381  0.2176
 1681SOL    HW116679   3.849   1.917  14.815  0.4676 -2.0015 -1.2022
 1681SOL    HW216680   3.857   1.872  14.951  1.2025 -1.1088 -0.3965
 1682SOL     OW16681   2.745   2.944   5.708  0.1294 -0.4821  0.0371
 1682SOL    HW116682   2.818   2.895   5.746  0.6015  0.6731  0.6252
 1682SOL    HW216683   2.711   2.869   5.659  0.2523 -1.7282  1.8718
 1683SOL     OW16684   1.875   4.003   4.390  0.2715  0.1255 -0.2264
 1683SOL    HW116685   1.838   4.079   4.435  0.9148 -1.1362  2.4145
 1683SOL    HW216686   1.819   4.000   4.312  2.4620 -0.4542 -1.7593
 1684SOL     OW16687   4.440   0.982   9.595 -0.1937 -0.6385  0.1588
 1684SOL    HW116688   4.525   1.026   9.593 -1.0175  0.9203 -0.6022
 1684SOL    HW216689   4.390   1.036   9.656 -0.1372 -1.3072  0.7915
 1685SOL     OW16690   3.094   0.894  13.397 -0.5224 -0.4550  0.0409
 1685SOL    HW116691   3.012   0.897  13.348 -0.5844  0.2142  0.1811
 1685SOL    HW216692   3.082   0.811  13.442 -1.5274 -0.1388  0.3428
 1686SOL     OW16693   1.214   3.116   6.911  0.7419  0.3628 -0.5596
 1686SOL    HW116694   1.122   3.135   6.928  0.3606 -1.4761 -0.5098
 1686SOL    HW216695   1.237   3.134   6.820 -1.0728 -0.8111 -1.2414
 1687SOL     OW16696   2.379   2.925   9.156 -0.5751 -0.0169 -0.4708
 1687SOL    HW116697   2.297   2.975   9.162 -0.7105 -0.2507 -0.3416
 1687SOL    HW216698   2.337   2.842   9.131  0.9440 -1.1326  0.6968
 1688SOL     OW16699   4.556   2.526   4.876  0.4083  0.6093  0.8994
 1688SOL    HW116700   4.563   2.446   4.929  0.0017 -0.9594 -1.4333
 1688SOL    HW216701   4.540   2.580   4.954 -0.8073  0.8859  0.4552
 1689SOL     OW16702   4.558   1.315   4.166  0.3961 -0.3574 -0.1624
 1689SOL    HW116703   4.647   1.300   4.135  0.7515 -1.9232  1.5719
 1689SOL    HW216704   4.535   1.393   4.116 -1.0254 -0.5164  0.2218
 1690SOL     OW16705   0.796   2.709   6.520 -0.1064  0.8001  0.0930
 1690SOL    HW116706   0.797   2.790   6.468 -1.5066  1.5391  1.2387
 1690SOL    HW216707   0.712   2.718   6.564 -0.0815  1.0080  0.0981
 1691SOL     OW16708   1.054   3.220   9.511  1.2472  0.0400  0.2642
 1691SOL    HW116709   0.972   3.222   9.561 -0.2127  0.1357 -2.1696
 1691SOL    HW216710   1.081   3.130   9.524 -1.2229 -0.6473  0.7187
 1692SOL     OW16711   3.419   4.283   8.322  0.1976  0.0371 -0.3301
 1692SOL    HW116712   3.373   4.271   8.405 -0.3903  1.3322 -0.4738
 1692SOL    HW216713   3.499   4.328   8.349  0.9614 -1.3236 -0.3145
 1693SOL     OW16714   1.961   4.410   8.654  0.9976  0.3319 -0.2373
 1693SOL    HW116715   2.035   4.443   8.604 -0.5072  0.5853 -2.2707
 1693SOL    HW216716   1.995   4.398   8.743  0.6924  1.0745 -0.0168
 1694SOL     OW16717   4.559   4.232   6.007 -0.7617 -0.1431  0.2430
 1694SOL    HW116718   4.606   4.153   6.033 -0.4582  0.2465  0.8718
 1694SOL    HW216719   4.612   4.297   6.054 -1.3103  0.1074  0.5087
 1695SOL     OW16720   3.899   1.757   9.763  0.0648  0.5435 -0.2660
 1695SOL    HW116721   3.860   1.710   9.837 -0.8137  3.0501  0.8781
 1695SOL    HW216722   3.989   1.726   9.772 -0.3336 -0.7452 -0.7307
 1696SOL     OW16723   1.589   1.801   1.441 -0.1133 -0.1195 -0.0166
 1696SOL    HW116724   1.683   1.784   1.432  0.5335  2.3118  2.0229
 1696SOL    HW216725   1.545   1.724   1.476  0.3708 -0.4898 -0.2151
 1697SOL     OW16726   0.583   1.764   4.305  0.0534  0.4039 -0.1924
 1697SOL    HW116727   0.630   1.825   4.360  0.8543  0.2859 -0.7399
 1697SOL    HW216728   0.500   1.804   4.281  0.3485  1.3331  0.3759
 1698SOL     OW16729   4.150   1.358   2.982  0.0151  0.4562  0.5828
 1698SOL    HW116730   4.166   1.340   2.890  0.0529  0.7310  0.5378
 1698SOL    HW216731   4.063   1.319   2.997 -0.1737  0.0335 -1.5650
 1699SOL     OW16732   4.608   2.590   8.005 -0.3797 -0.7319  0.0981
 1699SOL    HW116733   4.524   2.544   8.001 -0.2013 -1.0287 -0.2429
 1699SOL    HW216734   4.671   2.520   7.986 -1.5723 -1.8918  0.4302
 1700SOL     OW16735   4.104   0.059   2.383  0.3290 -0.1696 -0.2967
 1700SOL    HW116736   4.183   0.010   2.406  0.3006 -0.0036  0.1483
 1700SOL    HW216737   4.043   0.010   2.439 -0.9676  0.9994 -0.6842
 1701SOL     OW16738   1.770   4.609   6.867  0.4047  0.4771 -0.5670
 1701SOL    HW116739   1.844   4.563   6.828 -1.5244 -0.4583 -3.1049
 1701SOL    HW216740   1.740   4.543   6.929  0.6374  2.6612  1.8913
 1702SOL     OW16741   0.904   0.177   7.786  0.1748  0.3171 -0.2912
 1702SOL    HW116742   0.996   0.150   7.784 -0.3860 -1.5829 -1.0190
 1702SOL    HW216743   0.907   0.225   7.704  0.4043  0.1049 -0.4087
 1703SOL     OW16744   4.737   4.363   5.190 -0.5774  0.0270 -0.2072
 1703SOL    HW116745   0.012   4.373   5.096  2.6442  0.3119  0.4210
 1703SOL    HW216746   0.069   4.414   5.223  0.8442 -0.9502 -1.8910
 1704SOL     OW16747   1.544   2.103   4.362 -0.2021  0.9869  0.8715
 1704SOL    HW116748   1.596   2.042   4.309 -0.7613  1.2585  0.0035
 1704SOL    HW216749   1.539   2.173   4.297 -0.6010 -1.4431 -1.7708
 1705SOL     OW16750   1.743   3.712   0.272 -0.2758 -0.0170  0.1476
 1705SOL    HW116751   1.783   3.683   0.354 -1.5568  0.0905  0.8143
 1705SOL    HW216752   1.820   3.724   0.217  0.1411 -1.5624  0.4002
 1706SOL     OW16753   3.518   4.690   7.727  0.1529  0.0700 -0.5451
 1706SOL    HW116754   3.470   4.611   7.698 -1.1977  0.4209  0.7485
 1706SOL    HW216755   3.452   4.724   7.787  1.1726  2.3538 -0.7600
 1707SOL     OW16756   4.049   0.947   6.520  0.1153  0.0625 -0.1094
 1707SOL    HW116757   4.139   0.915   6.510 -0.5851 -2.8317  2.9035
 1707SOL    HW216758   4.055   1.000   6.599 -0.8487 -0.8834  0.5920
 1708SOL     OW16759   1.837   1.831   7.964  0.4925  0.1155 -0.1633
 1708SOL    HW116760   1.826   1.737   7.976  1.5634  0.4650  3.7119
 1708SOL    HW216761   1.746   1.855   7.981  1.3233  1.7901  2.0162
 1709SOL     OW16762   4.080   3.762   4.579  0.4783  0.7713 -0.5379
 1709SOL    HW116763   4.077   3.741   4.485 -0.9449 -0.8222 -0.1415
 1709SOL    HW216764   4.171   3.758   4.606 -0.1570 -1.6265  1.2840
 1710SOL     OW16765   0.412   0.965  16.658 -0.0312 -0.1480  0.0409
 1710SOL    HW116766   0.447   0.894  16.604 -0.5306  0.6201 -1.2893
 1710SOL    HW216767   0.461   1.041  16.628 -1.1658  2.0283  3.6385
 1711SOL     OW16768   1.408   0.880   9.598 -0.3877 -0.4155 -0.7538
 1711SOL    HW116769   1.410   0.789   9.630  0.3830  1.0506  3.3475
 1711SOL    HW216770   1.478   0.880   9.533 -0.1648  1.3141 -0.4908
 1712SOL     OW16771   4.523   3.707   1.055  0.3355 -0.0587  0.1917
 1712SOL    HW116772   4.465   3.678   1.125 -0.1840  0.5688  0.0115
 1712SOL    HW216773   4.463   3.701   0.981 -0.9850 -1.1107  1.3601
 1713SOL     OW16774   2.372   0.419   5.188 -0.2400  0.0191  0.0363
 1713SOL    HW116775   2.462   0.395   5.166  0.5037  1.7991  1.1364
 1713SOL    HW216776   2.379   0.482   5.260  1.1797  1.5196 -1.4294
 1714SOL     OW16777   3.290   4.083   9.214 -0.1116 -0.4232 -0.1538
 1714SOL    HW116778   3.384   4.070   9.198 -0.4038 -1.9675 -0.6245
 1714SOL    HW216779   3.272   4.015   9.279 -1.0928 -0.9367 -0.9536
 1715SOL     OW16780   0.823   2.797  10.178  0.8003  0.4496 -0.4445
 1715SOL    HW116781   0.793   2.765  10.092  0.5935  2.5162 -1.1409
 1715SOL    HW216782   0.908   2.828  10.146  0.3092  0.9722 -1.2765
 1716SOL     OW16783   4.104   2.182   6.433  0.3750 -0.2085 -0.1127
 1716SOL    HW116784   4.075   2.216   6.518  1.9907  0.9063  0.0022
 1716SOL    HW216785   4.016   2.174   6.395 -0.8074 -0.3809  2.6481
 1717SOL     OW16786   3.542   0.780   7.133 -0.1770 -0.2347  0.2908
 1717SOL    HW116787   3.634   0.804   7.128  0.0268 -1.4865 -1.5146
 1717SOL    HW216788   3.524   0.812   7.222  0.6591  1.7188 -0.2288
 1718SOL     OW16789   4.292   1.719  10.628 -0.1384  0.2188  0.0504
 1718SOL    HW116790   4.266   1.648  10.570  0.3450 -0.2609  0.4221
 1718SOL    HW216791   4.247   1.691  10.708  0.9083 -1.2191  0.1238
 1719SOL     OW16792   2.759   4.091   7.363  0.0174  0.4591  0.4729
 1719SOL    HW116793   2.739   4.159   7.299  1.7176 -0.7210 -1.3098
 1719SOL    HW216794   2.718   4.013   7.327  0.0288  0.1215  1.1726
 1720SOL     OW16795   4.216   2.845   6.124  0.4712 -0.0109 -0.3563
 1720SOL    HW116796   4.238   2.811   6.211  4.1503 -0.4691 -1.5078
 1720SOL    HW216797   4.121   2.836   6.126  0.3730  1.3542  1.8601
 1721SOL     OW16798   2.046   0.603   6.868  0.2117  0.2563 -0.2309
 1721SOL    HW116799   2.057   0.517   6.827 -1.6311 -0.9951  1.9135
 1721SOL    HW216800   2.004   0.647   6.795  1.3264  0.5636 -0.6909
 1722SOL     OW16801   4.188   4.347   6.373  0.5237 -0.2552  0.2951
 1722SOL    HW116802   4.251   4.319   6.307 -1.1108  0.7916 -1.7452
 1722SOL    HW216803   4.243   4.398   6.432  0.6190 -1.0706  0.9068
 1723SOL     OW16804   3.816   2.356  15.444 -0.1233  0.6280 -0.1020
 1723SOL    HW116805   3.772   2.441  15.435 -0.7464  0.3161  0.0342
 1723SOL    HW216806   3.826   2.328  15.353 -1.0255 -0.5694  0.1685
 1724SOL     OW16807   3.512   0.467   9.090  0.4421 -0.0846 -0.1018
 1724SOL    HW116808   3.570   0.535   9.124  1.8098 -0.8808 -0.8119
 1724SOL    HW216809   3.427   0.493   9.123 -0.6333 -0.4189 -2.5843
 1725SOL     OW16810   3.804   4.473   7.441  0.0582 -0.5623  0.4031
 1725SOL    HW116811   3.773   4.513   7.522  2.7107  0.4951  0.9005
 1725SOL    HW216812   3.894   4.505   7.452  0.1153  0.1974 -2.3707
 1726SOL     OW16813   1.826   0.765   2.496  0.1916 -0.2606 -0.2656
 1726SOL    HW116814   1.883   0.832   2.458  1.7576 -1.6678 -0.3639
 1726SOL    HW216815   1.756   0.824   2.526  1.4728  1.2392 -0.2036
 1727SOL     OW16816   3.555   2.623   6.359  0.0169 -0.6317  0.2101
 1727SOL    HW116817   3.505   2.569   6.421 -1.5478 -0.7140 -1.1135
 1727SOL    HW216818   3.645   2.619   6.389  0.7460 -0.3155 -1.9572
 1728SOL     OW16819   1.374   3.744  13.976 -0.4755 -0.4726  0.0331
 1728SOL    HW116820   1.375   3.804  13.901 -2.3615  1.2370  1.3747
 1728SOL    HW216821   1.310   3.681  13.946 -0.3657 -0.5790  0.0211
 1729SOL     OW16822   2.489   1.658   3.091 -0.1183  0.0917 -0.3503
 1729SOL    HW116823   2.518   1.749   3.081 -2.6835  1.0169  0.7563
 1729SOL    HW216824   2.456   1.671   3.180 -1.1463 -1.5184 -0.5010
 1730SOL     OW16825   2.689   4.688  17.121 -0.4213  0.7893  0.6702
 1730SOL    HW116826   2.725   4.603  17.146  0.1946  1.0903  0.7878
 1730SOL    HW216827   2.745   4.693  17.044 -1.1389  1.2071  0.1770
 1731SOL     OW16828   0.972   1.752   1.865  0.1117 -0.4294 -0.7099
 1731SOL    HW116829   1.031   1.709   1.926 -2.4460 -2.2767  0.4804
 1731SOL    HW216830   0.891   1.745   1.916  0.1903  2.6608 -0.1424
 1732SOL     OW16831   1.759   4.213   4.527 -0.0788  0.5727 -0.2084
 1732SOL    HW116832   1.671   4.231   4.495 -0.8867 -2.1921  0.4996
 1732SOL    HW216833   1.811   4.288   4.498 -1.4572  1.1631 -1.1691
 1733SOL     OW16834   1.089   2.117  17.139 -0.2692  0.4087  0.3799
 1733SOL    HW116835   0.997   2.118  17.115 -0.0623 -0.2208 -0.4327
 1733SOL    HW216836   1.100   2.184  17.206  0.8702  1.9690 -1.3386
 1734SOL     OW16837   3.498   2.630   2.703  0.4498 -0.3627 -0.2900
 1734SOL    HW116838   3.539   2.545   2.690  1.3108  0.1896 -1.1878
 1734SOL    HW216839   3.413   2.596   2.731  0.4449  0.0412  0.2066
 1735SOL     OW16840   4.413   4.058   6.766 -1.1566 -0.1936 -0.0588
 1735SOL    HW116841   4.414   4.006   6.847 -1.1211 -0.1942 -0.0598
 1735SOL    HW216842   4.347   4.123   6.791 -0.0710  0.3832  1.3509
 1736SOL     OW16843   4.676   1.165  15.000 -0.2202 -0.0215  0.0963
 1736SOL    HW116844   4.643   1.077  15.018  1.5649 -0.7769 -0.3321
 1736SOL    HW216845   4.602   1.216  14.968  1.1392  1.5805 -0.4945
 1737SOL     OW16846   3.787   2.320   0.413 -0.5267  0.2629  0.5662
 1737SOL    HW116847   3.840   2.305   0.335  1.2173 -0.2106  1.8362
 1737SOL    HW216848   3.830   2.391   0.462 -0.3390 -0.2154  1.0959
 1738SOL     OW16849   4.425   1.897   4.906 -0.0051  0.4777  0.4601
 1738SOL    HW116850   4.367   1.947   4.963  0.3896  0.0827  1.2061
 1738SOL    HW216851   4.457   1.827   4.963 -2.0817 -0.6612  0.2229
 1739SOL     OW16852   2.989   3.775   8.652  0.0466  0.7682  0.1559
 1739SOL    HW116853   3.021   3.705   8.709 -2.0101 -0.9579 -0.8351
 1739SOL    HW216854   2.921   3.792   8.717  0.4487 -3.4015  1.6632
 1740SOL     OW16855   4.450   4.605   1.586 -0.2877  0.0099 -0.0261
 1740SOL    HW116856   4.534   4.644   1.612 -1.4430  0.8373  2.4771
 1740SOL    HW216857   4.460   4.517   1.621 -1.2279  0.2991  0.9738
 1741SOL     OW16858   2.081   0.332  17.512  0.3524  0.0926  0.6648
 1741SOL    HW116859   2.105   0.405  17.568  2.2479 -0.8536  1.0914
 1741SOL    HW216860   2.135   0.267  17.557  0.2404 -1.7707 -1.8317
 1742SOL     OW16861   4.308   1.244   3.180  0.1496  0.1973 -0.2229
 1742SOL    HW116862   4.264   1.319   3.139 -3.6435 -0.7552  2.0331
 1742SOL    HW216863   4.318   1.189   3.102  1.0597  0.3904 -0.2353
 1743SOL     OW16864   0.238   2.402   2.111 -0.2745  0.0097  0.0482
 1743SOL    HW116865   0.276   2.437   2.031 -1.2010  2.7179  0.7835
 1743SOL    HW216866   0.319   2.384   2.159 -1.5134 -2.9037  1.0728
 1744SOL     OW16867   1.340   1.194   7.624 -0.0688 -0.4816  0.1766
 1744SOL    HW116868   1.278   1.156   7.561 -2.8991  2.9557  0.8920
 1744SOL    HW216869   1.361   1.121   7.682  0.7437  1.1524  1.9260
 1745SOL     OW16870   3.568   1.851   2.767 -0.4875  0.3566 -0.5929
 1745SOL    HW116871   3.657   1.823   2.787 -0.8761 -0.1526  0.4266
 1745SOL    HW216872   3.532   1.854   2.856 -0.5124 -0.7884 -0.5731
 1746SOL     OW16873   0.764   2.376   1.692 -0.3980 -0.0033 -0.1890
 1746SOL    HW116874   0.835   2.376   1.627 -0.1096 -2.2684  0.1150
 1746SOL    HW216875   0.762   2.283   1.716 -1.4219  0.1026  0.1116
 1747SOL     OW16876   2.764   1.196   7.668  0.3903 -0.6068 -0.4874
 1747SOL    HW116877   2.832   1.247   7.713 -0.2058  0.3351 -0.6525
 1747SOL    HW216878   2.820   1.144   7.611  0.2831  0.4402 -1.5419
 1748SOL     OW16879   3.798   4.336  15.043  0.3744  0.4465 -0.8639
 1748SOL    HW116880   3.747   4.365  14.967 -0.6498 -1.0058 -0.7349
 1748SOL    HW216881   3.726   4.331  15.106  0.8504 -0.2483 -0.3730
 1749SOL     OW16882   3.017   2.512   7.934 -0.5085 -0.0628 -0.5021
 1749SOL    HW116883   3.017   2.469   8.019 -0.6800 -0.7886 -0.8712
 1749SOL    HW216884   3.051   2.443   7.877 -0.4060 -0.3836 -0.0509
 1750SOL     OW16885   0.465   0.372   4.901  0.3493 -0.4119  0.5977
 1750SOL    HW116886   0.497   0.342   4.816 -2.1137  0.9168 -0.8131
 1750SOL    HW216887   0.542   0.351   4.955 -0.1801  0.8596  1.8620
 1751SOL     OW16888   3.140   0.729   0.927 -0.4997  0.6142 -0.0886
 1751SOL    HW116889   3.191   0.769   0.997  0.9326 -0.2128 -0.6688
 1751SOL    HW216890   3.205   0.716   0.858 -1.4157 -1.7845 -0.5232
 1752SOL     OW16891   4.385   4.433   3.001  0.8682  0.5882  0.9698
 1752SOL    HW116892   4.336   4.357   3.035 -0.5299  1.6699  1.3733
 1752SOL    HW216893   4.390   4.412   2.908  1.2168 -1.2655  1.4068
 1753SOL     OW16894   4.374   1.856  10.056 -0.4398  0.6120  0.0145
 1753SOL    HW116895   4.282   1.847  10.081  0.3464  1.0165  2.9796
 1753SOL    HW216896   4.421   1.870  10.138 -0.8937 -0.9945  0.5471
 1754SOL     OW16897   4.488   1.735   6.116  0.1383  0.2999  0.5862
 1754SOL    HW116898   4.581   1.757   6.108  0.1280 -0.5184 -1.7081
 1754SOL    HW216899   4.485   1.641   6.099 -0.7327  0.6351 -1.1053
 1755SOL     OW16900   1.233   4.326  16.883 -0.4477 -0.2327 -0.1532
 1755SOL    HW116901   1.268   4.241  16.859  1.1223 -0.0167  1.3804
 1755SOL    HW216902   1.215   4.321  16.976  1.5080 -0.2482  0.2238
 1756SOL     OW16903   3.207   2.308  13.831  0.2740  0.1266  0.6545
 1756SOL    HW116904   3.267   2.250  13.784  0.2741 -0.8362  1.8738
 1756SOL    HW216905   3.199   2.273  13.919 -0.3749 -0.5209  0.3348
 1757SOL     OW16906   3.450   0.380   0.416 -0.2355  0.4554 -0.3870
 1757SOL    HW116907   3.375   0.428   0.450 -0.6341 -0.9320  0.6873
 1757SOL    HW216908   3.519   0.410   0.474  0.6441 -1.8560 -0.2302
 1758SOL     OW16909   3.549   1.201   4.370  0.2627 -0.5055 -0.2905
 1758SOL    HW116910   3.501   1.158   4.299 -1.7093 -0.6790  1.1381
 1758SOL    HW216911   3.546   1.139   4.443 -0.8939 -2.7048 -2.2110
 1759SOL     OW16912   4.048   3.835   8.211  0.3079  0.1513 -0.0596
 1759SOL    HW116913   4.041   3.874   8.124 -0.0451 -2.9363 -1.4336
 1759SOL    HW216914   4.123   3.779   8.188  1.1883  1.4845 -0.4244
 1760SOL     OW16915   3.632   0.711  13.579  0.3782  0.3763  0.2230
 1760SOL    HW116916   3.553   0.659  13.561 -0.8665  2.3552 -0.0708
 1760SOL    HW216917   3.688   0.639  13.607  0.5266  0.9339  1.3507
 1761SOL     OW16918   0.120   1.244   5.572  0.3057  0.0188  0.7254
 1761SOL    HW116919   0.154   1.162   5.609 -3.0185 -0.3684  2.9057
 1761SOL    HW216920   0.092   1.286   5.653  0.2331  0.8897  0.2522
 1762SOL     OW16921   2.799   4.138  14.234  0.5421  0.1868 -0.1221
 1762SOL    HW116922   2.760   4.226  14.237  0.2827  0.1071 -1.2713
 1762SOL    HW216923   2.723   4.090  14.201  2.0851 -1.8457 -0.7132
 1763SOL     OW16924   2.466   3.254   5.386  0.5154  0.2105  0.0302
 1763SOL    HW116925   2.519   3.184   5.423  0.0371 -0.3868 -0.4201
 1763SOL    HW216926   2.538   3.318   5.386  2.1582 -1.6575 -3.2548
 1764SOL     OW16927   1.260   1.454   7.621  0.3232  0.8379 -0.7353
 1764SOL    HW116928   1.187   1.473   7.680  1.0072  0.7853  0.1327
 1764SOL    HW216929   1.291   1.365   7.634 -1.7650  0.0175 -1.4348
 1765SOL     OW16930   2.677   3.297   2.725 -0.5931  0.1815 -0.1028
 1765SOL    HW116931   2.651   3.205   2.720 -1.3787  0.2963  1.7832
 1765SOL    HW216932   2.639   3.322   2.810  1.9632 -3.5352  2.1317
 1766SOL     OW16933   1.982   1.898   9.439 -0.0138  0.1191 -0.0520
 1766SOL    HW116934   1.982   1.942   9.524 -0.9710  1.4582 -0.7311
 1766SOL    HW216935   2.011   1.810   9.460  1.3233  0.6449  0.3275
 1767SOL     OW16936   3.264   3.566   6.846  0.0075  0.0310 -0.4821
 1767SOL    HW116937   3.242   3.574   6.938 -0.6960 -0.4338 -0.6165
 1767SOL    HW216938   3.334   3.632   6.846  1.6671 -1.7038 -2.3354
 1768SOL     OW16939   4.086   4.508   5.488 -0.2162 -0.8096  0.4511
 1768SOL    HW116940   4.063   4.435   5.545 -2.2984 -0.3499  0.1757
 1768SOL    HW216941   4.039   4.475   5.412 -0.5957  1.1811 -0.1845
 1769SOL     OW16942   2.728   2.878  12.270  0.1594  0.3777  0.2010
 1769SOL    HW116943   2.796   2.871  12.202 -1.9812 -0.3118 -1.8534
 1769SOL    HW216944   2.700   2.788  12.278 -1.3207  0.7610 -0.7081
 1770SOL     OW16945   1.088   2.629   3.536  0.1998  0.2982 -0.1303
 1770SOL    HW116946   1.069   2.723   3.536  4.7161  1.2249 -0.7827
 1770SOL    HW216947   1.078   2.622   3.630 -2.3456 -1.6077 -0.5634
 1771SOL     OW16948   2.254   3.657   7.714 -0.5246 -0.0951  0.2042
 1771SOL    HW116949   2.266   3.577   7.765  2.6996 -1.7281 -3.1783
 1771SOL    HW216950   2.343   3.691   7.706 -1.8802  2.9377 -1.8829
 1772SOL     OW16951   4.008   3.389   8.468 -0.7855  0.7543  0.2669
 1772SOL    HW116952   3.941   3.320   8.474  0.7895 -1.0418 -2.5012
 1772SOL    HW216953   4.074   3.353   8.527  0.9694 -1.5636 -3.0947
 1773SOL     OW16954   3.207   0.312   5.419 -0.0436 -0.0854  0.3812
 1773SOL    HW116955   3.136   0.293   5.481  0.8035 -0.8159  1.1123
 1773SOL    HW216956   3.279   0.350   5.468 -1.5348 -0.9579  3.2252
 1774SOL     OW16957   2.599   2.452  17.647  0.1343  0.2803  0.0807
 1774SOL    HW116958   2.682   2.498  17.634 -0.3466  0.9025 -0.8045
 1774SOL    HW216959   2.541   2.486  17.578  0.3270  2.5166  1.0361
 1775SOL     OW16960   1.476   0.035   9.112  0.5753  0.6646 -0.0246
 1775SOL    HW116961   1.497   0.025   9.019  0.9605 -0.6228  0.2045
 1775SOL    HW216962   1.521   4.700   9.145  1.7711  1.7183  0.7952
 1776SOL     OW16963   0.609   0.494  16.786 -0.8445  0.2583  0.5190
 1776SOL    HW116964   0.660   0.422  16.748 -0.7691  0.6882 -0.1984
 1776SOL    HW216965   0.633   0.560  16.720  1.1594  0.5324  1.5031
 1777SOL     OW16966   2.311   4.316   1.453 -0.3764 -0.3161  0.4434
 1777SOL    HW116967   2.372   4.370   1.402 -0.5214  0.5550  1.1908
 1777SOL    HW216968   2.314   4.238   1.398  0.9798  0.3628 -0.4565
 1778SOL     OW16969   2.897   4.395   1.265 -0.7249  0.5489  0.5518
 1778SOL    HW116970   2.919   4.322   1.322  1.0767  0.7891  0.1793
 1778SOL    HW216971   2.813   4.368   1.228 -1.7555  1.9613  1.8663
 1779SOL     OW16972   4.502   3.934   7.391  0.2646 -0.5356 -0.4965
 1779SOL    HW116973   4.428   3.991   7.411  0.9021  0.5895 -1.3769
 1779SOL    HW216974   4.476   3.849   7.427 -1.2013  2.1303  4.7623
 1780SOL     OW16975   2.585   3.189  14.421 -0.5611  0.1178  0.3249
 1780SOL    HW116976   2.625   3.103  14.418  3.0985  1.8079  0.2316
 1780SOL    HW216977   2.624   3.232  14.345  0.8678 -0.8608  0.5062
 1781SOL     OW16978   0.774   0.535   7.644  0.3670  0.3611 -0.1995
 1781SOL    HW116979   0.789   0.597   7.573 -0.2983  0.1444 -0.5350
 1781SOL    HW216980   0.816   0.452   7.621  2.1712  1.4185 -0.7023
 1782SOL     OW16981   4.153   1.586  10.827 -0.1572  0.1823 -0.1293
 1782SOL    HW116982   4.181   1.498  10.802 -0.5512 -0.5410  2.0095
 1782SOL    HW216983   4.063   1.565  10.850 -0.2327  2.2380  1.4426
 1783SOL     OW16984   0.215   0.847  15.260 -0.3984 -0.6467  0.3791
 1783SOL    HW116985   0.142   0.791  15.232 -2.3276  0.0489  4.0098
 1783SOL    HW216986   0.260   0.779  15.311  1.2645 -0.8126 -1.3284
 1784SOL     OW16987   2.612   3.144   6.389 -0.3147 -0.1196  0.7905
 1784SOL    HW116988   2.631   3.189   6.470 -1.2147  0.6717  0.5650
 1784SOL    HW216989   2.608   3.216   6.326  0.3981 -1.4910 -0.8400
 1785SOL     OW16990   1.982   2.716  13.811  0.6707  0.1233 -0.3748
 1785SOL    HW116991   2.042   2.725  13.736 -0.0017  0.1810 -0.9111
 1785SOL    HW216992   1.952   2.626  13.802  0.1776  0.1748  0.7624
 1786SOL     OW16993   0.699   2.315   1.360 -0.1584 -0.4253 -0.2758
 1786SOL    HW116994   0.642   2.276   1.293 -1.3157  2.1133 -0.7765
 1786SOL    HW216995   0.727   2.240   1.413  2.0225 -0.3602 -1.3449
 1787SOL     OW16996   2.757   3.329   8.046  0.0429  0.5452  0.0696
 1787SOL    HW116997   2.748   3.399   8.111  1.3268 -0.5194  1.4070
 1787SOL    HW216998   2.672   3.290   8.063  0.1780  0.5905  0.8374
 1788SOL     OW16999   3.054   3.908  13.600 -0.3258 -0.3619 -0.3168
 1788SOL    HW117000   3.112   3.936  13.529 -2.8520  2.5596 -1.2042
 1788SOL    HW217001   3.094   3.829  13.637  1.1967  1.0538  1.0448
 1789SOL     OW17002   4.473   3.935   6.522  0.4234  0.3874  0.2883
 1789SOL    HW117003   4.459   3.988   6.600  1.8489 -0.2437  0.9823
 1789SOL    HW217004   4.566   3.918   6.541  1.1158  1.4186 -2.2056
 1790SOL     OW17005   4.077   2.177   1.382 -0.0113  0.0976  0.1953
 1790SOL    HW117006   4.020   2.226   1.440 -0.0840 -0.5733  0.6896
 1790SOL    HW217007   4.077   2.240   1.310 -1.5499 -0.9125 -0.6863
 1791SOL     OW17008   1.119   0.482   8.472 -0.1467  0.1830  0.2881
 1791SOL    HW117009   1.039   0.445   8.435  0.2075 -0.3372  0.0401
 1791SOL    HW217010   1.079   0.544   8.532 -1.8336  0.5516 -1.2134
 1792SOL     OW17011   3.842   2.507   3.456 -0.2198 -0.4045  0.2942
 1792SOL    HW117012   3.914   2.536   3.401  0.3982  0.4775  1.5633
 1792SOL    HW217013   3.843   2.418   3.420  2.7569 -0.1602 -0.2109
 1793SOL     OW17014   2.127   1.245   6.163  0.2732 -0.2232  0.3417
 1793SOL    HW117015   2.168   1.244   6.076  0.9346 -2.1480  0.6656
 1793SOL    HW217016   2.156   1.327   6.201  1.8344 -1.3438  1.5651
 1794SOL     OW17017   3.695   3.096   0.891  0.3563  0.0975 -0.0133
 1794SOL    HW117018   3.720   3.184   0.863  0.8401  0.2133  0.7876
 1794SOL    HW217019   3.779   3.060   0.918  1.0686  1.7199 -0.0969
 1795SOL     OW17020   0.088   4.465   3.072 -0.3771  0.1066  0.5136
 1795SOL    HW117021   0.171   4.422   3.094 -0.0292  1.2234  1.3893
 1795SOL    HW217022   0.115   4.518   2.997  1.2684  0.6439  1.4968
 1796SOL     OW17023   0.392   2.767   7.083 -0.0361  0.4051  0.2752
 1796SOL    HW117024   0.398   2.834   7.151 -1.4774  2.1932 -1.3293
 1796SOL    HW217025   0.361   2.825   7.013  0.2069 -1.6479 -1.5293
 1797SOL     OW17026   2.896   3.256   8.682  0.1564  0.1451  0.0304
 1797SOL    HW117027   2.806   3.283   8.663 -0.6404  0.1416  3.7461
 1797SOL    HW217028   2.943   3.277   8.602 -1.4756  4.0514  0.0619
 1798SOL     OW17029   4.133   1.598   3.708  0.1712 -0.0433  0.2368
 1798SOL    HW117030   4.135   1.535   3.636 -1.8848  0.7662 -0.5280
 1798SOL    HW217031   4.041   1.589   3.733  0.6731 -0.7748  1.8194
 1799SOL     OW17032   0.409   1.864  12.005 -0.0414  0.1873  0.8905
 1799SOL    HW117033   0.321   1.870  11.969  0.1592  0.4280  0.4350
 1799SOL    HW217034   0.434   1.776  11.977 -0.7645  0.3962 -0.3861
 1800SOL     OW17035   4.614   4.624   7.328  0.0045  0.1968 -0.2162
 1800SOL    HW117036   4.693   4.571   7.343 -0.1594 -0.5242 -1.9133
 1800SOL    HW217037   4.636   4.695   7.387 -0.2446  1.4521 -1.6418
 1801SOL     OW17038   3.517   2.460  10.737  0.5958 -0.1040 -0.1035
 1801SOL    HW117039   3.547   2.395  10.800  2.5959 -0.3160 -1.2810
 1801SOL    HW217040   3.479   2.406  10.667 -1.7587  1.2606  0.1275
 1802SOL     OW17041   2.349   1.873   8.840 -0.3719 -0.6655  0.2377
 1802SOL    HW117042   2.437   1.910   8.827 -0.4585 -0.9628 -1.1892
 1802SOL    HW217043   2.378   1.814   8.910 -0.9802 -0.1065  0.9529
 1803SOL     OW17044   0.386   2.560  10.542 -0.1817 -0.2584 -0.4488
 1803SOL    HW117045   0.343   2.487  10.585 -0.6534  0.8278  0.9258
 1803SOL    HW217046   0.319   2.593  10.482 -0.7698  0.2686  0.4974
 1804SOL     OW17047   3.506   0.123  10.027  0.4508 -0.1977 -0.0221
 1804SOL    HW117048   3.452   0.056  10.068  0.1064 -1.0375 -1.8377
 1804SOL    HW217049   3.588   0.101  10.072 -0.5680  0.7281  2.2527
 1805SOL     OW17050   0.580   1.592   6.819  0.1184  0.0983  0.4620
 1805SOL    HW117051   0.534   1.609   6.736 -1.4313 -2.5604  0.8001
 1805SOL    HW217052   0.589   1.676   6.864 -0.9012  0.5578 -0.1738
 1806SOL     OW17053   1.850   1.746   1.491 -0.2020 -0.3215 -0.3381
 1806SOL    HW117054   1.923   1.742   1.429  0.9081  3.0660  0.7490
 1806SOL    HW217055   1.901   1.762   1.571  1.0635 -1.9094 -0.8190
 1807SOL     OW17056   1.669   0.791   9.081 -0.1255  0.0958 -0.0862
 1807SOL    HW117057   1.739   0.736   9.117 -0.6409 -0.3738  0.2053
 1807SOL    HW217058   1.730   0.860   9.058  0.3274  0.1369  1.3028
 1808SOL     OW17059   3.063   2.695   2.479  0.6604  0.4108  0.1872
 1808SOL    HW117060   2.984   2.730   2.520 -0.8122  0.0463 -2.3024
 1808SOL    HW217061   3.034   2.607   2.456  1.0044  0.7012 -1.4136
 1809SOL     OW17062   1.562   3.188   5.691  0.3339 -0.2397  0.5126
 1809SOL    HW117063   1.557   3.171   5.784 -3.2242 -0.5010  0.2803
 1809SOL    HW217064   1.652   3.220   5.684 -0.5348  2.2012  0.3975
 1810SOL     OW17065   4.151   0.015   7.234  0.5598 -0.3792  0.1790
 1810SOL    HW117066   4.140   0.023   7.329 -0.7098 -0.7635  0.0734
 1810SOL    HW217067   4.222   4.695   7.219  0.5163 -0.7991  1.6619
 1811SOL     OW17068   4.689   0.933   8.928 -0.1979  0.1345  0.4083
 1811SOL    HW117069   0.008   1.002   8.954  1.5606 -0.4085 -2.2943
 1811SOL    HW217070   4.611   0.975   8.891 -0.9885 -3.9420 -2.5775
 1812SOL     OW17071   0.909   0.628   8.647  0.3520  0.5277 -0.1723
 1812SOL    HW117072   0.962   0.688   8.700  0.4367  1.7481 -1.6493
 1812SOL    HW217073   0.822   0.646   8.684 -0.3363  0.8194 -1.9385
 1813SOL     OW17074   1.996   1.344   7.768 -0.8282  0.1319 -0.5490
 1813SOL    HW117075   1.982   1.419   7.710  0.7141  0.5670 -0.3479
 1813SOL    HW217076   2.085   1.311   7.758 -1.2867 -1.1982 -0.1741
 1814SOL     OW17077   3.531   3.893   5.247 -0.6686  0.0441 -0.5366
 1814SOL    HW117078   3.622   3.912   5.223 -0.0814 -0.5585  1.2828
 1814SOL    HW217079   3.499   3.909   5.158 -1.9595  0.9193  0.0859
 1815SOL     OW17080   1.261   0.896   3.234  0.1986 -0.3899 -0.7285
 1815SOL    HW117081   1.255   0.808   3.272 -1.9547  0.6457  1.3243
 1815SOL    HW217082   1.215   0.885   3.152 -2.0619  2.0888  0.2200
 1816SOL     OW17083   2.886   3.475   2.737  0.0720 -0.0657 -0.6512
 1816SOL    HW117084   2.806   3.517   2.769  0.7830  0.5488  0.3220
 1816SOL    HW217085   2.892   3.413   2.809 -1.1177 -0.2042 -0.6583
 1817SOL     OW17086   0.933   3.510   9.839  0.3381  0.4081  0.3965
 1817SOL    HW117087   0.945   3.569   9.914 -1.3166  1.8875 -0.5114
 1817SOL    HW217088   0.843   3.530   9.813  0.4752 -1.0310 -1.1647
 1818SOL     OW17089   3.046   2.113  14.594  0.1035 -0.0851 -0.3786
 1818SOL    HW117090   3.043   2.074  14.507  0.7683 -1.2123  0.1045
 1818SOL    HW217091   2.957   2.144  14.612  0.6592  0.9313  0.6225
 1819SOL     OW17092   2.744   3.639   4.143  0.3481 -0.5698  0.2429
 1819SOL    HW117093   2.776   3.609   4.057  1.1834 -1.9420  1.0182
 1819SOL    HW217094   2.695   3.720   4.133 -0.6754 -1.2896 -0.4990
 1820SOL     OW17095   0.582   4.622  14.499 -0.6118  0.5243 -0.2829
 1820SOL    HW117096   0.652   4.592  14.441 -0.8241 -0.9063  0.2107
 1820SOL    HW217097   0.502   4.574  14.480 -0.9603  0.7394  0.6454
 1821SOL     OW17098   1.448   3.524  10.677 -0.2327  0.5842 -0.3660
 1821SOL    HW117099   1.542   3.511  10.667 -0.3379 -0.5552  0.1138
 1821SOL    HW217100   1.430   3.573  10.597  0.4317  1.2234 -0.1244
 1822SOL     OW17101   3.667   1.880   9.655 -0.1186 -0.4135 -0.0546
 1822SOL    HW117102   3.752   1.858   9.693  0.9431  1.6720 -1.2248
 1822SOL    HW217103   3.655   1.961   9.704 -0.9123 -0.0100 -0.9237
 1823SOL     OW17104   4.505   0.765   9.228  0.1527  0.4114  0.0773
 1823SOL    HW117105   4.568   0.719   9.173 -0.3695  0.2914 -0.4217
 1823SOL    HW217106   4.489   0.841   9.173 -2.0479 -1.2865 -1.6102
 1824SOL     OW17107   0.393   4.710   6.494  0.6842  0.9873 -0.7718
 1824SOL    HW117108   0.416   4.623   6.461  3.2734  1.4876 -0.3466
 1824SOL    HW217109   0.299   4.724   6.489  0.8562  2.0308 -1.1761
 1825SOL     OW17110   1.311   4.302   7.083 -0.2935 -0.0079 -0.3888
 1825SOL    HW117111   1.307   4.213   7.049  0.2609 -0.6214  1.1937
 1825SOL    HW217112   1.345   4.335   6.999 -2.4566 -0.0928 -1.3117
 1826SOL     OW17113   3.399   1.830   9.671 -0.4985  0.1111  0.2067
 1826SOL    HW117114   3.492   1.820   9.655 -0.7241 -1.1552 -0.3144
 1826SOL    HW217115   3.401   1.888   9.748 -0.1283  0.9571 -0.4447
 1827SOL     OW17116   2.619   0.462   1.696  0.0489  0.0254 -0.0303
 1827SOL    HW117117   2.544   0.487   1.642 -0.0730 -0.0408  0.1085
 1827SOL    HW217118   2.684   0.435   1.632  0.0026 -1.7159  0.6717
 1828SOL     OW17119   0.573   4.495   2.358 -0.2816  0.2954 -0.4473
 1828SOL    HW117120   0.573   4.550   2.437 -1.4235  0.3177 -0.4670
 1828SOL    HW217121   0.636   4.429   2.386 -1.4014 -0.3801  0.4700
 1829SOL     OW17122   4.174   2.742   5.851 -0.3381  0.3465 -0.3915
 1829SOL    HW117123   4.084   2.776   5.852  0.0287  1.3814 -1.5973
 1829SOL    HW217124   4.197   2.759   5.942 -0.8370  0.0132 -0.2076
 1830SOL     OW17125   2.185   4.344   1.146 -0.6806  0.1420  0.5901
 1830SOL    HW117126   2.252   4.353   1.079  0.0899 -3.0703  0.9251
 1830SOL    HW217127   2.164   4.434   1.171 -1.8196  0.1128 -0.2699
 1831SOL     OW17128   1.964   2.323   2.635 -0.4735 -0.0683 -0.0281
 1831SOL    HW117129   2.037   2.293   2.581 -0.7839  1.0145 -1.0653
 1831SOL    HW217130   2.008   2.325   2.720  0.1351 -0.5134 -0.3309
 1832SOL     OW17131   0.316   2.815  15.591 -0.2465 -0.5298  0.4846
 1832SOL    HW117132   0.229   2.780  15.573  0.7883 -3.1220  0.3880
 1832SOL    HW217133   0.374   2.739  15.577 -1.2212 -0.9897 -1.0465
 1833SOL     OW17134   0.976   0.621   4.550  0.1312  0.0019  0.2046
 1833SOL    HW117135   0.917   0.658   4.615  0.2874 -1.1793  1.0211
 1833SOL    HW217136   1.056   0.607   4.600  0.0385  0.7965  0.5751
 1834SOL     OW17137   1.856   0.820   3.124  0.5885  0.0577  0.2444
 1834SOL    HW117138   1.841   0.909   3.091  0.4369  0.5551  1.6140
 1834SOL    HW217139   1.874   0.832   3.218 -1.7327  0.2569  0.6537
 1835SOL     OW17140   3.094   2.099  16.924  0.3376 -0.4021 -0.4712
 1835SOL    HW117141   3.181   2.133  16.947  0.4966 -2.0673  1.4090
 1835SOL    HW217142   3.077   2.057  17.008 -2.6221  1.9534  0.0885
 1836SOL     OW17143   4.403   3.401   0.989  0.1984  0.3117 -0.0906
 1836SOL    HW117144   4.365   3.480   0.949 -0.1039 -0.6762 -1.7601
 1836SOL    HW217145   4.484   3.431   1.029  1.0030  0.8234 -2.0741
 1837SOL     OW17146   4.454   0.204   7.318 -0.2333  0.0268 -0.4007
 1837SOL    HW117147   4.423   0.161   7.398 -0.3157 -0.0141 -0.4543
 1837SOL    HW217148   4.522   0.264   7.347  0.3984 -0.3097 -1.1747
 1838SOL     OW17149   0.477   2.887   6.218  0.2439  1.4020  0.5119
 1838SOL    HW117150   0.477   2.792   6.230  1.8070  1.3645  0.1698
 1838SOL    HW217151   0.382   2.898   6.214  0.3295  1.4896 -1.6156
 1839SOL     OW17152   2.671   0.621   5.108  0.5561 -0.0357 -0.0572
 1839SOL    HW117153   2.579   0.610   5.082  0.7139  0.3554 -0.7991
 1839SOL    HW217154   2.710   0.674   5.039  1.3955  1.9730  1.9790
 1840SOL     OW17155   0.810   1.824   2.791 -0.4084 -0.8288  0.2787
 1840SOL    HW117156   0.754   1.892   2.828  2.3053  2.2590 -1.2459
 1840SOL    HW217157   0.867   1.877   2.735 -2.6453  0.2713 -0.9843
 1841SOL     OW17158   1.330   1.842   4.342 -0.5043 -0.2015 -0.4450
 1841SOL    HW117159   1.401   1.901   4.369 -0.7610  0.5219 -1.3259
 1841SOL    HW217160   1.373   1.774   4.291 -2.7786 -1.5116 -0.6234
 1842SOL     OW17161   3.503   1.231  10.088  0.0408  0.2143 -0.0926
 1842SOL    HW117162   3.526   1.142  10.113 -1.1011 -0.1714 -0.4302
 1842SOL    HW217163   3.561   1.273  10.153 -1.5853 -0.2386  1.6613
 1843SOL     OW17164   1.248   1.752   7.865 -0.5863 -0.3621  0.6837
 1843SOL    HW117165   1.220   1.708   7.785  0.0138 -1.9968  1.3618
 1843SOL    HW217166   1.334   1.712   7.880  0.4184  1.6649  0.3230
 1844SOL     OW17167   1.933   3.682   2.611 -0.3111 -0.5371  0.5002
 1844SOL    HW117168   1.930   3.762   2.558  0.4204 -0.3511  0.7383
 1844SOL    HW217169   1.921   3.716   2.700  2.2656 -1.1444  1.0875
 1845SOL     OW17170   1.460   0.044  16.086  0.3563 -0.1587  0.4042
 1845SOL    HW117171   1.379   0.030  16.037 -0.6327  0.9982  1.6967
 1845SOL    HW217172   1.473   0.139  16.078 -1.6787  0.2731  2.2268
 1846SOL     OW17173   0.647   2.509  17.746  0.3364  0.3212  0.5040
 1846SOL    HW117174   0.652   2.522   0.075  1.8494  1.5381  0.2552
 1846SOL    HW217175   0.565   2.462  17.732  0.7302 -1.4736  4.1427
 1847SOL     OW17176   1.650   0.269   2.040  0.1339  0.0365  0.1563
 1847SOL    HW117177   1.588   0.220   2.095  0.3710  2.0570  2.2027
 1847SOL    HW217178   1.729   0.273   2.095  1.6225  1.5129 -2.0877
 1848SOL     OW17179   3.148   2.397   5.462 -0.0195  0.0997 -0.2868
 1848SOL    HW117180   3.112   2.314   5.430 -0.3245  0.6807 -1.4606
 1848SOL    HW217181   3.230   2.381   5.417 -0.5111 -1.3803 -0.6715
 1849SOL     OW17182   1.490   1.946  11.505 -0.0587  0.4220 -0.2424
 1849SOL    HW117183   1.480   1.851  11.512 -0.0258  0.4036 -0.4384
 1849SOL    HW217184   1.486   1.955  11.410 -0.0606  1.0385 -0.1796
 1850SOL     OW17185   0.619   0.094  11.977  0.9627  0.4235  0.2502
 1850SOL    HW117186   0.552   0.028  11.996 -0.6086  1.3006 -2.1524
 1850SOL    HW217187   0.702   0.063  12.014 -0.0038 -1.3466  0.9396
 1851SOL     OW17188   3.820   0.173   7.915  0.1335 -0.4620 -0.1285
 1851SOL    HW117189   3.798   0.123   7.993  0.9325 -0.3386  0.1793
 1851SOL    HW217190   3.864   0.251   7.948 -1.9289  1.4591 -1.9409
 1852SOL     OW17191   3.719   2.989   4.037  0.8780 -0.4319  0.2580
 1852SOL    HW117192   3.718   3.084   4.024 -1.1392 -0.2147  2.0358
 1852SOL    HW217193   3.812   2.984   4.061  1.3745  0.4868 -1.4093
 1853SOL     OW17194   3.123   0.365   0.751  0.3250 -0.1738 -0.1170
 1853SOL    HW117195   3.090   0.281   0.718  1.9723 -1.0470  0.4371
 1853SOL    HW217196   3.211   0.336   0.776  1.4489  1.3384 -2.3535
 1854SOL     OW17197   0.522   4.644   3.131  0.3091  0.3066  0.3976
 1854SOL    HW117198   0.589   4.617   3.068 -1.9807 -1.0099 -1.4545
 1854SOL    HW217199   0.448   4.652   3.072 -0.7064  1.1010  1.7754
 1855SOL     OW17200   0.746   2.169   4.615 -0.1873  0.3373 -0.5008
 1855SOL    HW117201   0.784   2.253   4.641 -0.5234  0.5952 -0.8424
 1855SOL    HW217202   0.653   2.191   4.620 -0.5660 -1.7695  1.5683
 1856SOL     OW17203   0.181   3.802   3.911  0.1752  0.3749  0.4143
 1856SOL    HW117204   0.092   3.804   3.946 -0.9946 -0.6995 -2.5353
 1856SOL    HW217205   0.185   3.718   3.865 -1.5167 -0.5587  2.0159
 1857SOL     OW17206   4.078   3.654   6.208 -0.3909 -0.0952 -0.1057
 1857SOL    HW117207   4.027   3.602   6.145 -0.7868  0.2911 -0.1055
 1857SOL    HW217208   4.085   3.600   6.286  0.1116  1.4121  0.8789
 1858SOL     OW17209   3.965   2.676   7.615  0.1235  0.5537  0.0817
 1858SOL    HW117210   3.932   2.625   7.689  0.6577  1.0199  0.6403
 1858SOL    HW217211   3.922   2.759   7.635 -1.1703 -0.5437  1.8255
 1859SOL     OW17212   2.365   3.305   2.108 -0.1821  0.4260  0.5681
 1859SOL    HW117213   2.296   3.290   2.172  2.4587 -0.4275  3.2231
 1859SOL    HW217214   2.382   3.398   2.101  0.8813  0.1845 -0.1096
 1860SOL     OW17215   0.614   1.167   6.292 -0.0989  0.2754  0.2475
 1860SOL    HW117216   0.694   1.155   6.343  0.5528 -0.0728 -0.8383
 1860SOL    HW217217   0.636   1.254   6.259 -0.8888  1.1487  2.0366
 1861SOL     OW17218   0.575   2.767   8.629 -0.1364 -0.2514  0.2457
 1861SOL    HW117219   0.521   2.820   8.570 -0.3028  0.2553  0.8474
 1861SOL    HW217220   0.658   2.772   8.582  0.4131  0.6617  1.3174
 1862SOL     OW17221   3.903   2.389   3.198 -0.3795 -0.1681  0.1142
 1862SOL    HW117222   3.960   2.464   3.181 -1.4196  0.6289  0.1857
 1862SOL    HW217223   3.818   2.429   3.180 -0.6943 -1.8982 -2.2065
 1863SOL     OW17224   3.351   1.130   7.284 -0.2425  0.3041 -0.1677
 1863SOL    HW117225   3.434   1.113   7.240  0.8227  0.8391  1.6361
 1863SOL    HW217226   3.313   1.202   7.235  1.6089 -0.5293 -2.8082
 1864SOL     OW17227   1.574   3.181   5.954 -0.6965 -0.1318  0.2771
 1864SOL    HW117228   1.625   3.119   6.006 -0.5315 -1.1527 -1.0661
 1864SOL    HW217229   1.486   3.142   5.963  0.1722 -1.4472  2.8704
 1865SOL     OW17230   2.402   2.698   7.466 -0.0959  0.3577 -0.6910
 1865SOL    HW117231   2.362   2.755   7.532  0.0258 -1.5428  0.9992
 1865SOL    HW217232   2.405   2.754   7.388  0.5125  2.0334  0.5277
 1866SOL     OW17233   1.288   1.921  13.251  0.3371  0.0670 -0.2628
 1866SOL    HW117234   1.202   1.930  13.210 -0.3353  0.5555  1.2668
 1866SOL    HW217235   1.276   1.843  13.305 -2.0592  1.4748  1.2226
 1867SOL     OW17236   2.104   3.397  11.109  0.4608 -0.0738  0.1605
 1867SOL    HW117237   2.095   3.343  11.188 -1.3424 -0.4168 -0.2798
 1867SOL    HW217238   2.094   3.484  11.149  0.4680  0.6165 -1.3612
 1868SOL     OW17239   4.241   4.681   3.843  0.3632 -0.1937 -0.7703
 1868SOL    HW117240   4.262   4.632   3.923 -0.1494  1.2543  0.2478
 1868SOL    HW217241   4.291   0.020   3.845  1.5423 -0.9283  0.0971
 1869SOL     OW17242   3.269   0.772   4.564 -0.4211  0.0699  0.0254
 1869SOL    HW117243   3.261   0.713   4.639 -0.7704  0.8644  0.6106
 1869SOL    HW217244   3.364   0.780   4.571 -0.6498  3.5152 -0.6608
 1870SOL     OW17245   3.090   0.648   4.948  0.0738 -0.0764 -0.0693
 1870SOL    HW117246   3.049   0.724   4.907 -0.4434  0.1293  0.8142
 1870SOL    HW217247   3.011   0.611   4.989 -1.1811 -0.0537 -2.4645
 1871SOL     OW17248   2.644   1.107  14.675 -0.4838  0.5821 -0.2494
 1871SOL    HW117249   2.646   1.080  14.583  1.9033  1.2244 -0.3924
 1871SOL    HW217250   2.598   1.191  14.677 -2.7375 -0.7140  2.1054
 1872SOL     OW17251   4.714   0.047   3.967  0.0827 -0.4003 -0.1479
 1872SOL    HW117252   4.708   4.694   3.978  1.6945 -0.3290  1.4394
 1872SOL    HW217253   0.052   0.071   4.014  0.1550 -2.5634  0.8546
 1873SOL     OW17254   3.699   3.288   8.220 -0.2327 -0.3965  0.2719
 1873SOL    HW117255   3.607   3.268   8.235 -0.4299  0.9137  0.8180
 1873SOL    HW217256   3.748   3.257   8.296 -0.0551  2.1355  1.1874
 1874SOL     OW17257   2.199   3.296   7.611 -0.1540 -0.1741 -0.4715
 1874SOL    HW117258   2.197   3.337   7.698  1.1910 -1.5722  0.2431
 1874SOL    HW217259   2.290   3.265   7.620 -0.2903 -0.5818 -0.4951
 1875SOL     OW17260   3.455   2.062   4.440 -0.2058 -0.2424  0.6556
 1875SOL    HW117261   3.483   2.110   4.518  2.8219  1.2723 -1.3539
 1875SOL    HW217262   3.457   2.137   4.380 -0.6305 -0.7280  0.0368
 1876SOL     OW17263   1.100   1.032   5.984  0.2332 -0.1550 -0.5589
 1876SOL    HW117264   1.084   0.939   6.002 -2.8215  0.6173  0.6743
 1876SOL    HW217265   1.170   1.021   5.920 -0.1353 -2.2022 -0.6240
 1877SOL     OW17266   3.718   3.663  10.521  0.5802  0.5274  0.2672
 1877SOL    HW117267   3.792   3.702  10.568  0.7237 -0.7360  1.0937
 1877SOL    HW217268   3.651   3.730  10.532  1.2643  1.5096 -1.5621
 1878SOL     OW17269   3.316   3.752   5.639  0.4587  1.1046 -0.0560
 1878SOL    HW117270   3.400   3.715   5.608  0.5194  1.2208 -0.0278
 1878SOL    HW217271   3.264   3.673   5.654  0.4837  0.8310 -1.3334
 1879SOL     OW17272   2.769   3.361   0.417 -0.3803  0.2589 -0.0613
 1879SOL    HW117273   2.842   3.306   0.389 -1.6881  0.1605 -3.2156
 1879SOL    HW217274   2.714   3.291   0.452 -0.7376  0.9321  0.7156
 1880SOL     OW17275   1.093   2.686   8.643 -0.4660 -0.0535  0.0123
 1880SOL    HW117276   1.123   2.689   8.734 -1.1617  0.2060  0.2279
 1880SOL    HW217277   1.071   2.776   8.617 -0.1649 -0.1536 -0.6092
 1881SOL     OW17278   4.676   1.898   9.254  0.1392  0.2657  0.2711
 1881SOL    HW117279   4.706   1.965   9.192 -0.1525 -0.8669 -1.0679
 1881SOL    HW217280   4.728   1.924   9.330  0.0088  3.8016 -0.8373
 1882SOL     OW17281   2.681   3.696   2.765 -0.4533  0.2906  0.3504
 1882SOL    HW117282   2.656   3.769   2.821 -2.4433  0.9362 -1.3523
 1882SOL    HW217283   2.591   3.671   2.744 -0.9522  0.5469  2.1549
 1883SOL     OW17284   0.923   2.302   6.162  0.1192 -0.4620 -0.4919
 1883SOL    HW117285   0.829   2.303   6.177  0.5033 -2.8610  2.1309
 1883SOL    HW217286   0.945   2.395   6.172 -1.7814 -0.0295 -0.3985
 1884SOL     OW17287   0.542   1.534   2.046  0.2554 -0.9648  0.6470
 1884SOL    HW117288   0.519   1.518   2.137  1.5715 -0.6592  1.0291
 1884SOL    HW217289   0.465   1.500   2.000  1.8023 -0.6708 -2.2222
 1885SOL     OW17290   2.464   1.709   6.688 -0.4990 -0.1245 -0.0669
 1885SOL    HW117291   2.372   1.734   6.696 -0.2742  1.1564 -1.3985
 1885SOL    HW217292   2.444   1.641   6.624 -1.2491  0.9259 -0.9423
 1886SOL     OW17293   0.426   3.691   2.594 -0.5452 -0.3243 -0.0057
 1886SOL    HW117294   0.406   3.598   2.597  0.1115 -0.4398  1.1842
 1886SOL    HW217295   0.389   3.711   2.508  0.8570 -1.8887 -0.9687
 1887SOL     OW17296   1.160   1.116   2.921  0.0901 -0.0798  0.5104
 1887SOL    HW117297   1.077   1.145   2.959 -0.9023 -0.4688 -1.3909
 1887SOL    HW217298   1.147   1.021   2.917  0.8828 -0.0114 -3.3521
 1888SOL     OW17299   0.029   3.596   0.993  0.1085 -0.3802 -0.6047
 1888SOL    HW117300   4.691   3.641   1.019  0.4852 -0.2850  0.4053
 1888SOL    HW217301   0.011   3.508   1.026 -0.2381 -0.8550 -2.0461
 1889SOL     OW17302   1.062   2.020   8.846 -0.2164  0.6383  0.0285
 1889SOL    HW117303   1.017   1.936   8.853 -1.3232  1.2472  0.1278
 1889SOL    HW217304   1.116   2.023   8.926 -1.1709 -1.1480  0.7327
 1890SOL     OW17305   1.144   2.068   5.609 -0.0918 -0.1626  0.6922
 1890SOL    HW117306   1.193   2.058   5.690  1.9861  0.6422 -0.4597
 1890SOL    HW217307   1.214   2.045   5.548  0.8244  1.0814  1.2647
 1891SOL     OW17308   4.284   1.413   7.353  0.3155  0.2901  0.5322
 1891SOL    HW117309   4.292   1.482   7.287 -0.4269  0.4168  0.5695
 1891SOL    HW217310   4.241   1.460   7.424 -1.7148 -0.9970  0.1622
 1892SOL     OW17311   4.105   3.041  13.102 -0.0701 -0.0013  0.7601
 1892SOL    HW117312   4.061   3.074  13.024  0.6868  1.3316  0.8939
 1892SOL    HW217313   4.059   3.081  13.176 -0.6947  1.2956 -0.3226
 1893SOL     OW17314   0.962   0.658   3.835  0.1736  0.8320  0.2200
 1893SOL    HW117315   0.936   0.692   3.920 -2.6179 -4.5142  1.4594
 1893SOL    HW217316   0.889   0.598   3.821 -1.1735  2.5819 -0.2514
 1894SOL     OW17317   0.380   3.679   6.043  0.2704  0.3231 -0.0677
 1894SOL    HW117318   0.388   3.601   5.987 -0.6609 -1.0044  1.6402
 1894SOL    HW217319   0.324   3.724   5.980 -0.5461 -2.4186 -1.3364
 1895SOL     OW17320   4.328   3.695   6.695  0.1355 -0.0999  0.5031
 1895SOL    HW117321   4.244   3.741   6.687  0.5962  1.0328  2.3846
 1895SOL    HW217322   4.386   3.771   6.691 -2.0882  1.5432 -0.9864
 1896SOL     OW17323   0.663   1.077   1.196 -0.7170  0.3231 -0.4298
 1896SOL    HW117324   0.737   1.136   1.179 -1.3298  1.0883 -0.4338
 1896SOL    HW217325   0.710   0.995   1.210 -2.0773 -0.2018  0.9652
 1897SOL     OW17326   0.154   0.715   1.907 -0.3774 -1.1772  0.0830
 1897SOL    HW117327   0.107   0.634   1.889  0.6706 -1.3996 -1.6130
 1897SOL    HW217328   0.230   0.681   1.953  0.0704  1.0709  1.0312
 1898SOL     OW17329   1.817   2.823  16.001 -0.3109 -0.0440 -0.7724
 1898SOL    HW117330   1.754   2.880  15.956 -1.1982  2.1945  3.3022
 1898SOL    HW217331   1.829   2.864  16.086 -0.2217 -0.2516 -0.6864
 1899SOL     OW17332   0.287   0.578  12.822  0.1344 -0.2510  0.1311
 1899SOL    HW117333   0.279   0.483  12.814 -2.4918 -0.1829  1.9760
 1899SOL    HW217334   0.231   0.610  12.892  0.1800  0.3271 -0.0979
 1900SOL     OW17335   3.951   2.550  17.297  0.8521 -0.6216  0.4811
 1900SOL    HW117336   3.962   2.466  17.253 -1.2067 -0.9353  0.5462
 1900SOL    HW217337   3.930   2.614  17.228  2.3308 -1.0729 -0.3740
 1901SOL     OW17338   4.155   0.985   5.283  0.1222 -0.0906  0.6578
 1901SOL    HW117339   4.235   1.029   5.312  0.8887  0.1111 -1.7506
 1901SOL    HW217340   4.090   1.052   5.264  2.2065  1.5802 -0.6381
 1902SOL     OW17341   0.179   4.620   2.876  0.6398  0.1861 -0.3624
 1902SOL    HW117342   0.272   4.639   2.864  0.4530  1.2943 -0.1268
 1902SOL    HW217343   0.135   4.705   2.864 -0.4461 -0.1425  1.3774
 1903SOL     OW17344   0.446   2.937   0.266 -0.5023 -0.5555  0.0853
 1903SOL    HW117345   0.366   2.979   0.297  0.7650 -0.2847  2.9642
 1903SOL    HW217346   0.495   3.019   0.269  0.6380 -1.1935 -0.9900
 1904SOL     OW17347   4.266   1.706   5.066 -0.2103  0.0544  0.1174
 1904SOL    HW117348   4.353   1.714   5.028 -0.1123 -0.2413  0.2845
 1904SOL    HW217349   4.282   1.699   5.160  2.2032 -0.3998 -0.3440
 1905SOL     OW17350   1.097   1.018   9.097  0.3318 -0.1154  0.1569
 1905SOL    HW117351   1.034   1.079   9.061 -1.0674 -2.0772 -0.7194
 1905SOL    HW217352   1.025   0.955   9.104 -0.0410  0.3803  0.7818
 1906SOL     OW17353   3.089   4.452   5.787  0.1131  0.4548  0.0482
 1906SOL    HW117354   3.070   4.375   5.840  0.9816  1.0198  1.1854
 1906SOL    HW217355   3.003   4.493   5.790 -0.1322 -0.0041 -0.8827
 1907SOL     OW17356   2.680   2.806   7.721 -0.4511  0.4649 -0.1814
 1907SOL    HW117357   2.646   2.717   7.718 -0.0955  0.2282  2.6565
 1907SOL    HW217358   2.772   2.797   7.745 -0.8537  0.1848  1.2690
 1908SOL     OW17359   4.267   4.466   6.598 -0.1988  0.6016 -0.1717
 1908SOL    HW117360   4.316   4.540   6.635  1.7894  0.5829 -2.7488
 1908SOL    HW217361   4.188   4.469   6.653 -0.6390 -0.9814 -0.7233
 1909SOL     OW17362   4.229   0.326   5.931  0.3440  0.3237  0.3605
 1909SOL    HW117363   4.237   0.412   5.890  0.6630 -0.0971 -0.4525
 1909SOL    HW217364   4.183   0.278   5.863 -0.1939  0.6955  0.4646
 1910SOL     OW17365   1.997   0.578   3.589 -0.2696 -0.3539  0.1026
 1910SOL    HW117366   1.922   0.525   3.613  0.6497 -0.7947  2.0026
 1910SOL    HW217367   1.977   0.610   3.501 -1.5002 -1.5813 -0.0607
 1911SOL     OW17368   1.065   1.527  10.909 -0.3671 -0.0757  0.6045
 1911SOL    HW117369   1.132   1.555  10.847 -0.7934 -0.2377  0.0629
 1911SOL    HW217370   1.088   1.434  10.916  0.0643  0.1007  1.5293
 1912SOL     OW17371   1.093   2.337   1.548 -0.0499 -0.3585  0.5412
 1912SOL    HW117372   1.149   2.415   1.545  0.0721 -0.4824 -0.7239
 1912SOL    HW217373   1.152   2.280   1.597  0.6496  1.3770  1.7176
 1913SOL     OW17374   3.799   2.861   1.032 -0.6021  0.6657 -0.2705
 1913SOL    HW117375   3.737   2.790   1.015 -0.5968 -0.0081  2.4144
 1913SOL    HW217376   3.865   2.817   1.086  0.3214  1.0131 -1.1144
 1914SOL     OW17377   3.116   1.802  10.324  0.0531  0.3739  0.3272
 1914SOL    HW117378   3.131   1.709  10.341 -3.5010  0.2008  2.4661
 1914SOL    HW217379   3.091   1.830  10.412  0.5086  3.2585 -0.4452
 1915SOL     OW17380   0.589   3.267   3.506 -0.4303 -0.1732 -0.0614
 1915SOL    HW117381   0.562   3.177   3.524  0.0156 -0.2407  0.2939
 1915SOL    HW217382   0.680   3.255   3.478  0.4836  1.5823  2.1197
 1916SOL     OW17383   1.716   0.411   8.025  0.3941  0.2727 -0.2601
 1916SOL    HW117384   1.749   0.354   8.094 -0.7817  0.6211  0.5950
 1916SOL    HW217385   1.634   0.367   8.003 -0.5719  1.1294  1.6359
 1917SOL     OW17386   0.663   0.087   8.454 -0.0710  0.0705 -0.1536
 1917SOL    HW117387   0.628   0.131   8.377 -0.2961 -2.7332 -1.6715
 1917SOL    HW217388   0.713   0.150   8.505 -0.3695  1.0000 -1.0304
 1918SOL     OW17389   0.600   0.370   5.748  0.1522 -0.3844  0.1188
 1918SOL    HW117390   0.572   0.283   5.718 -0.0685  1.1293 -3.9629
 1918SOL    HW217391   0.522   0.420   5.723 -0.5662 -0.3750  2.3229
 1919SOL     OW17392   0.125   0.631  12.193 -0.1883  0.0551  0.3248
 1919SOL    HW117393   0.121   0.646  12.287  1.5378 -1.6695  0.6578
 1919SOL    HW217394   0.127   0.535  12.193  0.1830  0.0611 -0.1421
 1920SOL     OW17395   4.668   2.830   5.363  0.0495  0.4364  0.4091
 1920SOL    HW117396   4.699   2.741   5.376 -4.2144 -1.1660 -0.5726
 1920SOL    HW217397   0.005   2.884   5.366 -0.3668  0.9983  1.2997
 1921SOL     OW17398   0.212   1.469  11.863 -0.1791  0.4615 -0.2245
 1921SOL    HW117399   0.146   1.415  11.906 -2.4747  1.7283 -2.1491
 1921SOL    HW217400   0.211   1.546  11.920 -0.7736 -0.6869  1.3176
 1922SOL     OW17401   1.095   1.485   8.478  0.5489 -0.2075  0.2583
 1922SOL    HW117402   1.134   1.412   8.430 -2.4096 -1.2909 -0.5381
 1922SOL    HW217403   1.156   1.486   8.552  1.1051 -1.8812 -0.1789
 1923SOL     OW17404   0.197   3.558   3.431  0.0594  0.3126 -1.0344
 1923SOL    HW117405   0.252   3.633   3.456 -0.4770  0.7088 -1.0339
 1923SOL    HW217406   0.266   3.492   3.434  0.6254  0.9994  0.9914
 1924SOL     OW17407   1.877   3.306   0.077 -0.4852 -0.0757 -0.2130
 1924SOL    HW117408   1.817   3.375   0.047 -1.2230 -0.1444  1.0979
 1924SOL    HW217409   1.954   3.319   0.021  0.1372 -1.6093  0.2870
 1925SOL     OW17410   1.793   4.263  17.476 -0.4742  0.1791  0.0162
 1925SOL    HW117411   1.750   4.203  17.537  2.4523 -0.5081  1.3835
 1925SOL    HW217412   1.742   4.244  17.397  1.0012 -0.3869 -0.8064
 1926SOL     OW17413   3.074   2.694   2.167 -0.5406 -0.0843  1.0215
 1926SOL    HW117414   3.040   2.651   2.088 -1.8286  0.0601  1.4893
 1926SOL    HW217415   3.007   2.671   2.232 -2.3921 -1.3599 -1.3429
 1927SOL     OW17416   2.763   4.588   5.147  0.3264  0.3051 -0.1528
 1927SOL    HW117417   2.747   4.657   5.211 -1.6625 -0.2313 -0.0823
 1927SOL    HW217418   2.680   4.593   5.101 -0.6625  4.5484  2.0847
 1928SOL     OW17419   0.247   1.568   7.778 -0.6109 -0.1542 -0.1005
 1928SOL    HW117420   0.274   1.603   7.863 -0.1424 -0.0465 -0.2961
 1928SOL    HW217421   0.301   1.490   7.769 -0.3281  0.0430 -0.1031
 1929SOL     OW17422   1.191   0.372   9.577 -0.1069  0.1081  0.2377
 1929SOL    HW117423   1.123   0.409   9.634  0.3039 -0.8646  1.3653
 1929SOL    HW217424   1.236   0.299   9.621  0.1285 -2.0116 -3.5171
 1930SOL     OW17425   2.120   1.067   8.097 -0.5542  0.6050  0.3352
 1930SOL    HW117426   2.026   1.058   8.079 -0.6046  1.2240  0.2929
 1930SOL    HW217427   2.152   0.976   8.100  2.6237  1.7921  1.7721
 1931SOL     OW17428   3.559   0.425   4.125 -0.5717  0.3605  0.1422
 1931SOL    HW117429   3.532   0.344   4.081  1.8917  0.5352 -1.7147
 1931SOL    HW217430   3.474   0.460   4.151 -1.1102 -0.0426 -1.0630
 1932SOL     OW17431   4.739   1.393   1.467  0.0799  0.4490  0.0651
 1932SOL    HW117432   0.001   1.412   1.561 -1.6419 -1.9938  0.6160
 1932SOL    HW217433   0.079   1.347   1.449 -0.9136 -0.9639 -0.8537
 1933SOL     OW17434   2.786   1.158   8.849  0.4884  0.0022 -0.0786
 1933SOL    HW117435   2.802   1.227   8.785  0.3803  0.1176  0.0192
 1933SOL    HW217436   2.724   1.200   8.909 -0.0912 -0.4072 -0.3939
 1934SOL     OW17437   0.019   3.939   4.915  0.4021 -0.0524 -0.3841
 1934SOL    HW117438   4.729   3.910   5.000 -0.7469  0.5366 -0.6088
 1934SOL    HW217439   0.084   3.869   4.910 -0.9095 -1.4100  1.5538
 1935SOL     OW17440   4.429   1.409  15.199  0.4891  0.5082 -0.6820
 1935SOL    HW117441   4.453   1.448  15.283 -0.3104 -0.9832  0.2528
 1935SOL    HW217442   4.335   1.423  15.212  0.4867  0.5930 -0.7897
 1936SOL     OW17443   1.017   0.728   3.078 -0.0638  0.0830 -0.3016
 1936SOL    HW117444   1.090   0.673   3.105  0.7962  0.1488 -2.4947
 1936SOL    HW217445   0.956   0.711   3.150  1.9023  1.6321  1.7351
 1937SOL     OW17446   0.889   3.379   5.735 -0.3213 -0.0079  0.2898
 1937SOL    HW117447   0.973   3.337   5.753  0.4645  0.2132 -2.7209
 1937SOL    HW217448   0.853   3.393   5.822  0.0226  0.6490  0.3299
 1938SOL     OW17449   2.785   3.857   8.194 -0.2398  0.3118  0.0252
 1938SOL    HW117450   2.880   3.864   8.184 -0.0793  1.7427  2.4699
 1938SOL    HW217451   2.777   3.833   8.287  0.6301  1.7418  0.4689
 1939SOL     OW17452   1.723   4.184   7.861 -0.0365  0.0636 -0.3848
 1939SOL    HW117453   1.779   4.166   7.937 -1.4937 -0.2896  0.6089
 1939SOL    HW217454   1.668   4.106   7.868 -1.6369  1.3134  1.2280
 1940SOL     OW17455   0.825   1.072   1.552  0.6459 -0.2576  0.2662
 1940SOL    HW117456   0.792   1.076   1.642 -1.5731  0.0261 -0.5617
 1940SOL    HW217457   0.746   1.062   1.499  0.8755  0.9606 -0.2950
 1941SOL     OW17458   2.535   1.684   6.143 -0.1491 -0.8530  0.3329
 1941SOL    HW117459   2.618   1.707   6.101 -1.1473  0.1357 -1.0777
 1941SOL    HW217460   2.488   1.619   6.090 -1.5138  0.3575  0.0782
 1942SOL     OW17461   1.311   1.268   5.416 -0.3153 -0.0373  0.3624
 1942SOL    HW117462   1.323   1.302   5.328  0.1818  0.7844  0.7471
 1942SOL    HW217463   1.225   1.227   5.404 -1.3151  2.5079 -1.2432
 1943SOL     OW17464   1.135   3.388  12.978 -0.5141 -0.3282 -0.1226
 1943SOL    HW117465   1.183   3.354  12.902  3.7125  0.1619  2.3203
 1943SOL    HW217466   1.205   3.405  13.041  0.4413 -0.0127 -1.2680
 1944SOL     OW17467   1.888   4.576  15.053  0.6599  0.5596 -0.2196
 1944SOL    HW117468   1.803   4.595  15.014  0.0006 -1.9236 -0.0004
 1944SOL    HW217469   1.891   4.622  15.137 -0.8372  3.3109 -1.6980
 1945SOL     OW17470   4.277   1.037   2.699  0.0483  0.2939 -0.5066
 1945SOL    HW117471   4.186   1.060   2.720  0.8750  2.8167  0.2643
 1945SOL    HW217472   4.269   1.061   2.606 -1.5593  1.0705 -0.1725
 1946SOL     OW17473   2.849   4.623  13.842  0.6401  0.1613 -0.3736
 1946SOL    HW117474   2.843   4.552  13.778 -1.2248  0.1458 -0.1845
 1946SOL    HW217475   2.803   4.591  13.920 -0.5937 -0.0360 -1.1758
 1947SOL     OW17476   1.155   3.804   5.526  0.1707  0.2354  0.1606
 1947SOL    HW117477   1.215   3.878   5.514  2.6044 -1.6088  0.9522
 1947SOL    HW217478   1.089   3.807   5.457  1.0644  0.4851 -0.6915
 1948SOL     OW17479   2.519   1.407   4.627 -0.7445 -0.3841 -0.1815
 1948SOL    HW117480   2.597   1.449   4.664 -0.7706  1.8274 -2.6342
 1948SOL    HW217481   2.539   1.318   4.657 -0.9322 -0.7774 -1.2235
 1949SOL     OW17482   0.320   3.960  14.886 -0.2143  0.6326  0.1268
 1949SOL    HW117483   0.367   3.886  14.925 -2.0417 -0.5235  0.1659
 1949SOL    HW217484   0.385   3.978  14.818  0.3859 -1.9380  0.0198
 1950SOL     OW17485   0.734   0.134   2.852 -0.4209  0.2372 -0.2829
 1950SOL    HW117486   0.714   0.141   2.946 -0.8063 -1.2727 -0.2562
 1950SOL    HW217487   0.651   0.118   2.807 -2.1387  2.1647  2.1435
 1951SOL     OW17488   3.164   1.498   8.258  0.1486 -0.4261  0.5414
 1951SOL    HW117489   3.228   1.564   8.230 -1.5024  1.2649  0.7645
 1951SOL    HW217490   3.105   1.485   8.184  1.6226  0.0293 -0.7345
 1952SOL     OW17491   0.498   0.777  16.495 -0.7017 -0.2538  0.6421
 1952SOL    HW117492   0.467   0.690  16.469  0.0835 -0.2864 -0.1435
 1952SOL    HW217493   0.530   0.806  16.410  2.2790 -0.3390  1.7384
 1953SOL     OW17494   1.158   3.386   9.918  0.0376 -0.3013  0.5698
 1953SOL    HW117495   1.084   3.438   9.889  0.1367  0.0282  0.8977
 1953SOL    HW217496   1.193   3.441   9.989 -0.7056 -3.5378  3.4622
 1954SOL     OW17497   3.602   0.441  16.737  0.4552 -0.0498 -0.2049
 1954SOL    HW117498   3.603   0.371  16.802  2.6030  1.2655  1.2213
 1954SOL    HW217499   3.695   0.464  16.735  0.8937 -1.7734  0.5950
 1955SOL     OW17500   3.556   0.470   4.621 -0.2800  0.1044  0.0475
 1955SOL    HW117501   3.507   0.547   4.653  3.3502  2.0143  1.0081
 1955SOL    HW217502   3.630   0.471   4.682 -0.7771 -0.3216  0.6584
 1956SOL     OW17503   2.069   1.685   8.106 -0.6459  0.7141  0.0574
 1956SOL    HW117504   2.009   1.622   8.065  0.3048  0.8028 -1.4548
 1956SOL    HW217505   2.123   1.697   8.029  1.7813  0.6927  1.7744
 1957SOL     OW17506   3.043   3.656   9.139  0.2848 -0.1804 -0.2343
 1957SOL    HW117507   3.115   3.623   9.086  0.8120 -1.8622  1.5495
 1957SOL    HW217508   3.001   3.708   9.070 -0.4596 -0.7749 -0.2296
 1958SOL     OW17509   0.952   4.370   1.971 -0.0190 -0.2104  0.1095
 1958SOL    HW117510   0.946   4.277   1.991 -1.3835  0.1569  1.4444
 1958SOL    HW217511   1.030   4.379   1.917 -0.3479 -1.7199 -0.6336
 1959SOL     OW17512   2.408   2.212   7.491  0.3812 -0.6663 -0.0245
 1959SOL    HW117513   2.313   2.198   7.486  0.5268 -1.0361 -1.7536
 1959SOL    HW217514   2.430   2.233   7.400  1.8933 -0.1194  0.4760
 1960SOL     OW17515   2.032   2.578   9.154  0.3098 -0.4385 -0.6838
 1960SOL    HW117516   1.947   2.622   9.153 -0.3391 -1.6775 -0.4771
 1960SOL    HW217517   2.044   2.524   9.233 -0.6793 -0.6404 -0.6706
 1961SOL     OW17518   1.632   3.741   5.047  0.1034 -0.0700 -0.8524
 1961SOL    HW117519   1.651   3.689   5.125  0.0170 -1.3005 -1.6550
 1961SOL    HW217520   1.690   3.705   4.979 -0.0461  0.1163 -1.0781
 1962SOL     OW17521   1.245   0.498   6.448 -0.3021 -0.1021 -0.4426
 1962SOL    HW117522   1.334   0.526   6.431 -0.2656 -0.8975 -1.5611
 1962SOL    HW217523   1.245   0.517   6.542  2.7168 -0.7481 -0.3114
 1963SOL     OW17524   4.002   1.669   5.164 -0.7718  0.1974 -0.0233
 1963SOL    HW117525   4.065   1.688   5.093  0.1720  0.4813  0.8888
 1963SOL    HW217526   3.950   1.748   5.153  0.1146  0.6945 -0.6523
 1964SOL     OW17527   4.107   3.903  13.220 -0.2655  0.1935 -0.9172
 1964SOL    HW117528   4.094   3.936  13.131  3.4154  0.4338 -1.3969
 1964SOL    HW217529   4.128   3.811  13.207 -3.9025 -0.2537 -3.5954
 1965SOL     OW17530   4.357   2.940   5.717 -0.4630 -0.1210 -0.6117
 1965SOL    HW117531   4.262   2.946   5.729 -0.4367 -0.8541 -0.0369
 1965SOL    HW217532   4.390   2.921   5.804 -0.0133  1.3458 -0.4722
 1966SOL     OW17533   1.882   1.540   7.975  0.2496  0.2141  0.7713
 1966SOL    HW117534   1.932   1.486   7.914 -1.9290  1.0017 -1.7136
 1966SOL    HW217535   1.848   1.471   8.033 -1.8229 -1.2303 -2.1873
 1967SOL     OW17536   0.344   1.149  13.979  0.0242  0.4681  0.4712
 1967SOL    HW117537   0.427   1.145  14.027  0.3809 -1.8363 -0.3376
 1967SOL    HW217538   0.290   1.104  14.043  0.4568 -0.9615 -0.1746
 1968SOL     OW17539   0.774   1.174   8.734 -0.2019 -0.1119  0.1994
 1968SOL    HW117540   0.717   1.246   8.758  1.1526  0.8189  0.6268
 1968SOL    HW217541   0.856   1.223   8.723 -1.2067  1.3825 -0.6858
 1969SOL     OW17542   1.031   1.223   9.416 -0.5517 -0.2187 -0.5832
 1969SOL    HW117543   1.114   1.192   9.452 -1.8260 -0.9185  1.6970
 1969SOL    HW217544   0.986   1.139   9.408  0.8406 -1.1336  1.4155
 1970SOL     OW17545   4.195   1.412   5.874  0.0313 -0.2294  0.2143
 1970SOL    HW117546   4.240   1.337   5.913  3.0958 -0.1162 -3.1166
 1970SOL    HW217547   4.119   1.428   5.930  0.0946 -1.6162  0.6937
 1971SOL     OW17548   0.561   1.763   0.338 -0.2147  0.4356 -0.1129
 1971SOL    HW117549   0.654   1.785   0.345 -0.7161  2.2256  0.7750
 1971SOL    HW217550   0.535   1.748   0.429  2.1059 -0.5507  0.3892
 1972SOL     OW17551   4.590   2.558   8.995 -0.2799 -0.1010  0.0538
 1972SOL    HW117552   4.572   2.588   8.905  0.7940  1.3774  0.3260
 1972SOL    HW217553   4.524   2.489   8.988  0.1139 -0.5234  0.4932
 1973SOL     OW17554   3.929   1.223   3.342 -0.6315  0.0633  0.2461
 1973SOL    HW117555   3.917   1.298   3.283 -0.4795  0.7102  1.0429
 1973SOL    HW217556   3.959   1.161   3.275 -1.9719  0.9655 -1.1628
 1974SOL     OW17557   2.071   0.328   1.854 -0.3596 -0.0101  0.1631
 1974SOL    HW117558   1.982   0.325   1.818 -0.0424 -1.2225 -0.5328
 1974SOL    HW217559   2.088   0.234   1.849 -0.1952  0.0280  0.0312
 1975SOL     OW17560   0.823   0.936   0.352 -0.7591 -0.1622  0.7431
 1975SOL    HW117561   0.792   0.887   0.428 -0.6123 -0.7661  0.4093
 1975SOL    HW217562   0.737   0.975   0.335 -0.5482 -0.0792 -0.1298
 1976SOL     OW17563   1.616   2.056  13.889  0.0466  0.3013  0.2635
 1976SOL    HW117564   1.652   2.144  13.899 -0.7030  0.8589 -1.8877
 1976SOL    HW217565   1.699   2.022  13.857  0.0679 -1.1026  1.8044
 1977SOL     OW17566   1.784   4.358   4.146 -0.8830  0.2856 -0.0641
 1977SOL    HW117567   1.848   4.414   4.190  0.8844 -2.2187  0.5785
 1977SOL    HW217568   1.706   4.393   4.189  0.1884  1.9271  0.5527
 1978SOL     OW17569   1.059   4.503   7.393  0.2944  0.2254  0.5054
 1978SOL    HW117570   1.035   4.484   7.484  0.1611 -0.4355  0.3290
 1978SOL    HW217571   1.109   4.425   7.370  3.2797  2.2980 -0.1817
 1979SOL     OW17572   3.684   3.655   6.989 -0.8350 -0.5560 -0.6427
 1979SOL    HW117573   3.662   3.742   7.022  1.1248 -0.4650  0.4076
 1979SOL    HW217574   3.605   3.648   6.935 -0.0834  1.0122 -1.9619
 1980SOL     OW17575   3.907   1.742   8.414 -0.4888 -0.0910 -0.3332
 1980SOL    HW117576   3.991   1.786   8.426 -0.5428 -0.7230  2.4812
 1980SOL    HW217577   3.890   1.743   8.320  1.0632  1.1892 -0.5929
 1981SOL     OW17578   4.053   2.284   5.282 -0.2310 -0.5549  0.2932
 1981SOL    HW117579   3.985   2.259   5.344 -1.6209 -1.7449 -1.7183
 1981SOL    HW217580   4.026   2.371   5.252  1.4116  0.1509  0.8885
 1982SOL     OW17581   4.273   2.503   6.391 -0.4408 -0.0846 -0.2833
 1982SOL    HW117582   4.187   2.466   6.411 -0.3641  0.1429  0.4604
 1982SOL    HW217583   4.294   2.472   6.302 -2.1936  1.9722 -1.3918
 1983SOL     OW17584   1.728   2.378   9.193  0.3596  0.3846 -0.1173
 1983SOL    HW117585   1.703   2.286   9.192  0.7381  0.2417  3.0742
 1983SOL    HW217586   1.702   2.405   9.281 -0.9634  0.5151 -0.5568
 1984SOL     OW17587   4.255   2.973   3.545  0.4003 -0.2574 -0.6230
 1984SOL    HW117588   4.175   2.928   3.571 -0.7207  0.2001 -3.3073
 1984SOL    HW217589   4.242   3.047   3.605 -0.4963 -2.0138  1.3561
 1985SOL     OW17590   4.558   4.175   5.287 -0.0022 -0.0108  0.2166
 1985SOL    HW117591   4.631   4.233   5.264 -1.8136  1.1917 -2.5327
 1985SOL    HW217592   4.611   4.099   5.306 -1.0612 -0.5088  1.1624
 1986SOL     OW17593   0.516   0.027   2.574  0.4199 -0.0852  0.3289
 1986SOL    HW117594   0.480   0.032   2.486 -1.2408  0.5140  1.0508
 1986SOL    HW217595   0.606   0.057   2.559  0.6034 -0.0237  1.5063
 1987SOL     OW17596   2.475   4.586   2.973  0.2305 -0.1773  0.0334
 1987SOL    HW117597   2.548   4.648   2.972 -0.5577  0.8081  3.1223
 1987SOL    HW217598   2.453   4.571   3.065 -2.0309  2.2074 -0.1262
 1988SOL     OW17599   3.835   4.074  17.238  0.2237  0.4247  0.1120
 1988SOL    HW117600   3.820   4.167  17.221 -0.2085  0.7378  2.1336
 1988SOL    HW217601   3.926   4.057  17.215  0.3757  0.8738  0.3906
 1989SOL     OW17602   2.662   0.243  15.369  0.6313 -0.2426  0.1188
 1989SOL    HW117603   2.725   0.250  15.298  2.2277 -0.2539  1.5430
 1989SOL    HW217604   2.585   0.290  15.336  1.8519  1.5014 -0.2274
 1990SOL     OW17605   4.643   1.661   7.832 -0.4439  0.3533  0.8524
 1990SOL    HW117606   4.660   1.639   7.740 -1.9110 -0.6393  0.8256
 1990SOL    HW217607   4.668   1.753   7.825 -1.7267  0.6425 -0.0276
 1991SOL     OW17608   2.448   1.167   5.200 -0.3460  0.2753  0.1211
 1991SOL    HW117609   2.409   1.082   5.179 -0.7914  1.0709 -2.2437
 1991SOL    HW217610   2.460   1.209   5.114  0.9414  0.0791  0.2073
 1992SOL     OW17611   2.273   4.510   0.435 -0.4418 -0.3022  0.0859
 1992SOL    HW117612   2.347   4.453   0.415 -1.2221 -0.7499 -1.5463
 1992SOL    HW217613   2.298   4.602   0.425 -3.0265  0.2575 -1.2751
 1993SOL     OW17614   3.129   1.231  14.733  0.3363  0.0177 -0.1451
 1993SOL    HW117615   3.180   1.213  14.812  0.3668  0.3270 -0.0950
 1993SOL    HW217616   3.190   1.284  14.683 -0.9434 -0.4850 -2.2271
 1994SOL     OW17617   2.926   1.579   9.548 -0.3443 -0.5356 -0.5603
 1994SOL    HW117618   3.001   1.637   9.562 -0.4043  0.1995 -3.4664
 1994SOL    HW217619   2.962   1.496   9.580 -1.1094  0.4568  2.8773
 1995SOL     OW17620   4.539   4.103   8.681  0.1780 -0.4432 -0.6424
 1995SOL    HW117621   4.566   4.103   8.589  0.7976 -0.5422 -0.4659
 1995SOL    HW217622   4.450   4.078   8.656  1.2584 -2.9057 -2.0851
 1996SOL     OW17623   1.991   0.306   8.592 -0.5813  0.3404  0.6372
 1996SOL    HW117624   1.936   0.343   8.661  0.4210  0.2657  1.4730
 1996SOL    HW217625   1.997   0.386   8.539 -2.7075 -0.0047 -0.1693
 1997SOL     OW17626   4.694   4.508   9.873  0.3267 -0.1290  0.1770
 1997SOL    HW117627   4.735   4.483   9.789  5.1635  0.4843  2.3416
 1997SOL    HW217628   0.002   4.478   9.949  2.8843 -0.1915 -1.5107
 1998SOL     OW17629   2.138   1.577  14.397 -0.4258 -0.6080  0.3215
 1998SOL    HW117630   2.145   1.672  14.400 -0.7490 -0.5084 -1.8139
 1998SOL    HW217631   2.063   1.571  14.338 -1.1534  0.5711  1.1426
 1999SOL     OW17632   2.814   1.866   4.181  0.2510  0.1308  0.4373
 1999SOL    HW117633   2.735   1.832   4.222 -0.0978 -0.2480 -0.5686
 1999SOL    HW217634   2.878   1.842   4.249  0.4405 -0.1672  0.1534
 2000SOL     OW17635   4.117   2.311  13.578 -0.0104  1.2159 -0.2139
 2000SOL    HW117636   4.122   2.391  13.630  0.0355 -0.0649  1.7559
 2000SOL    HW217637   4.126   2.368  13.502 -0.2190  1.6773  0.1070
 2001SOL     OW17638   0.895   3.177   8.647 -0.0620  0.9307  0.4283
 2001SOL    HW117639   0.818   3.124   8.670  0.1951  0.1005 -0.5869
 2001SOL    HW217640   0.900   3.218   8.733  2.7200  0.4286  0.4999
 2002SOL     OW17641   2.307   3.518  14.402 -0.7715  0.2208 -0.0603
 2002SOL    HW117642   2.320   3.431  14.441 -2.7729  0.3699  0.9524
 2002SOL    HW217643   2.397   3.537  14.375  0.1016  0.7866  3.2558
 2003SOL     OW17644   3.422   4.510   6.759  0.7711 -0.0381 -0.8328
 2003SOL    HW117645   3.358   4.517   6.688  1.4315  1.5032 -1.2685
 2003SOL    HW217646   3.449   4.600   6.779 -0.4456 -0.2276  1.7266
 2004SOL     OW17647   4.092   3.908   0.907 -0.1832  0.4090  0.1337
 2004SOL    HW117648   4.056   3.895   0.994 -1.3500  0.4843 -0.3346
 2004SOL    HW217649   4.064   3.827   0.863  0.1360 -0.5957  1.7901
 2005SOL     OW17650   0.568   0.765   7.378  0.4452  0.0619 -0.0294
 2005SOL    HW117651   0.495   0.827   7.381  0.0599 -0.4290  0.5212
 2005SOL    HW217652   0.539   0.703   7.311 -3.2853 -0.8879  2.4957
 2006SOL     OW17653   3.296   0.183   0.619  0.0442 -0.4208  0.2720
 2006SOL    HW117654   3.300   0.266   0.570 -1.4460 -0.2288  0.4924
 2006SOL    HW217655   3.362   0.199   0.687 -0.2153 -0.1035  0.4479
 2007SOL     OW17656   2.024   2.636   5.526 -0.1844  0.4723 -0.4080
 2007SOL    HW117657   2.057   2.711   5.576  2.5777 -1.3867  0.5721
 2007SOL    HW217658   1.953   2.672   5.473  1.0875  1.3783 -1.5074
 2008SOL     OW17659   4.711   1.873   4.385  0.2420  0.1175  0.3259
 2008SOL    HW117660   4.632   1.846   4.339  0.5765 -2.2446  1.1444
 2008SOL    HW217661   0.036   1.823   4.338  0.1233  0.7351 -0.4979
 2009SOL     OW17662   1.098   1.790   9.612 -0.3099  0.1595  0.2178
 2009SOL    HW117663   1.059   1.703   9.606  0.9359 -0.4383  0.7046
 2009SOL    HW217664   1.065   1.833   9.534 -0.5872 -0.1882  0.1476
 2010SOL     OW17665   4.293   0.051   3.399  0.3613  0.1865  0.1267
 2010SOL    HW117666   4.279   4.711   3.353  1.1393 -0.0546  0.3203
 2010SOL    HW217667   4.218   0.096   3.361  1.4010  1.1043 -0.8620
 2011SOL     OW17668   0.512   1.188   9.995  0.4948 -0.0588  0.4409
 2011SOL    HW117669   0.489   1.098  10.019 -1.2418  0.7787  1.8568
 2011SOL    HW217670   0.561   1.212  10.073  0.2433  0.8426  0.3170
 2012SOL     OW17671   1.744   1.520   0.795  0.5723 -0.5681 -0.0834
 2012SOL    HW117672   1.783   1.506   0.709  0.8229 -0.1639 -0.0349
 2012SOL    HW217673   1.728   1.614   0.799  4.9812  0.1672  0.4824
 2013SOL     OW17674   2.824   3.206   6.202  0.5669 -0.3016 -0.2955
 2013SOL    HW117675   2.886   3.264   6.245  1.0159 -3.0520  2.7643
 2013SOL    HW217676   2.847   3.125   6.248  0.3103 -0.7334 -0.9163
 2014SOL     OW17677   2.991   2.680   8.518 -0.4174 -0.1616  0.2063
 2014SOL    HW117678   3.023   2.685   8.428  1.9346  2.4210  1.1813
 2014SOL    HW217679   2.897   2.662   8.515 -0.4546  0.6080 -3.7034
 2015SOL     OW17680   4.379   2.940   6.807  0.2577 -0.5324 -0.4689
 2015SOL    HW117681   4.395   3.025   6.847 -1.4863 -0.8528  0.8919
 2015SOL    HW217682   4.437   2.952   6.732 -0.1458  1.6042 -0.4530
 2016SOL     OW17683   3.268   4.067   5.959 -0.1426 -0.2841 -0.2155
 2016SOL    HW117684   3.320   4.067   6.040 -2.6725 -2.4906  1.4035
 2016SOL    HW217685   3.320   4.005   5.907  1.7097  0.2226  1.0295
 2017SOL     OW17686   4.644   3.746   3.682  0.6224 -0.4734 -0.0265
 2017SOL    HW117687   4.724   3.697   3.701  1.3483  0.4684 -0.6134
 2017SOL    HW217688   4.591   3.678   3.641  1.9995 -0.1973 -2.2803
 2018SOL     OW17689   0.066   1.976   3.778 -0.0929 -0.4709  0.7756
 2018SOL    HW117690   0.144   1.948   3.729  0.3998  1.1229  0.6626
 2018SOL    HW217691   0.056   1.904   3.840 -0.3185 -1.2337 -0.1487
 2019SOL     OW17692   0.975   3.809   8.806 -0.4872 -0.2981  0.4321
 2019SOL    HW117693   1.069   3.828   8.804 -0.2579 -1.3159  1.0201
 2019SOL    HW217694   0.930   3.873   8.861  0.3522 -1.3730  2.3794
 2020SOL     OW17695   0.294   0.298   8.171  0.4679 -0.6833 -0.3552
 2020SOL    HW117696   0.290   0.390   8.146 -1.5484  0.0574  2.6286
 2020SOL    HW217697   0.269   0.257   8.088  0.1839 -0.5475 -0.3371
 2021SOL     OW17698   2.854   1.853  12.979 -0.3721 -0.2917  0.4002
 2021SOL    HW117699   2.846   1.842  12.884  0.2885  0.4214  0.2529
 2021SOL    HW217700   2.949   1.860  12.991 -0.2866 -0.3509 -0.2299
 2022SOL     OW17701   3.816   2.914  15.139 -0.6030  0.0922 -0.0849
 2022SOL    HW117702   3.805   2.974  15.213  2.4505  2.7207 -1.7775
 2022SOL    HW217703   3.871   2.968  15.083 -2.0460  1.7519  0.0959
 2023SOL     OW17704   0.597   0.087  13.391 -0.0262  0.7267  0.3796
 2023SOL    HW117705   0.529   0.124  13.334  0.9188  2.8431  0.6410
 2023SOL    HW217706   0.553   0.081  13.476 -0.1386 -2.1848  0.1284
 2024SOL     OW17707   0.059   1.566   7.110 -0.0314 -0.7367  0.4504
 2024SOL    HW117708   0.061   1.625   7.185  0.7135  0.4710 -0.5123
 2024SOL    HW217709   0.150   1.537   7.118  0.9653  1.6764 -1.9512
 2025SOL     OW17710   0.333   3.402   4.167 -0.5938 -0.1659  0.0486
 2025SOL    HW117711   0.312   3.495   4.175  1.3239  0.2958 -0.2348
 2025SOL    HW217712   0.368   3.388   4.079 -0.9264  0.2811 -0.1511
 2026SOL     OW17713   2.373   2.352   6.566  0.3792  0.0321 -0.8152
 2026SOL    HW117714   2.370   2.256   6.570 -1.5253  0.0344 -2.2059
 2026SOL    HW217715   2.416   2.362   6.481  1.5661 -1.5664 -0.4155
 2027SOL     OW17716   1.209   4.225   4.228 -0.3260 -0.5705  0.5490
 2027SOL    HW117717   1.250   4.240   4.314  0.8291  1.4442 -0.3412
 2027SOL    HW217718   1.284   4.212   4.170  0.2415 -1.5471  1.4903
 2028SOL     OW17719   3.950   2.723   1.795  0.0067 -0.1664  0.1323
 2028SOL    HW117720   3.887   2.656   1.820  0.1096 -0.0180  0.7839
 2028SOL    HW217721   4.019   2.697   1.856  0.1898 -2.2594 -0.9664
 2029SOL     OW17722   3.196   1.292   4.317 -0.2131  0.0557  0.3840
 2029SOL    HW117723   3.137   1.357   4.281 -0.6560 -0.4135  0.2596
 2029SOL    HW217724   3.275   1.319   4.270  0.7747 -0.0463  1.9812
 2030SOL     OW17725   3.850   3.858   2.388  0.1442  0.2255 -0.0190
 2030SOL    HW117726   3.864   3.948   2.360  0.2527  0.7528  1.6940
 2030SOL    HW217727   3.859   3.871   2.483  0.9662 -2.0776  0.2245
 2031SOL     OW17728   0.974   2.648   2.843  0.3345  0.4060 -0.2766
 2031SOL    HW117729   0.982   2.739   2.811 -1.5933  0.4094 -0.7331
 2031SOL    HW217730   0.962   2.667   2.936 -1.5847 -3.4193  0.2649
 2032SOL     OW17731   1.770   0.216   4.495 -0.5256 -0.8587 -0.6150
 2032SOL    HW117732   1.697   0.234   4.435 -2.2844 -1.1149  1.4630
 2032SOL    HW217733   1.769   0.282   4.564 -0.3687  1.1502 -2.5131
 2033SOL     OW17734   0.740   1.769   5.296 -0.0697 -0.2056 -0.2116
 2033SOL    HW117735   0.698   1.687   5.321 -1.4829  0.9990  1.3363
 2033SOL    HW217736   0.678   1.835   5.325  1.9410  0.2921  2.9711
 2034SOL     OW17737   0.971   3.558   6.971 -0.2186 -0.3375 -0.6357
 2034SOL    HW117738   0.950   3.470   6.942  0.9787 -0.1209 -2.1925
 2034SOL    HW217739   0.910   3.619   6.932  0.5400  2.1308  1.9839
 2035SOL     OW17740   3.201   4.550   1.706 -0.0263 -0.0220 -0.4099
 2035SOL    HW117741   3.113   4.583   1.723 -0.0883 -0.1324 -0.5096
 2035SOL    HW217742   3.182   4.460   1.734 -0.2628 -0.2303 -1.2351
 2036SOL     OW17743   0.433   0.895   7.675  0.3589  0.5379 -0.9449
 2036SOL    HW117744   0.415   0.802   7.690 -2.6864  0.9906 -1.9062
 2036SOL    HW217745   0.365   0.937   7.728  0.8737 -0.0618  0.1911
 2037SOL     OW17746   0.800   0.523   0.534  0.3685  0.2648  0.1627
 2037SOL    HW117747   0.767   0.583   0.600 -0.1607  1.3763 -1.1132
 2037SOL    HW217748   0.849   0.586   0.481  1.4027 -0.1636  0.5989
 2038SOL     OW17749   0.245   1.238   6.882  0.5847  0.3229  0.1048
 2038SOL    HW117750   0.324   1.292   6.874  0.9285 -0.0012  1.3040
 2038SOL    HW217751   0.267   1.173   6.816  0.2455  0.0671  0.2451
 2039SOL     OW17752   3.115   4.044   7.936  0.1164  0.0578  0.5460
 2039SOL    HW117753   3.140   4.109   8.002 -1.7771 -1.0491  2.3439
 2039SOL    HW217754   3.054   4.102   7.890  0.5773  1.1952  1.3723
 2040SOL     OW17755   2.187   3.303  10.852 -0.5257  0.6986  0.3777
 2040SOL    HW117756   2.194   3.218  10.896  1.2775 -0.1812 -1.6081
 2040SOL    HW217757   2.153   3.358  10.923  0.4056 -1.5335  2.5333
 2041SOL     OW17758   0.882   4.003   8.388 -0.7095  0.8484  0.3132
 2041SOL    HW117759   0.904   4.029   8.477 -1.2455  0.9227  0.4222
 2041SOL    HW217760   0.881   4.094   8.357 -1.7975  1.1004  1.0690
 2042SOL     OW17761   2.318   0.525   3.860  0.2465 -0.0759 -0.2832
 2042SOL    HW117762   2.410   0.550   3.869  0.1900 -0.3273  1.0489
 2042SOL    HW217763   2.282   0.534   3.949 -1.8226 -3.6844 -0.7802
 2043SOL     OW17764   0.832   0.470   9.537  0.2241 -0.2816 -0.6105
 2043SOL    HW117765   0.869   0.557   9.521  0.0125 -0.0160  0.3937
 2043SOL    HW217766   0.785   0.488   9.618  1.6070 -0.1929  0.1716
 2044SOL     OW17767   3.015   1.519   9.280 -0.0785 -0.2624 -0.5296
 2044SOL    HW117768   3.106   1.546   9.291  0.1075 -0.3921 -1.7753
 2044SOL    HW217769   2.968   1.554   9.356 -0.2882 -0.0182 -0.7704
 2045SOL     OW17770   3.894   4.524   6.670  0.6010  0.3870  0.4929
 2045SOL    HW117771   3.847   4.444   6.645 -1.5840  2.4415 -1.9071
 2045SOL    HW217772   3.895   4.559   6.581  0.6935  1.2866  0.8576
 2046SOL     OW17773   3.938   2.299   6.911  0.1919 -0.3455  0.1325
 2046SOL    HW117774   3.920   2.375   6.965  0.6061  1.4673 -2.2529
 2046SOL    HW217775   3.854   2.260   6.934 -0.5988  1.1794 -0.1785
 2047SOL     OW17776   0.680   0.731   1.690  0.3194  0.8525  0.2299
 2047SOL    HW117777   0.679   0.776   1.775 -2.1000  1.6309 -0.1961
 2047SOL    HW217778   0.627   0.794   1.640 -0.5412  0.4528  0.6366
 2048SOL     OW17779   1.763   4.416  12.682 -0.2822 -0.0582  0.2399
 2048SOL    HW117780   1.815   4.396  12.760  1.8458 -0.5152 -1.2948
 2048SOL    HW217781   1.824   4.405  12.609 -0.2732  2.0720 -0.0554
 2049SOL     OW17782   3.813   4.132   9.016 -0.0162 -0.1869 -0.0359
 2049SOL    HW117783   3.901   4.165   8.995  0.1695 -2.0760 -2.1477
 2049SOL    HW217784   3.830   4.066   9.083 -1.6859 -0.5107  0.0623
 2050SOL     OW17785   0.603   0.463   1.719  0.2749  0.0754  0.2810
 2050SOL    HW117786   0.655   0.414   1.655 -1.2583  1.4455 -2.0192
 2050SOL    HW217787   0.638   0.552   1.714  0.4084  0.0538  0.8534
 2051SOL     OW17788   3.462   1.027   6.757 -0.2224 -0.0519  0.3277
 2051SOL    HW117789   3.485   1.026   6.664 -1.2084 -1.7793  0.0967
 2051SOL    HW217790   3.375   1.068   6.751 -0.5780 -1.1563 -2.0267
 2052SOL     OW17791   0.376   3.226   1.770  0.6571  0.5568  0.0131
 2052SOL    HW117792   0.292   3.258   1.736  1.2339 -1.1545 -3.0434
 2052SOL    HW217793   0.406   3.154   1.714 -0.9532  0.1221 -0.2945
 2053SOL     OW17794   3.105   1.005   9.336 -0.3723 -0.2618  0.0892
 2053SOL    HW117795   3.056   0.952   9.274 -0.3935  0.8677 -0.8619
 2053SOL    HW217796   3.177   1.040   9.282  0.3653 -1.2871  0.4054
 2054SOL     OW17797   2.369   1.366  10.827 -0.2320 -0.4678 -0.3305
 2054SOL    HW117798   2.313   1.421  10.880 -0.0541  0.5316 -1.1736
 2054SOL    HW217799   2.323   1.367  10.743 -1.8404  0.9725  0.5802
 2055SOL     OW17800   2.399   4.119   6.884  0.4891  0.1480  0.3232
 2055SOL    HW117801   2.447   4.061   6.826  0.1171 -2.0450  2.2204
 2055SOL    HW217802   2.393   4.065   6.963 -0.0160  0.4353  0.4845
 2056SOL     OW17803   0.943   2.470   8.400  0.3106  0.3406 -0.3783
 2056SOL    HW117804   1.032   2.442   8.424 -0.7790 -2.4051  0.5288
 2056SOL    HW217805   0.948   2.536   8.331  0.0383  0.7922  0.0362
 2057SOL     OW17806   0.479   2.707   9.343 -0.2212 -0.7532 -0.4951
 2057SOL    HW117807   0.399   2.759   9.352  0.3013 -0.1304  0.6656
 2057SOL    HW217808   0.476   2.685   9.250  4.2506  0.0348 -0.8454
 2058SOL     OW17809   1.993   2.232   3.275  0.7265 -0.0585 -0.1363
 2058SOL    HW117810   2.012   2.141   3.301  0.3529 -0.4539 -1.2844
 2058SOL    HW217811   2.074   2.253   3.228  0.5092 -0.5772 -0.7486
 2059SOL     OW17812   0.838   2.182   9.536  0.7292 -0.0919 -0.1035
 2059SOL    HW117813   0.847   2.100   9.584 -2.9703  0.2098  1.1274
 2059SOL    HW217814   0.900   2.239   9.581  1.5683  0.0119 -1.3911
 2060SOL     OW17815   0.636   3.245   5.687 -0.1225  0.3787 -0.0482
 2060SOL    HW117816   0.640   3.161   5.732  1.0459 -0.1101 -1.0743
 2060SOL    HW217817   0.713   3.293   5.717  0.1919  0.4606 -0.9670
 2061SOL     OW17818   3.932   1.562   8.631  0.4640 -0.3806 -0.6524
 2061SOL    HW117819   3.902   1.479   8.594  1.3199 -0.3878 -1.3287
 2061SOL    HW217820   3.931   1.614   8.551  0.1401  2.6952  1.3655
 2062SOL     OW17821   3.486   2.075   7.472  0.1103  0.6063  0.3274
 2062SOL    HW117822   3.559   2.036   7.424  0.8527  1.3975  0.8251
 2062SOL    HW217823   3.416   2.029   7.426 -0.1386  0.7268  0.5851
 2063SOL     OW17824   1.951   1.331   3.635  0.3717  0.3051  0.1115
 2063SOL    HW117825   1.947   1.402   3.699  0.2113  2.0839 -1.8595
 2063SOL    HW217826   1.898   1.377   3.569 -0.0717  0.0375  0.2811
 2064SOL     OW17827   1.995   3.240   6.562 -0.0115  0.5182 -0.3428
 2064SOL    HW117828   1.988   3.289   6.480 -1.6352 -1.1046 -1.1811
 2064SOL    HW217829   2.039   3.300   6.622  0.0426  0.5046 -0.3688
 2065SOL     OW17830   3.801   3.232   3.981  0.1304  0.3012  0.0088
 2065SOL    HW117831   3.787   3.307   4.038  0.0545  1.3161 -1.3511
 2065SOL    HW217832   3.888   3.247   3.944  1.2615 -1.6979  1.8670
 2066SOL     OW17833   1.956   1.169   4.569  0.1730  0.6761  0.2560
 2066SOL    HW117834   1.879   1.149   4.515  1.2171 -0.9969 -0.6139
 2066SOL    HW217835   2.022   1.177   4.499  3.1595  2.8897  3.3281
 2067SOL     OW17836   0.422   1.829   0.596 -0.0624  0.2188 -0.5543
 2067SOL    HW117837   0.331   1.857   0.583  0.0053  0.2209 -1.0084
 2067SOL    HW217838   0.401   1.737   0.615  0.9006 -0.4544 -2.7493
 2068SOL     OW17839   3.670   1.078  10.785 -0.3824 -0.1381  0.3343
 2068SOL    HW117840   3.584   1.107  10.815  0.9436  2.1870  1.8209
 2068SOL    HW217841   3.670   1.111  10.695  1.6527  0.0003  0.3859
 2069SOL     OW17842   1.531   1.146   9.355 -0.5093  0.6403  1.0426
 2069SOL    HW117843   1.609   1.092   9.358 -0.3411  0.8505  0.3622
 2069SOL    HW217844   1.464   1.093   9.311 -1.8940  2.4969  0.8996
 2070SOL     OW17845   0.348   3.351   8.172 -0.1776 -0.1933 -0.5372
 2070SOL    HW117846   0.391   3.436   8.161 -0.0940 -0.1397  0.2526
 2070SOL    HW217847   0.311   3.361   8.259  0.0392  0.1868 -0.4905
 2071SOL     OW17848   1.919   3.014   3.330  0.2490  0.0329  0.4794
 2071SOL    HW117849   1.974   2.960   3.387  0.4241  0.8140  1.0611
 2071SOL    HW217850   1.852   3.030   3.397 -1.8069 -2.0915 -1.1090
 2072SOL     OW17851   1.689   3.766   6.083 -0.2724 -0.3332  0.2768
 2072SOL    HW117852   1.745   3.841   6.104 -1.0908 -0.3108  2.4281
 2072SOL    HW217853   1.649   3.751   6.169 -1.1341  0.6474  0.0601
 2073SOL     OW17854   4.254   2.520   3.701  0.0843  0.5754 -0.4744
 2073SOL    HW117855   4.325   2.567   3.655 -0.8739  2.7838  0.3069
 2073SOL    HW217856   4.255   2.561   3.787  0.9629  0.9646 -0.6617
 2074SOL     OW17857   3.358   1.142  17.630 -0.0190  0.2397 -0.0059
 2074SOL    HW117858   3.417   1.191  17.688 -0.6760  0.8719  0.1283
 2074SOL    HW217859   3.321   1.222  17.592 -1.2400 -1.1595 -1.7256
 2075SOL     OW17860   3.350   0.247   4.957  0.2050  0.0656  0.2426
 2075SOL    HW117861   3.332   0.213   5.045 -0.9087 -1.2594 -0.5041
 2075SOL    HW217862   3.260   0.257   4.926  0.4968 -0.8649 -0.9377
 2076SOL     OW17863   2.857   2.988   5.402 -0.2367  0.1237 -0.0638
 2076SOL    HW117864   2.909   3.046   5.346 -0.3488 -0.6124 -0.9280
 2076SOL    HW217865   2.913   2.911   5.396  0.9031  0.9206  0.2532
 2077SOL     OW17866   4.306   2.453  12.677 -0.0931 -0.0283 -0.2074
 2077SOL    HW117867   4.398   2.455  12.702 -0.9094 -0.6269  2.8759
 2077SOL    HW217868   4.300   2.508  12.599 -2.3967 -1.1943 -0.8794
 2078SOL     OW17869   1.831   4.376   2.872  0.5140 -0.0959 -0.2595
 2078SOL    HW117870   1.830   4.457   2.923  1.1465  0.2349 -0.7643
 2078SOL    HW217871   1.886   4.322   2.928  0.0762  0.5421  0.7857
 2079SOL     OW17872   2.649   4.335   2.426 -0.0201  0.7356 -0.1678
 2079SOL    HW117873   2.679   4.421   2.395  3.7898  0.3720  2.5036
 2079SOL    HW217874   2.723   4.280   2.400 -3.4277 -4.0588  0.2185
 2080SOL     OW17875   1.203   1.605   1.676 -0.2416 -0.4665 -0.2033
 2080SOL    HW117876   1.179   1.520   1.714  1.7399  0.1099  2.3550
 2080SOL    HW217877   1.217   1.661   1.753 -1.6662 -0.8378  0.3429
 2081SOL     OW17878   4.053   0.061   3.226  0.5178 -0.4439 -0.4471
 2081SOL    HW117879   3.961   0.039   3.235  0.3744  0.9728  1.4228
 2081SOL    HW217880   4.045   0.153   3.203  0.2264  0.0982  1.7804
 2082SOL     OW17881   1.773   1.288   9.010 -0.2915  0.3720 -0.6896
 2082SOL    HW117882   1.864   1.304   9.035 -0.1942  0.8273 -1.3398
 2082SOL    HW217883   1.765   1.349   8.937  0.1578 -2.2243 -2.8827
 2083SOL     OW17884   3.313   0.692   0.679 -0.6649  0.3846  0.0909
 2083SOL    HW117885   3.265   0.628   0.627  1.9405 -2.3992  1.1277
 2083SOL    HW217886   3.399   0.667   0.648  0.5613  0.0217  3.7362
 2084SOL     OW17887   4.399   3.963  12.770 -0.6362 -0.7016  0.0784
 2084SOL    HW117888   4.467   3.933  12.709  0.6331  1.1490  0.5950
 2084SOL    HW217889   4.333   3.894  12.765 -0.3140 -0.9850 -0.2963
 2085SOL     OW17890   2.153   0.071   6.374 -0.3026  0.0374  0.6306
 2085SOL    HW117891   2.245   0.081   6.399  0.1346  0.4601 -1.1153
 2085SOL    HW217892   2.128   4.740   6.430 -2.8937  0.1156 -0.4314
 2086SOL     OW17893   1.937   2.170   7.093  0.0834  0.0818  0.3457
 2086SOL    HW117894   1.917   2.138   7.005  0.6877 -2.2793  1.0791
 2086SOL    HW217895   2.024   2.134   7.112 -0.6647 -1.5037  0.7360
 2087SOL     OW17896   2.257   2.107   5.492 -0.3431  0.0410 -0.4456
 2087SOL    HW117897   2.352   2.113   5.505 -0.1148 -3.2787 -0.7267
 2087SOL    HW217898   2.255   2.055   5.411  1.9590 -2.3325  1.0402
 2088SOL     OW17899   0.450   1.993   7.429  0.0709  0.2805 -1.0402
 2088SOL    HW117900   0.449   2.088   7.442 -0.7937  0.1767 -0.3198
 2088SOL    HW217901   0.442   1.962   7.520  0.2673  3.6222  0.1357
 2089SOL     OW17902   3.038   3.650   0.502  0.7047  0.4265 -0.1907
 2089SOL    HW117903   3.038   3.565   0.460  0.2909 -0.0148  0.7010
 2089SOL    HW217904   3.099   3.641   0.576 -0.3605 -1.7959  0.4146
 2090SOL     OW17905   1.411   2.240   6.027  0.0317 -0.1132  0.2506
 2090SOL    HW117906   1.421   2.203   6.115 -1.3740  1.1025  0.9328
 2090SOL    HW217907   1.362   2.320   6.047 -0.4840  0.1474 -2.1145
 2091SOL     OW17908   0.427   2.810  16.883 -0.0841  0.2877  0.2256
 2091SOL    HW117909   0.482   2.750  16.933  1.0826  1.4920  0.3729
 2091SOL    HW217910   0.400   2.753  16.810  0.6925  0.2949 -0.0706
 2092SOL     OW17911   2.812   2.212  15.046  0.0353  0.4341 -0.3736
 2092SOL    HW117912   2.789   2.119  15.037  0.4086  0.1308  1.7725
 2092SOL    HW217913   2.830   2.238  14.956  4.4249  1.0962  0.6774
 2093SOL     OW17914   2.612   4.113   5.688  0.1344 -1.2221 -0.2122
 2093SOL    HW117915   2.609   4.197   5.643  0.8078 -1.1886 -0.1909
 2093SOL    HW217916   2.547   4.071   5.631  2.4906 -0.7800 -3.2253
 2094SOL     OW17917   2.934   3.444   5.227 -0.0708  0.6178  0.3430
 2094SOL    HW117918   2.985   3.454   5.307  3.3553  1.9784 -1.9861
 2094SOL    HW217919   2.976   3.518   5.182 -0.5889  1.2630  0.9192
 2095SOL     OW17920   1.729   0.535   8.309  0.0840  0.2765  0.4841
 2095SOL    HW117921   1.674   0.495   8.376  0.5853 -1.7397 -0.3145
 2095SOL    HW217922   1.694   0.516   8.222 -0.8237 -1.9759  1.3415
 2096SOL     OW17923   4.283   1.175  11.898 -0.2307 -0.1683 -0.3097
 2096SOL    HW117924   4.364   1.141  11.860  0.0724 -0.4054  0.5502
 2096SOL    HW217925   4.266   1.109  11.966 -0.3931  1.0730  0.8591
 2097SOL     OW17926   0.732   4.563   7.413  0.1022  0.1525  0.0119
 2097SOL    HW117927   0.739   4.468   7.413 -0.6708  0.0952  0.6913
 2097SOL    HW217928   0.786   4.587   7.338 -3.6177  3.0011 -1.7288
 2098SOL     OW17929   2.774   1.615   9.829  0.8814  0.0421 -0.4377
 2098SOL    HW117930   2.681   1.624   9.850  0.4376  0.1583 -2.4373
 2098SOL    HW217931   2.784   1.664   9.747  1.0495 -1.6729 -1.4445
 2099SOL     OW17932   2.813   2.047   2.797 -0.0212  0.5264  0.1032
 2099SOL    HW117933   2.830   2.128   2.846 -0.6712  0.4200  0.5190
 2099SOL    HW217934   2.891   2.002   2.827  0.1633  0.2398 -0.8194
 2100SOL     OW17935   2.586   2.140   7.105 -0.0680  0.2571  0.3219
 2100SOL    HW117936   2.675   2.110   7.091 -0.1897 -0.4765  1.1122
 2100SOL    HW217937   2.621   2.187   7.181  0.8689  0.2841 -0.1280
 2101SOL     OW17938   0.126   1.367  15.171  0.7155  0.0321 -0.2342
 2101SOL    HW117939   0.069   1.297  15.138  1.8601 -0.7795 -0.4796
 2101SOL    HW217940   0.207   1.322  15.194  1.5478  1.5267 -0.2775
 2102SOL     OW17941   4.577   4.239   4.068 -0.4102  0.0974  0.7556
 2102SOL    HW117942   4.614   4.175   4.008 -0.3900  0.0980  0.7675
 2102SOL    HW217943   4.498   4.268   4.023  0.7910  0.1500 -1.3267
 2103SOL     OW17944   0.594   0.679   6.725 -0.0531  0.8551  0.6215
 2103SOL    HW117945   0.622   0.702   6.636  0.6760 -0.0651  0.6148
 2103SOL    HW217946   0.575   0.764   6.765 -0.2861  1.0733  0.0505
 2104SOL     OW17947   1.400   1.929   8.486  0.1760  0.1979 -0.0875
 2104SOL    HW117948   1.414   2.014   8.527 -0.2735 -0.5081  1.5036
 2104SOL    HW217949   1.350   1.886   8.555 -1.7464  2.3826 -0.1226
 2105SOL     OW17950   2.720   3.035  17.574 -0.1580 -0.1174  0.1497
 2105SOL    HW117951   2.658   2.976  17.616 -2.0667  1.8823  0.1055
 2105SOL    HW217952   2.796   3.034  17.633 -1.3965  0.1089  1.7270
 2106SOL     OW17953   1.079   1.142   1.189 -0.1722 -0.1460  0.5570
 2106SOL    HW117954   1.135   1.153   1.265 -0.6756  1.5225  0.7006
 2106SOL    HW217955   1.034   1.226   1.174 -1.1714 -0.8714 -0.5108
 2107SOL     OW17956   4.074   4.559   4.554  0.6755  0.2382  1.2608
 2107SOL    HW117957   3.992   4.591   4.591 -0.6484 -0.9947 -0.6349
 2107SOL    HW217958   4.135   4.629   4.578  0.0474  0.7637  1.3084
 2108SOL     OW17959   1.330   3.696  15.253 -0.1300  0.2059  0.9976
 2108SOL    HW117960   1.301   3.763  15.191  0.8421  0.7431  1.1223
 2108SOL    HW217961   1.369   3.752  15.320 -0.1642  0.9660  0.3802
 2109SOL     OW17962   3.101   2.584  16.273 -0.0184 -0.6574  0.3416
 2109SOL    HW117963   3.141   2.518  16.217 -0.4725 -1.5661  1.0778
 2109SOL    HW217964   3.102   2.536  16.356  0.2409 -1.5120 -0.1573
 2110SOL     OW17965   0.308   1.764   4.896 -0.5502  0.8653  0.0497
 2110SOL    HW117966   0.341   1.683   4.858 -1.9935  1.0410 -1.6224
 2110SOL    HW217967   0.280   1.817   4.820  3.3837  1.4412 -0.9715
 2111SOL     OW17968   4.632   0.553  10.148  0.1718 -0.4308 -0.1577
 2111SOL    HW117969   4.640   0.632  10.095 -1.6985 -0.5491 -0.6135
 2111SOL    HW217970   4.698   0.577  10.213  1.8402  0.2664 -2.1009
 2112SOL     OW17971   1.241   2.683   6.810  0.1411  0.0493 -0.8366
 2112SOL    HW117972   1.262   2.735   6.887  1.4114 -1.1012 -0.3937
 2112SOL    HW217973   1.151   2.713   6.800 -0.4317 -2.0699 -2.0402
 2113SOL     OW17974   3.238   3.966   1.554  0.3858 -0.0962 -0.2199
 2113SOL    HW117975   3.217   4.027   1.484 -0.4367  1.6565  1.5345
 2113SOL    HW217976   3.170   3.991   1.617 -2.5522 -2.2221 -2.5754
 2114SOL     OW17977   3.858   3.420   6.257 -0.4967 -1.0954  0.3146
 2114SOL    HW117978   3.904   3.410   6.174 -1.8958  0.6295 -0.6823
 2114SOL    HW217979   3.768   3.387   6.248  0.2419 -3.1483  0.4987
 2115SOL     OW17980   0.201   0.544  12.467  0.4810 -0.7692 -0.3730
 2115SOL    HW117981   0.208   0.632  12.504 -0.9924 -0.8714  0.1743
 2115SOL    HW217982   0.109   0.522  12.486 -0.2878  2.1967 -0.5963
 2116SOL     OW17983   0.541   4.447   2.074  0.1964  0.4006 -0.1448
 2116SOL    HW117984   0.562   4.447   2.168  0.6163 -0.8255 -0.2457
 2116SOL    HW217985   0.461   4.395   2.080 -0.6020  1.8149  1.3776
 2117SOL     OW17986   4.382   1.004   6.855  0.4665 -0.2800  0.0495
 2117SOL    HW117987   4.428   1.071   6.906  1.8449 -0.7635 -0.5555
 2117SOL    HW217988   4.416   1.012   6.766 -0.7441 -1.5144 -0.5102
 2118SOL     OW17989   2.675   2.930   8.242 -0.2008 -0.8180  0.5144
 2118SOL    HW117990   2.698   2.913   8.151  2.4988 -1.1480  1.2597
 2118SOL    HW217991   2.755   2.912   8.292  0.5145  0.3003 -0.2218
 2119SOL     OW17992   0.953   1.422   1.886  0.3510  0.2065 -0.0627
 2119SOL    HW117993   0.881   1.454   1.831 -0.0207  0.6449  0.6903
 2119SOL    HW217994   1.026   1.391   1.832  0.4144 -0.3016  0.3125
 2120SOL     OW17995   3.930   3.929   7.784  0.1715 -0.1613 -0.3612
 2120SOL    HW117996   3.932   3.947   7.690  2.3690 -1.3403 -0.5567
 2120SOL    HW217997   4.012   3.968   7.815  0.1054  1.6255 -2.4226
 2121SOL     OW17998   3.334   0.656  10.842  0.5191  0.5937 -0.8405
 2121SOL    HW117999   3.324   0.583  10.781 -1.2719  0.7591 -0.7439
 2121SOL    HW218000   3.408   0.635  10.898 -0.3117  1.4160  0.5587
 2122SOL     OW18001   4.176   4.412   0.448  0.4352  0.1805 -0.2276
 2122SOL    HW118002   4.228   4.341   0.484  1.5519  1.3920  0.5465
 2122SOL    HW218003   4.202   4.490   0.498  0.9546  0.3808 -0.8095
 2123SOL     OW18004   3.620   2.819   3.177 -0.1805  0.2060 -0.2502
 2123SOL    HW118005   3.639   2.905   3.216  1.0342 -0.0290 -0.3254
 2123SOL    HW218006   3.526   2.806   3.189 -0.3128  1.3303 -0.0243
 2124SOL     OW18007   2.754   2.289   9.773 -0.6572  0.2642  0.0876
 2124SOL    HW118008   2.680   2.280   9.833 -1.1002 -1.0306 -0.6627
 2124SOL    HW218009   2.787   2.200   9.778 -1.5881 -0.1709 -1.5287
 2125SOL     OW18010   1.077   3.633  11.377  0.0922  0.7976  0.3046
 2125SOL    HW118011   1.131   3.555  11.379 -1.0074 -0.0097 -2.0323
 2125SOL    HW218012   1.115   3.689  11.309 -1.6842  1.6456 -0.0094
 2126SOL     OW18013   4.062   3.773   6.624  0.0998  0.3369 -0.1216
 2126SOL    HW118014   4.109   3.848   6.587 -0.3713  0.1639 -1.0615
 2126SOL    HW218015   4.017   3.747   6.544  1.8194 -1.7639 -0.4082
 2127SOL     OW18016   2.924   0.907   4.902 -0.3166 -0.3629 -0.4516
 2127SOL    HW118017   2.917   0.868   4.814 -1.0902  1.1234 -1.0454
 2127SOL    HW218018   2.970   0.988   4.879 -0.0648 -0.7773 -1.4485
 2128SOL     OW18019   3.280   0.915  15.055 -0.4964 -0.4743  0.1928
 2128SOL    HW118020   3.244   0.839  15.011 -0.0893 -0.8257  0.4634
 2128SOL    HW218021   3.204   0.947  15.103 -0.1521  0.8650 -0.1473
 2129SOL     OW18022   0.885   3.894   3.872 -0.2455 -0.2314 -0.0800
 2129SOL    HW118023   0.977   3.914   3.892 -0.1581 -1.3426  0.6354
 2129SOL    HW218024   0.880   3.812   3.922  1.8868  0.7400  1.7521
 2130SOL     OW18025   1.587   3.458   2.336 -0.1135 -0.0795  0.5861
 2130SOL    HW118026   1.567   3.380   2.388  1.4670 -0.2075  1.0090
 2130SOL    HW218027   1.678   3.466   2.365 -0.4588  0.0472  1.6466
 2131SOL     OW18028   3.669   4.118   7.230 -0.4813 -0.0421  0.7073
 2131SOL    HW118029   3.675   4.138   7.323  1.7308 -2.6307  1.1134
 2131SOL    HW218030   3.673   4.023   7.242  0.5818 -0.1737 -0.6864
 2132SOL     OW18031   0.245   1.358   4.678  0.3759 -0.5221  0.0801
 2132SOL    HW118032   0.306   1.284   4.679 -0.7156 -1.4605 -1.9119
 2132SOL    HW218033   0.187   1.322   4.745 -0.0745 -1.1577 -0.6468
 2133SOL     OW18034   2.429   1.161   5.687 -0.3130  0.0248  0.0249
 2133SOL    HW118035   2.407   1.090   5.747  2.1128  0.0019  0.9037
 2133SOL    HW218036   2.521   1.135   5.686 -0.5410 -0.7331 -0.6980
 2134SOL     OW18037   4.200   3.226  15.179  0.0633 -0.6525 -0.0756
 2134SOL    HW118038   4.111   3.214  15.146 -0.2975  0.9357  0.3236
 2134SOL    HW218039   4.184   3.297  15.241 -1.4356 -1.5409  0.5724
 2135SOL     OW18040   1.716   3.956  14.494 -0.0494 -0.0567 -0.0090
 2135SOL    HW118041   1.703   3.876  14.546  0.6424 -0.6534 -0.7508
 2135SOL    HW218042   1.808   3.945  14.469 -0.5374 -1.1125 -1.3560
 2136SOL     OW18043   3.498   2.072  16.820 -0.4164 -0.3889  0.5250
 2136SOL    HW118044   3.412   2.100  16.852 -0.5749 -0.4308  0.1456
 2136SOL    HW218045   3.471   1.981  16.812  1.1320 -0.8214  0.1728
 2137SOL     OW18046   2.250   2.332   3.208  0.0058 -0.0044 -0.0287
 2137SOL    HW118047   2.285   2.367   3.290  1.8987 -1.5472 -0.1924
 2137SOL    HW218048   2.295   2.380   3.139  1.0212 -0.5833  0.2332
 2138SOL     OW18049   2.111   4.070   8.293 -0.1201 -0.0318 -0.2179
 2138SOL    HW118050   2.140   4.052   8.203 -2.2472 -1.8119 -0.5327
 2138SOL    HW218051   2.194   4.074   8.341  0.9574  0.8064 -2.1687
 2139SOL     OW18052   0.539   2.110   5.866 -0.7561  0.6697  0.4787
 2139SOL    HW118053   0.531   2.023   5.905 -1.1637 -0.1715 -1.4672
 2139SOL    HW218054   0.566   2.090   5.776 -3.2426  0.3871 -0.1945
 2140SOL     OW18055   3.377   4.158  17.362  0.9219  0.7291  0.1241
 2140SOL    HW118056   3.466   4.186  17.342  0.2840  2.2115 -0.7266
 2140SOL    HW218057   3.327   4.190  17.287  2.0917  0.7432 -0.6531
 2141SOL     OW18058   1.174   0.985  14.907 -0.0330  0.0725  0.1534
 2141SOL    HW118059   1.205   1.026  14.826 -1.4378  1.8465  0.5138
 2141SOL    HW218060   1.086   1.021  14.914  0.1259  0.4031  0.4525
 2142SOL     OW18061   1.778   1.604  14.152  0.2544 -0.2889  0.1075
 2142SOL    HW118062   1.823   1.657  14.218  0.6022 -0.5688  0.0932
 2142SOL    HW218063   1.828   1.523  14.154 -1.9357 -1.6794 -1.4769
 2143SOL     OW18064   1.755   0.248  11.502 -0.0741  0.3307 -0.7030
 2143SOL    HW118065   1.816   0.261  11.575  0.7475  0.0503 -1.3507
 2143SOL    HW218066   1.694   0.187  11.543  0.2920 -0.2996 -1.0969
 2144SOL     OW18067   2.643   0.204   1.985 -0.0747  0.2235  0.4632
 2144SOL    HW118068   2.655   0.299   1.975  0.6060 -0.0296 -1.1682
 2144SOL    HW218069   2.706   0.177   2.052  0.1033 -1.4306 -0.3645
 2145SOL     OW18070   0.496   4.034  14.685  0.2240  0.5524 -0.2832
 2145SOL    HW118071   0.463   3.985  14.610  0.9229 -0.9546  0.4028
 2145SOL    HW218072   0.585   4.001  14.689 -0.0669  0.1913  2.6478
 2146SOL     OW18073   0.566   1.185  16.574 -0.0012 -0.2575 -0.2209
 2146SOL    HW118074   0.541   1.260  16.521  2.0847 -0.4971 -1.5738
 2146SOL    HW218075   0.651   1.160  16.537 -0.3373 -2.5906  0.5654
 2147SOL     OW18076   4.374   1.618   5.805  0.0280  0.4058  0.8053
 2147SOL    HW118077   4.363   1.558   5.879 -1.4872  0.5068  0.6569
 2147SOL    HW218078   4.294   1.605   5.755  1.4601  0.4589 -1.4702
 2148SOL     OW18079   2.505   4.375   0.377 -0.5176  0.0626 -0.3377
 2148SOL    HW118080   2.575   4.350   0.317  2.0748  1.3117  2.1256
 2148SOL    HW218081   2.525   4.309   0.444 -1.2553 -1.0411 -1.2071
 2149SOL     OW18082   1.468   4.528   4.602 -0.2660  0.3239  0.4521
 2149SOL    HW118083   1.515   4.554   4.523 -2.1961  0.1828 -0.7289
 2149SOL    HW218084   1.485   4.613   4.642 -1.9581 -0.9450  3.9077
 2150SOL     OW18085   2.569   0.071   7.344 -1.2438 -0.1655 -0.0446
 2150SOL    HW118086   2.578   0.059   7.438 -1.3527 -0.2122 -0.0398
 2150SOL    HW218087   2.651   0.119   7.331 -1.0572 -0.5314 -0.2204
 2151SOL     OW18088   4.637   1.388  12.226 -0.3608  0.1341 -0.1776
 2151SOL    HW118089   4.577   1.319  12.196  1.2709 -1.1874 -0.4305
 2151SOL    HW218090   4.700   1.336  12.277 -1.0136 -2.1320 -1.6673
 2152SOL     OW18091   2.474   2.718  16.144 -0.1458 -0.1032 -0.3385
 2152SOL    HW118092   2.384   2.706  16.173 -0.4386  1.1621 -0.7007
 2152SOL    HW218093   2.500   2.633  16.110 -0.1791 -0.9555  1.7758
 2153SOL     OW18094   4.515   3.333   2.266  0.2412 -0.3116 -0.6710
 2153SOL    HW118095   4.567   3.346   2.186  2.0097 -0.4623  0.4531
 2153SOL    HW218096   4.581   3.291   2.321  0.8157  0.0594 -1.0708
 2154SOL     OW18097   1.924   3.061  12.291 -0.0283  0.1554  0.3209
 2154SOL    HW118098   1.853   3.065  12.226 -0.3391 -0.9745  0.6007
 2154SOL    HW218099   1.964   3.147  12.278 -2.4644  1.2195 -0.2983
 2155SOL     OW18100   0.346   4.033   3.911 -0.8802  0.3621 -0.0122
 2155SOL    HW118101   0.382   3.968   3.852  2.6280  0.4144  2.0912
 2155SOL    HW218102   0.270   3.984   3.943 -0.4792 -1.1961 -1.4469
 2156SOL     OW18103   0.923   0.717   5.648  0.4896 -0.4432  0.3375
 2156SOL    HW118104   0.903   0.628   5.619 -0.7030 -0.5766  1.5827
 2156SOL    HW218105   1.010   0.724   5.609 -1.3148  3.6662 -2.8663
 2157SOL     OW18106   4.712   3.298   2.563  0.1575 -0.3962 -0.2086
 2157SOL    HW118107   0.004   3.295   2.653 -0.7609 -0.7403  0.1292
 2157SOL    HW218108   4.729   3.390   2.545 -0.0953 -0.4719 -0.8220
 2158SOL     OW18109   2.674   2.727   5.554  0.5175  1.0114  0.0853
 2158SOL    HW118110   2.768   2.711   5.542 -0.2176 -1.9834 -1.6864
 2158SOL    HW218111   2.649   2.723   5.461 -1.1018  2.5473  0.4657
 2159SOL     OW18112   1.552   3.512   1.484 -0.0639  0.3161  0.4195
 2159SOL    HW118113   1.490   3.511   1.557 -1.9663 -0.4016 -1.2196
 2159SOL    HW218114   1.488   3.509   1.413 -0.0048 -1.1809  0.4271
 2160SOL     OW18115   2.559   1.103   2.627  0.3217 -0.2993 -0.0546
 2160SOL    HW118116   2.545   1.128   2.719  1.4774  0.0548  0.0272
 2160SOL    HW218117   2.502   1.027   2.616 -0.2937  0.4304 -1.9087
 2161SOL     OW18118   4.500   0.110   3.793  0.7799 -0.1391 -0.0614
 2161SOL    HW118119   4.576   0.085   3.846 -0.2779 -2.4190  0.3636
 2161SOL    HW218120   4.517   0.058   3.715  3.0526 -0.0765  0.3820
 2162SOL     OW18121   3.265   2.499   5.688 -0.0954 -0.4424  0.5723
 2162SOL    HW118122   3.262   2.417   5.737  0.0566  0.3813  1.9706
 2162SOL    HW218123   3.221   2.474   5.607 -0.2868  0.6071  0.3488
 2163SOL     OW18124   0.372   4.068  10.637  0.0708 -0.3675  0.4085
 2163SOL    HW118125   0.369   4.037  10.728 -2.7903 -1.4245 -0.0364
 2163SOL    HW218126   0.407   4.155  10.653  1.2343 -0.7360 -0.1179
 2164SOL     OW18127   1.771   2.860   3.097 -0.1377  0.0651  0.4365
 2164SOL    HW118128   1.809   2.906   3.173  0.3092 -1.3829  1.0915
 2164SOL    HW218129   1.678   2.851   3.119 -0.1634  1.1546  0.7853
 2165SOL     OW18130   1.241   2.861   4.794 -0.7652 -0.0132 -0.2333
 2165SOL    HW118131   1.290   2.822   4.722 -0.0927 -0.4473  0.4648
 2165SOL    HW218132   1.216   2.781   4.841  1.7499  0.0432  1.2019
 2166SOL     OW18133   0.292   1.597   5.985 -0.0022 -0.5122 -0.2025
 2166SOL    HW118134   0.385   1.575   5.973 -0.3703 -0.7646 -2.5726
 2166SOL    HW218135   0.254   1.587   5.898  0.0903 -1.9251 -0.0759
 2167SOL     OW18136   4.169   4.635   2.942 -0.1111  0.3363  0.4862
 2167SOL    HW118137   4.119   4.673   3.014  0.4511  2.2166 -0.1018
 2167SOL    HW218138   4.246   4.602   2.986 -1.0543 -2.6396 -0.1260
 2168SOL     OW18139   1.005   1.037   6.698  0.4606 -0.1256 -0.6246
 2168SOL    HW118140   1.093   1.072   6.704 -0.2093  1.4057  0.3320
 2168SOL    HW218141   0.957   1.097   6.755 -1.3334 -0.8927 -1.3188
 2169SOL     OW18142   2.701   2.427  16.762  0.5129 -0.3177 -0.5138
 2169SOL    HW118143   2.686   2.477  16.843  0.6341 -0.6062 -0.3123
 2169SOL    HW218144   2.702   2.494  16.694 -2.0288 -1.7031 -1.8821
 2170SOL     OW18145   4.087   1.179  13.748  0.2653 -0.4959  0.2312
 2170SOL    HW118146   4.006   1.186  13.698  0.9244 -0.5504 -0.8321
 2170SOL    HW218147   4.146   1.214  13.681 -1.4571 -0.5720 -1.3156
 2171SOL     OW18148   0.125   3.092   1.901  0.1965  0.0366  0.2394
 2171SOL    HW118149   0.091   3.042   1.827  0.1895  0.9736 -0.3956
 2171SOL    HW218150   0.191   3.031   1.934 -1.3746 -1.9342 -0.3064
 2172SOL     OW18151   1.633   1.807   4.543  0.0452  1.0379 -0.2376
 2172SOL    HW118152   1.602   1.722   4.511 -0.5708  1.2216 -0.1173
 2172SOL    HW218153   1.627   1.798   4.639  0.7109 -0.8734 -0.3545
 2173SOL     OW18154   4.606   2.964   3.391 -0.2342 -0.0343  0.2660
 2173SOL    HW118155   4.626   3.034   3.330 -0.6239 -0.4680 -0.3534
 2173SOL    HW218156   4.520   2.947   3.354  0.5088  3.5322 -3.0196
 2174SOL     OW18157   2.697   2.048   8.096 -0.1519  0.0823 -0.2894
 2174SOL    HW118158   2.683   2.140   8.119 -0.1230  0.1815 -0.6768
 2174SOL    HW218159   2.705   2.052   8.001  0.8078 -1.5830 -0.2648
 2175SOL     OW18160   0.275   2.518   4.115 -0.2726  0.7682 -0.7814
 2175SOL    HW118161   0.339   2.573   4.159  0.0255  0.1570 -0.4515
 2175SOL    HW218162   0.317   2.433   4.123 -0.6442  0.6098 -0.5329
 2176SOL     OW18163   1.941   2.711   2.093 -0.1285 -0.2936  0.2669
 2176SOL    HW118164   2.025   2.706   2.139  0.1028  0.5826 -0.0578
 2176SOL    HW218165   1.928   2.620   2.067 -0.0659 -0.3080  0.2852
 2177SOL     OW18166   3.628   2.566  15.484  0.3251  0.1615  0.3841
 2177SOL    HW118167   3.544   2.553  15.440  0.4049  0.2666  0.2019
 2177SOL    HW218168   3.597   2.596  15.570 -0.5364 -0.6573  0.3605
 2178SOL     OW18169   0.539   1.803  15.357 -0.5491 -0.0516  0.2986
 2178SOL    HW118170   0.536   1.894  15.386 -3.2159  0.6684 -2.2431
 2178SOL    HW218171   0.577   1.813  15.270  0.4738 -0.1331  0.7252
 2179SOL     OW18172   4.437   0.055  13.131 -0.4722  0.0724 -0.2144
 2179SOL    HW118173   4.387   4.722  13.100 -1.7265  1.2106 -0.9374
 2179SOL    HW218174   4.516   0.040  13.080 -1.5997 -0.8494 -1.6823
 2180SOL     OW18175   3.376   0.614   3.533  0.1583 -0.3158 -0.1279
 2180SOL    HW118176   3.358   0.526   3.498 -0.1985  0.0074 -0.7592
 2180SOL    HW218177   3.416   0.607   3.620  0.1622  2.1776  0.0762
 2181SOL     OW18178   3.455   3.860  13.549  0.4225 -0.0515  0.2700
 2181SOL    HW118179   3.379   3.899  13.507 -0.0123 -2.0821 -0.8267
 2181SOL    HW218180   3.446   3.903  13.634  0.1109 -1.1882  0.8233
 2182SOL     OW18181   2.046   0.954   7.763 -0.1227  0.0546 -0.3978
 2182SOL    HW118182   2.079   0.865   7.754 -0.4882 -0.2020  0.6880
 2182SOL    HW218183   1.966   0.937   7.714 -0.1455 -1.0270  0.0231
 2183SOL     OW18184   0.340   1.660   9.766 -0.4392  0.2681 -0.1240
 2183SOL    HW118185   0.305   1.640   9.680  3.4772  2.3065 -2.1840
 2183SOL    HW218186   0.334   1.570   9.800  1.4147  0.2501  0.1683
 2184SOL     OW18187   4.417   3.513  16.719 -0.0922  0.0184  0.1657
 2184SOL    HW118188   4.463   3.555  16.791  0.5371 -1.6045  0.7140
 2184SOL    HW218189   4.343   3.466  16.759 -1.5230  0.4130 -2.0000
 2185SOL     OW18190   1.507   4.176   3.574 -0.1629 -0.0281 -0.1055
 2185SOL    HW118191   1.440   4.204   3.636 -0.7872  1.8571 -1.6137
 2185SOL    HW218192   1.587   4.216   3.608 -0.8114  1.2961 -0.1360
 2186SOL     OW18193   2.798   3.834   8.824  0.2230 -0.0594 -0.2436
 2186SOL    HW118194   2.748   3.765   8.867 -1.1251 -0.1986 -2.0414
 2186SOL    HW218195   2.727   3.876   8.774 -1.2207 -2.0067  0.1925
 2187SOL     OW18196   3.601   2.360   5.167  0.3410 -0.4641 -0.4139
 2187SOL    HW118197   3.567   2.378   5.079 -1.9717 -2.2762  0.1301
 2187SOL    HW218198   3.664   2.432   5.173 -1.9895  1.5714 -0.4036
 2188SOL     OW18199   1.185   0.588  13.123  0.1126 -0.3307  0.8183
 2188SOL    HW118200   1.235   0.657  13.079 -0.6447 -0.3295 -0.0353
 2188SOL    HW218201   1.257   0.540  13.164  0.7349 -0.2855 -0.2042
 2189SOL     OW18202   1.589   1.394   9.206 -0.4302 -0.2830  0.1676
 2189SOL    HW118203   1.569   1.338   9.281  0.2379 -1.8703 -0.8376
 2189SOL    HW218204   1.632   1.334   9.147  0.4468  1.7840 -1.2969
 2190SOL     OW18205   3.520   2.729   9.373 -0.3115 -0.5401  0.0251
 2190SOL    HW118206   3.483   2.642   9.388 -0.7935 -0.0426  1.7371
 2190SOL    HW218207   3.463   2.789   9.422  0.0066 -0.3028  0.1074
 2191SOL     OW18208   0.685   2.283  12.644  0.3733  0.4289  0.0732
 2191SOL    HW118209   0.701   2.338  12.722 -1.7488  2.5303 -0.9645
 2191SOL    HW218210   0.647   2.206  12.687  0.8436 -0.7508 -1.6696
 2192SOL     OW18211   3.267   1.859   6.633 -0.4500  0.8424  0.6537
 2192SOL    HW118212   3.320   1.824   6.704 -1.1419 -2.3242 -0.3520
 2192SOL    HW218213   3.338   1.899   6.583 -1.5602 -1.4994 -2.8126
 2193SOL     OW18214   2.054   1.010   2.988 -0.0971 -0.1402  0.2870
 2193SOL    HW118215   2.118   1.032   2.920  0.6349 -0.7079  0.7849
 2193SOL    HW218216   2.041   0.916   2.988  1.5250 -0.3548 -2.0107
 2194SOL     OW18217   2.642   4.701  16.600 -0.1392  0.1715  0.8672
 2194SOL    HW118218   2.656   4.678  16.692 -0.9546 -1.5758  0.5646
 2194SOL    HW218219   2.691   4.630  16.559  1.5088  1.3147  0.8921
 2195SOL     OW18220   3.108   3.533  14.286  0.1120  0.1765 -0.9702
 2195SOL    HW118221   3.071   3.545  14.198 -2.0845  0.7602  0.0362
 2195SOL    HW218222   3.115   3.437  14.294  2.3041  0.2827 -1.7212
 2196SOL     OW18223   0.546   0.526   3.137  1.0726  0.3003 -0.3990
 2196SOL    HW118224   0.624   0.496   3.183  0.2580 -0.0192  0.7713
 2196SOL    HW218225   0.562   0.499   3.046 -1.5445  0.0269 -0.7732
 2197SOL     OW18226   2.119   1.252   2.543  0.4361 -0.7819 -0.0572
 2197SOL    HW118227   2.059   1.204   2.600 -0.0087  0.4704  0.5254
 2197SOL    HW218228   2.145   1.173   2.496  2.3728 -0.6139  0.7135
 2198SOL     OW18229   3.266   0.298   3.696  0.0629  0.1706  0.5720
 2198SOL    HW118230   3.227   0.299   3.783  1.0586  1.5876  1.0092
 2198SOL    HW218231   3.357   0.319   3.718  0.2637  0.3512 -0.4298
 2199SOL     OW18232   3.796   4.599  11.179  0.3403  0.3201  0.3328
 2199SOL    HW118233   3.863   4.664  11.198 -0.2826  0.2545  2.7752
 2199SOL    HW218234   3.836   4.524  11.223 -1.0673 -0.0231  1.0518
 2200SOL     OW18235   1.492   0.048   4.763  0.4080 -0.3197 -0.0776
 2200SOL    HW118236   1.587   0.053   4.767  0.5721 -3.0453 -0.5083
 2200SOL    HW218237   1.454   0.083   4.843  1.9391 -1.0571  0.9735
 2201SOL     OW18238   0.259   2.001   5.278 -0.5851 -0.1347  0.3557
 2201SOL    HW118239   0.265   2.006   5.182 -1.3423 -3.0704  0.1269
 2201SOL    HW218240   0.178   1.952   5.294  0.3695 -1.4729  1.1569
 2202SOL     OW18241   1.734   3.010   6.071 -0.0500  0.0959  0.4072
 2202SOL    HW118242   1.748   2.995   6.164 -0.1330  2.5955  0.8193
 2202SOL    HW218243   1.779   2.933   6.034 -2.5773 -0.3041 -1.8581
 2203SOL     OW18244   2.787   3.895   1.053 -0.7778  0.2675  0.5246
 2203SOL    HW118245   2.818   3.813   1.090  0.4766  0.7413  0.5278
 2203SOL    HW218246   2.770   3.871   0.961  2.2955 -0.1251  0.0772
 2204SOL     OW18247   3.345   0.549  16.793  0.3011 -0.3084 -0.3897
 2204SOL    HW118248   3.354   0.637  16.758 -1.2521 -0.2352 -0.5902
 2204SOL    HW218249   3.434   0.515  16.780 -0.0901 -1.1366 -0.9256
 2205SOL     OW18250   3.704   3.919   3.402 -0.0558  0.2538 -0.0876
 2205SOL    HW118251   3.730   3.925   3.494  1.9572  3.4134 -0.8511
 2205SOL    HW218252   3.673   4.007   3.380 -0.5189 -0.0443 -0.6241
 2206SOL     OW18253   0.915   4.326  15.224  0.1447  0.4445  0.1437
 2206SOL    HW118254   0.994   4.272  15.229  0.1444  0.4559  0.2610
 2206SOL    HW218255   0.874   4.285  15.147  1.4291  0.2816 -0.4611
 2207SOL     OW18256   4.415   0.488   7.897  0.2425  0.1642  0.4513
 2207SOL    HW118257   4.344   0.438   7.858  0.5881 -1.9004  2.4843
 2207SOL    HW218258   4.407   0.459   7.988  1.8758  1.2552  0.9569
 2208SOL     OW18259   4.462   1.997   8.004 -0.5864  0.4244  0.2882
 2208SOL    HW118260   4.375   2.036   8.003 -1.3451 -1.3434 -0.6153
 2208SOL    HW218261   4.462   1.937   8.078 -0.0874  1.4698  1.1456
 2209SOL     OW18262   3.957   2.671   8.942 -0.4025  0.3770  0.7328
 2209SOL    HW118263   3.919   2.646   8.858  0.4890 -0.2615  0.5160
 2209SOL    HW218264   3.995   2.585   8.962  0.8084  0.8617  0.4756
 2210SOL     OW18265   0.055   1.242   8.703 -0.0865  0.0725 -0.0376
 2210SOL    HW118266   0.109   1.163   8.707  0.9380  0.5580 -3.6478
 2210SOL    HW218267   0.111   1.307   8.659 -0.3447  2.0011  2.4789
 2211SOL     OW18268   3.712   1.885   7.620 -0.5432 -0.2556  0.1160
 2211SOL    HW118269   3.635   1.844   7.581 -0.3525  0.7821 -1.3309
 2211SOL    HW218270   3.784   1.863   7.562  0.5818 -0.7332  1.6919
 2212SOL     OW18271   0.729   2.285   4.222  0.0987  0.6190 -0.0735
 2212SOL    HW118272   0.794   2.300   4.291 -1.4246  1.2485  1.2339
 2212SOL    HW218273   0.656   2.246   4.269 -0.1901  0.7074 -0.4465
 2213SOL     OW18274   1.772   3.928   1.300 -0.3357  0.0709 -0.2853
 2213SOL    HW118275   1.803   3.961   1.384  0.6365 -1.6120  0.0097
 2213SOL    HW218276   1.715   3.863   1.340 -2.1277  0.6519 -1.8855
 2214SOL     OW18277   2.775   0.900  16.844  0.1328  0.0929 -0.1257
 2214SOL    HW118278   2.726   0.918  16.764 -2.3248  2.8627  1.9991
 2214SOL    HW218279   2.712   0.948  16.899  0.7546  1.4678 -0.6247
 2215SOL     OW18280   3.464   3.937   2.401  0.0337 -0.3296 -0.0941
 2215SOL    HW118281   3.402   3.895   2.461 -0.4060  0.4004 -0.0433
 2215SOL    HW218282   3.471   4.016   2.454 -1.1552 -2.3202  3.0137
 2216SOL     OW18283   0.004   0.387  13.140 -0.2888  0.1952 -0.1914
 2216SOL    HW118284   0.025   0.301  13.105 -1.1956 -0.6895  1.4364
 2216SOL    HW218285   4.696   0.365  13.218 -0.4137  2.8522  0.5002
 2217SOL     OW18286   1.019   0.783   5.966  0.5714  0.6184 -0.3568
 2217SOL    HW118287   0.944   0.801   5.909 -0.4679 -0.4968  0.6595
 2217SOL    HW218288   1.019   0.689   5.950 -2.3562  0.7502 -1.2093
 2218SOL     OW18289   2.382   2.013   2.369  0.9195 -0.3460  0.5229
 2218SOL    HW118290   2.477   1.999   2.373  1.1413  1.5613  2.0052
 2218SOL    HW218291   2.347   1.943   2.424 -1.6665  0.2781 -0.3331
 2219SOL     OW18292   2.361   3.210   4.769  0.3502  0.1017 -0.3261
 2219SOL    HW118293   2.302   3.259   4.712  1.3229  1.0558 -0.4915
 2219SOL    HW218294   2.386   3.281   4.828 -0.6488  0.1775  0.0130
 2220SOL     OW18295   0.371   0.315  13.449 -0.5362  0.0000 -0.3332
 2220SOL    HW118296   0.320   0.381  13.495 -0.7322  0.4441 -1.1907
 2220SOL    HW218297   0.396   0.262  13.525  1.5599  0.1834 -0.8907
 2221SOL     OW18298   0.489   4.102  10.383 -0.2753  0.0010  0.0081
 2221SOL    HW118299   0.448   4.087  10.468 -1.8985  0.2169 -0.7307
 2221SOL    HW218300   0.570   4.052  10.382 -0.4086 -0.2134 -0.3097
 2222SOL     OW18301   0.140   0.466   8.528 -0.7602 -0.3608 -0.2496
 2222SOL    HW118302   0.184   0.550   8.539 -0.9253 -0.6316  2.5850
 2222SOL    HW218303   0.060   0.493   8.481 -1.2796 -1.4461  0.0224
 2223SOL     OW18304   1.283   4.250   5.990  0.0127 -0.0273  0.0330
 2223SOL    HW118305   1.316   4.169   6.027  0.2880  0.4340  0.7829
 2223SOL    HW218306   1.339   4.320   6.025  0.5085 -0.8424  0.8399
 2224SOL     OW18307   1.573   3.052  13.699  0.3679 -0.7157  0.3576
 2224SOL    HW118308   1.637   3.109  13.654 -0.5026  0.3999  0.5437
 2224SOL    HW218309   1.628   3.015  13.768  0.3389  0.2835  0.9045
 2225SOL     OW18310   3.252   3.050   4.993 -0.0522  0.3567  0.1334
 2225SOL    HW118311   3.208   2.993   5.056  0.9881 -1.2793 -0.6170
 2225SOL    HW218312   3.274   2.988   4.923  0.7330 -1.1322  1.6977
 2226SOL     OW18313   2.982   2.908   7.097  0.3013 -0.1228 -0.1200
 2226SOL    HW118314   3.066   2.947   7.120 -0.9220  1.4861  1.6644
 2226SOL    HW218315   2.951   2.865   7.177 -2.1719  0.7815 -0.5765
 2227SOL     OW18316   3.208   3.140   9.039  0.2794  0.9603  0.2486
 2227SOL    HW118317   3.139   3.110   9.098  0.3000  2.6768  1.1289
 2227SOL    HW218318   3.248   3.204   9.097 -0.0546  2.4457 -1.1548
 2228SOL     OW18319   1.716   2.638   8.462 -0.1154 -0.7908  0.2350
 2228SOL    HW118320   1.756   2.616   8.377  1.1256  0.0878  0.5901
 2228SOL    HW218321   1.638   2.681   8.428 -0.5906 -2.1814 -0.4578
 2229SOL     OW18322   0.351   1.421   9.023 -0.2604  0.3793  0.1678
 2229SOL    HW118323   0.430   1.470   9.045 -0.5163  0.2961  1.2776
 2229SOL    HW218324   0.302   1.484   8.970 -0.8030 -1.3265 -1.3201
 2230SOL     OW18325   0.930   2.050   5.446 -0.0784  0.2884 -0.4908
 2230SOL    HW118326   1.021   2.023   5.459 -0.7099 -1.9836 -0.8599
 2230SOL    HW218327   0.874   1.982   5.485 -0.8684  1.4792  0.4426
 2231SOL     OW18328   0.496   1.570   7.361  0.2584  1.0043  0.0095
 2231SOL    HW118329   0.432   1.605   7.299  2.6680  2.4988 -1.6320
 2231SOL    HW218330   0.486   1.639   7.427  1.1544 -0.3558  1.5456
 2232SOL     OW18331   2.912   1.378   1.732 -0.2611 -0.0406 -0.0561
 2232SOL    HW118332   2.836   1.328   1.703 -0.5690 -0.6996  1.8880
 2232SOL    HW218333   2.933   1.424   1.651 -0.5037  1.2057  0.5716
 2233SOL     OW18334   0.698   0.589   2.279 -0.3125  0.3289  0.1911
 2233SOL    HW118335   0.783   0.549   2.262 -0.3177  0.6277 -0.5259
 2233SOL    HW218336   0.645   0.520   2.318 -0.9996 -0.0605 -1.4274
 2234SOL     OW18337   4.703   3.988   0.174 -0.2595  0.7679 -0.4752
 2234SOL    HW118338   0.001   3.980   0.261  1.3733  1.0561 -1.1971
 2234SOL    HW218339   0.042   3.986   0.123  0.9580 -1.4058  1.5660
 2235SOL     OW18340   1.649   0.518   7.229  0.3069 -0.5793 -0.2390
 2235SOL    HW118341   1.720   0.533   7.167 -1.2319 -1.2309 -2.1369
 2235SOL    HW218342   1.653   0.425   7.254 -0.8978 -0.3374  0.8291
 2236SOL     OW18343   1.659   0.614   6.799  0.4077 -0.3017 -0.1082
 2236SOL    HW118344   1.598   0.687   6.793  2.7928  1.4208 -3.6449
 2236SOL    HW218345   1.740   0.658   6.772 -1.3823  2.3591 -1.2040
 2237SOL     OW18346   1.633   0.813   9.467  0.2932  0.5057  0.1441
 2237SOL    HW118347   1.698   0.866   9.419 -0.9952  0.1087 -2.0202
 2237SOL    HW218348   1.687   0.759   9.525  1.3661 -0.6446 -1.9282
 2238SOL     OW18349   0.367   2.406   9.106  0.1541  0.8051 -0.1467
 2238SOL    HW118350   0.354   2.501   9.105  0.1834  0.8041 -0.8166
 2238SOL    HW218351   0.282   2.379   9.140  0.1086  1.4326  0.2427
 2239SOL     OW18352   0.116   1.527  11.610  0.0861 -0.1537  0.0543
 2239SOL    HW118353   0.168   1.518  11.690 -1.3567  2.2613  1.2658
 2239SOL    HW218354   0.177   1.573  11.552 -1.3736  0.4770 -0.9760
 2240SOL     OW18355   3.170   3.357   1.712 -0.0594 -0.1320  0.1120
 2240SOL    HW118356   3.134   3.414   1.779 -1.4513 -0.0663 -0.6950
 2240SOL    HW218357   3.256   3.397   1.699 -1.0098  1.4646 -1.3067
 2241SOL     OW18358   4.212   1.936  12.324  0.2418 -0.3837  0.1287
 2241SOL    HW118359   4.294   1.986  12.324  0.4512 -0.7101  2.8433
 2241SOL    HW218360   4.156   2.011  12.304  1.8178  0.0726 -2.5436
 2242SOL     OW18361   1.666   4.697   4.474  0.0389 -0.5485 -0.0813
 2242SOL    HW118362   1.677   0.041   4.514 -1.7227 -0.9903  1.3345
 2242SOL    HW218363   1.739   4.685   4.413  1.6716  1.8881  1.3751
 2243SOL     OW18364   3.927   1.456   2.498  0.0142  0.2074  0.5218
 2243SOL    HW118365   3.870   1.472   2.573  2.4928  2.3718  1.9678
 2243SOL    HW218366   3.876   1.391   2.450 -0.5834 -0.6835  2.3636
 2244SOL     OW18367   3.431   4.689  11.866 -0.2922 -0.3073  0.0599
 2244SOL    HW118368   3.504   4.633  11.892  1.4638  1.6345 -0.6526
 2244SOL    HW218369   3.459   0.025  11.915  1.0401  0.8429 -2.5209
 2245SOL     OW18370   4.552   3.525   6.638  0.0005 -0.1703 -0.0194
 2245SOL    HW118371   4.504   3.442   6.633  1.9137 -1.1157 -2.2386
 2245SOL    HW218372   4.488   3.576   6.689  0.6421  0.2297  0.3809
 2246SOL     OW18373   3.862   1.169   0.283 -0.1317  0.0916 -0.3713
 2246SOL    HW118374   3.853   1.217   0.365  0.6185  0.1019 -0.2928
 2246SOL    HW218375   3.956   1.168   0.264 -0.4816 -0.5480 -2.1064
 2247SOL     OW18376   0.227   4.715   5.024  0.0427  0.2124 -0.3351
 2247SOL    HW118377   0.238   0.067   5.037 -2.3560  0.1127  2.5188
 2247SOL    HW218378   0.255   4.711   4.933 -1.1741 -0.4267 -0.6903
 2248SOL     OW18379   2.644   0.961  10.287  0.3086 -0.5497 -0.7346
 2248SOL    HW118380   2.611   0.916  10.365  1.0804  0.7792  0.3667
 2248SOL    HW218381   2.695   0.897  10.238  2.5847 -0.8325  2.0215
 2249SOL     OW18382   3.797   2.717  14.948  0.4184  0.3213 -0.4117
 2249SOL    HW118383   3.743   2.781  14.994 -0.2103 -2.7181  3.0743
 2249SOL    HW218384   3.733   2.673  14.892  0.0120  0.8519 -0.3658
 2250SOL     OW18385   1.107   2.680   4.061  0.0218 -0.1081 -0.5667
 2250SOL    HW118386   1.162   2.745   4.105  0.1576  0.2514 -1.2612
 2250SOL    HW218387   1.037   2.681   4.127  0.7909 -1.2419  0.2748
 2251SOL     OW18388   1.322   0.247   0.242  0.4193 -0.1084 -0.5436
 2251SOL    HW118389   1.340   0.305   0.168 -0.8749 -0.7381 -1.3481
 2251SOL    HW218390   1.399   0.193   0.258 -0.0250 -0.2456  1.0657
 2252SOL     OW18391   1.235   4.230  12.250  0.4779  0.2265 -0.6945
 2252SOL    HW118392   1.234   4.151  12.303 -1.4144  1.8906  1.7561
 2252SOL    HW218393   1.271   4.206  12.164  0.9694  2.1098 -1.0147
 2253SOL     OW18394   3.029   0.015  15.253  0.9348  0.4548 -0.2249
 2253SOL    HW118395   2.977   4.688  15.213  0.5553  0.2693  0.5841
 2253SOL    HW218396   3.108   4.714  15.220  1.2756  1.2980 -0.5241
 2254SOL     OW18397   4.683   2.150  15.316 -0.5919  0.8983  0.6931
 2254SOL    HW118398   4.703   2.195  15.234 -0.3897  0.4716  0.5091
 2254SOL    HW218399   4.603   2.098  15.302 -0.3317  0.3631  1.2104
 2255SOL     OW18400   2.417   1.522   3.893 -0.2772 -0.5721  0.4399
 2255SOL    HW118401   2.346   1.470   3.856 -1.3863  1.4175 -0.2847
 2255SOL    HW218402   2.456   1.449   3.941  1.6074 -0.1347 -0.4177
 2256SOL     OW18403   0.031   1.149   9.431 -0.1819 -0.4627  0.1652
 2256SOL    HW118404   0.038   1.222   9.493  1.7676 -0.4324 -0.0804
 2256SOL    HW218405   4.685   1.164   9.397 -0.3439 -0.4792  0.5733
 2257SOL     OW18406   0.365   3.391  11.305  0.1844  0.3171 -0.2660
 2257SOL    HW118407   0.315   3.380  11.386  0.3083 -1.2799 -0.4075
 2257SOL    HW218408   0.409   3.306  11.295  1.1117  0.6047  1.3223
 2258SOL     OW18409   4.694   0.718   8.707 -0.0186 -0.3186  0.0405
 2258SOL    HW118410   0.036   0.710   8.662 -0.4671  0.7326 -0.9707
 2258SOL    HW218411   4.703   0.801   8.753  2.4146 -0.7366  0.3044
 2259SOL     OW18412   0.750   1.344  13.876  0.0458 -0.1255  0.3675
 2259SOL    HW118413   0.836   1.308  13.853  0.0871  0.3403 -0.2069
 2259SOL    HW218414   0.715   1.285  13.943  0.7376  0.4236  1.2217
 2260SOL     OW18415   2.324   4.701   1.590 -0.1621  0.3101 -0.2251
 2260SOL    HW118416   2.329   4.606   1.598 -1.8882  0.2074 -0.1991
 2260SOL    HW218417   2.386   4.726   1.658 -0.7853  0.0044  0.4555
 2261SOL     OW18418   3.081   0.100   9.882  0.2051  0.5108  0.7755
 2261SOL    HW118419   3.154   0.159   9.901 -0.0904  1.1107  0.0414
 2261SOL    HW218420   3.045   0.138   9.802 -2.3840  1.9056  2.5933
 2262SOL     OW18421   4.517   4.339  10.891  0.2110 -0.7653  0.2238
 2262SOL    HW118422   4.610   4.323  10.904  0.4159  0.3783  0.1426
 2262SOL    HW218423   4.483   4.300  10.972 -1.9549  0.6755  0.0185
 2263SOL     OW18424   3.889   0.103   2.715  0.1723 -0.2796  0.0169
 2263SOL    HW118425   3.900   0.163   2.789 -0.8946 -1.5933  1.2352
 2263SOL    HW218426   3.948   0.034   2.747  0.6124  0.3420  0.5503
 2264SOL     OW18427   3.484   0.782   9.298  0.0413  0.2197 -0.6091
 2264SOL    HW118428   3.435   0.778   9.380  2.6508  0.7844  0.9642
 2264SOL    HW218429   3.419   0.820   9.240 -1.1886 -0.6679  0.1765
 2265SOL     OW18430   2.723   1.946   1.857  1.1073 -0.5474 -0.6176
 2265SOL    HW118431   2.748   1.853   1.865  0.7292 -0.4590  1.6759
 2265SOL    HW218432   2.691   1.955   1.947  0.9967 -1.4313 -0.5684
 2266SOL     OW18433   3.382   1.196   5.427 -0.3245 -0.2578 -0.0527
 2266SOL    HW118434   3.353   1.170   5.514 -1.0777  0.9172  0.0435
 2266SOL    HW218435   3.474   1.173   5.434 -0.0815  0.6879 -0.1093
 2267SOL     OW18436   3.842   0.105  14.911 -0.6206  0.1534 -0.2328
 2267SOL    HW118437   3.823   0.196  14.934  0.6879 -0.0967  1.8404
 2267SOL    HW218438   3.757   0.084  14.873 -0.1565  0.6507 -1.5640
 2268SOL     OW18439   1.535   2.127   2.337 -0.6740 -0.4234 -0.7557
 2268SOL    HW118440   1.442   2.115   2.317 -0.7222 -0.3295 -0.5849
 2268SOL    HW218441   1.577   2.080   2.265 -2.3637 -0.0713 -1.9780
 2269SOL     OW18442   3.664   0.842  11.029 -0.2891  0.1161 -0.3639
 2269SOL    HW118443   3.586   0.849  11.084 -1.5226  0.6907 -2.1790
 2269SOL    HW218444   3.677   0.933  11.004 -2.6045  1.1595  2.2644
 2270SOL     OW18445   1.644   2.772   7.359  0.5972 -0.4690 -0.0881
 2270SOL    HW118446   1.681   2.849   7.401  2.2694 -0.9685 -0.6173
 2270SOL    HW218447   1.715   2.758   7.297  0.6878 -0.7975  0.0910
 2271SOL     OW18448   1.151   0.006   7.443 -0.0414 -0.1605 -0.3062
 2271SOL    HW118449   1.074   0.053   7.409 -0.1599  0.4667  0.8627
 2271SOL    HW218450   1.138   4.654   7.433  1.5222 -0.3363 -0.6349
 2272SOL     OW18451   2.263   0.537   9.786 -0.4837 -0.2266 -0.5087
 2272SOL    HW118452   2.329   0.563   9.722  0.0874 -0.8411 -0.1669
 2272SOL    HW218453   2.187   0.569   9.737 -0.9288  1.7886  1.4706
 2273SOL     OW18454   4.188   0.272  11.663  0.0529 -0.4824 -0.5351
 2273SOL    HW118455   4.164   0.247  11.752  0.2909 -0.3639 -0.4351
 2273SOL    HW218456   4.213   0.188  11.625  0.3112 -0.6575  0.0172
 2274SOL     OW18457   3.643   4.212   5.152 -0.5668 -0.1650 -0.0925
 2274SOL    HW118458   3.715   4.215   5.089 -1.7673  0.8960 -1.4056
 2274SOL    HW218459   3.677   4.280   5.210  3.0550 -0.6001 -1.7171
 2275SOL     OW18460   1.530   0.381   9.364  0.3428  0.3039 -0.0646
 2275SOL    HW118461   1.624   0.397   9.368  0.3793  0.7616 -2.6160
 2275SOL    HW218462   1.506   0.472   9.382  2.2299  0.6815  0.5514
 2276SOL     OW18463   2.380   0.910   5.133  0.8077  0.5471 -0.2465
 2276SOL    HW118464   2.289   0.882   5.142  0.4459  2.3616  1.7683
 2276SOL    HW218465   2.414   0.839   5.079  0.9447  0.6936 -0.3538
 2277SOL     OW18466   1.906   1.344   1.884  0.2356  0.4249 -0.0617
 2277SOL    HW118467   1.938   1.283   1.817  0.1663  2.6096 -2.0530
 2277SOL    HW218468   1.961   1.417   1.856  1.1532  0.2299  1.1919
 2278SOL     OW18469   1.877   0.064   7.760 -0.1717 -0.5869  0.0881
 2278SOL    HW118470   1.946   0.119   7.724 -1.2646  0.1690 -0.8566
 2278SOL    HW218471   1.906   0.059   7.851 -0.2300  0.3910  0.1690
 2279SOL     OW18472   3.163   2.575  15.564 -0.0506  0.4883  0.1722
 2279SOL    HW118473   3.086   2.589  15.618 -1.6131  0.9886 -2.1907
 2279SOL    HW218474   3.223   2.629  15.615 -2.6355  2.2990  1.2670
 2280SOL     OW18475   3.490   4.046  10.686 -0.5165 -0.7090  0.0090
 2280SOL    HW118476   3.481   4.116  10.751  0.2222  0.8155 -1.5326
 2280SOL    HW218477   3.444   4.095  10.617  0.5146  0.6805  0.2885
 2281SOL     OW18478   1.631   3.074  17.091  0.1678  0.4950 -0.3208
 2281SOL    HW118479   1.546   3.077  17.135 -0.3169 -4.3116 -0.9464
 2281SOL    HW218480   1.664   2.992  17.128 -0.7938 -0.4389 -1.5382
 2282SOL     OW18481   4.365   2.171  11.258  0.3513 -0.5038  0.4845
 2282SOL    HW118482   4.421   2.229  11.206  0.3682  0.7107  1.8759
 2282SOL    HW218483   4.283   2.182  11.208  1.3225  0.9909 -0.7803
 2283SOL     OW18484   2.631   0.159   1.211  0.1933 -0.1137  0.4695
 2283SOL    HW118485   2.595   0.245   1.234 -3.1716 -1.5909  0.7453
 2283SOL    HW218486   2.719   0.192   1.194  0.4961 -0.9839  0.3684
 2284SOL     OW18487   1.211   1.614   4.053 -0.2690  0.4991 -0.0049
 2284SOL    HW118488   1.209   1.608   3.958 -0.6649  2.6999 -0.1471
 2284SOL    HW218489   1.127   1.654   4.077  0.5075  1.8436  0.5086
 2285SOL     OW18490   2.899   2.664   6.794 -0.8366 -0.0967 -0.6778
 2285SOL    HW118491   2.904   2.578   6.752 -1.0007 -0.5855  0.3033
 2285SOL    HW218492   2.833   2.650   6.862  0.7359  0.7827  1.0030
 2286SOL     OW18493   3.851   1.872  14.240 -0.0488 -0.2796 -0.0925
 2286SOL    HW118494   3.842   1.797  14.300  2.8402 -0.2649  0.3846
 2286SOL    HW218495   3.828   1.943  14.299 -0.3311 -1.3201  1.0571
 2287SOL     OW18496   0.201   3.554  16.166 -0.0693 -0.0145 -0.2804
 2287SOL    HW118497   0.222   3.488  16.231 -0.1707  2.1002  1.8840
 2287SOL    HW218498   0.133   3.608  16.206 -0.7977 -0.8518 -0.4032
 2288SOL     OW18499   1.474   0.883   5.944  0.1941 -0.3121 -0.4611
 2288SOL    HW118500   1.504   0.970   5.919  0.4586  0.6141  3.0232
 2288SOL    HW218501   1.393   0.886   5.894 -1.0708 -1.3048  1.5074
 2289SOL     OW18502   0.008   3.898   7.722 -0.0427 -0.2192 -0.2780
 2289SOL    HW118503   0.039   3.976   7.675 -1.3258  0.0411 -0.6953
 2289SOL    HW218504   0.080   3.835   7.723 -0.0508 -0.2220  0.0894
 2290SOL     OW18505   2.168   4.680  11.332 -0.1848  0.2070  0.0436
 2290SOL    HW118506   2.238   4.620  11.359 -4.1720 -4.3442  0.2099
 2290SOL    HW218507   2.131   4.697  11.418  0.5032 -0.1319  0.4070
 2291SOL     OW18508   4.547   2.626   3.731  0.2082 -0.3825  0.5322
 2291SOL    HW118509   4.535   2.713   3.770 -0.7042 -0.6971  0.9412
 2291SOL    HW218510   4.553   2.565   3.805  1.6853 -0.9769 -0.0746
 2292SOL     OW18511   2.493   2.363   8.097 -0.1120  0.0451  0.4424
 2292SOL    HW118512   2.425   2.402   8.151  1.9419  1.2951  2.1620
 2292SOL    HW218513   2.569   2.419   8.117  2.4343 -3.7214  1.3225
 2293SOL     OW18514   0.592   2.509   7.681  0.2461  0.0979  0.0092
 2293SOL    HW118515   0.670   2.562   7.665  1.2929 -1.6556 -0.7972
 2293SOL    HW218516   0.569   2.505   7.588 -1.8969 -2.5539  0.6599
 2294SOL     OW18517   0.127   1.718   5.419  0.4246  0.1174 -0.5780
 2294SOL    HW118518   0.081   1.635   5.409  0.3144  0.1796 -0.5903
 2294SOL    HW218519   0.055   1.781   5.420 -0.5123 -0.9606 -0.3724
 2295SOL     OW18520   3.391   2.954  10.477  0.1327  0.1184  0.1220
 2295SOL    HW118521   3.334   2.953  10.400 -1.3703 -3.1320  1.2816
 2295SOL    HW218522   3.349   2.879  10.520 -0.3095  0.8997  1.0602
 2296SOL     OW18523   2.181   1.262   4.174 -0.0015  0.6013 -0.7142
 2296SOL    HW118524   2.271   1.264   4.139  1.0801 -1.7148  1.9654
 2296SOL    HW218525   2.186   1.204   4.250  2.0115  0.5244 -0.9044
 2297SOL     OW18526   2.713   1.891  16.567  0.0377 -0.6282  0.2148
 2297SOL    HW118527   2.727   1.810  16.617  0.0404  0.0670  1.3283
 2297SOL    HW218528   2.660   1.856  16.495  0.5100  0.2809 -0.5738
 2298SOL     OW18529   3.874   4.112   4.559  0.7119 -0.3631  0.2595
 2298SOL    HW118530   3.968   4.129   4.567  0.7588  0.1638 -1.3576
 2298SOL    HW218531   3.847   4.172   4.628 -0.7214  0.1741 -0.7813
 2299SOL     OW18532   0.913   1.231   2.093  0.3581 -0.1874 -0.1294
 2299SOL    HW118533   0.946   1.282   2.019 -0.2223  0.4899  0.0723
 2299SOL    HW218534   0.957   1.148   2.079  0.7992 -0.0864  0.6543
 2300SOL     OW18535   2.836   2.480   3.335  0.0481 -0.0700  0.3142
 2300SOL    HW118536   2.886   2.459   3.256  0.1182  0.8150  0.1253
 2300SOL    HW218537   2.760   2.530   3.303 -0.8386 -1.0495  0.8838
 2301SOL     OW18538   3.225   4.262  17.129 -0.1339  0.0176  0.3806
 2301SOL    HW118539   3.160   4.329  17.111  0.0960  0.8631  2.7363
 2301SOL    HW218540   3.301   4.319  17.115 -0.2295  0.0655  0.0530
 2302SOL     OW18541   0.971   3.546   2.162 -0.3311 -0.5396 -0.0129
 2302SOL    HW118542   0.970   3.450   2.165 -2.0577 -0.5104  0.3305
 2302SOL    HW218543   0.974   3.566   2.255 -2.3775  1.4023 -0.3739
 2303SOL     OW18544   4.576   3.939   7.135 -0.1418 -0.4204  0.0563
 2303SOL    HW118545   4.496   3.915   7.089  0.2888 -0.7027 -0.5420
 2303SOL    HW218546   4.552   3.955   7.226  1.0952 -0.6969  0.4313
 2304SOL     OW18547   3.656   4.147   3.964 -0.4657 -0.3048  0.0567
 2304SOL    HW118548   3.600   4.123   3.891 -0.0959 -2.5469  0.4839
 2304SOL    HW218549   3.626   4.236   3.982 -2.6851 -0.9365 -0.5160
 2305SOL     OW18550   2.267   0.253   3.729  0.7130 -0.0239  0.2524
 2305SOL    HW118551   2.300   0.327   3.779  0.5919  1.8276 -2.4313
 2305SOL    HW218552   2.265   0.291   3.641 -0.0599  0.9397  0.7007
 2306SOL     OW18553   1.495   1.761   0.968 -0.9108 -0.2193 -0.2535
 2306SOL    HW118554   1.405   1.794   0.976 -0.6551  0.5786 -0.6700
 2306SOL    HW218555   1.487   1.683   1.023  0.5801 -1.5588 -1.9260
 2307SOL     OW18556   2.857   4.413   4.941 -0.2487 -0.4497  0.0778
 2307SOL    HW118557   2.775   4.365   4.928 -0.1817 -0.9844  1.6922
 2307SOL    HW218558   2.831   4.461   5.020  1.0347 -1.0236  0.8608
 2308SOL     OW18559   4.570   4.299   0.072  0.3214  0.1412  0.2219
 2308SOL    HW118560   4.482   4.310   0.109 -0.6612 -2.7311 -1.2824
 2308SOL    HW218561   4.609   4.311   0.159  0.2278 -2.3177  0.6032
 2309SOL     OW18562   1.556   3.729   2.102 -0.6343  0.4393  0.2247
 2309SOL    HW118563   1.627   3.665   2.102  1.3251  2.6243  2.8108
 2309SOL    HW218564   1.493   3.690   2.164 -0.6682 -2.7410 -1.8142
 2310SOL     OW18565   4.147   2.257  11.457  0.0768  0.3178  0.4710
 2310SOL    HW118566   4.164   2.281  11.365  0.5473  2.3448  1.0838
 2310SOL    HW218567   4.213   2.187  11.463 -1.8038 -1.3839  1.1138
 2311SOL     OW18568   4.155   2.862   7.888 -0.0311  0.0098 -0.0848
 2311SOL    HW118569   4.221   2.826   7.829  1.6349  2.0535  0.5812
 2311SOL    HW218570   4.079   2.884   7.835 -0.7501  0.8471  1.2733
 2312SOL     OW18571   0.174   4.400  13.590  0.6709 -0.5480  0.6192
 2312SOL    HW118572   0.098   4.400  13.533  0.1674 -0.9843  1.2915
 2312SOL    HW218573   0.242   4.412  13.524  0.9190  0.4102  1.0419
 2313SOL     OW18574   2.406   0.097   6.479  0.2370 -0.2900 -0.3088
 2313SOL    HW118575   2.387   0.026   6.541 -1.2971  0.1320 -0.2859
 2313SOL    HW218576   2.431   0.166   6.539  1.1098 -1.0291  0.1611
 2314SOL     OW18577   1.025   2.379   9.592  0.1148 -0.2001 -0.0610
 2314SOL    HW118578   0.963   2.446   9.619  1.2368  0.4284  0.9933
 2314SOL    HW218579   1.100   2.407   9.645 -0.7787  1.7331  0.1737
 2315SOL     OW18580   1.095   0.472   9.306  0.1301  0.6631 -0.2600
 2315SOL    HW118581   1.115   0.448   9.397 -0.5962 -0.7660 -0.4736
 2315SOL    HW218582   1.148   0.411   9.255  0.5037  0.4348  0.3973
 2316SOL     OW18583   3.737   1.200   3.541 -0.2603  0.2233  0.2689
 2316SOL    HW118584   3.700   1.288   3.538  1.1148  0.8080  0.6624
 2316SOL    HW218585   3.815   1.208   3.486  0.3899  0.7081  1.2569
 2317SOL     OW18586   0.626   4.388   3.029  0.1999  0.4248 -0.2771
 2317SOL    HW118587   0.659   4.462   2.978  0.6965  0.2900 -0.1509
 2317SOL    HW218588   0.709   4.351   3.058 -0.2629  0.0792  0.6120
 2318SOL     OW18589   1.843   1.136  15.578 -0.3566  0.3101 -0.0741
 2318SOL    HW118590   1.916   1.075  15.566 -1.1993 -0.7530  0.2213
 2318SOL    HW218591   1.860   1.164  15.668  1.1363 -0.3195 -0.1588
 2319SOL     OW18592   4.227   0.036   9.669  0.4843  0.6417 -0.1617
 2319SOL    HW118593   4.243   0.127   9.645 -1.1112  0.5467 -1.6623
 2319SOL    HW218594   4.204   0.046   9.761 -1.8749  1.1940 -0.8060
 2320SOL     OW18595   1.938   2.431  15.672  0.2174 -0.2305  0.4648
 2320SOL    HW118596   1.950   2.395  15.761 -0.2315  0.0187  0.6212
 2320SOL    HW218597   1.896   2.514  15.691  0.5140  0.8772 -3.7984
 2321SOL     OW18598   0.217   0.469  14.069 -0.1967 -0.0296  0.1290
 2321SOL    HW118599   0.294   0.415  14.087  1.4442  2.2447 -0.0843
 2321SOL    HW218600   0.169   0.464  14.152 -1.7754 -0.2766 -0.8078
 2322SOL     OW18601   0.490   0.286  12.719  0.5287  0.0638  0.4172
 2322SOL    HW118602   0.425   0.296  12.788 -0.3972 -0.3092 -0.4065
 2322SOL    HW218603   0.530   0.201  12.735  0.8212  0.1742  0.2806
 2323SOL     OW18604   2.510   2.102   1.793 -0.0265  0.1033 -0.0633
 2323SOL    HW118605   2.598   2.065   1.787  0.2286  0.6825  0.1511
 2323SOL    HW218606   2.483   2.066   1.878  0.1563  1.1334  0.4266
 2324SOL     OW18607   3.515   1.066   8.650 -0.0995  0.6412 -0.5252
 2324SOL    HW118608   3.452   1.103   8.712 -0.4567 -0.9219  0.0515
 2324SOL    HW218609   3.518   1.142   8.593 -3.1206  0.0761 -1.4010
 2325SOL     OW18610   2.859   2.981   8.627 -0.3182 -0.1644  0.3250
 2325SOL    HW118611   2.939   2.932   8.612 -1.9900 -2.5318 -0.8769
 2325SOL    HW218612   2.897   3.054   8.676  1.6248  0.4132 -2.0606
 2326SOL     OW18613   3.397   4.449   7.686  0.4919 -0.8923 -0.2780
 2326SOL    HW118614   3.404   4.380   7.752 -0.8594 -0.6381  0.1324
 2326SOL    HW218615   3.382   4.403   7.603  1.4574 -1.0749 -0.3462
 2327SOL     OW18616   4.126   2.236   9.304  0.1618 -0.8121  0.5011
 2327SOL    HW118617   4.151   2.319   9.263 -1.0334 -0.1141  1.2074
 2327SOL    HW218618   4.036   2.229   9.272  0.2647  0.1183  0.0038
 2328SOL     OW18619   4.444   1.868   8.271  0.7275  0.0083 -0.0129
 2328SOL    HW118620   4.445   1.934   8.340  0.1547 -1.7674  1.7100
 2328SOL    HW218621   4.398   1.795   8.312 -1.8003  0.2422 -2.4678
 2329SOL     OW18622   4.331   3.832   9.157 -0.3877 -0.2402 -0.1714
 2329SOL    HW118623   4.277   3.904   9.190  0.0954 -0.1494  0.4085
 2329SOL    HW218624   4.417   3.867   9.134  0.6166 -2.5699  0.0105
 2330SOL     OW18625   0.146   1.863   8.005  0.2079  0.5226 -0.0590
 2330SOL    HW118626   0.140   1.908   8.089 -0.5945  0.6936 -0.2023
 2330SOL    HW218627   0.223   1.907   7.968 -0.1545  1.5234  0.3875
 2331SOL     OW18628   1.946   3.258   2.834 -0.0542  0.2969 -0.1107
 2331SOL    HW118629   1.969   3.194   2.768 -0.8612 -1.1171  0.9843
 2331SOL    HW218630   1.960   3.214   2.918  0.6559  0.3436 -0.2046
 2332SOL     OW18631   1.214   3.874   4.777 -0.2578 -0.0969 -0.3925
 2332SOL    HW118632   1.174   3.906   4.858 -1.2141  0.0688 -0.9326
 2332SOL    HW218633   1.308   3.877   4.793 -0.6418  3.2553  1.2601
 2333SOL     OW18634   4.159   2.151  14.428  0.1836 -0.1484  0.2795
 2333SOL    HW118635   4.160   2.061  14.395  0.9226  0.5014 -1.4672
 2333SOL    HW218636   4.080   2.186  14.386 -0.1221 -3.2835 -1.7776
 2334SOL     OW18637   2.177   0.680   5.852 -0.1687  0.1323  0.6762
 2334SOL    HW118638   2.149   0.647   5.766 -2.3087 -0.4797  1.6017
 2334SOL    HW218639   2.241   0.617   5.885 -0.5276 -0.5092  0.1688
 2335SOL     OW18640   4.409   3.695  10.747 -1.0370  0.2145 -0.2522
 2335SOL    HW118641   4.413   3.709  10.653  4.2829 -0.5011 -0.1487
 2335SOL    HW218642   4.438   3.780  10.781 -0.0282 -0.1435 -0.2080
 2336SOL     OW18643   1.532   2.727   8.294 -0.1492  0.2485 -0.2632
 2336SOL    HW118644   1.448   2.721   8.341 -0.5200  1.0606 -0.8252
 2336SOL    HW218645   1.494   2.704   8.209 -2.0562 -2.3244  1.2869
 2337SOL     OW18646   0.027   2.351   4.400 -0.1060  0.3586  0.2011
 2337SOL    HW118647   4.739   2.260   4.410  0.5063  0.2864  1.4613
 2337SOL    HW218648   4.691   2.392   4.438  0.9067  2.2886  0.1554
 2338SOL     OW18649   3.349   2.284   5.286 -0.1871 -0.2185  0.5686
 2338SOL    HW118650   3.417   2.345   5.257 -2.4982  0.9165 -2.3715
 2338SOL    HW218651   3.398   2.212   5.326  1.9070  1.1363  0.4870
 2339SOL     OW18652   0.764   3.570  15.800  0.9962  0.6482 -0.3905
 2339SOL    HW118653   0.693   3.619  15.759 -0.5664 -2.3469 -1.2355
 2339SOL    HW218654   0.798   3.650  15.840  1.0413  0.1640  0.5412
 2340SOL     OW18655   3.502   1.777   3.738 -1.2565  0.0851 -0.1761
 2340SOL    HW118656   3.534   1.708   3.796 -1.2112  1.2260  1.1605
 2340SOL    HW218657   3.552   1.760   3.659 -3.0821  1.8017 -1.7123
 2341SOL     OW18658   2.924   3.971  16.480 -0.4297 -0.2918 -0.1018
 2341SOL    HW118659   2.829   3.968  16.486 -0.4228 -0.2118  0.0665
 2341SOL    HW218660   2.935   4.041  16.417 -0.9271  0.1872  0.3453
 2342SOL     OW18661   3.781   4.258  10.026  0.1742  0.5306 -0.2254
 2342SOL    HW118662   3.808   4.292   9.941 -2.0812  3.4441  0.2103
 2342SOL    HW218663   3.817   4.170  10.036  0.9226  0.6964 -1.4707
 2343SOL     OW18664   2.065   0.993  15.617 -0.1214  0.2570  0.3793
 2343SOL    HW118665   2.141   0.936  15.628 -0.3803  0.4497  3.1401
 2343SOL    HW218666   2.109   1.076  15.636  1.6318 -0.2349 -1.5218
 2344SOL     OW18667   3.209   0.723  10.100 -0.4361  0.0435 -0.4457
 2344SOL    HW118668   3.189   0.630  10.093  0.8231 -0.2683  0.1332
 2344SOL    HW218669   3.169   0.749  10.183 -3.8511  1.3531 -2.4866
 2345SOL     OW18670   1.690   1.530   3.111 -0.4862 -0.5875 -0.5276
 2345SOL    HW118671   1.684   1.625   3.106  0.4930 -0.5253 -0.5533
 2345SOL    HW218672   1.609   1.501   3.069 -1.3110  1.4758 -0.3509
 2346SOL     OW18673   0.133   0.013   3.263 -0.3176 -0.3971  0.3440
 2346SOL    HW118674   0.180   0.038   3.343 -0.9695 -0.6703  0.8172
 2346SOL    HW218675   0.076   4.678   3.273  0.4262 -1.2588 -2.0581
 2347SOL     OW18676   3.430   3.726   4.905  0.1082 -0.2179  0.3421
 2347SOL    HW118677   3.389   3.804   4.941 -0.4609 -0.1758 -0.3938
 2347SOL    HW218678   3.459   3.766   4.823 -0.9898  1.3325  0.7201
 2348SOL     OW18679   0.133   3.276   6.313  0.1850 -0.2862  0.3044
 2348SOL    HW118680   0.090   3.351   6.273  0.2486  0.2830  1.3171
 2348SOL    HW218681   0.090   3.291   6.397 -0.2379 -0.1299  0.0570
 2349SOL     OW18682   0.915   0.974   7.878 -0.7533  0.3673  0.4603
 2349SOL    HW118683   0.966   0.900   7.847 -0.5871  0.5806  0.2335
 2349SOL    HW218684   0.916   0.945   7.969  0.0792 -2.7723 -0.5398
 2350SOL     OW18685   3.294   4.458  13.264 -0.3832 -0.4035  0.1399
 2350SOL    HW118686   3.274   4.457  13.358  1.3153 -0.4897  0.4977
 2350SOL    HW218687   3.332   4.370  13.266 -0.0241 -0.2508 -0.0960
 2351SOL     OW18688   4.225   1.188   9.000  0.0905  0.4150  0.1330
 2351SOL    HW118689   4.160   1.193   8.929  0.4756 -0.6365 -0.3015
 2351SOL    HW218690   4.269   1.272   8.997  0.4070  0.1964 -1.6843
 2352SOL     OW18691   3.816   3.241   7.966 -0.1960 -0.4978 -0.4400
 2352SOL    HW118692   3.770   3.232   8.050 -0.1471 -3.7653 -0.7530
 2352SOL    HW218693   3.849   3.330   7.974 -2.7796  0.3054  1.5534
 2353SOL     OW18694   0.545   3.712   1.605  0.4062  0.0164 -0.1409
 2353SOL    HW118695   0.521   3.631   1.649 -0.2759  0.5976  0.5479
 2353SOL    HW218696   0.640   3.716   1.617  0.6584 -1.6924 -1.5737
 2354SOL     OW18697   1.445   1.631   4.167 -0.4984 -0.2359 -0.4405
 2354SOL    HW118698   1.497   1.665   4.094  1.6551  1.1552  1.7462
 2354SOL    HW218699   1.359   1.628   4.126 -0.6332  1.1388 -0.2744
 2355SOL     OW18700   1.524   1.079   3.855  0.4017 -0.2987 -0.4301
 2355SOL    HW118701   1.514   1.110   3.945 -2.2442 -2.8288  0.1623
 2355SOL    HW218702   1.579   1.003   3.876 -1.2316 -1.1212  0.9133
 2356SOL     OW18703   2.857   1.353   2.667 -0.0813  0.5136  0.4631
 2356SOL    HW118704   2.944   1.365   2.628  0.8821 -1.2437  2.0631
 2356SOL    HW218705   2.827   1.268   2.636 -1.7712  0.2941  2.7316
 2357SOL     OW18706   2.063   2.112   9.240 -0.0744 -0.7113  0.1228
 2357SOL    HW118707   2.019   2.034   9.273 -1.5206  0.7843  1.7713
 2357SOL    HW218708   2.113   2.082   9.164 -1.1325 -0.1778 -0.7851
 2358SOL     OW18709   0.143   3.475  16.585 -0.9019 -0.0280 -0.4781
 2358SOL    HW118710   0.137   3.386  16.619 -1.4742  0.9018  1.7962
 2358SOL    HW218711   0.134   3.459  16.491 -1.3350 -0.8643 -0.2873
 2359SOL     OW18712   1.721   0.279   3.595 -0.5450  0.1554 -0.0716
 2359SOL    HW118713   1.631   0.279   3.627 -1.4285 -3.3570 -2.4879
 2359SOL    HW218714   1.735   0.362   3.548  0.2505  1.7292  2.9742
 2360SOL     OW18715   2.523   2.120   3.405  0.0148 -0.3779 -0.4566
 2360SOL    HW118716   2.605   2.156   3.439 -0.6326  0.8279 -0.1871
 2360SOL    HW218717   2.539   2.145   3.314 -0.2866  0.4396 -0.2847
 2361SOL     OW18718   1.556   4.014   8.277  0.6945 -0.1792 -0.1265
 2361SOL    HW118719   1.521   4.102   8.263  0.9803  0.1385  1.1936
 2361SOL    HW218720   1.476   3.962   8.267 -0.0358  0.8323  0.4711
 2362SOL     OW18721   1.042   0.371  17.055 -0.2262 -0.1258  0.4443
 2362SOL    HW118722   1.036   0.342  17.146 -2.1836 -0.5782  0.1901
 2362SOL    HW218723   1.129   0.345  17.025 -0.7752  0.8385 -1.9837
 2363SOL     OW18724   1.712   2.467   6.641 -0.1342 -0.2503 -0.6425
 2363SOL    HW118725   1.642   2.494   6.700 -0.2084 -0.9271 -0.4243
 2363SOL    HW218726   1.679   2.470   6.551  0.7809  0.6630 -0.9511
 2364SOL     OW18727   4.254   4.710   4.661 -0.1228  0.0916  0.1790
 2364SOL    HW118728   4.341   4.682   4.632  0.0489 -0.6923  1.4683
 2364SOL    HW218729   4.251   4.719   4.756 -1.2994 -0.6416  0.2063
 2365SOL     OW18730   4.603   0.947  12.599 -1.3046 -0.0387  0.3172
 2365SOL    HW118731   4.633   0.907  12.681  0.0403 -1.2184 -0.7581
 2365SOL    HW218732   4.642   0.885  12.538 -4.4608  1.0470 -2.8287
 2366SOL     OW18733   3.856   1.552   7.553  0.4635 -0.1110  0.4921
 2366SOL    HW118734   3.885   1.462   7.538  0.9217 -0.2926  2.3617
 2366SOL    HW218735   3.779   1.539   7.608 -0.5577  0.4012 -0.8117
 2367SOL     OW18736   2.260   0.669   7.229  0.1206  0.2704  0.0910
 2367SOL    HW118737   2.182   0.724   7.238  0.3954  0.5264  0.9223
 2367SOL    HW218738   2.279   0.672   7.323  0.4581  0.9496 -0.0013
 2368SOL     OW18739   1.964   3.071   3.727  0.3438  0.7228  0.6632
 2368SOL    HW118740   2.014   3.142   3.688  0.1831  0.6921  0.4009
 2368SOL    HW218741   1.889   3.118   3.763 -0.2298 -1.4462  2.3346
 2369SOL     OW18742   4.539   0.558  13.061 -0.4223  0.2625  0.1294
 2369SOL    HW118743   4.616   0.505  13.078 -1.4251 -0.7609  1.4630
 2369SOL    HW218744   4.477   0.488  13.080 -1.4050  1.0785 -0.0112
 2370SOL     OW18745   3.875   1.851  17.354  0.4743  0.5017 -0.3125
 2370SOL    HW118746   3.947   1.804  17.396 -1.2287 -1.3793  0.4863
 2370SOL    HW218747   3.812   1.779  17.351 -0.4780  1.3288 -0.0757
 2371SOL     OW18748   2.556   2.355   1.418 -0.3101 -0.3686  0.2139
 2371SOL    HW118749   2.530   2.366   1.510  0.3770 -0.3891  0.4083
 2371SOL    HW218750   2.501   2.417   1.371 -0.4350  0.0476  0.8956
 2372SOL     OW18751   1.382   0.767   6.188 -0.5480  0.1370 -0.6600
 2372SOL    HW118752   1.415   0.797   6.103  1.6923  2.7193  1.1384
 2372SOL    HW218753   1.297   0.738   6.156  0.3647 -0.6177 -2.4111
 2373SOL     OW18754   4.203   4.030   5.735  0.0213 -0.2844  0.0574
 2373SOL    HW118755   4.121   4.066   5.700  1.3743 -0.2305 -3.0255
 2373SOL    HW218756   4.179   4.017   5.827 -1.9108 -1.7025 -0.6589
 2374SOL     OW18757   1.253   1.811   1.127  0.2643 -0.3634  0.3195
 2374SOL    HW118758   1.289   1.899   1.121  1.3647 -0.7145  1.7109
 2374SOL    HW218759   1.286   1.773   1.208 -0.1678  2.5040  1.8325
 2375SOL     OW18760   3.543   4.383  11.556  0.0482 -0.2800  0.1116
 2375SOL    HW118761   3.614   4.343  11.607  1.4409  1.8353 -0.2039
 2375SOL    HW218762   3.496   4.302  11.537 -2.9178  1.1476  1.2565
 2376SOL     OW18763   1.522   2.808  14.384 -0.2905  0.1529  0.0448
 2376SOL    HW118764   1.439   2.762  14.371 -1.0128  1.4288  0.1242
 2376SOL    HW218765   1.548   2.811  14.292 -2.2006 -0.6107 -0.5336
 2377SOL     OW18766   3.153   2.207   5.078 -0.4052  0.3698  0.1226
 2377SOL    HW118767   3.088   2.142   5.106 -1.6015  1.1677 -0.7783
 2377SOL    HW218768   3.198   2.236   5.157  1.8413 -0.0150 -1.0112
 2378SOL     OW18769   0.184   3.679   6.574 -0.0834  0.0965  0.3727
 2378SOL    HW118770   0.230   3.663   6.491  1.6720  1.9699  0.9526
 2378SOL    HW218771   0.102   3.632   6.566  0.6616 -1.1683  0.1233
 2379SOL     OW18772   2.229   2.462   2.819  0.2282  0.8861 -0.0421
 2379SOL    HW118773   2.144   2.434   2.853  0.3820 -0.5646 -0.8479
 2379SOL    HW218774   2.213   2.554   2.841  1.2221  1.5029 -1.8685
 2380SOL     OW18775   0.500   0.593   7.596 -0.2273  0.3339 -0.4051
 2380SOL    HW118776   0.559   0.613   7.669 -3.3776 -1.9735  2.7894
 2380SOL    HW218777   0.540   0.645   7.527  1.1605 -1.6038 -1.0629
 2381SOL     OW18778   0.992   1.819  15.423  0.1689 -0.0769 -0.1483
 2381SOL    HW118779   1.007   1.763  15.500  0.8525  1.5434  0.8963
 2381SOL    HW218780   0.914   1.781  15.384  0.4181 -1.1267  0.3658
 2382SOL     OW18781   1.921   3.592   0.424 -0.2068  0.3013  0.6425
 2382SOL    HW118782   1.926   3.505   0.387 -1.0452  0.0162  1.2083
 2382SOL    HW218783   2.006   3.604   0.467 -1.2871  0.5808  2.7004
 2383SOL     OW18784   0.796   3.146  10.690 -0.0856  0.4479 -0.7362
 2383SOL    HW118785   0.719   3.195  10.660  0.1185  1.1635 -0.1047
 2383SOL    HW218786   0.791   3.062  10.644 -0.4042  0.2947 -0.4281
 2384SOL     OW18787   1.035   3.602  12.012 -0.3598 -0.1067 -0.0822
 2384SOL    HW118788   1.016   3.593  11.919 -4.2161  0.9438  0.6321
 2384SOL    HW218789   1.029   3.697  12.024 -0.4111  0.0260 -1.2122
 2385SOL     OW18790   2.463   2.197   7.907 -0.4104 -0.0996  0.4166
 2385SOL    HW118791   2.385   2.155   7.943 -0.2271 -0.5335  0.3088
 2385SOL    HW218792   2.492   2.255   7.977  1.8226  0.3386 -0.8454
 2386SOL     OW18793   3.228   3.836   0.389  0.4559  0.1032 -0.0646
 2386SOL    HW118794   3.162   3.899   0.359 -1.0627 -0.9160  1.1671
 2386SOL    HW218795   3.166   3.786   0.442  0.1556 -0.2508 -0.7544
 2387SOL     OW18796   3.570   0.740   3.195  0.7820 -0.3506 -0.2838
 2387SOL    HW118797   3.567   0.745   3.291  0.2098 -0.8688 -0.2735
 2387SOL    HW218798   3.594   0.650   3.174  0.4360 -0.2293 -1.1764
 2388SOL     OW18799   0.662   1.223  16.816 -0.6954  1.0044  0.3891
 2388SOL    HW118800   0.649   1.129  16.821 -1.3418  1.0753  0.0625
 2388SOL    HW218801   0.634   1.236  16.725 -1.6260 -0.8379  0.4200
 2389SOL     OW18802   0.020   0.106  11.922 -0.0780  0.0528  0.8108
 2389SOL    HW118803   4.723   0.135  11.840  2.2266  0.5961 -0.0761
 2389SOL    HW218804   0.105   0.078  11.889 -0.4211  0.2759 -0.2711
 2390SOL     OW18805   2.343   3.365   0.211 -0.3133 -0.1794  0.2426
 2390SOL    HW118806   2.423   3.416   0.200 -0.5477  0.3477  1.0154
 2390SOL    HW218807   2.337   3.349   0.305 -0.2339  1.5453  0.5399
 2391SOL     OW18808   4.415   4.232  12.718 -0.0119 -0.2346 -0.1529
 2391SOL    HW118809   4.429   4.143  12.751  0.7800 -0.2823 -0.6229
 2391SOL    HW218810   4.348   4.216  12.652  0.5975 -0.1276 -0.8001
 2392SOL     OW18811   2.788   4.313  12.153  0.8806  0.1896 -0.1382
 2392SOL    HW118812   2.821   4.227  12.179 -0.9794 -1.0725 -1.9331
 2392SOL    HW218813   2.828   4.371  12.218 -0.1856 -1.7171  2.2282
 2393SOL     OW18814   2.743   0.662   4.058 -0.1547  0.1257  0.2390
 2393SOL    HW118815   2.828   0.699   4.033 -0.6853  1.6106  0.6165
 2393SOL    HW218816   2.682   0.676   3.985  1.3416  0.7054 -0.9040
 2394SOL     OW18817   1.039   2.876   4.558  0.0604 -0.2147 -0.4566
 2394SOL    HW118818   1.002   2.963   4.544 -1.4775 -0.8398 -0.2967
 2394SOL    HW218819   1.100   2.901   4.628 -1.1530 -0.5213  0.7284
 2395SOL     OW18820   4.245   0.047   5.211 -0.4857  0.1165  0.2717
 2395SOL    HW118821   4.236   4.709   5.160 -2.7526 -0.3517  1.4020
 2395SOL    HW218822   4.304   0.013   5.279 -2.4908  0.9169  2.4098
 2396SOL     OW18823   3.815   0.177   2.455  0.4305 -0.1995 -0.4668
 2396SOL    HW118824   3.802   0.092   2.412 -0.5198 -0.1887 -0.1871
 2396SOL    HW218825   3.856   0.139   2.533  1.4768  1.6774 -0.1003
 2397SOL     OW18826   3.658   0.248   5.225 -0.7092  0.2782 -0.9237
 2397SOL    HW118827   3.616   0.334   5.227 -0.8326  0.2089 -0.6095
 2397SOL    HW218828   3.687   0.242   5.133 -0.0052  1.4917 -0.7816
 2398SOL     OW18829   0.631   3.395  10.364  0.0427 -0.1163 -0.4064
 2398SOL    HW118830   0.642   3.410  10.458  0.2775  0.2815 -0.4976
 2398SOL    HW218831   0.716   3.360  10.338  1.0550  1.0973  1.2609
 2399SOL     OW18832   4.307   4.021   8.548  0.1142 -0.0533 -0.1013
 2399SOL    HW118833   4.228   4.002   8.599  1.4590  0.5110  2.1652
 2399SOL    HW218834   4.306   4.115   8.528  1.2782 -0.0521 -0.1372
 2400SOL     OW18835   2.319   1.357   9.150 -0.1854  0.8653 -0.0541
 2400SOL    HW118836   2.303   1.386   9.240 -0.9926  2.5460 -0.7427
 2400SOL    HW218837   2.405   1.393   9.129  0.4913 -0.6632  0.0827
 2401SOL     OW18838   4.575   1.443   9.298 -0.2379  0.1170  0.0237
 2401SOL    HW118839   4.659   1.456   9.254  0.8749  0.1935  2.1964
 2401SOL    HW218840   4.573   1.347   9.304 -1.5419  0.0904 -0.7755
 2402SOL     OW18841   1.306   4.236   3.728  0.5047  0.0474 -0.0239
 2402SOL    HW118842   1.250   4.226   3.804  0.0065 -1.0732 -0.5407
 2402SOL    HW218843   1.251   4.262   3.654 -0.0852 -0.2295  0.3242
 2403SOL     OW18844   0.158   0.788  14.124  0.0357 -0.2136 -0.1989
 2403SOL    HW118845   0.164   0.767  14.030 -3.0587  0.7723 -0.6319
 2403SOL    HW218846   0.248   0.790  14.154 -0.5203  1.9052  1.3196
 2404SOL     OW18847   4.238   4.086   7.432  0.6869 -0.3767  0.0232
 2404SOL    HW118848   4.243   4.124   7.344 -0.6376  1.4914  0.7414
 2404SOL    HW218849   4.159   4.130   7.463  1.8369  2.5719 -1.2470
 2405SOL     OW18850   0.739   1.450   1.725  0.5386 -0.4923 -0.0678
 2405SOL    HW118851   0.760   1.525   1.669 -0.3230 -0.7644 -0.7538
 2405SOL    HW218852   0.651   1.430   1.693 -0.8691  2.1936  1.9843
 2406SOL     OW18853   0.111   0.433   2.316  0.0242  0.0840  0.4806
 2406SOL    HW118854   0.162   0.401   2.242  2.7839  3.6910  0.8073
 2406SOL    HW218855   0.170   0.406   2.387  2.2339  0.6093 -1.1510
 2407SOL     OW18856   2.844   0.602  12.913  0.6826 -0.1376  0.2929
 2407SOL    HW118857   2.840   0.657  12.835 -0.8374 -1.0614 -0.2687
 2407SOL    HW218858   2.908   0.536  12.886  1.0078 -0.5431  2.0165
 2408SOL     OW18859   2.023   0.061   2.585  0.3544  0.7898 -0.6097
 2408SOL    HW118860   2.091   0.062   2.518 -0.5288  0.4616 -1.4980
 2408SOL    HW218861   1.955   0.056   2.519  0.4372 -1.2387 -0.5434
 2409SOL     OW18862   2.363   3.567  17.707 -0.4139 -0.1667 -0.0985
 2409SOL    HW118863   2.269   3.563  17.691 -1.0778  3.6967  3.0148
 2409SOL    HW218864   2.405   3.530  17.629 -2.3148  1.7731 -2.0587
 2410SOL     OW18865   3.995   1.725   9.380 -0.1508 -0.1952  0.6990
 2410SOL    HW118866   4.059   1.731   9.451 -0.3406  0.0548  0.8487
 2410SOL    HW218867   4.017   1.807   9.336 -0.3704 -1.4281 -1.7393
 2411SOL     OW18868   2.894   3.610   4.659  0.4962  0.3469  0.1716
 2411SOL    HW118869   2.798   3.612   4.658  0.4529 -1.4853  0.5635
 2411SOL    HW218870   2.903   3.531   4.606  0.2767  0.0297  0.6091
 2412SOL     OW18871   0.900   0.719  10.478  0.4060 -0.0545 -0.2466
 2412SOL    HW118872   0.937   0.801  10.446 -0.5939  0.0988 -1.0449
 2412SOL    HW218873   0.851   0.742  10.557  0.1830 -2.9557  0.4591
 2413SOL     OW18874   3.910   2.835   5.829  0.2686  0.1670  0.1325
 2413SOL    HW118875   3.863   2.918   5.831 -1.7376 -0.9655  0.3040
 2413SOL    HW218876   3.904   2.812   5.737  0.0625  0.1024  0.1620
 2414SOL     OW18877   2.558   0.729   6.468 -0.4681 -0.0866  0.0988
 2414SOL    HW118878   2.489   0.722   6.401  2.3267 -1.7677 -2.5767
 2414SOL    HW218879   2.601   0.645   6.477  0.5489  0.5383  1.0903
 2415SOL     OW18880   4.114   0.914   8.686  0.6070  0.2829 -0.0143
 2415SOL    HW118881   4.035   0.898   8.738  0.7853 -0.3443  0.0655
 2415SOL    HW218882   4.092   0.861   8.609  2.3447 -1.0238  0.3853
 2416SOL     OW18883   0.055   0.531   4.365 -0.4445  0.3699 -0.5586
 2416SOL    HW118884   0.014   0.459   4.413 -0.0268  0.3047 -0.2998
 2416SOL    HW218885   0.095   0.579   4.438  0.0450 -0.7583 -0.0866
 2417SOL     OW18886   0.912   1.239   7.834  0.5366  0.2737  0.4638
 2417SOL    HW118887   0.889   1.260   7.925 -1.8050  2.9727 -0.7756
 2417SOL    HW218888   0.916   1.143   7.837 -0.7272  0.2226  0.4491
 2418SOL     OW18889   0.354   2.120  17.472 -0.3904 -0.2032  0.0773
 2418SOL    HW118890   0.447   2.102  17.490 -0.3570  2.2766  2.4514
 2418SOL    HW218891   0.313   2.034  17.481  0.1795 -0.6005 -1.1999
 2419SOL     OW18892   0.584   4.716   9.237 -0.0550 -0.2638 -0.0518
 2419SOL    HW118893   0.603   0.011   9.323  1.5388 -0.7976 -0.1819
 2419SOL    HW218894   0.653   0.017   9.188 -1.2435 -0.1704 -1.6395
 2420SOL     OW18895   4.664   2.954   2.015 -0.4617  0.2992  0.0140
 2420SOL    HW118896   4.718   3.033   2.006 -0.1396  0.0881  0.0752
 2420SOL    HW218897   4.665   2.940   2.110 -0.6938  1.6664  0.2165
 2421SOL     OW18898   1.878   3.927   5.528 -0.2550 -0.2256  0.2389
 2421SOL    HW118899   1.940   3.855   5.510  1.5618  1.7245 -1.2329
 2421SOL    HW218900   1.800   3.874   5.545 -0.5373  0.6728  1.6798
 2422SOL     OW18901   1.006   2.913   2.722  0.3556 -0.2420 -0.3560
 2422SOL    HW118902   0.922   2.954   2.704 -0.5656 -2.8604 -2.0890
 2422SOL    HW218903   1.033   2.903   2.630 -1.2463  4.3613 -1.2949
 2423SOL     OW18904   4.570   2.682   8.727 -0.1055  0.4685  0.2883
 2423SOL    HW118905   4.634   2.750   8.706  0.9217 -0.5316  0.1483
 2423SOL    HW218906   4.520   2.683   8.646 -1.2752  1.1634  1.0109
 2424SOL     OW18907   2.719   3.782   1.999 -0.0500  0.2622  0.8700
 2424SOL    HW118908   2.664   3.797   2.075  0.4420  2.6505  0.7487
 2424SOL    HW218909   2.799   3.754   2.044 -1.0933  1.5802  3.5337
 2425SOL     OW18910   2.294   4.486   6.233  0.6446 -0.6432 -0.1335
 2425SOL    HW118911   2.329   4.482   6.322 -2.2397  3.0539  1.2077
 2425SOL    HW218912   2.320   4.577   6.219  3.5411 -1.5782 -0.7032
 2426SOL     OW18913   3.666   2.753  17.181  0.0337  0.1530 -0.1273
 2426SOL    HW118914   3.624   2.836  17.203 -0.5813 -0.7358  2.0846
 2426SOL    HW218915   3.756   2.784  17.177  1.0767 -2.9787 -0.7754
 2427SOL     OW18916   1.744   1.395   7.083  0.0630 -0.0693 -0.1327
 2427SOL    HW118917   1.837   1.382   7.100  0.4243  0.9212 -1.3608
 2427SOL    HW218918   1.702   1.417   7.166 -0.9780  1.8027 -1.1474
 2428SOL     OW18919   3.238   1.711   7.826  0.5231 -0.1331  0.3262
 2428SOL    HW118920   3.273   1.653   7.759 -1.4002  0.6119 -1.3264
 2428SOL    HW218921   3.190   1.779   7.780  2.8848 -0.3218 -2.3470
 2429SOL     OW18922   1.155   2.962  12.134 -0.4432  0.5338 -0.2523
 2429SOL    HW118923   1.205   3.044  12.134  1.3897 -0.5964  0.6601
 2429SOL    HW218924   1.069   2.993  12.162 -0.6961  0.7189 -1.2089
 2430SOL     OW18925   3.307   2.930   0.911 -0.2890 -0.1460  0.3594
 2430SOL    HW118926   3.356   2.933   0.829  0.3845 -1.5352  0.7216
 2430SOL    HW218927   3.375   2.935   0.977  1.0574 -0.4760 -0.9988
 2431SOL     OW18928   1.468   2.917   3.601  0.2747  0.4681  0.4038
 2431SOL    HW118929   1.429   2.882   3.680 -0.2222  0.2695  0.0718
 2431SOL    HW218930   1.408   2.990   3.584 -1.3155 -1.0138 -0.3116
 2432SOL     OW18931   0.304   1.056   7.867  0.0505 -0.5267  0.0149
 2432SOL    HW118932   0.337   1.143   7.889  2.1899 -1.2280 -0.3690
 2432SOL    HW218933   0.214   1.072   7.839 -0.6868 -0.6378  2.3344
 2433SOL     OW18934   2.959   1.167   0.230 -0.0487  0.1609 -0.3070
 2433SOL    HW118935   2.953   1.120   0.147 -0.1098 -1.8704  0.8396
 2433SOL    HW218936   2.989   1.098   0.289 -2.2814 -1.1759 -0.7064
 2434SOL     OW18937   3.026   2.352   3.178 -0.4857  0.0226  0.0312
 2434SOL    HW118938   3.066   2.432   3.145  1.2186 -0.6479  0.4577
 2434SOL    HW218939   3.098   2.307   3.222  0.2000 -1.2242 -2.3593
 2435SOL     OW18940   0.762   0.963   2.239 -0.2885  0.5340 -0.0568
 2435SOL    HW118941   0.708   0.986   2.164 -2.7731  0.6488  1.7427
 2435SOL    HW218942   0.777   0.869   2.227 -0.8896  0.4130  0.1088
 2436SOL     OW18943   2.610   0.177   4.678  0.4334 -0.4831 -0.5647
 2436SOL    HW118944   2.641   0.090   4.652 -0.3287 -0.9258  0.0062
 2436SOL    HW218945   2.554   0.184   4.601 -1.0269 -1.0331  0.4659
 2437SOL     OW18946   1.514   1.674   3.675 -0.3015  0.1542  0.3056
 2437SOL    HW118947   1.563   1.600   3.638 -0.1543  0.0193  0.7775
 2437SOL    HW218948   1.551   1.753   3.634  1.7855 -1.8748 -1.6948
 2438SOL     OW18949   0.128   2.335   6.354 -0.7858 -0.1091 -0.2320
 2438SOL    HW118950   0.163   2.401   6.295 -0.8763  1.1164  1.1014
 2438SOL    HW218951   0.176   2.259   6.322  0.9821  1.7465 -1.9493
 2439SOL     OW18952   0.716   2.149   6.852 -0.0124  0.1914 -0.2740
 2439SOL    HW118953   0.647   2.215   6.836  0.1278  0.4980  0.4075
 2439SOL    HW218954   0.749   2.129   6.764  2.2457  2.1159  0.1542
 2440SOL     OW18955   3.851   2.131   8.793 -0.6167 -0.7120  0.6128
 2440SOL    HW118956   3.880   2.044   8.767  2.2499  0.1766  0.8284
 2440SOL    HW218957   3.936   2.172   8.807  0.0327 -1.5277 -0.9388
 2441SOL     OW18958   4.123   4.611  14.911  0.2527 -0.3912  0.5885
 2441SOL    HW118959   4.173   4.685  14.877 -0.7388 -1.0716 -2.3637
 2441SOL    HW218960   4.117   4.549  14.838  1.5831  1.2304 -0.8977
 2442SOL     OW18961   1.111   0.464   7.523 -0.5664  0.0865  0.5964
 2442SOL    HW118962   1.039   0.404   7.507  1.3147 -1.2761 -2.7407
 2442SOL    HW218963   1.168   0.398   7.562  1.1836  1.6757  0.7289
 2443SOL     OW18964   0.013   4.270  12.544 -0.2950  0.7663  0.2875
 2443SOL    HW118965   4.702   4.340  12.581 -0.4961  0.9180 -0.2996
 2443SOL    HW218966   4.703   4.237  12.472 -1.5480  1.8715  0.6944
 2444SOL     OW18967   0.727   4.458   5.834 -0.0280  0.1756  0.1400
 2444SOL    HW118968   0.667   4.504   5.893 -0.3870 -1.5460  1.1105
 2444SOL    HW218969   0.736   4.378   5.885  3.8329 -0.6019 -1.7852
 2445SOL     OW18970   1.174   2.021   6.082  0.1739  0.1950 -0.2208
 2445SOL    HW118971   1.183   2.097   6.024 -2.7381  0.3867 -0.3972
 2445SOL    HW218972   1.163   1.953   6.016 -0.9544 -0.5024  0.6941
 2446SOL     OW18973   1.575   2.049  13.593  0.4758 -0.1033 -0.0956
 2446SOL    HW118974   1.560   2.014  13.681  2.2449 -0.9440 -0.1380
 2446SOL    HW218975   1.620   1.978  13.547  2.9347  0.2568  1.7728
 2447SOL     OW18976   2.761   2.124  14.642 -0.4306  0.9237  0.0173
 2447SOL    HW118977   2.766   2.043  14.693  0.1873  1.6162  1.0464
 2447SOL    HW218978   2.684   2.167  14.679 -0.9601  1.0157 -1.1832
 2448SOL     OW18979   1.782   2.644  14.004 -0.3329  0.1658  0.0506
 2448SOL    HW118980   1.852   2.680  13.949  0.1793 -0.2512  0.4353
 2448SOL    HW218981   1.803   2.551  14.009 -1.3310 -0.2109 -2.4143
 2449SOL     OW18982   0.448   3.027  17.151 -0.0114 -0.2733  0.5074
 2449SOL    HW118983   0.412   3.052  17.065  3.0145 -0.6414 -0.8542
 2449SOL    HW218984   0.424   3.106  17.199  2.4797  0.7534  0.0224
 2450SOL     OW18985   2.867   1.346   9.954  0.1598 -0.1732  0.5049
 2450SOL    HW118986   2.881   1.431   9.911 -0.3382  0.0817  0.8545
 2450SOL    HW218987   2.946   1.344  10.009 -0.1673 -0.4224  0.9654
 2451SOL     OW18988   1.988   2.778   7.626  0.8395  0.0196 -0.5097
 2451SOL    HW118989   1.967   2.867   7.653 -1.3996 -0.7261  0.2001
 2451SOL    HW218990   1.968   2.783   7.532 -2.3609  1.6328  0.2772
 2452SOL     OW18991   0.852   0.014  12.078  0.0955  0.4931 -0.0175
 2452SOL    HW118992   0.879   4.685  12.135  1.7672  1.0035 -0.1543
 2452SOL    HW218993   0.935   0.060  12.089  1.6137 -2.0513 -0.9719
 2453SOL     OW18994   2.856   3.746   9.779  0.0562  0.3994  0.4399
 2453SOL    HW118995   2.781   3.770   9.723 -0.1592  0.6736  0.8428
 2453SOL    HW218996   2.867   3.659   9.741 -1.9280 -0.1987  1.2015
 2454SOL     OW18997   1.859   2.121   2.030 -0.2979 -0.5563  0.1595
 2454SOL    HW118998   1.854   2.160   1.942  0.8908 -1.5135 -0.3402
 2454SOL    HW218999   1.895   2.193   2.081 -1.1707 -0.8078  1.1134
 2455SOL     OW19000   0.361   1.630   3.466 -0.4391 -0.5062 -0.7828
 2455SOL    HW119001   0.314   1.590   3.392  0.4370 -1.9314 -0.5637
 2455SOL    HW219002   0.386   1.716   3.432 -0.6052 -0.6975 -1.3981
 2456SOL     OW19003   4.298   2.723   3.381  0.3018  0.0742 -0.2279
 2456SOL    HW119004   4.394   2.722   3.373  0.4471  1.3034  1.3929
 2456SOL    HW219005   4.283   2.801   3.434  1.7175  1.9809 -2.5770
 2457SOL     OW19006   3.249   3.641   6.012 -0.0527 -0.2271 -0.8959
 2457SOL    HW119007   3.190   3.595   6.071 -0.6773 -1.1189 -2.2328
 2457SOL    HW219008   3.193   3.715   5.988 -0.3894 -0.5573 -1.1224
 2458SOL     OW19009   3.641   0.178   7.704  0.1262  0.2268  0.2615
 2458SOL    HW119010   3.698   0.166   7.780  1.0609  0.6822 -0.3685
 2458SOL    HW219011   3.593   0.096   7.704  0.0343  0.2821 -0.3061
 2459SOL     OW19012   4.033   3.452   6.991 -0.0311 -0.0003 -0.6180
 2459SOL    HW119013   3.999   3.475   6.904 -0.1188  1.0093 -0.3113
 2459SOL    HW219014   4.002   3.361   6.999 -0.1769  0.1184  0.1746
 2460SOL     OW19015   3.297   3.796   7.721  0.1970 -0.2443  0.1050
 2460SOL    HW119016   3.333   3.718   7.761 -1.1974 -0.7082  0.4595
 2460SOL    HW219017   3.380   3.843   7.714  1.0441 -1.6703  0.8410
 2461SOL     OW19018   2.879   3.986   4.431  0.3473  0.1861 -0.6090
 2461SOL    HW119019   2.831   3.953   4.355  0.7374  2.1111 -1.6745
 2461SOL    HW219020   2.960   4.018   4.392  1.2980 -1.4417  0.0047
 2462SOL     OW19021   4.182   1.110   9.275  0.2007 -0.1853 -0.0226
 2462SOL    HW119022   4.095   1.070   9.284  0.4029 -0.9701 -1.5407
 2462SOL    HW219023   4.190   1.108   9.179 -0.9364  1.3787 -0.1540
 2463SOL     OW19024   0.567   3.858   1.977 -0.1525  0.1961  0.7870
 2463SOL    HW119025   0.650   3.826   1.941  0.0210 -0.3571  1.6823
 2463SOL    HW219026   0.507   3.785   1.961  2.0538 -1.3177 -0.5003
 2464SOL     OW19027   2.947   3.281   7.840  0.2265  0.3410  0.3315
 2464SOL    HW119028   2.994   3.364   7.844  0.8938 -0.0012 -0.2383
 2464SOL    HW219029   2.872   3.306   7.893  0.9801  0.9081  1.1318
 2465SOL     OW19030   1.442   4.253   4.104 -0.0614  0.3681 -0.3104
 2465SOL    HW119031   1.463   4.288   4.017  0.9299 -2.1011 -1.0688
 2465SOL    HW219032   1.509   4.185   4.117  0.5228  0.7775 -1.1481
 2466SOL     OW19033   0.830   0.898  15.910  0.2507  0.2419 -0.3100
 2466SOL    HW119034   0.756   0.842  15.887  0.4188 -0.9979  2.1573
 2466SOL    HW219035   0.797   0.982  15.876 -0.9137  0.6271  1.7481
 2467SOL     OW19036   4.697   4.180  17.635  0.0170 -0.6786  0.3304
 2467SOL    HW119037   4.634   4.130  17.583 -1.7898 -0.9037  2.7059
 2467SOL    HW219038   4.643   4.195  17.713 -2.4684 -3.5543 -0.8433
 2468SOL     OW19039   2.113   0.899   5.232  0.3250  0.0285 -0.0591
 2468SOL    HW119040   2.118   0.839   5.306 -2.9457  0.6825  0.6975
 2468SOL    HW219041   2.097   0.841   5.157  0.8343  2.0828 -1.7752
 2469SOL     OW19042   3.920   0.914   5.781  0.3029  0.0741  0.2174
 2469SOL    HW119043   3.892   0.895   5.691 -1.1234 -1.4988  0.9936
 2469SOL    HW219044   4.011   0.944   5.770  0.2302  1.2958  3.0565
 2470SOL     OW19045   4.478   0.105   4.433  0.0235  0.3034  0.1044
 2470SOL    HW119046   4.481   0.034   4.498 -1.4259 -0.3027 -0.4838
 2470SOL    HW219047   4.439   0.066   4.355 -0.1684 -1.3114  1.0047
 2471SOL     OW19048   0.354   0.160   7.251  0.4106 -0.1047 -0.2384
 2471SOL    HW119049   0.286   0.108   7.207 -0.4884 -0.2842  1.3727
 2471SOL    HW219050   0.429   0.100   7.244  2.0422  1.7953  0.8294
 2472SOL     OW19051   1.714   2.436  11.190 -0.1371  0.3611  0.6017
 2472SOL    HW119052   1.681   2.404  11.274 -0.5276 -0.8702 -0.0225
 2472SOL    HW219053   1.805   2.408  11.187  0.0648  0.8043  2.6780
 2473SOL     OW19054   3.517   3.110   5.683 -0.4405  0.3928  0.5612
 2473SOL    HW119055   3.503   3.191   5.732 -1.4703  1.1983 -1.0744
 2473SOL    HW219056   3.434   3.107   5.636 -1.5505  2.4932  2.3700
 2474SOL     OW19057   0.882   3.201   7.638 -0.7398  0.2468 -0.4512
 2474SOL    HW119058   0.926   3.279   7.604  1.1974 -0.3301  0.7837
 2474SOL    HW219059   0.904   3.201   7.731 -0.5245 -3.1714 -0.5150
 2475SOL     OW19060   1.926   2.252  15.903 -0.6365  0.4015  0.1105
 2475SOL    HW119061   1.838   2.269  15.934 -1.1155  0.9136 -1.5207
 2475SOL    HW219062   1.982   2.253  15.981  1.3571  0.0383 -1.2858
 2476SOL     OW19063   4.662   3.322   4.311  0.3886 -0.3743 -0.1835
 2476SOL    HW119064   4.623   3.357   4.391  0.1698 -4.4222  1.4338
 2476SOL    HW219065   0.011   3.303   4.332  1.3734  0.3770 -3.6245
 2477SOL     OW19066   1.627   2.252   7.460 -0.6053 -0.0193 -0.0906
 2477SOL    HW119067   1.660   2.342   7.459  0.3646 -0.3722  0.2478
 2477SOL    HW219068   1.544   2.266   7.506 -0.6827  1.7073 -0.7522
 2478SOL     OW19069   2.323   4.497   5.123 -0.2921  0.4363 -0.3508
 2478SOL    HW119070   2.392   4.556   5.094  0.6165 -1.2876 -1.6824
 2478SOL    HW219071   2.349   4.500   5.215  1.0482  0.2822 -0.7252
 2479SOL     OW19072   3.218   4.248   8.998 -0.1725 -0.2061 -0.4548
 2479SOL    HW119073   3.182   4.199   8.925  1.3289 -0.5499 -0.9685
 2479SOL    HW219074   3.234   4.180   9.064 -0.1136 -1.6058 -1.9173
 2480SOL     OW19075   3.904   2.086  16.078  0.3513 -0.0365 -0.2543
 2480SOL    HW119076   3.823   2.119  16.038 -0.2924 -1.0796  0.1830
 2480SOL    HW219077   3.918   2.152  16.145  0.3801  1.5852 -1.8565
 2481SOL     OW19078   1.023   2.016   7.315  0.1350  0.0175  0.0861
 2481SOL    HW119079   1.114   2.039   7.300  0.3447 -0.8751 -0.0434
 2481SOL    HW219080   1.003   2.067   7.393  0.9033  0.0696  0.2425
 2482SOL     OW19081   1.446   0.181   3.632  0.8710  0.1929  0.1469
 2482SOL    HW119082   1.400   0.098   3.645  1.1183  0.2384  1.2802
 2482SOL    HW219083   1.376   0.245   3.639  0.4198  0.0578 -3.0125
 2483SOL     OW19084   3.519   4.140   4.444 -0.1698 -0.5062  0.0339
 2483SOL    HW119085   3.453   4.073   4.423  0.1606 -0.4020 -1.3164
 2483SOL    HW219086   3.593   4.084   4.420 -0.0474  0.0682 -0.9414
 2484SOL     OW19087   1.387   3.157   4.073  0.3356 -0.2877  0.0520
 2484SOL    HW119088   1.323   3.222   4.104  2.3562  0.5191  2.5366
 2484SOL    HW219089   1.430   3.126   4.153  1.3895  2.9712  0.7498
 2485SOL     OW19090   3.449   1.399  17.580  0.6071  0.5014 -0.1981
 2485SOL    HW119091   3.479   1.440  17.498  2.3345 -1.1777 -0.3926
 2485SOL    HW219092   3.533   1.364  17.608 -0.8232 -0.6629  2.5649
 2486SOL     OW19093   3.263   0.360   4.482  0.0716 -0.6763  0.3203
 2486SOL    HW119094   3.312   0.406   4.551  0.6023 -2.8243  1.3817
 2486SOL    HW219095   3.179   0.405   4.473  0.5561  0.0440 -0.6670
 2487SOL     OW19096   0.508   0.615   9.221  0.0307 -0.1746 -0.1654
 2487SOL    HW119097   0.480   0.647   9.135 -2.1627  1.1772  1.0431
 2487SOL    HW219098   0.457   0.661   9.288 -0.7414  0.6412 -1.3123
 2488SOL     OW19099   2.667   3.456   8.732  0.5475 -0.1747 -0.0448
 2488SOL    HW119100   2.698   3.483   8.819  1.8194 -0.4129 -0.4289
 2488SOL    HW219101   2.657   3.546   8.701  0.5323 -0.2811 -0.3447
 2489SOL     OW19102   0.561   4.339   1.180  0.0935 -0.1649 -0.5475
 2489SOL    HW119103   0.544   4.276   1.111  0.9390 -2.7710  1.6089
 2489SOL    HW219104   0.589   4.277   1.248 -0.6078 -1.6905 -1.6605
 2490SOL     OW19105   2.963   4.229   7.511 -0.3325  0.1843 -0.1520
 2490SOL    HW119106   3.010   4.292   7.456 -0.9604  1.0121  0.2521
 2490SOL    HW219107   2.869   4.233   7.490 -0.6213 -0.6931  0.9663
 2491SOL     OW19108   3.868   1.606   3.752  0.3319 -0.7367 -0.0858
 2491SOL    HW119109   3.866   1.581   3.659  2.0839  1.2219 -0.6389
 2491SOL    HW219110   3.805   1.678   3.749  1.1702 -0.0071 -0.2049
 2492SOL     OW19111   1.226   2.077  16.915  0.6663 -0.5761 -0.3953
 2492SOL    HW119112   1.320   2.096  16.924  0.3784 -0.2255  1.8618
 2492SOL    HW219113   1.197   2.097  17.004  1.2889 -0.3042 -0.2505
 2493SOL     OW19114   2.044   4.581   6.159  0.0474 -0.6046  0.0676
 2493SOL    HW119115   2.136   4.585   6.133 -0.2859  1.1399 -0.8150
 2493SOL    HW219116   2.003   4.645   6.102  1.3691  0.0291 -0.1608
 2494SOL     OW19117   2.614   3.920   0.174 -0.0068 -0.6326  0.2948
 2494SOL    HW119118   2.619   3.828   0.152  3.5161 -0.2971 -0.3333
 2494SOL    HW219119   2.614   3.949   0.083 -0.0012  0.4163  0.6234
 2495SOL     OW19120   2.935   2.464   5.851 -0.0646  0.0385  0.4945
 2495SOL    HW119121   2.985   2.545   5.857 -0.1770  0.2116 -0.9278
 2495SOL    HW219122   2.856   2.492   5.897  0.1039  2.6299 -0.7895
 2496SOL     OW19123   3.545   0.246   3.300 -0.3261  0.0760 -0.5713
 2496SOL    HW119124   3.592   0.258   3.383  0.3654 -0.6910 -0.8558
 2496SOL    HW219125   3.581   0.160   3.277 -0.0304  0.4242 -1.4142
 2497SOL     OW19126   3.222   3.262   7.437 -0.0895 -0.5332 -0.1893
 2497SOL    HW119127   3.140   3.217   7.419 -0.7951  0.3630  0.7495
 2497SOL    HW219128   3.245   3.224   7.522  0.8633 -0.4098 -0.3866
 2498SOL     OW19129   3.379   2.472  13.607 -0.2939 -0.1462  0.3599
 2498SOL    HW119130   3.333   2.519  13.676  0.0892 -0.4585  0.8219
 2498SOL    HW219131   3.367   2.383  13.641 -2.1276  0.0814  0.3081
 2499SOL     OW19132   4.313   3.155   7.162  0.2519  0.3704  0.1706
 2499SOL    HW119133   4.340   3.069   7.128 -0.5467  1.3902 -3.0162
 2499SOL    HW219134   4.220   3.151   7.144 -0.1909 -0.0326  2.4927
 2500SOL     OW19135   1.621   4.574   8.451 -0.0806 -0.5032 -0.3754
 2500SOL    HW119136   1.664   4.560   8.535 -0.2683  0.5088 -0.1114
 2500SOL    HW219137   1.656   4.655   8.415  0.6728 -0.3180  0.7901
 2501SOL     OW19138   0.145   0.913   9.358  0.0325 -0.1259 -0.0837
 2501SOL    HW119139   0.130   0.980   9.425 -3.7825  0.3715 -1.4213
 2501SOL    HW219140   0.115   0.839   9.412 -0.2957 -0.4646 -0.7334
 2502SOL     OW19141   1.104   3.751   5.122 -0.7081  0.1725 -0.0561
 2502SOL    HW119142   1.168   3.680   5.120  1.4209  2.0278  2.1137
 2502SOL    HW219143   1.157   3.824   5.154  2.4951 -0.9007 -2.9484
 2503SOL     OW19144   4.091   2.207   7.747 -0.3733 -0.1685 -0.1049
 2503SOL    HW119145   4.131   2.162   7.672 -2.2337 -1.1156 -0.5531
 2503SOL    HW219146   4.009   2.157   7.751 -1.9867  2.5407  0.7690
 2504SOL     OW19147   2.052   3.291   6.945  0.4317  0.0159 -0.8148
 2504SOL    HW119148   2.045   3.352   6.872  5.3221  1.1213 -0.3458
 2504SOL    HW219149   2.097   3.219   6.901  1.2734 -0.9167  1.5288
 2505SOL     OW19150   3.576   1.304   6.539 -0.2114  0.4089  0.0637
 2505SOL    HW119151   3.571   1.210   6.553  1.0067  0.0158 -2.2186
 2505SOL    HW219152   3.486   1.328   6.561  0.0238 -0.1264  1.5664
 2506SOL     OW19153   4.050   1.836   6.305 -0.1629 -0.2528 -0.2362
 2506SOL    HW119154   4.145   1.831   6.302 -0.1091 -1.3528  3.0360
 2506SOL    HW219155   4.031   1.752   6.348  0.1893  1.0829  2.5686
 2507SOL     OW19156   2.119   4.399   4.944 -0.0438 -0.3942 -0.1745
 2507SOL    HW119157   2.179   4.390   5.018  0.2753 -2.0033 -0.6197
 2507SOL    HW219158   2.165   4.440   4.871 -2.2654  1.9620 -0.2495
 2508SOL     OW19159   1.501   1.434   8.382 -0.5060  0.1289  0.1470
 2508SOL    HW119160   1.483   1.412   8.290 -0.5891 -2.3246  0.7323
 2508SOL    HW219161   1.475   1.525   8.390 -1.4332 -0.1766  0.6269
 2509SOL     OW19162   4.717   3.221   3.871 -0.1847  0.3361 -0.5125
 2509SOL    HW119163   4.700   3.137   3.914 -2.9623  0.6760 -0.9437
 2509SOL    HW219164   4.694   3.209   3.779  0.9771 -0.8947 -0.6363
 2510SOL     OW19165   1.014   2.425   5.726  0.7771  0.1697  0.5856
 2510SOL    HW119166   0.947   2.435   5.659  1.2197 -1.2651 -0.0828
 2510SOL    HW219167   1.084   2.377   5.681  0.4480 -1.0433  1.3726
 2511SOL     OW19168   1.796   4.064   8.125 -0.1365  0.1288 -0.4749
 2511SOL    HW119169   1.743   4.005   8.178  0.2908  0.1405 -0.0393
 2511SOL    HW219170   1.873   4.066   8.182  0.1461 -1.9549 -0.7931
 2512SOL     OW19171   4.341   0.404   3.194  0.8184  0.4721 -0.3938
 2512SOL    HW119172   4.331   0.384   3.100 -1.0250  2.0007 -0.5315
 2512SOL    HW219173   4.263   0.361   3.229  1.7167 -1.4269 -0.7370
 2513SOL     OW19174   1.692   4.439   6.398 -0.5607 -0.8446 -0.8210
 2513SOL    HW119175   1.760   4.502   6.373  0.5287 -2.0623 -0.9146
 2513SOL    HW219176   1.624   4.505   6.413 -0.1556 -0.9932  1.7351
 2514SOL     OW19177   4.015   3.715   1.987  0.4136  0.0842  0.1625
 2514SOL    HW119178   4.041   3.647   1.925 -0.6882 -1.1788  1.0780
 2514SOL    HW219179   4.006   3.662   2.067  1.1067 -0.6520 -0.2524
 2515SOL     OW19180   4.241   2.160   2.347  0.1433  0.1283 -0.1291
 2515SOL    HW119181   4.186   2.159   2.269  1.0309 -1.1672 -0.7410
 2515SOL    HW219182   4.290   2.078   2.342 -2.3775 -1.1277 -3.6190
 2516SOL     OW19183   0.478   2.597   6.289  0.2362  0.7718 -0.7109
 2516SOL    HW119184   0.552   2.541   6.267 -0.2171  0.2785 -0.9684
 2516SOL    HW219185   0.405   2.542   6.317 -0.0750  1.1588 -0.7612
 2517SOL     OW19186   4.304   0.749   4.534 -0.2937  0.4857 -0.4235
 2517SOL    HW119187   4.383   0.702   4.508 -1.0083 -0.0015 -1.7134
 2517SOL    HW219188   4.327   0.839   4.510  0.2562  1.2013  2.7684
 2518SOL     OW19189   2.989   0.701   7.772  0.3470  0.0680  0.2164
 2518SOL    HW119190   2.951   0.762   7.709 -1.3756 -1.1972  0.0547
 2518SOL    HW219191   3.062   0.748   7.813  1.6839 -1.7374 -0.0662
 2519SOL     OW19192   3.043   1.856   2.047  0.5902 -0.5214  0.2243
 2519SOL    HW119193   3.014   1.887   1.962  0.3694  0.3216  0.6056
 2519SOL    HW219194   3.122   1.910   2.051  0.5882 -0.4926 -0.1332
 2520SOL     OW19195   3.402   3.123   0.701  0.6367 -0.1019  0.5048
 2520SOL    HW119196   3.353   3.152   0.624  2.5385  0.1419 -0.6170
 2520SOL    HW219197   3.486   3.109   0.658 -0.1563 -0.9432 -0.7921
 2521SOL     OW19198   1.432   4.472   2.405 -0.5939 -0.7383  0.6143
 2521SOL    HW119199   1.390   4.546   2.449  1.5783  1.1348 -0.4236
 2521SOL    HW219200   1.361   4.420   2.368 -1.1397  1.2690 -1.1624
 2522SOL     OW19201   1.933   3.321   6.027  0.2907 -0.1566 -0.6115
 2522SOL    HW119202   1.933   3.243   6.082  0.8246 -1.2862 -2.1984
 2522SOL    HW219203   1.919   3.390   6.091 -0.7050 -1.5153  0.6103
 2523SOL     OW19204   4.135   2.841   4.340  0.0578  0.1981  0.2118
 2523SOL    HW119205   4.065   2.874   4.397  1.0355 -0.0211  1.5367
 2523SOL    HW219206   4.106   2.750   4.350 -0.2100  0.3499  0.8345
 2524SOL     OW19207   2.724   4.385   4.462  0.1330 -0.5539 -0.2040
 2524SOL    HW119208   2.716   4.342   4.547 -1.1978  0.1764  0.0315
 2524SOL    HW219209   2.750   4.303   4.420  2.1272  0.2161 -0.4822
 2525SOL     OW19210   0.626   1.124  11.534  0.1215  0.1034  0.0969
 2525SOL    HW119211   0.559   1.079  11.587  0.6907 -1.3465 -0.4143
 2525SOL    HW219212   0.651   1.194  11.594 -0.3823 -0.4904  1.0188
 2526SOL     OW19213   3.641   0.528   6.814 -0.4309 -0.4813  0.1473
 2526SOL    HW119214   3.592   0.481   6.881 -4.2429  3.9368  0.4255
 2526SOL    HW219215   3.612   0.483   6.734 -1.8464  2.0081 -0.7380
 2527SOL     OW19216   4.175   4.568   0.899 -0.3965  0.1671  0.5126
 2527SOL    HW119217   4.231   4.597   0.972  0.6855  1.1090 -0.6830
 2527SOL    HW219218   4.087   4.593   0.926 -0.6875 -0.7186  0.3735
 2528SOL     OW19219   3.056   4.084   5.379  0.9383  0.1352  0.0764
 2528SOL    HW119220   3.116   4.129   5.438  0.2692  0.5159  0.4644
 2528SOL    HW219221   3.094   3.997   5.388  0.2590 -0.2369 -0.6323
 2529SOL     OW19222   1.502   1.473   8.866 -0.1150  0.1925 -0.0556
 2529SOL    HW119223   1.446   1.399   8.843  0.3495  0.3011 -1.5263
 2529SOL    HW219224   1.465   1.487   8.953  0.5624 -0.2988  0.3064
 2530SOL     OW19225   3.249   3.526   7.469 -0.0381 -0.2892 -0.3759
 2530SOL    HW119226   3.218   3.461   7.407 -1.1377  2.0934 -2.3512
 2530SOL    HW219227   3.343   3.508   7.473  0.1462  0.5622 -0.7708
 2531SOL     OW19228   2.833   4.596   7.632 -0.0018  0.7686  0.1244
 2531SOL    HW119229   2.783   4.529   7.584  0.2026  1.7781 -1.4924
 2531SOL    HW219230   2.920   4.579   7.595  0.5858  0.5075  1.6202
 2532SOL     OW19231   3.059   4.612   4.361  0.2958  0.2536 -0.0887
 2532SOL    HW119232   3.059   4.527   4.318  2.4371 -0.0590  0.5203
 2532SOL    HW219233   3.119   4.581   4.429 -1.0948 -1.7559  0.2229
 2533SOL     OW19234   1.782   0.855   5.884  0.4065  0.2678  0.0446
 2533SOL    HW119235   1.791   0.943   5.921  2.0263 -0.0851  0.5074
 2533SOL    HW219236   1.691   0.837   5.909  0.0651  0.5248 -1.0035
 2534SOL     OW19237   2.322   0.916   6.205  0.0571 -0.0272  0.7764
 2534SOL    HW119238   2.328   0.955   6.292 -0.0370 -0.5793  1.0326
 2534SOL    HW219239   2.365   0.831   6.216  0.7036  0.0658 -0.9960
 2535SOL     OW19240   0.226   3.262   7.124  0.4662 -0.3485  0.7688
 2535SOL    HW119241   0.187   3.336   7.077  1.9586  1.3716  2.2379
 2535SOL    HW219242   0.148   3.219   7.160 -0.2241  1.3922  1.3444
 2536SOL     OW19243   0.900   2.602   7.004  0.5278 -0.0913  0.3430
 2536SOL    HW119244   0.958   2.576   7.076  2.7499 -0.1976 -1.5126
 2536SOL    HW219245   0.821   2.631   7.050 -0.4081 -1.7206 -0.2263
 2537SOL     OW19246   2.206   2.314   8.950 -0.1685 -0.2321  0.2861
 2537SOL    HW119247   2.206   2.308   8.854 -0.0065 -1.2806  0.3508
 2537SOL    HW219248   2.115   2.339   8.968 -0.0882  0.7217 -0.6323
 2538SOL     OW19249   3.406   1.435  13.525  0.1257  0.1959 -0.7185
 2538SOL    HW119250   3.373   1.346  13.512  0.3222 -0.0391  0.4056
 2538SOL    HW219251   3.399   1.461  13.617  0.0400  1.1483 -0.9957
 2539SOL     OW19252   4.064   4.119   0.365 -0.5858  0.4372 -0.4604
 2539SOL    HW119253   4.026   4.187   0.421 -1.5453 -2.9055  2.9295
 2539SOL    HW219254   4.040   4.042   0.417  0.7762 -0.3865 -1.0450
 2540SOL     OW19255   1.428   0.328   4.521  0.3045 -0.6048 -0.1059
 2540SOL    HW119256   1.461   0.287   4.441  1.8212 -1.1396  0.7913
 2540SOL    HW219257   1.395   0.254   4.573 -2.3120  0.6482  0.0155
 2541SOL     OW19258   4.720   1.403   6.916 -0.0516  0.5996  0.1443
 2541SOL    HW119259   4.741   1.477   6.972  0.0526  1.1811 -0.6638
 2541SOL    HW219260   0.055   1.347   6.918 -0.5867 -0.1486  0.0817
 2542SOL     OW19261   0.546   3.065   8.425  0.1688 -0.0500 -0.1824
 2542SOL    HW119262   0.513   3.150   8.456  0.9057  0.8932 -1.9646
 2542SOL    HW219263   0.618   3.072   8.363  0.2306 -0.4615 -0.1548
 2543SOL     OW19264   2.647   3.040   4.905 -0.2291  0.1007 -0.5799
 2543SOL    HW119265   2.582   3.059   4.972 -0.3993 -1.7600 -0.2212
 2543SOL    HW219266   2.599   2.992   4.838  1.5152 -1.5804 -0.6357
 2544SOL     OW19267   3.466   0.170  13.085  0.1123  0.1159  0.0350
 2544SOL    HW119268   3.433   0.104  13.146  0.3691 -0.8328 -0.8301
 2544SOL    HW219269   3.452   0.255  13.126  0.4886 -0.4449  1.3324
 2545SOL     OW19270   2.278   0.717   6.960  0.2664  0.5157 -0.3380
 2545SOL    HW119271   2.195   0.670   6.953 -0.8225  2.2662  0.8985
 2545SOL    HW219272   2.277   0.707   7.055  1.1142 -1.7181 -0.5589
 2546SOL     OW19273   0.902   1.326   1.467 -0.0307  0.4543 -0.0462
 2546SOL    HW119274   0.876   1.236   1.487 -0.7228  0.4938 -0.7705
 2546SOL    HW219275   0.996   1.319   1.451  0.0292  2.7945 -0.7219
 2547SOL     OW19276   3.154   1.656  17.626 -0.0523  0.3582  0.6373
 2547SOL    HW119277   3.108   1.619  17.552  0.0652 -2.0328  1.7533
 2547SOL    HW219278   3.230   1.701  17.589  0.2602  0.7756  1.7820
 2548SOL     OW19279   1.034   2.395   2.389 -0.6157  0.1053 -0.3193
 2548SOL    HW119280   1.025   2.401   2.294 -2.3355 -0.8709 -0.2368
 2548SOL    HW219281   0.942   2.397   2.415 -0.0031 -0.8462  1.9442
 2549SOL     OW19282   3.038   3.046   7.347  0.2300  0.4694  0.0451
 2549SOL    HW119283   2.976   2.974   7.338 -2.5746  2.5499  2.6650
 2549SOL    HW219284   2.975   3.114   7.374 -0.5746 -0.4062  0.3617
 2550SOL     OW19285   1.618   3.856   3.783 -0.3351  0.7245 -0.0116
 2550SOL    HW119286   1.688   3.870   3.720 -1.2030  2.3447 -0.6152
 2550SOL    HW219287   1.542   3.841   3.726 -0.2764  1.3647 -0.2602
 2551SOL     OW19288   0.454   2.599  12.622 -0.6642  0.4456  0.4864
 2551SOL    HW119289   0.478   2.681  12.581  0.3459 -0.1448 -0.0949
 2551SOL    HW219290   0.395   2.557  12.560  0.3834 -1.8445  1.0208
 2552SOL     OW19291   3.885   4.541   1.376  0.1121  0.2278 -0.5427
 2552SOL    HW119292   3.906   4.464   1.324 -0.7359  1.2725 -2.4061
 2552SOL    HW219293   3.961   4.591   1.346 -0.3312  0.0866 -1.8951
 2553SOL     OW19294   1.088   4.269   6.571  0.3445  0.2283  0.0814
 2553SOL    HW119295   1.014   4.255   6.512  0.4434 -0.0469  0.0189
 2553SOL    HW219296   1.095   4.364   6.579  0.8714  0.0792  1.3605
 2554SOL     OW19297   3.659   1.079  14.039 -0.5277 -0.5221  0.6139
 2554SOL    HW119298   3.655   1.114  14.128  1.1671 -0.5207  0.6957
 2554SOL    HW219299   3.753   1.061  14.037 -0.1680  1.5161 -0.2266
 2555SOL     OW19300   3.013   2.930   0.221 -0.2392  0.4427 -0.3273
 2555SOL    HW119301   3.094   2.882   0.239 -0.5505  0.4354  1.0081
 2555SOL    HW219302   3.002   2.923   0.126 -0.6180  1.5962 -0.3617
 2556SOL     OW19303   4.111   4.051   9.485 -0.0158  0.8420 -0.4895
 2556SOL    HW119304   4.144   4.029   9.398  2.4635 -0.6828  0.8422
 2556SOL    HW219305   4.180   4.009   9.536 -1.7086  1.2774  2.1422
 2557SOL     OW19306   3.029   0.648   5.383 -0.0538  0.1224  0.5856
 2557SOL    HW119307   2.980   0.719   5.341  0.7896 -0.1497 -0.8570
 2557SOL    HW219308   3.114   0.689   5.400  0.1354  0.3116 -0.8940
 2558SOL     OW19309   3.746   3.147   3.278  0.5595  0.1111  0.0591
 2558SOL    HW119310   3.792   3.142   3.361  0.8249  2.3664  0.0407
 2558SOL    HW219311   3.654   3.138   3.303  0.6539  1.9080  0.9910
 2559SOL     OW19312   0.900   3.867  10.716  0.3103 -0.4904 -0.6753
 2559SOL    HW119313   0.858   3.781  10.722 -3.5095  1.3221 -1.0343
 2559SOL    HW219314   0.973   3.871  10.777 -1.2938 -0.8640  1.3034
 2560SOL     OW19315   2.382   4.047   0.617  0.6805 -0.0965  0.0229
 2560SOL    HW119316   2.459   4.100   0.639  0.7350 -0.3313  0.4080
 2560SOL    HW219317   2.385   4.037   0.522  0.5713  1.4859 -0.1403
 2561SOL     OW19318   2.358   1.815   7.560 -0.7080  0.2158  0.2873
 2561SOL    HW119319   2.319   1.728   7.556  0.8173 -0.3372 -2.5035
 2561SOL    HW219320   2.323   1.853   7.479 -0.9838 -1.1033 -0.2166
 2562SOL     OW19321   3.438   3.951   5.770  0.2273  0.8631  0.2708
 2562SOL    HW119322   3.378   3.896   5.721 -0.6458  0.2805  2.0138
 2562SOL    HW219323   3.522   3.906   5.778 -0.7153 -1.7681 -4.3503
 2563SOL     OW19324   1.753   0.230  10.704 -0.0359 -0.5359  0.0301
 2563SOL    HW119325   1.775   0.222  10.797 -0.2579  2.1731  0.3198
 2563SOL    HW219326   1.762   0.325  10.696 -2.5407 -0.1839  1.2535
 2564SOL     OW19327   0.383   0.614  14.338  0.2658 -0.0136 -0.1598
 2564SOL    HW119328   0.427   0.616  14.423 -0.3569 -1.1630  0.2011
 2564SOL    HW219329   0.300   0.653  14.368  2.8060  2.8361  3.2106
 2565SOL     OW19330   3.108   2.784  17.320 -0.0133 -0.4658  0.0545
 2565SOL    HW119331   3.192   2.739  17.320 -0.7442 -1.8242  0.3206
 2565SOL    HW219332   3.078   2.780  17.229  0.4375 -1.4946 -0.0404
 2566SOL     OW19333   2.310   4.480   8.071  0.4753  0.1943  0.7520
 2566SOL    HW119334   2.339   4.392   8.093 -0.6508 -0.2870  0.3237
 2566SOL    HW219335   2.218   4.482   8.098 -0.1399  0.7202 -1.3421
 2567SOL     OW19336   2.675   2.366  13.384 -0.3099 -0.3516 -0.5265
 2567SOL    HW119337   2.707   2.337  13.470  0.1680  0.2937 -0.4903
 2567SOL    HW219338   2.747   2.332  13.331 -0.4331 -0.4510 -0.6322
 2568SOL     OW19339   1.104   0.110  14.828  0.5612 -0.0634 -0.4153
 2568SOL    HW119340   1.184   0.152  14.860  1.1013  0.6916 -2.7783
 2568SOL    HW219341   1.108   0.137  14.736 -0.4536 -0.6579 -0.6377
 2569SOL     OW19342   1.103   0.077   3.762 -0.3170 -0.3956 -0.3833
 2569SOL    HW119343   1.017   0.070   3.803 -0.0833 -0.8822  0.0194
 2569SOL    HW219344   1.122   4.729   3.737  0.8789 -0.7612  1.8129
 2570SOL     OW19345   1.007   3.250   5.489  0.8347  0.4631  0.0121
 2570SOL    HW119346   1.081   3.254   5.429  0.8966 -1.7847 -0.0620
 2570SOL    HW219347   0.947   3.185   5.454  0.0228  0.9647  0.4646
 2571SOL     OW19348   0.237   0.850  10.336 -0.1927 -0.2961  0.2661
 2571SOL    HW119349   0.163   0.788  10.333  0.7080 -1.3700  0.1130
 2571SOL    HW219350   0.225   0.911  10.263 -2.2252  1.1899  1.8485
 2572SOL     OW19351   2.874   0.912   7.211  0.4682  0.1294  0.2241
 2572SOL    HW119352   2.931   0.929   7.136 -1.6769 -0.4914 -1.5524
 2572SOL    HW219353   2.895   0.823   7.238  2.0308  0.9172  1.5877
 2573SOL     OW19354   3.873   4.429   7.195 -0.0412 -0.0392  0.3847
 2573SOL    HW119355   3.893   4.522   7.182  0.0775  0.0313  1.1064
 2573SOL    HW219356   3.842   4.432   7.285 -0.7650 -0.8913  0.1634
 2574SOL     OW19357   1.236   1.642  13.318 -0.3474  0.2050 -0.2751
 2574SOL    HW119358   1.303   1.658  13.385 -0.6482  0.3624 -0.0121
 2574SOL    HW219359   1.204   1.560  13.355  0.0255  0.1984  0.0349
 2575SOL     OW19360   3.216   2.833   6.450 -0.0055 -0.4585 -0.3489
 2575SOL    HW119361   3.172   2.764   6.399  2.2096 -2.8477  0.9788
 2575SOL    HW219362   3.166   2.911   6.425  0.6470 -0.5836 -2.0300
 2576SOL     OW19363   3.565   1.283   8.985 -0.2654  0.6033  0.0567
 2576SOL    HW119364   3.646   1.334   8.981  0.2845 -0.3596 -0.8229
 2576SOL    HW219365   3.567   1.235   9.068  1.6119 -0.1689 -0.4417
 2577SOL     OW19366   0.378   4.128   1.957  0.0987  0.3049  0.0274
 2577SOL    HW119367   0.333   4.140   1.874  0.8805 -2.1390 -0.7259
 2577SOL    HW219368   0.321   4.189   2.004 -0.2345 -0.6926  0.9264
 2578SOL     OW19369   3.976   1.176   5.250  0.3281 -0.2641  0.0862
 2578SOL    HW119370   3.887   1.143   5.240 -0.3819  0.7224  3.0912
 2578SOL    HW219371   3.962   1.259   5.204  1.8976  0.8729  1.6575
 2579SOL     OW19372   2.465   0.267   9.729 -0.4166  0.8805  0.2468
 2579SOL    HW119373   2.402   0.321   9.777 -1.3770  1.0675 -1.2223
 2579SOL    HW219374   2.497   0.203   9.792 -0.4766  1.8132  1.2347
 2580SOL     OW19375   2.000   3.540   0.897 -0.3719 -0.3548 -0.0524
 2580SOL    HW119376   2.063   3.611   0.886  0.6360 -1.1562  0.5809
 2580SOL    HW219377   2.049   3.481   0.955  1.8114  2.1192  0.5803
 2581SOL     OW19378   4.230   1.596  12.107 -0.3162  0.5529 -0.7733
 2581SOL    HW119379   4.199   1.684  12.086 -1.1508  0.5771  0.5147
 2581SOL    HW219380   4.178   1.549  12.042  1.4426 -1.1513 -0.9252
 2582SOL     OW19381   2.183   1.935   5.699 -0.5368  0.3206  0.1045
 2582SOL    HW119382   2.271   1.901   5.714 -0.7433 -0.7553 -1.0612
 2582SOL    HW219383   2.201   2.006   5.637 -1.1008 -1.6481 -2.2911
 2583SOL     OW19384   0.089   2.596   5.667  0.3278  0.3902 -0.0983
 2583SOL    HW119385   0.122   2.643   5.744  0.7123 -0.6003  0.3377
 2583SOL    HW219386   4.737   2.598   5.682  0.2824 -2.0145 -0.1382
 2584SOL     OW19387   1.119   2.149   3.579  0.1224  0.8050  0.5035
 2584SOL    HW119388   1.167   2.119   3.657  1.2993 -1.6689 -1.1680
 2584SOL    HW219389   1.029   2.151   3.610  0.3366 -2.2708  1.2604
 2585SOL     OW19390   0.858   3.257   3.429  0.1161  0.0752  0.0637
 2585SOL    HW119391   0.855   3.226   3.338 -2.0022 -1.8114  0.7956
 2585SOL    HW219392   0.951   3.266   3.449  0.3705 -0.6102 -0.7971
 2586SOL     OW19393   1.814   2.345   8.118 -0.1399  0.0744 -0.1269
 2586SOL    HW119394   1.773   2.266   8.154 -2.0923  0.5801 -1.2420
 2586SOL    HW219395   1.900   2.336   8.160 -1.1576 -0.3037  1.8372
 2587SOL     OW19396   3.349   4.197  13.349 -0.2286  0.1547 -0.0891
 2587SOL    HW119397   3.333   4.160  13.262  0.5539  0.7944 -0.4996
 2587SOL    HW219398   3.318   4.120  13.397 -2.9815  0.8164 -0.8327
 2588SOL     OW19399   3.584   2.624  15.223 -0.1118  0.6530 -0.2312
 2588SOL    HW119400   3.577   2.537  15.262  1.2521 -0.3072 -2.1316
 2588SOL    HW219401   3.567   2.607  15.130 -0.1870 -1.1706  0.1094
 2589SOL     OW19402   4.595   1.182   5.759 -0.0068 -0.1295  0.5078
 2589SOL    HW119403   4.655   1.251   5.785 -0.5784  0.8159 -0.6357
 2589SOL    HW219404   4.529   1.241   5.722 -0.6918 -0.7802  0.6796
 2590SOL     OW19405   2.435   4.411   4.479  0.1901  0.6394 -0.6988
 2590SOL    HW119406   2.410   4.319   4.475 -0.2095  0.7379 -0.3587
 2590SOL    HW219407   2.530   4.409   4.463 -0.1257  0.4554 -2.5911
 2591SOL     OW19408   4.372   3.476   1.768 -0.5285 -0.1937  0.7384
 2591SOL    HW119409   4.416   3.545   1.817  1.1218 -0.4777 -0.3573
 2591SOL    HW219410   4.426   3.402   1.795  0.4967 -0.3887 -1.9288
 2592SOL     OW19411   3.548   0.565  10.995 -0.3144  0.0238  0.4536
 2592SOL    HW119412   3.587   0.648  10.969  0.8733 -1.4282 -2.3988
 2592SOL    HW219413   3.610   0.539  11.064  0.8623  0.5885 -0.3797
 2593SOL     OW19414   0.353   4.088   6.760 -0.2742  0.4929  0.0204
 2593SOL    HW119415   0.419   4.130   6.814 -0.7743  0.6419  0.5193
 2593SOL    HW219416   0.272   4.133   6.787 -0.4908  1.0149 -1.4708
 2594SOL     OW19417   1.192   1.033   3.548 -0.3532  0.0058 -0.0974
 2594SOL    HW119418   1.270   1.071   3.589 -1.8707  2.2975  0.6190
 2594SOL    HW219419   1.203   0.938   3.545 -1.8497 -0.0703 -2.9224
 2595SOL     OW19420   2.675   3.927   2.916  0.1154 -0.6822 -0.1790
 2595SOL    HW119421   2.593   3.971   2.894 -0.3462 -0.1331  2.6065
 2595SOL    HW219422   2.748   3.988   2.899 -0.0720 -0.8055 -1.4331
 2596SOL     OW19423   0.466   1.518  14.863 -0.4200  0.0180 -0.7685
 2596SOL    HW119424   0.399   1.456  14.833  1.3836 -3.6395  2.7850
 2596SOL    HW219425   0.436   1.539  14.951  0.4840 -0.7639 -0.2655
 2597SOL     OW19426   2.321   0.166  11.522 -0.2156  0.5335  0.5397
 2597SOL    HW119427   2.347   0.097  11.583 -1.4003  1.2382  1.8197
 2597SOL    HW219428   2.238   0.131  11.491 -1.1948  1.3109  2.3237
 2598SOL     OW19429   0.699   3.895   8.888 -0.2781 -0.6840  0.1506
 2598SOL    HW119430   0.743   3.827   8.939 -0.9281 -0.1282  1.4644
 2598SOL    HW219431   0.676   3.956   8.959  0.7242 -1.0773  0.8117
 2599SOL     OW19432   1.958   2.607  15.929  0.0506 -0.3241 -0.0114
 2599SOL    HW119433   1.932   2.557  16.007  3.7129 -1.7731  0.2598
 2599SOL    HW219434   1.935   2.698  15.949 -1.6260 -1.1975  2.1030
 2600SOL     OW19435   4.447   0.999   5.904 -1.0606 -0.1149 -0.1921
 2600SOL    HW119436   4.435   1.021   5.996 -0.2317 -0.5373  0.0215
 2600SOL    HW219437   4.508   1.068   5.878  1.9059 -2.7446 -0.2140
 2601SOL     OW19438   2.645   2.705   9.755  0.2766 -0.7830  0.0833
 2601SOL    HW119439   2.633   2.701   9.660 -0.8116 -0.9386  0.2348
 2601SOL    HW219440   2.579   2.642   9.783 -0.6868  0.6109  0.9393
 2602SOL     OW19441   3.017   0.412   7.644  0.1630 -0.4165  0.2131
 2602SOL    HW119442   3.019   0.497   7.688 -0.8062  0.5838 -1.6880
 2602SOL    HW219443   3.094   0.428   7.588 -1.5678  0.0162 -2.0264
 2603SOL     OW19444   4.713   1.740   9.690  0.3406  0.0901  0.3034
 2603SOL    HW119445   4.677   1.753   9.778  0.3764 -0.1583  0.3548
 2603SOL    HW219446   4.692   1.647   9.690 -3.3463  0.9016  3.6331
 2604SOL     OW19447   2.309   1.217   8.161 -0.2789 -0.4047  0.3263
 2604SOL    HW119448   2.236   1.167   8.124 -0.6576  0.4318 -0.0329
 2604SOL    HW219449   2.367   1.140   8.171 -1.3318 -1.0021  1.8918
 2605SOL     OW19450   2.253   2.477   6.074  0.1379 -0.1630 -0.0151
 2605SOL    HW119451   2.290   2.424   6.004  0.2858  0.8414 -0.7005
 2605SOL    HW219452   2.239   2.562   6.033  1.6386 -0.6558 -1.5338
 2606SOL     OW19453   2.225   2.025  14.920 -0.1639  1.0160  0.2775
 2606SOL    HW119454   2.279   2.104  14.911  0.3973  0.9095  2.5913
 2606SOL    HW219455   2.171   2.045  14.997 -1.7232 -2.0172 -0.0626
 2607SOL     OW19456   2.432   0.485   8.447 -0.0609  0.6616 -0.1934
 2607SOL    HW119457   2.380   0.413   8.412  0.6450  0.4640 -0.8308
 2607SOL    HW219458   2.373   0.520   8.513 -2.1294 -1.7328 -0.7768
 2608SOL     OW19459   2.700   4.429   1.917 -0.1802 -0.5022 -0.2902
 2608SOL    HW119460   2.709   4.335   1.903 -0.0528 -0.3083 -1.4424
 2608SOL    HW219461   2.792   4.452   1.920  0.0469 -1.4918  0.2969
 2609SOL     OW19462   0.533   1.988   4.598 -0.2079  0.0641  0.2924
 2609SOL    HW119463   0.610   1.977   4.542 -0.2958 -0.8236  0.3441
 2609SOL    HW219464   0.569   1.987   4.686 -1.2751  1.4464  0.7459
 2610SOL     OW19465   1.915   1.969   8.929  0.6843  0.2050 -0.4288
 2610SOL    HW119466   1.985   1.913   8.895  1.6514  0.3257  1.3678
 2610SOL    HW219467   1.932   1.970   9.023  0.0063  1.9603 -0.3230
 2611SOL     OW19468   2.786   1.520   5.916 -0.3519 -0.3155  0.3527
 2611SOL    HW119469   2.877   1.543   5.901 -0.8597  0.4001 -1.6697
 2611SOL    HW219470   2.777   1.562   6.002 -2.2056 -2.2369  1.0927
 2612SOL     OW19471   1.622   2.593   4.320 -0.4333 -0.0225  0.3599
 2612SOL    HW119472   1.596   2.584   4.412  0.9908 -2.7792  0.4694
 2612SOL    HW219473   1.662   2.680   4.311  0.1395 -0.3504 -0.2753
 2613SOL     OW19474   3.838   1.767  17.690  0.2325  0.5225  0.2544
 2613SOL    HW119475   3.893   1.778   0.002  0.4898  3.1182 -0.3165
 2613SOL    HW219476   3.908   1.777  17.625  0.2321 -1.2411 -0.0334
 2614SOL     OW19477   4.102   3.084   5.626 -0.1870  0.7722 -0.3341
 2614SOL    HW119478   4.084   3.162   5.573  0.8246  1.3437  0.1659
 2614SOL    HW219479   4.012   3.054   5.632 -0.7317  2.1320 -1.6729
 2615SOL     OW19480   1.579   4.173   5.490 -0.1605 -0.4073  0.2870
 2615SOL    HW119481   1.674   4.189   5.493  0.0142 -1.2880 -0.8181
 2615SOL    HW219482   1.569   4.084   5.457  2.0912  0.4841 -2.8484
 2616SOL     OW19483   1.464   2.017   9.027 -0.1058  0.1560 -0.1557
 2616SOL    HW119484   1.511   2.003   8.945  0.3857 -2.7172  0.6220
 2616SOL    HW219485   1.390   1.960   9.006 -2.0703  2.8059 -0.4848
 2617SOL     OW19486   0.051   4.448   7.002 -0.6433  0.3405  0.0916
 2617SOL    HW119487   0.132   4.447   6.951  0.2252  2.2163  1.4495
 2617SOL    HW219488   4.735   4.392   6.950  0.6740 -1.1931  0.2498
 2618SOL     OW19489   0.477   0.342   7.054 -0.2355  0.5919 -0.8821
 2618SOL    HW119490   0.462   0.267   7.111  2.2769  0.2118 -0.7298
 2618SOL    HW219491   0.539   0.304   6.992 -0.7611  1.2395 -1.8216
 2619SOL     OW19492   4.612   3.687  13.292 -0.2600  0.4368 -0.3390
 2619SOL    HW119493   4.706   3.702  13.286 -0.0665 -0.3085  0.7035
 2619SOL    HW219494   4.606   3.605  13.242  0.0542 -0.1642  0.6016
 2620SOL     OW19495   0.741   3.134   2.489 -0.1927  0.5392 -0.3260
 2620SOL    HW119496   0.760   3.076   2.564  2.5769  0.8249 -0.8166
 2620SOL    HW219497   0.661   3.167   2.530 -2.4308 -1.0451 -3.4604
 2621SOL     OW19498   2.817   2.714   0.122 -0.8733 -0.6446 -0.3450
 2621SOL    HW119499   2.862   2.691   0.203  0.0638  0.0323 -0.6648
 2621SOL    HW219500   2.787   2.803   0.144  2.9468  0.9329 -1.5729
 2622SOL     OW19501   3.174   2.725   8.265  0.1103 -0.3336 -0.1608
 2622SOL    HW119502   3.239   2.660   8.290 -0.9432 -1.3247 -0.0473
 2622SOL    HW219503   3.185   2.789   8.335 -1.7165  0.2721 -0.4259
 2623SOL     OW19504   4.374   2.933   4.493 -0.1770  0.4604  0.6847
 2623SOL    HW119505   4.336   2.931   4.581  0.6008 -1.7364  0.9653
 2623SOL    HW219506   4.301   2.900   4.440  0.6064 -0.2770  0.0708
 2624SOL     OW19507   1.076   1.648   2.092  0.6880  0.1757  0.0674
 2624SOL    HW119508   0.992   1.640   2.139  0.1065 -1.2277 -1.2260
 2624SOL    HW219509   1.113   1.561   2.106  1.7135  0.7402  0.8646
 2625SOL     OW19510   1.532   4.686   4.194 -0.3751 -0.3900  0.3435
 2625SOL    HW119511   1.568   4.623   4.257 -0.5176 -2.6827 -1.8454
 2625SOL    HW219512   1.572   4.660   4.110 -2.6012 -4.0348  0.4258
 2626SOL     OW19513   4.219   4.012   6.004  0.8329  0.6037  0.3454
 2626SOL    HW119514   4.158   4.008   6.078  1.9269 -0.9135  1.1729
 2626SOL    HW219515   4.288   3.964   6.049 -1.3013 -1.7239  1.1732
 2627SOL     OW19516   4.469   3.986  10.802 -0.5217 -0.2661 -0.2720
 2627SOL    HW119517   4.382   4.014  10.832 -0.6363 -0.8648 -0.0406
 2627SOL    HW219518   4.518   4.003  10.883  2.2193  1.2422 -2.2451
 2628SOL     OW19519   3.148   2.222  10.029 -0.2240 -0.0309  0.1317
 2628SOL    HW119520   3.197   2.199   9.950  1.8082 -0.1213  1.4427
 2628SOL    HW219521   3.078   2.157  10.034 -0.6464  0.2633 -1.7269
 2629SOL     OW19522   2.838   1.354  13.079  0.0737 -0.0084  0.2068
 2629SOL    HW119523   2.808   1.271  13.116 -1.2715  1.2172  1.8350
 2629SOL    HW219524   2.819   1.422  13.143  0.4013  0.4611 -0.1982
 2630SOL     OW19525   3.159   1.204  13.918 -0.5030 -0.3512 -0.3597
 2630SOL    HW119526   3.117   1.254  13.988 -0.9371 -0.2297 -0.7073
 2630SOL    HW219527   3.249   1.234  13.923  0.0308 -1.7733 -1.3009
 2631SOL     OW19528   0.894   1.214  13.305  0.7555  0.3967  0.0015
 2631SOL    HW119529   0.973   1.204  13.253  0.9470 -2.3061  0.8299
 2631SOL    HW219530   0.874   1.121  13.320 -0.7020  0.7652  0.3957
 2632SOL     OW19531   3.581   1.723  14.901  0.0049  0.2557  0.0926
 2632SOL    HW119532   3.660   1.775  14.885  0.2265  0.6841  2.5366
 2632SOL    HW219533   3.518   1.792  14.881  1.0022  1.0474 -0.3638
 2633SOL     OW19534   1.951   3.801  16.625  0.1134 -0.2177 -0.3576
 2633SOL    HW119535   1.942   3.709  16.604 -0.1748 -0.5615  1.2742
 2633SOL    HW219536   2.046   3.817  16.620  0.1227  0.2738  1.3457
 2634SOL     OW19537   1.512   0.760   7.254  0.1756  0.1904  0.0596
 2634SOL    HW119538   1.474   0.743   7.341  1.1345 -0.2737  0.3815
 2634SOL    HW219539   1.547   0.675   7.230  2.4376  1.9905 -2.9901
 2635SOL     OW19540   1.050   3.806   1.556 -0.6989 -0.5335 -0.2276
 2635SOL    HW119541   0.959   3.817   1.585 -0.3461  1.7622  0.0026
 2635SOL    HW219542   1.077   3.733   1.613 -0.5603  1.6867  2.5630
 2636SOL     OW19543   0.927   3.102  15.887 -0.2798 -0.0759  0.6369
 2636SOL    HW119544   0.997   3.115  15.952  1.4263 -1.0173 -1.0133
 2636SOL    HW219545   0.957   3.030  15.832 -1.3959  0.1581 -0.2756
 2637SOL     OW19546   1.554   2.338   4.215  0.0889 -0.0309 -0.2003
 2637SOL    HW119547   1.575   2.429   4.235 -0.4629 -0.1717  1.0030
 2637SOL    HW219548   1.643   2.303   4.213 -0.2327 -0.7603 -1.5991
 2638SOL     OW19549   1.351   1.148   2.423 -0.2662  0.3905 -0.2139
 2638SOL    HW119550   1.357   1.094   2.503  0.6787  0.7592 -0.0320
 2638SOL    HW219551   1.295   1.222   2.446 -0.6721  0.1823 -0.5327
 2639SOL     OW19552   1.867   0.985   6.972  0.1547 -0.6195 -0.2007
 2639SOL    HW119553   1.805   1.057   6.957 -0.0936 -0.9405 -0.7119
 2639SOL    HW219554   1.949   1.032   6.984  1.1156 -1.3787 -3.8889
 2640SOL     OW19555   2.241   1.826   9.657  0.4790  0.1745  0.4980
 2640SOL    HW119556   2.252   1.813   9.751 -0.7640  0.1346  0.6337
 2640SOL    HW219557   2.257   1.920   9.657 -0.6452  0.3725  2.0304
 2641SOL     OW19558   4.239   3.730  12.745  0.2343  0.0130  0.4288
 2641SOL    HW119559   4.306   3.696  12.804 -0.8070 -2.0270  0.4182
 2641SOL    HW219560   4.169   3.665  12.742  0.9899 -0.7744 -0.1414
 2642SOL     OW19561   4.546   2.102   2.869  0.3895 -0.6484 -0.3677
 2642SOL    HW119562   4.521   2.120   2.778 -0.3737 -0.8439 -0.1959
 2642SOL    HW219563   4.484   2.153   2.921 -0.6587 -3.0424  0.7239
 2643SOL     OW19564   0.589   3.112   6.306  0.5883  0.1015 -0.2433
 2643SOL    HW119565   0.547   3.034   6.270  0.4142 -0.4982  1.2655
 2643SOL    HW219566   0.521   3.179   6.299  1.2200  0.5364 -2.3068
 2644SOL     OW19567   2.961   3.837   7.909  0.1016 -0.2135 -0.2573
 2644SOL    HW119568   2.979   3.791   7.991  1.2923  1.3306  0.3603
 2644SOL    HW219569   3.016   3.915   7.920 -1.4566  1.0402 -1.4226
 2645SOL     OW19570   2.397   1.646   8.255  0.3182 -0.0964  0.0308
 2645SOL    HW119571   2.366   1.690   8.176  1.1335 -0.9981 -0.7965
 2645SOL    HW219572   2.443   1.721   8.292 -2.8497 -0.2256  4.1813
 2646SOL     OW19573   0.532   4.184   3.582  0.2867  0.2668 -0.0396
 2646SOL    HW119574   0.446   4.189   3.624  1.1539  0.0582  1.7563
 2646SOL    HW219575   0.536   4.094   3.549 -1.4375  0.2925 -0.3352
 2647SOL     OW19576   4.626   3.045   6.187 -0.2471  0.0920  0.5914
 2647SOL    HW119577   4.677   3.080   6.114  0.9020 -1.3860  0.6955
 2647SOL    HW219578   4.692   3.015   6.248  0.6361 -0.6188 -0.7091
 2648SOL     OW19579   1.418   1.550   2.133 -0.5468 -0.1086 -0.1295
 2648SOL    HW119580   1.480   1.481   2.155  1.4811  2.0258  0.9510
 2648SOL    HW219581   1.348   1.514   2.188 -0.8072 -1.5776 -1.4492
 2649SOL     OW19582   4.224   2.265   3.621  0.0459  0.2470  0.6142
 2649SOL    HW119583   4.237   2.360   3.628 -1.5540  0.4564  0.8343
 2649SOL    HW219584   4.272   2.253   3.539 -0.3807  3.8308 -0.1616
 2650SOL     OW19585   2.637   4.041  12.649 -0.0659 -0.0746  0.2934
 2650SOL    HW119586   2.560   4.094  12.627 -0.8373 -0.9676  0.8357
 2650SOL    HW219587   2.673   4.024  12.562 -3.0845 -1.3489 -0.6884
 2651SOL     OW19588   4.001   2.676   3.906 -0.1574  0.2038  0.4443
 2651SOL    HW119589   4.029   2.585   3.895 -1.6474 -0.1096 -0.6986
 2651SOL    HW219590   3.946   2.672   3.828 -0.2113 -1.0786  0.5510
 2652SOL     OW19591   0.817   1.484   0.497  0.4711 -0.1164  0.3558
 2652SOL    HW119592   0.908   1.492   0.525  0.6152  2.0849 -0.7447
 2652SOL    HW219593   0.819   1.559   0.437 -1.3330  1.8347  2.7566
 2653SOL     OW19594   3.822   2.351   8.499 -0.2482  0.1907 -0.1950
 2653SOL    HW119595   3.836   2.269   8.451  1.8203  1.0395 -1.0753
 2653SOL    HW219596   3.893   2.404   8.461  1.4057 -1.4737  0.5549
 2654SOL     OW19597   2.510   1.791   3.920 -0.4082 -0.1735  0.4106
 2654SOL    HW119598   2.432   1.823   3.874 -0.0050 -0.5484 -0.5446
 2654SOL    HW219599   2.486   1.699   3.930  0.2407 -0.5973 -1.8422
 2655SOL     OW19600   2.647   3.627   6.899  0.2064  0.2623 -0.4390
 2655SOL    HW119601   2.558   3.593   6.891  0.3202  0.6528 -3.4935
 2655SOL    HW219602   2.658   3.682   6.977 -1.9260  1.0812 -0.7130
 2656SOL     OW19603   0.399   1.667   5.136  0.0254  0.4606 -0.6792
 2656SOL    HW119604   0.455   1.618   5.076  0.8580 -1.3812  1.5969
 2656SOL    HW219605   0.346   1.713   5.072  1.3407  0.2992 -1.8698
 2657SOL     OW19606   3.310   3.502   9.147  0.1742 -0.3250  0.0169
 2657SOL    HW119607   3.327   3.409   9.134 -0.5863 -0.3886 -0.5304
 2657SOL    HW219608   3.371   3.520   9.218 -0.0651  2.2241 -0.4107
 2658SOL     OW19609   3.288   0.006   7.906 -0.0719  0.2428  0.1561
 2658SOL    HW119610   3.210   0.035   7.859 -0.1464  0.3089  0.3190
 2658SOL    HW219611   3.327   0.089   7.935  1.8587  0.0267 -1.9281
 2659SOL     OW19612   0.978   3.848  12.121  0.6245 -0.1740 -0.4311
 2659SOL    HW119613   0.895   3.878  12.084  0.5668  0.2616  0.0647
 2659SOL    HW219614   0.971   3.876  12.212  0.3411  2.7784 -1.3585
 2660SOL     OW19615   2.538   0.042  15.657  0.2104  0.1818  0.1206
 2660SOL    HW119616   2.471   0.040  15.589 -0.2211 -2.2239  0.5884
 2660SOL    HW219617   2.613   0.080  15.612  0.4859 -1.2910 -0.6849
 2661SOL     OW19618   0.658   0.475   2.678  0.0213 -0.3484 -0.0237
 2661SOL    HW119619   0.591   0.540   2.661  0.4768  0.2033  0.3059
 2661SOL    HW219620   0.629   0.413   2.611 -1.6746 -0.1577  0.5532
 2662SOL     OW19621   4.286   1.443   6.689 -0.2147  0.7418  0.4919
 2662SOL    HW119622   4.332   1.407   6.613 -2.7371 -4.0589  1.2113
 2662SOL    HW219623   4.255   1.523   6.645  0.0585  0.9463  0.6742
 2663SOL     OW19624   0.744   2.733  15.603 -0.2090  0.0196  0.4471
 2663SOL    HW119625   0.839   2.722  15.615 -0.1632 -1.3836 -1.2292
 2663SOL    HW219626   0.726   2.807  15.662  0.3899 -0.1145  0.7997
 2664SOL     OW19627   1.742   1.014   2.336 -0.1625  0.3103 -0.3813
 2664SOL    HW119628   1.681   1.014   2.410 -1.9617  0.9353 -1.8712
 2664SOL    HW219629   1.728   0.930   2.291 -2.1676 -0.2049  1.2086
 2665SOL     OW19630   2.631   0.292   6.231  0.5062 -0.0089 -0.1262
 2665SOL    HW119631   2.630   0.387   6.224 -0.3260  0.0497  0.8424
 2665SOL    HW219632   2.675   0.283   6.315 -1.3653 -2.0485  0.6254
 2666SOL     OW19633   1.713   0.211   3.243  0.4582  0.8097 -0.5874
 2666SOL    HW119634   1.788   0.263   3.274 -0.2553  1.6537 -0.2572
 2666SOL    HW219635   1.642   0.268   3.274  1.1600  0.9614  0.7476
 2667SOL     OW19636   0.799   1.970   4.072 -0.2718 -0.3068 -0.0772
 2667SOL    HW119637   0.815   1.878   4.096 -2.3133 -0.4979  0.6192
 2667SOL    HW219638   0.731   1.946   4.009  0.3523  2.0950 -1.6236
 2668SOL     OW19639   2.666   0.312   5.411 -0.0013  0.1279  0.4164
 2668SOL    HW119640   2.614   0.389   5.433  2.9264  1.5705  2.3147
 2668SOL    HW219641   2.756   0.344   5.410 -0.4151  1.2137 -2.8266
 2669SOL     OW19642   3.476   1.296  11.309 -0.2049  0.3253 -0.3380
 2669SOL    HW119643   3.561   1.338  11.325 -0.4880  1.3321 -1.4868
 2669SOL    HW219644   3.425   1.347  11.371  0.5302  0.6484  0.0033
 2670SOL     OW19645   2.259   2.391   4.200  0.1650  0.2869 -0.0085
 2670SOL    HW119646   2.354   2.384   4.193  0.2030 -0.5211  1.3402
 2670SOL    HW219647   2.227   2.331   4.133  1.5298 -0.4065 -0.0406
 2671SOL     OW19648   1.076   4.101   5.209  0.3518 -0.3293 -0.2690
 2671SOL    HW119649   1.111   4.033   5.265  0.7274  1.1953  1.3442
 2671SOL    HW219650   1.054   4.172   5.269 -1.3098  0.0606 -1.3304
 2672SOL     OW19651   0.767   2.564  16.407 -0.3221 -0.1140  0.0813
 2672SOL    HW119652   0.793   2.637  16.464 -0.5022  0.1820 -0.2148
 2672SOL    HW219653   0.680   2.549  16.445 -0.1596 -2.4093 -0.4523
 2673SOL     OW19654   0.068   1.252   3.204  0.6805  0.0355 -0.1932
 2673SOL    HW119655   0.072   1.307   3.282  1.5436 -1.1395  0.5750
 2673SOL    HW219656   4.718   1.246   3.177  0.9866 -1.2936 -0.9359
 2674SOL     OW19657   4.016   3.471   6.007  0.2951  0.3607  0.1646
 2674SOL    HW119658   4.035   3.491   5.915 -2.0283  1.4788 -0.0838
 2674SOL    HW219659   4.053   3.385   6.022 -0.6890 -0.5411 -2.4286
 2675SOL     OW19660   2.109   2.648  17.681 -0.0996  0.0663 -0.0934
 2675SOL    HW119661   2.093   2.584  17.751  0.8833  0.9799  0.9746
 2675SOL    HW219662   2.043   2.610  17.622  2.4360 -0.4216 -2.5940
 2676SOL     OW19663   3.922   1.438   4.868 -0.4970  0.7055 -0.3244
 2676SOL    HW119664   3.892   1.509   4.811 -0.6764  0.8622 -0.0347
 2676SOL    HW219665   4.002   1.397   4.835  0.0485  1.0049  0.6311
 2677SOL     OW19666   2.910   3.320   2.993  0.0871 -0.3311  0.2584
 2677SOL    HW119667   2.847   3.252   3.017 -1.0243  1.1368  1.5159
 2677SOL    HW219668   2.896   3.384   3.063 -2.1488 -0.9943  0.4276
 2678SOL     OW19669   0.556   0.790  11.196 -0.1651 -0.5311 -0.1019
 2678SOL    HW119670   0.531   0.875  11.231  1.2039 -0.1114 -0.1220
 2678SOL    HW219671   0.478   0.748  11.159 -0.1011 -0.3239 -0.4690
 2679SOL     OW19672   4.416   1.208  12.167  0.1004  0.5970 -0.0992
 2679SOL    HW119673   4.364   1.242  12.240  1.2937 -1.6708  1.8230
 2679SOL    HW219674   4.376   1.253  12.093  1.7824  1.8428 -0.2552
 2680SOL     OW19675   1.387   1.043   2.675  0.2965  0.1671 -0.1839
 2680SOL    HW119676   1.444   1.084   2.739 -0.4171  0.3993  0.2977
 2680SOL    HW219677   1.307   1.030   2.726 -2.0461  2.0304 -3.3798
 2681SOL     OW19678   4.193   0.400   5.428  0.0783 -0.2942  0.5241
 2681SOL    HW119679   4.253   0.458   5.383  0.6636 -1.4706 -0.2156
 2681SOL    HW219680   4.222   0.312   5.405 -0.2460  0.2123 -1.7846
 2682SOL     OW19681   1.083   4.532   6.594  0.0087  0.7275 -0.4277
 2682SOL    HW119682   1.131   4.610   6.622 -0.6563  0.9809  0.0015
 2682SOL    HW219683   0.997   4.574   6.584 -0.2334  1.0055  2.7349
 2683SOL     OW19684   0.235   4.628   6.031 -0.4968  0.0672 -0.4685
 2683SOL    HW119685   0.187   4.708   6.053  2.5960  1.2341  2.1205
 2683SOL    HW219686   0.249   4.598   6.120  2.3179  1.0945 -0.5381
 2684SOL     OW19687   0.625   2.583  12.819 -0.5480 -0.1838 -0.2738
 2684SOL    HW119688   0.598   2.516  12.881  3.6862 -0.7479  0.9889
 2684SOL    HW219689   0.563   2.573  12.747  1.4694  1.8899 -2.3112
 2685SOL     OW19690   4.501   0.310   2.915 -0.1493 -0.4926 -0.2764
 2685SOL    HW119691   4.496   0.362   2.835 -2.9479 -0.6037 -0.1921
 2685SOL    HW219692   4.574   0.355   2.958 -0.0785 -0.8647 -0.0011
 2686SOL     OW19693   1.221   4.666   3.467 -0.2982 -0.3739 -0.6161
 2686SOL    HW119694   1.185   4.621   3.543  0.4684  0.6391  0.3368
 2686SOL    HW219695   1.263   4.597   3.415  2.5703  1.3378 -0.5707
 2687SOL     OW19696   4.552   1.923   3.432  0.0652  0.0127 -0.4068
 2687SOL    HW119697   4.464   1.954   3.412 -0.3695 -0.4536  0.7902
 2687SOL    HW219698   4.531   1.856   3.498 -0.1796 -1.2349 -1.7558
 2688SOL     OW19699   2.831   1.946  15.033 -0.2648 -0.8162 -0.4011
 2688SOL    HW119700   2.890   1.889  15.083  2.8330  2.5259 -0.2384
 2688SOL    HW219701   2.861   1.910  14.950  0.2495 -1.3910  0.0333
 2689SOL     OW19702   3.981   3.186   6.024 -0.7216  0.5352  0.2139
 2689SOL    HW119703   3.908   3.139   5.984 -0.7945 -0.5115  1.5689
 2689SOL    HW219704   3.950   3.187   6.114  1.6852  0.3342  1.0523
 2690SOL     OW19705   0.564   0.413  11.141 -0.1948  0.5822  1.2906
 2690SOL    HW119706   0.500   0.373  11.200 -2.0917  2.2538  0.3692
 2690SOL    HW219707   0.616   0.451  11.211  1.6872 -0.6961  0.5642
 2691SOL     OW19708   0.471   2.706   4.271  0.0412  0.0551 -0.8163
 2691SOL    HW119709   0.549   2.757   4.293 -1.4454  1.3598  1.4800
 2691SOL    HW219710   0.420   2.717   4.351  0.8163 -0.4076 -0.2530
 2692SOL     OW19711   3.345   3.932   8.764 -0.3529 -0.2798  0.6754
 2692SOL    HW119712   3.332   3.854   8.818  0.9620 -0.7012  0.3786
 2692SOL    HW219713   3.435   3.965   8.770 -0.3729 -0.5544  2.5147
 2693SOL     OW19714   2.527   2.028   4.070 -0.5575 -0.3002 -0.4131
 2693SOL    HW119715   2.622   2.034   4.057 -0.3714 -1.3212  0.4632
 2693SOL    HW219716   2.511   1.941   4.034 -0.2508 -0.6403  0.2732
 2694SOL     OW19717   3.149   4.559  12.215  0.3974  0.5438 -0.0961
 2694SOL    HW119718   3.171   4.526  12.128  0.8279 -1.2943  0.7192
 2694SOL    HW219719   3.202   4.638  12.202 -1.3081  1.4242 -1.6023
 2695SOL     OW19720   1.862   0.470   7.800 -0.3607 -0.0392  0.0072
 2695SOL    HW119721   1.827   0.455   7.888  0.7864  0.8345  0.6247
 2695SOL    HW219722   1.821   0.400   7.750  1.1294  0.6297 -2.1309
 2696SOL     OW19723   1.799   2.454  13.176 -0.2858 -0.4735  0.0231
 2696SOL    HW119724   1.724   2.474  13.233  1.4133  1.7472  1.4758
 2696SOL    HW219725   1.867   2.508  13.215 -1.6193  1.1868  0.0586
 2697SOL     OW19726   3.506   2.239   4.654  0.6446 -0.0327  0.0788
 2697SOL    HW119727   3.471   2.253   4.741  3.0715 -1.0563  1.2109
 2697SOL    HW219728   3.486   2.326   4.618  0.3909  1.1015  2.9898
 2698SOL     OW19729   3.815   2.275   5.570 -0.5109 -0.0300  0.5120
 2698SOL    HW119730   3.832   2.181   5.577  0.5753 -0.0988 -2.7511
 2698SOL    HW219731   3.887   2.303   5.626 -0.8327  1.5410  0.1221
 2699SOL     OW19732   3.093   1.521   4.211 -0.1903 -0.3184 -0.1276
 2699SOL    HW119733   3.000   1.525   4.191 -0.3712  0.3790  0.8379
 2699SOL    HW219734   3.089   1.604   4.258 -0.7815  0.4914 -1.6166
 2700SOL     OW19735   2.984   0.778   3.338 -0.6071 -0.2370 -0.5791
 2700SOL    HW119736   2.940   0.863   3.344 -1.3873 -0.7197  0.5988
 2700SOL    HW219737   3.012   0.781   3.247 -2.3331  0.0519 -1.0985
 2701SOL     OW19738   2.230   2.828   1.433  0.1917  0.4562  0.2211
 2701SOL    HW119739   2.136   2.842   1.418  0.2435  0.4003 -0.1596
 2701SOL    HW219740   2.264   2.791   1.351 -0.9373  0.2775 -0.1694
 2702SOL     OW19741   0.515   3.430   1.637  0.1908  0.6293 -0.1288
 2702SOL    HW119742   0.485   3.448   1.548  1.1513  0.8435 -0.4153
 2702SOL    HW219743   0.437   3.410   1.688 -1.4435  1.8363 -2.1646
 2703SOL     OW19744   1.470   4.407   3.876  0.8868 -0.0093 -0.3888
 2703SOL    HW119745   1.461   4.494   3.836 -0.0286 -0.4306 -1.1039
 2703SOL    HW219746   1.422   4.351   3.814  0.5627  0.0705 -0.2087
 2704SOL     OW19747   2.023   1.849   5.908 -0.1700  0.1499  0.2427
 2704SOL    HW119748   1.937   1.881   5.883 -0.9075  0.4540  3.2271
 2704SOL    HW219749   2.080   1.890   5.842  1.2139 -3.8572 -1.0705
 2705SOL     OW19750   3.601   3.794   7.560 -0.2371  0.0654  0.0902
 2705SOL    HW119751   3.612   3.816   7.652  0.1488 -0.7201  0.2286
 2705SOL    HW219752   3.668   3.727   7.548 -1.2783 -1.0395  0.3899
 2706SOL     OW19753   2.960   3.003  17.712  0.0902  0.3076  0.0736
 2706SOL    HW119754   3.028   2.976  17.650 -1.8679 -1.2733 -1.3917
 2706SOL    HW219755   2.985   3.094  17.726 -1.1249  0.5226  0.8443
 2707SOL     OW19756   2.631   3.380  13.930  0.3795  0.0499 -0.1805
 2707SOL    HW119757   2.588   3.459  13.963 -0.5989 -0.3322 -0.5230
 2707SOL    HW219758   2.562   3.358  13.868 -0.5753 -1.0135  1.2511
 2708SOL     OW19759   3.734   0.955   5.545 -0.3170  0.4250 -0.3498
 2708SOL    HW119760   3.766   0.878   5.498 -0.9997  2.1442 -3.6429
 2708SOL    HW219761   3.648   0.926   5.574 -0.3754  0.6818 -0.2650
 2709SOL     OW19762   4.268   1.597   7.787  0.1180  0.3375  0.7687
 2709SOL    HW119763   4.318   1.641   7.718  0.3157  0.8439  1.2389
 2709SOL    HW219764   4.325   1.591   7.863  0.5314 -1.6501  0.3124
 2710SOL     OW19765   0.923   4.425   7.632 -0.2444 -0.3800 -0.1707
 2710SOL    HW119766   0.969   4.343   7.649 -0.2871 -0.1119  1.2359
 2710SOL    HW219767   0.833   4.392   7.642 -0.6286  0.5167 -0.6582
 2711SOL     OW19768   4.009   3.172  13.329 -0.0328  0.2065 -0.2797
 2711SOL    HW119769   3.972   3.247  13.376 -0.6051 -0.7933  0.8445
 2711SOL    HW219770   4.000   3.105  13.396  0.4872 -0.2282 -0.6469
 2712SOL     OW19771   1.002   4.090   4.164  0.1106 -0.1424  0.0164
 2712SOL    HW119772   1.019   4.002   4.196  2.1406 -0.2879 -1.5269
 2712SOL    HW219773   1.079   4.141   4.190 -1.0270  1.4491  0.2525
 2713SOL     OW19774   1.793   2.271  14.875 -0.3951  0.2104  0.2838
 2713SOL    HW119775   1.780   2.287  14.782 -2.3675 -0.8791  0.3698
 2713SOL    HW219776   1.703   2.243  14.896  0.1309 -0.0252  2.2516
 2714SOL     OW19777   2.622   4.608  13.083  0.1403  0.4943 -0.1989
 2714SOL    HW119778   2.548   4.643  13.034 -0.6399 -0.8474  0.0069
 2714SOL    HW219779   2.672   4.554  13.022  0.8149 -1.3746  1.9617
 2715SOL     OW19780   3.068   2.281   6.993  0.4317  0.0705  0.8105
 2715SOL    HW119781   3.123   2.224   6.939 -1.3217 -0.3535 -0.5145
 2715SOL    HW219782   3.022   2.331   6.926  1.3074 -1.6667 -1.0808
 2716SOL     OW19783   0.380   2.329   3.893 -0.2636  0.7888 -0.2686
 2716SOL    HW119784   0.366   2.310   3.986  2.4576 -0.5213 -0.1420
 2716SOL    HW219785   0.299   2.377   3.879 -0.1937  0.7929 -0.6540
 2717SOL     OW19786   2.872   3.139   3.956 -0.5791  0.0123  0.3001
 2717SOL    HW119787   2.819   3.172   3.883  1.8929 -1.0541 -2.0173
 2717SOL    HW219788   2.818   3.183   4.020 -1.4428  0.2033 -0.5578
 2718SOL     OW19789   2.101   4.728   3.018 -0.4892  0.4519 -0.0473
 2718SOL    HW119790   2.105   4.700   3.110 -0.8930  0.5461 -0.0030
 2718SOL    HW219791   2.018   4.690   2.989  0.6611 -2.7705  0.8751
 2719SOL     OW19792   0.999   3.406   6.270 -0.3700 -0.1044 -0.4531
 2719SOL    HW119793   0.913   3.435   6.239  0.6084  1.1973 -1.9800
 2719SOL    HW219794   1.007   3.326   6.218 -1.9520 -1.7446  1.8427
 2720SOL     OW19795   1.991   2.175   8.752  0.0266 -0.2844 -0.0327
 2720SOL    HW119796   1.956   2.254   8.794 -2.8671 -0.5267 -2.0057
 2720SOL    HW219797   1.955   2.110   8.812  1.5529 -1.6660 -0.6038
 2721SOL     OW19798   0.776   0.329   1.525 -0.1191 -0.3868 -0.0156
 2721SOL    HW119799   0.830   0.251   1.530 -3.1648 -2.6034 -2.0125
 2721SOL    HW219800   0.765   0.354   1.434 -1.5094 -1.8124 -0.2250
 2722SOL     OW19801   1.652   2.202   3.852  0.4390  0.7011 -0.1736
 2722SOL    HW119802   1.579   2.168   3.904 -0.1473  0.2420 -1.2859
 2722SOL    HW219803   1.631   2.295   3.842 -0.0686  0.5744 -0.3196
 2723SOL     OW19804   1.903   2.617  17.509  0.4077 -1.0273 -0.2275
 2723SOL    HW119805   1.846   2.688  17.538 -0.3306 -1.6991 -0.0203
 2723SOL    HW219806   1.960   2.662  17.447 -0.3966  1.1214  0.6166
 2724SOL     OW19807   1.715   2.602   6.027  0.0673  0.3629  0.3381
 2724SOL    HW119808   1.659   2.634   6.098 -1.5103 -0.1051 -0.7197
 2724SOL    HW219809   1.642   2.572   5.974  1.7998  0.8616 -2.3012
 2725SOL     OW19810   0.646   3.859   5.058 -0.8292  0.5584 -0.0539
 2725SOL    HW119811   0.673   3.914   5.132 -0.4724 -0.2778  0.4411
 2725SOL    HW219812   0.727   3.818   5.029 -2.6684 -2.1936 -1.2194
 2726SOL     OW19813   2.838   4.579   4.711  0.0662  0.0930  0.2576
 2726SOL    HW119814   2.793   4.527   4.644 -0.9395 -0.6359  1.4982
 2726SOL    HW219815   2.823   4.520   4.785 -0.2363 -0.6512 -0.3982
 2727SOL     OW19816   4.653   0.095   8.978  0.3361 -0.2398 -0.5062
 2727SOL    HW119817   4.738   0.115   9.017  0.0622 -1.0558  0.5067
 2727SOL    HW219818   4.687   0.078   8.890 -0.2865  1.5354 -1.0919
 2728SOL     OW19819   0.008   0.122   1.261 -0.2590  0.4285  0.1064
 2728SOL    HW119820   4.673   0.066   1.248  0.5429 -0.0246 -2.7080
 2728SOL    HW219821   0.073   0.056   1.234 -2.2556 -1.3900 -0.2809
 2729SOL     OW19822   2.675   1.342  16.592  0.0158 -0.2172  0.4447
 2729SOL    HW119823   2.675   1.410  16.524 -2.3431 -2.2011 -1.5513
 2729SOL    HW219824   2.587   1.305  16.601 -1.0159  2.0213 -0.5905
 2730SOL     OW19825   3.640   3.914   3.094 -0.4205 -0.0754  0.0309
 2730SOL    HW119826   3.660   3.914   3.188  1.2013  0.2083 -0.3273
 2730SOL    HW219827   3.591   3.996   3.087 -2.1353 -1.3883 -3.1447
 2731SOL     OW19828   0.340   3.302  14.159  0.5998 -0.0108  0.4786
 2731SOL    HW119829   0.291   3.234  14.205 -0.4255  1.9182  2.2378
 2731SOL    HW219830   0.384   3.249  14.092 -2.1226 -1.6462  0.0071
 2732SOL     OW19831   0.091   1.664   9.251  0.0054  0.2048  0.4954
 2732SOL    HW119832   0.151   1.734   9.228 -0.0199  0.2026  0.4213
 2732SOL    HW219833   0.005   1.705   9.244  0.3766  0.8442 -0.2282
 2733SOL     OW19834   2.662   2.575  12.285  0.0135  0.1874  0.2597
 2733SOL    HW119835   2.621   2.630  12.352 -3.0568  0.0032 -1.4781
 2733SOL    HW219836   2.654   2.490  12.329 -0.6416  0.8538  1.4404
 2734SOL     OW19837   4.087   1.470   9.356 -0.3880 -0.3345  0.2090
 2734SOL    HW119838   4.160   1.502   9.303 -1.3366  2.8063  0.8522
 2734SOL    HW219839   4.030   1.546   9.357  1.2200  0.9122 -1.6784
 2735SOL     OW19840   1.072   3.850   4.275 -0.0518  0.7842  0.4127
 2735SOL    HW119841   1.064   3.800   4.356 -1.4149 -0.9652 -0.7866
 2735SOL    HW219842   1.067   3.775   4.215  1.7955  0.8039  0.2190
 2736SOL     OW19843   0.026   2.142   4.761  0.0572  0.6143  0.2610
 2736SOL    HW119844   0.004   2.233   4.742 -2.4097 -0.4835 -2.1627
 2736SOL    HW219845   0.111   2.134   4.718 -0.1396  0.5480 -0.1207
 2737SOL     OW19846   0.164   1.714   4.261 -0.3965 -0.7496 -0.3726
 2737SOL    HW119847   0.192   1.641   4.317 -2.1284  0.4485  2.0340
 2737SOL    HW219848   0.217   1.784   4.299 -1.1846  0.5189 -1.6058
 2738SOL     OW19849   1.469   1.326  13.500  0.0881 -0.5410 -1.0096
 2738SOL    HW119850   1.373   1.328  13.492  0.1344  0.6479 -1.2103
 2738SOL    HW219851   1.503   1.280  13.424  0.5340 -0.3943 -0.8964
 2739SOL     OW19852   2.526   0.546   5.467  0.2108  0.0083  0.0163
 2739SOL    HW119853   2.442   0.589   5.479  0.5138  0.7489 -0.5033
 2739SOL    HW219854   2.580   0.625   5.471 -0.6782  0.7156 -1.7293
 2740SOL     OW19855   0.436   2.206   2.107 -0.1863  0.6290 -0.7548
 2740SOL    HW119856   0.463   2.277   2.166  1.1095  0.4484 -1.1349
 2740SOL    HW219857   0.459   2.126   2.154  0.9198  0.9792 -0.6830
 2741SOL     OW19858   2.377   4.093   4.493 -0.6165 -0.0797 -0.3478
 2741SOL    HW119859   2.425   4.040   4.557 -0.0910  0.5641 -0.2060
 2741SOL    HW219860   2.294   4.047   4.481 -0.1899 -0.8087 -0.5058
 2742SOL     OW19861   1.143   2.344   4.886  0.0807 -0.1692  0.2927
 2742SOL    HW119862   1.092   2.316   4.962 -2.7216  0.1220 -1.4755
 2742SOL    HW219863   1.188   2.261   4.873 -0.6912 -0.6732  0.8686
 2743SOL     OW19864   1.218   0.235   6.778  0.4978  0.1161 -0.2149
 2743SOL    HW119865   1.239   0.259   6.868  1.8239  0.4225 -0.6022
 2743SOL    HW219866   1.138   0.288   6.769  0.1340 -0.5434 -0.8142
 2744SOL     OW19867   1.109   3.092   6.349  0.4252 -0.3857  0.3110
 2744SOL    HW119868   1.183   3.145   6.320 -0.4333 -0.0915 -1.3678
 2744SOL    HW219869   1.046   3.100   6.278 -1.6019  0.5600  2.2063
 2745SOL     OW19870   3.549   2.085   9.431 -0.1023 -0.2123 -0.1570
 2745SOL    HW119871   3.484   2.041   9.377  0.0016  0.2761 -0.6759
 2745SOL    HW219872   3.597   2.138   9.367 -1.5955  0.3887 -0.7715
 2746SOL     OW19873   2.496   0.360   9.461 -0.2363  0.2271  0.0837
 2746SOL    HW119874   2.589   0.375   9.474  0.4893 -2.1676 -2.2171
 2746SOL    HW219875   2.474   0.327   9.548  0.2307 -0.2636  0.0190
 2747SOL     OW19876   3.390   1.342   8.608  0.4289 -0.8703 -0.4523
 2747SOL    HW119877   3.310   1.347   8.556  0.5784 -1.1597 -0.7101
 2747SOL    HW219878   3.442   1.415   8.575 -0.2535  0.0913  0.5764
 2748SOL     OW19879   1.756   4.479  10.737  0.1029  0.0198 -0.5952
 2748SOL    HW119880   1.814   4.412  10.700 -1.8862 -1.4115 -1.1354
 2748SOL    HW219881   1.775   4.548  10.673  0.2283  1.8360  1.4337
 2749SOL     OW19882   2.982   0.624   7.177 -0.2589  0.1668 -0.6685
 2749SOL    HW119883   2.900   0.603   7.131 -0.1612 -1.0120 -0.3005
 2749SOL    HW219884   3.047   0.597   7.113 -0.2011  0.7376 -0.8587
 2750SOL     OW19885   2.043   3.804   5.234 -0.4646 -0.0404 -0.3077
 2750SOL    HW119886   2.105   3.861   5.279 -0.6196  0.7698 -1.1123
 2750SOL    HW219887   2.008   3.865   5.169  0.1386 -1.4211 -1.9230
 2751SOL     OW19888   0.678   1.918   4.821 -0.3105  0.1675  0.0273
 2751SOL    HW119889   0.700   1.825   4.831  0.3239  0.3151 -0.0410
 2751SOL    HW219890   0.754   1.953   4.776 -1.2043  2.6034  0.4172
 2752SOL     OW19891   0.360   3.798   7.462 -0.0777 -0.6867 -0.2231
 2752SOL    HW119892   0.404   3.856   7.524 -1.3798  0.9513 -0.8303
 2752SOL    HW219893   0.270   3.828   7.472  0.1054 -0.1867 -0.0473
 2753SOL     OW19894   2.736   0.816   5.650  0.4213 -0.3134 -0.1129
 2753SOL    HW119895   2.642   0.816   5.636  0.5177  0.0927 -0.7452
 2753SOL    HW219896   2.765   0.784   5.564 -0.5267  1.0523 -0.9341
 2754SOL     OW19897   2.943   0.577  10.781  0.0054  0.1106  0.2441
 2754SOL    HW119898   2.860   0.596  10.738 -0.0809  0.3093  0.4952
 2754SOL    HW219899   3.013   0.577  10.716  0.0381  1.4988  0.2744
 2755SOL     OW19900   3.686   4.219  12.600  0.4598 -0.0170  0.1220
 2755SOL    HW119901   3.635   4.256  12.528 -1.1317  0.2780  1.3901
 2755SOL    HW219902   3.630   4.150  12.636 -0.1354  0.3644 -0.0811
 2756SOL     OW19903   0.227   2.549  17.626 -0.6715 -0.1255  0.2486
 2756SOL    HW119904   0.272   2.597  17.556  0.3567 -1.2014  0.1727
 2756SOL    HW219905   0.138   2.551  17.591 -0.2946  2.2656 -0.5819
 2757SOL     OW19906   3.875   0.967   8.832  0.0395 -0.4124  0.2977
 2757SOL    HW119907   3.807   0.951   8.898  0.7150 -0.0117  1.0889
 2757SOL    HW219908   3.895   1.061   8.824  0.4628 -0.5252  0.0326
 2758SOL     OW19909   2.645   4.300   3.231  0.5766 -0.1032  0.0473
 2758SOL    HW119910   2.684   4.284   3.145 -1.1568  2.1760 -1.1452
 2758SOL    HW219911   2.605   4.386   3.218  1.5679  0.6112  1.7396
 2759SOL     OW19912   0.490   0.975   4.466 -0.0106  0.4984 -0.5750
 2759SOL    HW119913   0.464   0.979   4.559  0.7247 -1.2326 -0.3025
 2759SOL    HW219914   0.424   1.035   4.430  0.1895  1.8327  1.2254
 2760SOL     OW19915   4.072   2.558   4.409 -0.1671 -0.0568  0.4952
 2760SOL    HW119916   4.029   2.501   4.345 -0.1085 -0.0690  0.4669
 2760SOL    HW219917   3.997   2.564   4.469 -0.6836 -0.3449 -0.1162
 2761SOL     OW19918   2.699   2.508   6.535  0.1757 -0.5934 -0.5077
 2761SOL    HW119919   2.660   2.468   6.612  0.8271  1.5865  0.9450
 2761SOL    HW219920   2.744   2.430   6.503  0.4166 -0.4211 -0.5933
 2762SOL     OW19921   4.205   4.486   5.778  0.8562  0.1251 -0.0701
 2762SOL    HW119922   4.116   4.454   5.763  0.5784 -0.0239  1.8801
 2762SOL    HW219923   4.223   4.538   5.700 -2.5828  0.3713 -0.6807
 2763SOL     OW19924   1.834   4.314   2.275  0.1886  0.0230 -0.0029
 2763SOL    HW119925   1.860   4.399   2.309  1.1143  1.0451 -3.2037
 2763SOL    HW219926   1.767   4.297   2.341  0.9462  0.3130  0.8262
 2764SOL     OW19927   2.989   1.516   8.563 -0.6702  0.4054 -0.1990
 2764SOL    HW119928   2.914   1.457   8.567 -0.9324  0.8528  1.6181
 2764SOL    HW219929   2.946   1.592   8.522 -0.9842 -0.9715 -2.3809
 2765SOL     OW19930   1.185   3.940   3.416 -0.2992  0.2709 -0.0243
 2765SOL    HW119931   1.196   3.912   3.325  0.8492  4.1316 -1.0647
 2765SOL    HW219932   1.272   3.932   3.454  0.4493 -0.6572 -1.9697
 2766SOL     OW19933   1.539   4.312   3.001  0.2385 -0.0134 -0.5610
 2766SOL    HW119934   1.552   4.283   3.092  1.3455  0.9455 -0.4205
 2766SOL    HW219935   1.604   4.273   2.942  0.1927 -1.6604  0.4561
 2767SOL     OW19936   0.668   1.108   3.671 -0.2854  0.3916  0.2135
 2767SOL    HW119937   0.697   1.163   3.744  1.1889 -0.9748  0.6685
 2767SOL    HW219938   0.702   1.023   3.698  2.0451  1.6413  1.2425
 2768SOL     OW19939   2.058   4.239   1.715  0.4704  0.1927 -0.6178
 2768SOL    HW119940   2.137   4.224   1.768 -0.2171 -1.4200 -0.0623
 2768SOL    HW219941   2.102   4.228   1.631  1.0997  0.2082 -0.2970
 2769SOL     OW19942   2.427   1.033   9.426  0.2164  0.0860  0.4900
 2769SOL    HW119943   2.490   1.095   9.464  2.6611 -0.9234 -1.8486
 2769SOL    HW219944   2.492   0.973   9.388 -0.2057  1.5541 -2.5407
 2770SOL     OW19945   4.635   1.888   7.336 -0.0833 -0.1345 -0.2331
 2770SOL    HW119946   4.718   1.845   7.357  0.2401 -0.5461 -2.3544
 2770SOL    HW219947   4.572   1.817   7.329 -1.0125  0.6720  0.0667
 2771SOL     OW19948   2.117   3.642   7.493 -0.0518 -0.6441 -0.1127
 2771SOL    HW119949   2.183   3.575   7.473 -2.8842 -2.9746 -1.5837
 2771SOL    HW219950   2.148   3.671   7.579  0.8263  0.1695 -0.6979
 2772SOL     OW19951   4.735   1.357  11.415 -0.5363 -0.0742 -0.1500
 2772SOL    HW119952   0.014   1.417  11.486 -0.5160 -0.1925 -0.0565
 2772SOL    HW219953   4.710   1.278  11.463 -1.8827 -0.2116 -1.0757
 2773SOL     OW19954   1.198   2.883  12.439  0.2375 -0.0002  0.4840
 2773SOL    HW119955   1.137   2.914  12.372 -1.9184 -1.5349  1.7464
 2773SOL    HW219956   1.174   2.790  12.429 -0.8881  0.4019 -0.5539
 2774SOL     OW19957   2.385   0.211   5.938 -0.1729 -0.0427  0.1632
 2774SOL    HW119958   2.345   0.203   5.851  0.2200 -0.8272  0.0592
 2774SOL    HW219959   2.471   0.199   5.898  0.5760 -0.1487  1.8117
 2775SOL     OW19960   1.551   4.032   2.471  0.3239  0.2510 -0.2113
 2775SOL    HW119961   1.550   3.981   2.552  0.0690  1.7354  0.7052
 2775SOL    HW219962   1.602   3.974   2.414 -0.2317 -0.2646 -0.1965
 2776SOL     OW19963   3.039   3.941   2.601 -0.1447  0.0749 -0.4081
 2776SOL    HW119964   3.033   3.861   2.654 -0.6618  0.0661 -0.4818
 2776SOL    HW219965   2.948   3.970   2.607 -0.3531 -0.5980 -0.3306
 2777SOL     OW19966   1.570   3.233   6.284  0.6255 -0.2851  0.3886
 2777SOL    HW119967   1.664   3.235   6.268  0.3876  0.7279 -0.8529
 2777SOL    HW219968   1.562   3.168   6.354 -0.3184 -0.8211 -0.2098
 2778SOL     OW19969   3.889   1.506   3.492  0.2792  0.3002 -0.3361
 2778SOL    HW119970   3.904   1.584   3.438 -0.4269  0.6290 -0.0539
 2778SOL    HW219971   3.964   1.448   3.478  1.2837  1.6539 -0.4986
 2779SOL     OW19972   4.680   1.138  11.591 -0.0199 -0.8581  0.2471
 2779SOL    HW119973   4.664   1.071  11.524 -2.2209  0.7555 -0.8767
 2779SOL    HW219974   4.603   1.129  11.648  0.5245 -1.8792  0.8125
 2780SOL     OW19975   2.314   2.691  13.754  0.2081 -0.2666  0.1705
 2780SOL    HW119976   2.398   2.727  13.728 -0.4237  0.2316 -1.1600
 2780SOL    HW219977   2.300   2.734  13.839  2.6895 -0.3207  0.5999
 2781SOL     OW19978   4.307   4.178   3.091  0.2172  0.4621  0.0283
 2781SOL    HW119979   4.386   4.145   3.135  1.0170  0.0902 -1.6909
 2781SOL    HW219980   4.311   4.127   3.010  1.8713 -1.5230  1.3607
 2782SOL     OW19981   0.267   0.033  11.853  0.3363  0.8595  0.4737
 2782SOL    HW119982   0.324   0.057  11.779 -0.4317  1.0790 -0.0452
 2782SOL    HW219983   0.325   4.710  11.892 -0.7805 -0.3374  0.1351
 2783SOL     OW19984   3.500   2.549   5.443  0.0609  0.1837  0.1089
 2783SOL    HW119985   3.525   2.622   5.501 -2.2574  1.4865 -0.5157
 2783SOL    HW219986   3.482   2.485   5.512  1.2641 -0.4866 -0.2138
 2784SOL     OW19987   3.822   3.955   6.166 -0.5065 -0.0443 -0.4610
 2784SOL    HW119988   3.759   3.885   6.182  1.6508 -1.9181 -0.1489
 2784SOL    HW219989   3.769   4.026   6.130  2.5000  1.3718 -2.1640
 2785SOL     OW19990   2.241   3.980   3.291 -0.1349 -0.4333  0.6192
 2785SOL    HW119991   2.251   3.910   3.226 -0.0039 -1.4826  1.7746
 2785SOL    HW219992   2.254   3.930   3.372 -0.8736  1.5317  1.9423
 2786SOL     OW19993   2.551   2.271   2.672 -0.4042 -0.3217 -0.0621
 2786SOL    HW119994   2.590   2.227   2.597  0.3325 -1.2263  0.8499
 2786SOL    HW219995   2.510   2.196   2.716 -3.0442  0.2747 -1.4720
 2787SOL     OW19996   1.333   2.448   0.383 -0.1043 -0.1304  0.1532
 2787SOL    HW119997   1.314   2.489   0.299  0.3089 -0.2268  0.0171
 2787SOL    HW219998   1.267   2.485   0.442 -0.3559  0.1456 -0.3014
 2788SOL     OW19999   1.953   3.956   2.482 -0.6628  0.3208  0.2164
 2788SOL    HW120000   2.030   3.974   2.427  0.0825  3.1451  2.1971
 2788SOL    HW220001   1.895   3.928   2.411 -0.7240  0.3584  0.2521
 2789SOL     OW20002   1.837   4.647   7.233  0.2316  0.3826 -0.1508
 2789SOL    HW120003   1.757   4.681   7.192  2.1535  1.2226 -3.1633
 2789SOL    HW220004   1.878   4.725   7.269  1.5410 -0.9228  1.1536
 2790SOL     OW20005   2.953   2.997  11.582  0.0182 -0.2572 -0.0062
 2790SOL    HW120006   2.882   2.995  11.517  1.3371  1.1595 -1.4975
 2790SOL    HW220007   3.014   3.063  11.550  0.5497  0.2840  2.1468
 2791SOL     OW20008   3.021   1.146   4.824  0.4252 -0.0905 -0.8234
 2791SOL    HW120009   3.113   1.145   4.849  0.7857 -2.9088 -2.2523
 2791SOL    HW220010   3.025   1.173   4.732  0.1205 -0.5769 -0.9820
 2792SOL     OW20011   1.270   1.538   3.762 -0.0337 -0.3496 -0.5042
 2792SOL    HW120012   1.217   1.526   3.683  0.3799 -0.8270 -0.7105
 2792SOL    HW220013   1.345   1.588   3.731 -1.1799  0.6593 -1.6159
 2793SOL     OW20014   0.508   3.132   4.147 -0.2482  0.5861  0.2648
 2793SOL    HW120015   0.447   3.205   4.138 -0.8775  0.1106  0.6638
 2793SOL    HW220016   0.547   3.156   4.230  0.4850  0.7945 -0.1408
 2794SOL     OW20017   0.914   0.501   6.536  0.2656 -0.3085 -0.0046
 2794SOL    HW120018   0.818   0.500   6.541  0.2251  1.2781 -0.6049
 2794SOL    HW220019   0.926   0.571   6.473 -0.2382  0.5311  0.8298
 2795SOL     OW20020   2.721   3.078   3.735  0.1990 -0.3069  0.4635
 2795SOL    HW120021   2.668   3.011   3.692  0.4005  0.2383 -0.6148
 2795SOL    HW220022   2.691   3.157   3.691  0.1392 -1.1364 -0.9506
 2796SOL     OW20023   0.883   1.049  14.843  0.3888  0.1986  0.3925
 2796SOL    HW120024   0.815   0.982  14.836  0.2780  0.1305  2.0048
 2796SOL    HW220025   0.830   1.119  14.882  0.5728  0.1774  0.6842
 2797SOL     OW20026   2.361   0.478   7.461  0.2841 -0.0958  0.6694
 2797SOL    HW120027   2.289   0.450   7.517 -0.3299  0.9368  0.3896
 2797SOL    HW220028   2.353   0.573   7.465 -1.7372 -0.1109 -2.6854
 2798SOL     OW20029   3.685   3.802   5.807 -0.1971 -0.7554 -0.3184
 2798SOL    HW120030   3.725   3.774   5.724  2.4472  1.1526  0.3215
 2798SOL    HW220031   3.768   3.813   5.853 -0.3149  0.4048 -0.3749
 2799SOL     OW20032   1.626   1.225   4.724  0.5713  0.0771  0.0998
 2799SOL    HW120033   1.571   1.228   4.801 -0.0844  0.0166 -0.3677
 2799SOL    HW220034   1.713   1.221   4.764  0.6810  0.7037 -0.0814
 2800SOL     OW20035   1.567   0.697   2.943  0.1162  0.2446  0.5462
 2800SOL    HW120036   1.556   0.701   2.848 -2.7889  1.6455  0.9280
 2800SOL    HW220037   1.597   0.787   2.958 -0.6333  0.1900  2.4136
 2801SOL     OW20038   4.064   1.189   5.694  0.4318 -0.1766  0.3082
 2801SOL    HW120039   4.092   1.100   5.673  1.9321  0.5181 -0.6122
 2801SOL    HW220040   4.085   1.188   5.787 -0.1549  0.1719  0.4411
 2802SOL     OW20041   3.015   3.977   0.290 -0.3167 -0.4660 -0.0237
 2802SOL    HW120042   2.929   4.003   0.322 -1.1091 -1.4451 -1.3302
 2802SOL    HW220043   3.000   3.984   0.195 -0.7947 -1.5079 -0.0224
 2803SOL     OW20044   4.718   4.667  14.723 -0.1061 -0.0525  0.0763
 2803SOL    HW120045   4.728   4.647  14.816 -0.4834 -0.4403  0.0323
 2803SOL    HW220046   0.028   0.005  14.725 -0.7699  0.3295  1.6677
 2804SOL     OW20047   1.434   4.718   1.008 -0.3330 -0.6492  0.2198
 2804SOL    HW120048   1.447   4.624   1.025 -2.6485 -1.2241 -1.1695
 2804SOL    HW220049   1.518   0.018   1.027  0.1390 -1.7987  0.7395
 2805SOL     OW20050   2.097   2.887   5.266 -0.3801 -0.1804  0.2090
 2805SOL    HW120051   2.055   2.969   5.290  2.6199  1.0441  1.2342
 2805SOL    HW220052   2.055   2.866   5.182  0.3580 -1.9707  0.2782
 2806SOL     OW20053   3.938   3.446   0.838  0.0473  0.4126  0.1414
 2806SOL    HW120054   3.989   3.383   0.889  1.6524  2.0210  0.5417
 2806SOL    HW220055   3.869   3.459   0.904 -0.3388  1.1195 -0.4068
 2807SOL     OW20056   0.615   0.070   4.756 -0.3598 -0.4044 -0.4787
 2807SOL    HW120057   0.667   0.128   4.811 -1.4250  1.5729 -1.5673
 2807SOL    HW220058   0.683   0.029   4.702  0.8578 -1.2238  1.6438
 2808SOL     OW20059   3.083   3.832   5.893 -0.6590  0.1256  0.7349
 2808SOL    HW120060   3.095   3.913   5.942  1.5816  0.3273 -0.1621
 2808SOL    HW220061   3.028   3.865   5.822  0.4363 -1.8679 -1.0402
 2809SOL     OW20062   1.248   1.313   5.780 -0.6902  0.2032  0.0337
 2809SOL    HW120063   1.154   1.296   5.781 -0.6187 -0.2797 -1.7881
 2809SOL    HW220064   1.269   1.319   5.873  2.8022 -0.2037 -0.7174
 2810SOL     OW20065   0.211   1.783   1.554 -0.0821  0.3302 -0.6017
 2810SOL    HW120066   0.289   1.728   1.551  0.2655  0.8751 -1.3861
 2810SOL    HW220067   0.169   1.745   1.632 -0.2629  3.4924  0.8452
 2811SOL     OW20068   1.948   3.502   7.663  0.6452  0.3382 -0.0171
 2811SOL    HW120069   1.983   3.562   7.598  2.8297  1.1983  1.9750
 2811SOL    HW220070   1.865   3.544   7.686  1.2183 -0.1621  2.9838
 2812SOL     OW20071   3.061   0.994  15.307  0.2733  0.0202  0.2671
 2812SOL    HW120072   3.144   1.020  15.347 -0.0047  0.5032  0.5276
 2812SOL    HW220073   3.033   1.069  15.255  0.3636  0.7475  1.2721
 2813SOL     OW20074   2.580   4.045   7.560 -0.1904 -0.5895 -0.1147
 2813SOL    HW120075   2.625   4.078   7.483  0.0510 -1.1129 -0.1964
 2813SOL    HW220076   2.603   4.114   7.623 -0.4189 -0.0675 -0.6036
 2814SOL     OW20077   2.711   3.691   5.690 -0.5577 -0.4015  0.1810
 2814SOL    HW120078   2.799   3.720   5.666 -0.0212 -2.3598 -0.1908
 2814SOL    HW220079   2.661   3.691   5.609  0.3701 -0.9602 -0.3802
 2815SOL     OW20080   4.069   1.841   0.065  0.0326 -0.3170 -0.4453
 2815SOL    HW120081   4.034   1.913   0.117  0.9968 -1.1969  1.4381
 2815SOL    HW220082   4.153   1.870   0.029  1.8200  0.5491  4.3923
 2816SOL     OW20083   0.085   2.473  10.825  0.8414 -0.0152  0.1700
 2816SOL    HW120084   0.133   2.396  10.858 -1.8162 -2.3494 -1.4710
 2816SOL    HW220085   0.106   2.466  10.732 -0.3389  2.9310 -0.3108
 2817SOL     OW20086   2.271   1.991   4.970 -0.3876  0.0940 -0.4590
 2817SOL    HW120087   2.183   2.025   4.955  0.0523  1.9804  1.2201
 2817SOL    HW220088   2.267   1.954   5.058 -0.9918  0.1867 -0.4497
 2818SOL     OW20089   2.790   2.003   8.448  0.3005  0.0376 -0.5148
 2818SOL    HW120090   2.760   2.073   8.506  0.2224  1.0652 -1.7932
 2818SOL    HW220091   2.884   2.015   8.466  0.3520  1.1919 -1.5834
 2819SOL     OW20092   1.490   3.345  10.892 -0.2428 -0.2375  0.1131
 2819SOL    HW120093   1.417   3.285  10.908 -0.0702 -0.3641  0.4180
 2819SOL    HW220094   1.475   3.371  10.801 -2.1321 -0.4877  0.3549
 2820SOL     OW20095   4.100   3.939   2.885 -1.0894 -0.5937 -0.2278
 2820SOL    HW120096   4.181   3.941   2.833 -0.9405  0.1857  0.0435
 2820SOL    HW220097   4.094   4.005   2.954 -0.9426  0.8549 -1.6144
 2821SOL     OW20098   0.169   4.176   8.990  0.3354  0.3028 -0.0371
 2821SOL    HW120099   0.080   4.208   8.975 -0.2603 -1.8468 -1.0611
 2821SOL    HW220100   0.202   4.171   8.901 -0.7842  1.0043 -0.4937
 2822SOL     OW20101   0.246   4.058   1.708 -0.3116 -0.7661 -0.6127
 2822SOL    HW120102   0.259   3.973   1.750  3.9698  0.9235  1.5617
 2822SOL    HW220103   0.324   4.062   1.653 -1.8463 -1.1680 -2.8053
 2823SOL     OW20104   0.291   3.486   1.466  0.3466 -0.0296 -0.3871
 2823SOL    HW120105   0.248   3.401   1.474 -0.7393  0.6046  0.7203
 2823SOL    HW220106   0.251   3.529   1.542  0.5509 -3.4130  1.6285
 2824SOL     OW20107   1.616   1.010   6.729 -0.5861  0.1635  0.2387
 2824SOL    HW120108   1.537   0.962   6.754  0.5145 -1.4625  0.6343
 2824SOL    HW220109   1.635   1.056   6.811  1.9766  1.6396 -1.2084
 2825SOL     OW20110   1.314   0.319  16.442  0.1695  0.0996 -0.0926
 2825SOL    HW120111   1.391   0.279  16.402 -0.2361  0.8853 -1.6704
 2825SOL    HW220112   1.253   0.312  16.369 -1.1548  1.4454  0.8771
 2826SOL     OW20113   1.845   4.231   3.913 -0.0597  0.0248  0.2133
 2826SOL    HW120114   1.933   4.219   3.951  0.0164 -0.3886 -0.0943
 2826SOL    HW220115   1.807   4.297   3.971  0.4241 -0.7599  1.4315
 2827SOL     OW20116   2.501   2.960   4.683  0.8919  0.0686 -0.2517
 2827SOL    HW120117   2.459   3.041   4.711  4.4751  1.1237  2.0773
 2827SOL    HW220118   2.461   2.961   4.596 -1.5449 -1.5336  0.8596
 2828SOL     OW20119   2.350   4.644   4.373  0.0511 -0.1271  0.1757
 2828SOL    HW120120   2.278   4.665   4.433 -1.5430 -2.0764 -1.0940
 2828SOL    HW220121   2.381   4.561   4.409 -2.2362 -0.9145  0.2825
 2829SOL     OW20122   3.113   2.594  14.662  0.3960 -0.4612  0.7472
 2829SOL    HW120123   3.149   2.517  14.616  0.1552  0.6583 -1.3057
 2829SOL    HW220124   3.123   2.661  14.595  0.1406  0.3895  1.5668
 2830SOL     OW20125   0.234   2.587   2.979 -0.2011 -0.7760 -0.2775
 2830SOL    HW120126   0.267   2.607   3.067 -0.9714 -0.1310 -0.1374
 2830SOL    HW220127   0.140   2.603   2.985 -0.1491 -0.7268  0.4340
 2831SOL     OW20128   2.955   2.783   5.796  0.4365  0.4385 -0.0673
 2831SOL    HW120129   2.951   2.813   5.887 -0.6311  0.7810 -0.2255
 2831SOL    HW220130   3.050   2.774   5.788  0.6497  1.1946  1.5285
 2832SOL     OW20131   0.333   3.270  10.405 -0.0887 -0.2688  0.2918
 2832SOL    HW120132   0.317   3.176  10.403 -2.1153  0.0622  1.7673
 2832SOL    HW220133   0.414   3.280  10.354  0.4589 -1.3752  0.9425
 2833SOL     OW20134   3.391   3.794   6.916 -0.2799  0.4365 -0.1792
 2833SOL    HW120135   3.455   3.864   6.923  0.7225 -0.4682 -0.2559
 2833SOL    HW220136   3.307   3.832   6.940 -0.4339  0.9347 -1.4792
 2834SOL     OW20137   1.806   3.375   5.661 -0.3717 -0.3404 -0.7897
 2834SOL    HW120138   1.845   3.437   5.723 -1.0701  0.1473 -0.8325
 2834SOL    HW220139   1.835   3.420   5.582  1.2335 -1.7692 -1.0105
 2835SOL     OW20140   0.347   4.331   5.814  0.5319 -1.0406  0.4502
 2835SOL    HW120141   0.254   4.331   5.792  0.8924  1.9582 -1.1378
 2835SOL    HW220142   0.387   4.367   5.734  1.0306 -0.0914  1.1314
 2836SOL     OW20143   1.907   2.237  11.185 -0.1138  0.2564 -0.4865
 2836SOL    HW120144   1.944   2.247  11.272 -1.6940  1.2869  0.0591
 2836SOL    HW220145   1.960   2.172  11.138 -0.7630 -1.0256  0.5759
 2837SOL     OW20146   1.193   4.708   4.805 -0.5206  0.1454 -0.6958
 2837SOL    HW120147   1.205   0.039   4.744  1.5902 -0.4086 -0.9683
 2837SOL    HW220148   1.146   4.656   4.740 -1.3431  1.1706 -0.9201
 2838SOL     OW20149   2.053   3.670   2.052 -0.3116 -0.3791  0.2736
 2838SOL    HW120150   1.987   3.630   2.108 -0.5207 -1.4126 -0.7021
 2838SOL    HW220151   1.997   3.730   2.002  0.2792 -0.8975 -1.0155
 2839SOL     OW20152   0.680   1.607  12.739  0.0678  0.1638  0.3978
 2839SOL    HW120153   0.748   1.575  12.680  0.5426  0.2975  0.8753
 2839SOL    HW220154   0.679   1.531  12.798 -0.1332  0.8090  1.2148
 2840SOL     OW20155   0.392   0.710   9.963  0.6499  0.5151 -0.4945
 2840SOL    HW120156   0.304   0.674   9.972  2.1503 -3.1781 -0.8100
 2840SOL    HW220157   0.440   0.632   9.936 -0.7190 -0.2421 -0.7295
 2841SOL     OW20158   4.514   0.259   0.489  0.1254  0.0280  0.2100
 2841SOL    HW120159   4.459   0.330   0.523 -1.2786 -0.3688 -1.2337
 2841SOL    HW220160   4.603   0.295   0.490 -0.6510  1.9477 -0.3519
 2842SOL     OW20161   0.077   4.398  10.084 -0.7729 -0.0707 -0.6760
 2842SOL    HW120162   0.128   4.403  10.165 -1.2182  1.6382 -0.5025
 2842SOL    HW220163   0.069   4.304  10.065  3.3765 -0.6689  0.3559
 2843SOL     OW20164   1.098   1.448   2.765  0.3337 -0.1074 -0.2464
 2843SOL    HW120165   1.073   1.541   2.760 -2.7916 -0.9553 -0.5622
 2843SOL    HW220166   1.188   1.463   2.792 -1.0638  1.1799  3.6444
 2844SOL     OW20167   1.005   3.703   4.489 -0.4293  0.1439  0.2532
 2844SOL    HW120168   0.997   3.719   4.583  0.6629  0.6342  0.2669
 2844SOL    HW220169   0.934   3.640   4.476  0.1584 -0.4607 -0.0328
 2845SOL     OW20170   1.965   1.053   2.679 -0.6205  0.2050  0.2731
 2845SOL    HW120171   2.002   0.970   2.709 -1.2590 -0.0012  0.4774
 2845SOL    HW220172   1.877   1.026   2.652 -0.1681 -0.0465 -0.9848
 2846SOL     OW20173   0.093   3.934   8.592 -0.1081  0.0143 -0.4753
 2846SOL    HW120174   0.163   3.976   8.543  0.3582 -1.3193 -0.9575
 2846SOL    HW220175   0.023   3.960   8.532 -0.5634  1.2582  0.6118
 2847SOL     OW20176   2.381   0.455  10.765  0.1971 -0.1433  0.3669
 2847SOL    HW120177   2.307   0.505  10.798 -0.1689 -0.2367 -0.3273
 2847SOL    HW220178   2.426   0.426  10.846  1.5868  0.3038 -0.2434
 2848SOL     OW20179   0.943   3.411  10.487 -0.2437  0.7598 -0.4818
 2848SOL    HW120180   1.033   3.388  10.464 -0.3458 -0.5601  0.4483
 2848SOL    HW220181   0.900   3.327  10.477 -0.9770  1.3588 -2.3766
 2849SOL     OW20182   1.150   4.224   4.779 -0.0044  0.3811  0.8945
 2849SOL    HW120183   1.107   4.157   4.726  1.0676 -0.3138  0.8927
 2849SOL    HW220184   1.200   4.263   4.708  2.4382  0.0792  2.4477
 2850SOL     OW20185   0.334   0.991  12.039 -0.1624  0.1412 -0.2051
 2850SOL    HW120186   0.374   1.076  12.021  0.0129  0.3397  1.1283
 2850SOL    HW220187   0.414   0.952  12.074  0.8948  2.4258 -0.0813
 2851SOL     OW20188   2.635   2.275   6.232 -0.0751  0.0816 -0.0718
 2851SOL    HW120189   2.613   2.181   6.233 -1.9521  0.5388  0.6863
 2851SOL    HW220190   2.677   2.288   6.317 -0.7422 -0.0213  0.2718
 2852SOL     OW20191   2.749   4.449   1.522 -0.3852  0.2165  0.2447
 2852SOL    HW120192   2.656   4.430   1.514 -1.0589  3.7796 -0.5318
 2852SOL    HW220193   2.791   4.368   1.493 -0.0989  0.4972 -0.1302
 2853SOL     OW20194   2.310   3.283   4.087 -0.4148  0.1875  0.3099
 2853SOL    HW120195   2.365   3.359   4.068 -1.0629  0.6514  0.3072
 2853SOL    HW220196   2.341   3.270   4.177  3.2638  3.1205 -0.5168
 2854SOL     OW20197   3.640   0.930   9.877  0.5255  0.0410  0.1545
 2854SOL    HW120198   3.597   0.930   9.963 -1.0558  0.9562 -0.6422
 2854SOL    HW220199   3.610   0.843   9.851 -0.5414 -0.3963  2.8504
 2855SOL     OW20200   1.060   3.854   2.277 -0.7806  0.6910  0.0783
 2855SOL    HW120201   1.141   3.903   2.293  0.3830 -0.3877 -2.4035
 2855SOL    HW220202   1.069   3.783   2.341 -1.2985  1.1689  0.6757
 2856SOL     OW20203   0.711   4.561  13.274  0.5332 -0.4415  0.0240
 2856SOL    HW120204   0.647   4.623  13.240  0.7088 -1.3355 -1.9347
 2856SOL    HW220205   0.652   4.494  13.309 -1.4453  0.2253 -2.0226
 2857SOL     OW20206   2.689   2.068   7.814 -0.6226 -0.2020  0.4158
 2857SOL    HW120207   2.602   2.106   7.829 -0.5664  0.2289 -0.3596
 2857SOL    HW220208   2.733   2.141   7.771 -0.8434 -0.4766 -0.2701
 2858SOL     OW20209   0.392   2.198   7.007  0.4874  0.0607  0.5437
 2858SOL    HW120210   0.450   2.122   7.009 -1.3259 -1.4045 -1.6913
 2858SOL    HW220211   0.416   2.246   6.928  0.4937 -2.7126 -1.1425
 2859SOL     OW20212   4.488   4.246  12.354 -0.2098 -0.0715  0.1857
 2859SOL    HW120213   4.496   4.287  12.268  0.4617 -0.6282 -0.0206
 2859SOL    HW220214   4.395   4.265  12.370 -0.4540 -2.2200  1.3688
 2860SOL     OW20215   3.621   4.039   8.814  0.0125 -0.4296  0.4974
 2860SOL    HW120216   3.667   4.083   8.885  3.2637  1.1941 -2.5991
 2860SOL    HW220217   3.627   4.110   8.751  1.2337 -0.5597  0.4771
 2861SOL     OW20218   2.571   2.906   7.944  0.1306 -0.1717 -0.7829
 2861SOL    HW120219   2.488   2.861   7.958 -0.7366  1.0532 -2.0159
 2861SOL    HW220220   2.615   2.887   7.861  1.5091  2.9583 -0.7604
 2862SOL     OW20221   2.611   0.973  16.621 -0.1913  0.0586  0.4771
 2862SOL    HW120222   2.555   1.040  16.583 -0.1624 -0.1218  0.1068
 2862SOL    HW220223   2.675   0.960  16.550 -0.0175  0.7911  0.5003
 2863SOL     OW20224   1.482   0.833   8.046 -0.0753  0.1681 -0.4551
 2863SOL    HW120225   1.489   0.759   7.986  0.2471 -1.2875  1.3737
 2863SOL    HW220226   1.555   0.812   8.104  0.5568 -1.1982 -1.7392
 2864SOL     OW20227   2.869   1.272  14.525  0.4301  0.5142 -0.2504
 2864SOL    HW120228   2.941   1.304  14.471  1.7732  1.1717  1.9628
 2864SOL    HW220229   2.807   1.332  14.482  0.4462 -0.2270 -1.2915
 2865SOL     OW20230   1.327   4.062  17.114  0.1183  0.2865  0.3195
 2865SOL    HW120231   1.335   4.077  17.020 -0.9668  1.8259  0.4794
 2865SOL    HW220232   1.263   4.129  17.139  0.1339 -0.2467  1.8170
 2866SOL     OW20233   4.461   2.210   2.640  0.3142 -0.0074 -0.0250
 2866SOL    HW120234   4.495   2.197   2.552  2.7704 -0.1740  0.9407
 2866SOL    HW220235   4.418   2.295   2.628  0.9259  0.3292  0.1659
 2867SOL     OW20236   4.126   3.837  17.286  0.0483  0.0614 -0.3849
 2867SOL    HW120237   4.079   3.758  17.313  0.1747 -0.3486 -1.3584
 2867SOL    HW220238   4.149   3.882  17.367 -1.5635  0.1575  0.0171
 2868SOL     OW20239   0.062   0.558   6.557  0.7626 -0.3161  0.6355
 2868SOL    HW120240   0.121   0.576   6.484  1.4615 -1.6476  0.8806
 2868SOL    HW220241   4.732   0.525   6.503  0.6229  0.1176  0.5567
 2869SOL     OW20242   1.654   2.450   9.496  0.0054  1.0280  0.0891
 2869SOL    HW120243   1.734   2.442   9.549  0.0928 -1.0366 -0.3568
 2869SOL    HW220244   1.611   2.370   9.526  0.3341  0.2134 -1.6257
 2870SOL     OW20245   2.397   4.239   3.929 -0.3071 -0.1017  1.1234
 2870SOL    HW120246   2.448   4.189   3.865  1.3462  0.6506  1.8703
 2870SOL    HW220247   2.461   4.305   3.956  0.3827  1.0874 -3.3657
 2871SOL     OW20248   0.402   3.478   2.262 -1.2303 -0.3359 -0.3133
 2871SOL    HW120249   0.392   3.573   2.256 -1.1954 -0.2484  1.0540
 2871SOL    HW220250   0.441   3.459   2.177  1.9938 -0.9019  1.2749
 2872SOL     OW20251   2.734   2.999  12.526  0.5141 -0.7371  0.0757
 2872SOL    HW120252   2.642   2.996  12.551  0.4267 -0.7103 -0.2393
 2872SOL    HW220253   2.727   2.953  12.442 -1.8413  1.5998 -1.0040
 2873SOL     OW20254   1.328   3.665   6.893  0.0661  0.0233  0.6058
 2873SOL    HW120255   1.284   3.728   6.950  0.7172  1.5782 -0.6030
 2873SOL    HW220256   1.282   3.586   6.923  0.7858 -0.2590  0.9579
 2874SOL     OW20257   3.119   3.369   4.178  0.2461  0.1511  0.5276
 2874SOL    HW120258   3.117   3.291   4.123  1.6305  0.0598  0.6119
 2874SOL    HW220259   3.208   3.352   4.209  0.1247 -1.7956 -0.1825
 2875SOL     OW20260   0.199   3.895  16.366  0.4746 -0.0089 -0.1420
 2875SOL    HW120261   0.206   3.952  16.290 -0.1293  0.8495  0.4420
 2875SOL    HW220262   0.137   3.831  16.331  0.3926 -0.6392  1.1611
 2876SOL     OW20263   0.600   3.949  13.149  0.0194 -0.2690  0.1608
 2876SOL    HW120264   0.624   3.902  13.069  0.5627  0.4462 -0.0934
 2876SOL    HW220265   0.676   4.005  13.164 -0.1947 -0.2467  1.1388
 2877SOL     OW20266   0.360   0.967   2.847  0.0919 -0.1132 -0.0695
 2877SOL    HW120267   0.438   0.932   2.889  0.1923 -0.4427 -0.5390
 2877SOL    HW220268   0.333   1.042   2.901 -0.2632 -2.3914  2.9091
 2878SOL     OW20269   0.646   2.717   6.994 -0.1357  0.0783  0.4085
 2878SOL    HW120270   0.614   2.654   7.059  1.0751 -0.4231  0.5142
 2878SOL    HW220271   0.591   2.794   7.012  0.4815  1.0797 -2.0567
 2879SOL     OW20272   3.651   0.302   0.207 -0.0376  0.5756 -1.1673
 2879SOL    HW120273   3.653   0.207   0.220 -0.4122  0.9103  1.3871
 2879SOL    HW220274   3.578   0.331   0.262  0.2986  3.1951 -2.1339
 2880SOL     OW20275   3.274   2.815  12.788  0.0922  0.3123 -0.2473
 2880SOL    HW120276   3.369   2.823  12.777  0.7641 -0.5832  5.2812
 2880SOL    HW220277   3.242   2.856  12.707  0.8067 -0.4541 -0.9190
 2881SOL     OW20278   1.296   0.975  16.162  0.0910  0.2143 -0.7376
 2881SOL    HW120279   1.345   0.945  16.239  0.7593 -0.4886 -1.4460
 2881SOL    HW220280   1.211   0.998  16.200  0.8785  0.3084  0.9627
 2882SOL     OW20281   2.024   0.960   6.224  0.3789  0.0438  0.0861
 2882SOL    HW120282   2.111   0.922   6.211  0.4604  0.3898 -0.3944
 2882SOL    HW220283   2.051   1.049   6.200  0.5123  0.1950  0.8059
 2883SOL     OW20284   1.048   1.490   7.788  0.4474  0.1093  0.1328
 2883SOL    HW120285   1.012   1.402   7.793  1.5582 -0.2738  1.5978
 2883SOL    HW220286   0.989   1.538   7.845  1.5708  1.9229 -0.2324
 2884SOL     OW20287   4.488   0.261   5.428 -0.1161  0.3952 -0.3566
 2884SOL    HW120288   4.435   0.190   5.466 -0.2140  0.5230 -0.2546
 2884SOL    HW220289   4.531   0.219   5.354 -0.4186 -0.8196  0.1485
 2885SOL     OW20290   4.600   1.070   7.213 -0.2156  0.2930 -0.0281
 2885SOL    HW120291   4.649   1.121   7.149 -0.8697  1.6830  0.5830
 2885SOL    HW220292   4.514   1.110   7.202 -0.7809 -0.5915  1.0902
 2886SOL     OW20293   1.205   2.388  15.897  0.0537 -0.2556  0.3668
 2886SOL    HW120294   1.115   2.369  15.923 -0.9555  2.7127 -0.9496
 2886SOL    HW220295   1.210   2.401  15.803  1.6617 -1.4250  0.2880
 2887SOL     OW20296   0.944   4.113   7.286 -0.1621 -0.1329 -0.2613
 2887SOL    HW120297   1.010   4.132   7.220  0.6828 -0.3292  0.5314
 2887SOL    HW220298   0.936   4.018   7.294 -1.3150  0.2082  2.6240
 2888SOL     OW20299   0.884   3.975   6.410 -0.0435 -0.1156 -0.2914
 2888SOL    HW120300   0.878   3.901   6.471 -1.0163 -0.1995 -0.4764
 2888SOL    HW220301   0.866   4.052   6.464  0.5218 -1.0458  1.2329
 2889SOL     OW20302   1.236   0.946   7.201 -0.5891 -0.9612  0.4116
 2889SOL    HW120303   1.144   0.929   7.221 -0.9947  0.4338 -0.2482
 2889SOL    HW220304   1.272   0.905   7.279  1.2938 -2.2050 -1.0955
 2890SOL     OW20305   3.171   4.505   0.681  0.3607 -0.0266  0.5306
 2890SOL    HW120306   3.085   4.491   0.720 -0.5470  1.6310 -0.8418
 2890SOL    HW220307   3.197   4.413   0.670 -0.4291 -0.2193  0.2392
 2891SOL     OW20308   2.709   4.631   2.694  0.2551 -1.0433  0.0168
 2891SOL    HW120309   2.635   4.574   2.713 -1.0279  1.4000  2.4461
 2891SOL    HW220310   2.702   4.690   2.769 -1.9342  0.5336 -1.4207
 2892SOL     OW20311   1.446   4.671   3.802  0.3511  0.3815  0.3212
 2892SOL    HW120312   1.406   4.716   3.877  0.0014 -0.3561  0.5879
 2892SOL    HW220313   1.525   4.726   3.801  0.6693 -0.1248 -1.4782
 2893SOL     OW20314   0.897   2.117   3.019 -0.2104  0.0498 -0.8742
 2893SOL    HW120315   0.804   2.109   3.001  0.0139 -0.4117 -1.8243
 2893SOL    HW220316   0.911   2.208   3.045  1.3323 -0.3423 -0.3118
 2894SOL     OW20317   2.016   0.039   5.691 -0.3280  0.3977 -0.6056
 2894SOL    HW120318   2.023   0.028   5.786  0.8232 -2.1071 -0.9646
 2894SOL    HW220319   1.921   0.031   5.679 -0.3423 -0.2583 -0.0740
 2895SOL     OW20320   2.660   0.781   9.055 -0.0005  0.2314 -0.3798
 2895SOL    HW120321   2.634   0.868   9.028 -0.3777  0.2923  0.1802
 2895SOL    HW220322   2.583   0.733   9.025 -0.6290  0.9648  0.0730
 2896SOL     OW20323   1.007   0.822   6.958 -0.4828  0.6853  0.2142
 2896SOL    HW120324   1.068   0.894   6.944 -0.1155  0.3237 -0.0746
 2896SOL    HW220325   0.983   0.803   6.867  0.6332  0.7454 -0.1032
 2897SOL     OW20326   0.619   0.998   3.420  0.2214 -0.1590 -0.2485
 2897SOL    HW120327   0.621   1.035   3.508  0.4587 -0.6345 -0.0525
 2897SOL    HW220328   0.695   1.051   3.396 -0.3945 -0.2658 -2.4737
 2898SOL     OW20329   0.869   3.347   5.242 -0.3971  0.2465  0.5584
 2898SOL    HW120330   0.958   3.346   5.206 -0.2607  2.9258  0.8011
 2898SOL    HW220331   0.870   3.390   5.328 -0.8041  1.0423  0.1663
 2899SOL     OW20332   2.905   3.116  10.323 -0.7774 -0.0501  0.0283
 2899SOL    HW120333   2.988   3.162  10.310 -0.7278 -0.2954 -0.5100
 2899SOL    HW220334   2.880   3.112  10.230  1.2075  3.7965 -0.6957
 2900SOL     OW20335   0.440   2.807  10.643 -0.1705 -0.0223  0.5729
 2900SOL    HW120336   0.427   2.733  10.584 -0.3240  1.0725 -0.7475
 2900SOL    HW220337   0.412   2.870  10.577 -0.8424 -0.4118  0.4838
 2901SOL     OW20338   1.762   3.189   4.708  0.1077 -0.0963  0.3397
 2901SOL    HW120339   1.852   3.212   4.729  0.6640 -1.9944  0.0534
 2901SOL    HW220340   1.776   3.119   4.644 -1.2156  1.1995 -1.3624
 2902SOL     OW20341   3.964   2.506   5.169  0.0045  0.0209  0.4978
 2902SOL    HW120342   3.934   2.478   5.083 -0.5138 -2.7571  1.5663
 2902SOL    HW220343   3.889   2.555   5.204 -1.0674 -0.0855 -1.6606
 2903SOL     OW20344   3.050   2.656   7.684 -0.4365  0.2118 -0.1011
 2903SOL    HW120345   3.042   2.593   7.755 -1.2295 -1.0080 -1.2813
 2903SOL    HW220346   3.036   2.742   7.724 -0.1100  0.4784 -0.5473
 2904SOL     OW20347   3.919   4.133   4.016  0.5364  0.0999  0.0627
 2904SOL    HW120348   3.844   4.163   3.965  0.6938 -0.8363 -0.7373
 2904SOL    HW220349   3.858   4.084   4.072 -0.7447  0.9749 -0.5647
 2905SOL     OW20350   1.517   1.761   5.400  0.3273  0.0490 -0.5302
 2905SOL    HW120351   1.588   1.727   5.454  1.9785  2.4177 -1.1886
 2905SOL    HW220352   1.517   1.689   5.337  0.8604 -0.5265  0.1233
 2906SOL     OW20353   0.100   4.434   1.882  0.9085  0.1661  0.1034
 2906SOL    HW120354   0.179   4.430   1.937  2.2581 -3.1677 -2.0563
 2906SOL    HW220355   0.131   4.499   1.819  0.4803  0.0926 -0.1817
 2907SOL     OW20356   2.369   3.779  12.578  0.1051 -0.2398 -0.1288
 2907SOL    HW120357   2.404   3.778  12.489 -2.3258  0.4362 -1.1046
 2907SOL    HW220358   2.422   3.707  12.612 -0.6546  0.0098  1.5836
 2908SOL     OW20359   0.367   4.699   4.253 -0.0044 -0.1525  0.1451
 2908SOL    HW120360   0.405   4.612   4.243  1.6244  0.6106 -0.3716
 2908SOL    HW220361   0.374   4.695   4.348  0.3016  2.3662  0.2351
 2909SOL     OW20362   1.423   4.197  13.279  0.2832 -0.0771  0.7733
 2909SOL    HW120363   1.412   4.215  13.185 -0.8623 -1.0951  0.7199
 2909SOL    HW220364   1.477   4.266  13.318  1.7494 -1.4549  1.1370
 2910SOL     OW20365   2.956   0.167  13.009  0.1341 -0.1147  0.1693
 2910SOL    HW120366   2.968   0.161  13.104 -1.8595  0.8562  0.4839
 2910SOL    HW220367   2.981   0.078  12.987 -0.1468 -0.3373  0.7578
 2911SOL     OW20368   4.095   1.762  10.084  0.1721  0.2189  0.0128
 2911SOL    HW120369   4.003   1.784  10.071  0.4739  1.2650 -0.3466
 2911SOL    HW220370   4.111   1.763  10.178 -1.1625 -1.1180  0.2529
 2912SOL     OW20371   2.617   0.214  16.850  1.0567  0.6529  0.0116
 2912SOL    HW120372   2.578   0.236  16.766  2.2206 -3.0621 -1.5261
 2912SOL    HW220373   2.675   0.139  16.833  1.4598  1.2242 -1.1244
 2913SOL     OW20374   1.650   1.974   7.589  0.5671 -0.1167  0.7554
 2913SOL    HW120375   1.645   2.048   7.529 -0.7500  0.8614  2.0937
 2913SOL    HW220376   1.731   1.992   7.637  1.2656  1.9456 -1.2157
 2914SOL     OW20377   3.528   1.028   6.490  0.7160 -0.1690  0.4012
 2914SOL    HW120378   3.495   0.941   6.510  0.3965 -0.5313 -1.6923
 2914SOL    HW220379   3.506   1.032   6.397  0.6560 -0.7618  0.3914
 2915SOL     OW20380   0.219   2.382   8.304  0.1894  0.2159  0.6707
 2915SOL    HW120381   0.155   2.440   8.345  1.0416  2.1329 -0.7352
 2915SOL    HW220382   0.282   2.374   8.376  0.7358  1.1427  0.2773
 2916SOL     OW20383   1.191   2.100   4.219  0.1751  0.4592 -0.3034
 2916SOL    HW120384   1.157   2.054   4.142 -0.7172  1.5825 -0.5695
 2916SOL    HW220385   1.236   2.027   4.262  1.5462  1.0828 -0.6706
 2917SOL     OW20386   2.902   2.533   5.416 -0.5133 -0.3546  0.3291
 2917SOL    HW120387   2.983   2.484   5.434 -0.2373 -0.7324 -1.9123
 2917SOL    HW220388   2.868   2.473   5.350  3.0342  0.8390 -2.5946
 2918SOL     OW20389   3.895   0.142   8.308 -0.2558  0.3614 -0.5732
 2918SOL    HW120390   3.891   0.214   8.371 -0.2293  0.9571 -1.2563
 2918SOL    HW220391   3.818   0.170   8.258 -0.9974 -1.1222 -0.2623
 2919SOL     OW20392   1.381   3.443  15.218 -0.0285  0.1148 -0.3034
 2919SOL    HW120393   1.355   3.533  15.235  1.1035  0.9052 -2.6740
 2919SOL    HW220394   1.296   3.405  15.198 -1.2842  2.1754  1.2139
 2920SOL     OW20395   0.702   4.474   3.998  0.3435  0.1225 -0.8559
 2920SOL    HW120396   0.723   4.381   4.005  0.2619  0.1569 -0.0568
 2920SOL    HW220397   0.673   4.465   3.908  2.2854  0.7402 -1.5521
 2921SOL     OW20398   4.630   2.604   4.509 -0.2239 -0.1281  0.1630
 2921SOL    HW120399   4.602   2.686   4.550 -1.0011 -1.9329  3.2294
 2921SOL    HW220400   4.672   2.628   4.427 -1.0004  1.8905  0.3699
 2922SOL     OW20401   1.689   0.429   5.979  0.1132 -0.1897 -0.4227
 2922SOL    HW120402   1.645   0.416   6.063 -1.5076 -2.2563 -1.6107
 2922SOL    HW220403   1.754   0.496   6.002  2.4220 -2.4442 -0.4271
 2923SOL     OW20404   0.716   1.167   8.444  0.1407  0.4651 -0.0869
 2923SOL    HW120405   0.734   1.099   8.509 -2.2285 -0.4154 -0.3507
 2923SOL    HW220406   0.697   1.109   8.370  1.2876  1.7826 -1.4230
 2924SOL     OW20407   1.697   0.655   5.551  0.1679 -0.0471 -0.3269
 2924SOL    HW120408   1.637   0.692   5.486  0.1778  1.1661  0.3729
 2924SOL    HW220409   1.664   0.565   5.542 -1.0430  0.3244  0.3097
 2925SOL     OW20410   1.504   2.714   3.152 -0.4882  0.1101  0.4445
 2925SOL    HW120411   1.453   2.672   3.084  0.5832 -2.6121  1.3409
 2925SOL    HW220412   1.462   2.686   3.233  0.9949 -1.4952  0.6530
 2926SOL     OW20413   0.649   2.208   6.143 -0.5154 -0.3367  0.2593
 2926SOL    HW120414   0.632   2.302   6.134  2.1587 -0.1342 -2.5741
 2926SOL    HW220415   0.622   2.177   6.057  3.0820  0.5423 -1.1713
 2927SOL     OW20416   0.910   0.557   2.081 -0.3555  0.2063 -0.1421
 2927SOL    HW120417   0.891   0.472   2.122 -0.0528  0.2295  0.0450
 2927SOL    HW220418   0.876   0.552   1.992 -1.0564  1.1750  0.0691
 2928SOL     OW20419   0.182   4.518   6.278 -0.0158 -0.3784 -0.2801
 2928SOL    HW120420   0.133   4.571   6.341  1.1984  1.5282 -0.9470
 2928SOL    HW220421   0.243   4.481   6.342 -1.1813 -1.2274  0.3320
 2929SOL     OW20422   3.934   2.665  16.802  0.7427  0.3690  0.1660
 2929SOL    HW120423   4.025   2.652  16.777  0.4009 -1.1756 -0.2732
 2929SOL    HW220424   3.908   2.575  16.823 -3.3696  1.7835  1.2833
 2930SOL     OW20425   2.186   3.043  10.140  0.1502  0.0168 -0.2159
 2930SOL    HW120426   2.230   3.073  10.219  0.2439  0.3204 -0.3832
 2930SOL    HW220427   2.131   3.121  10.134  2.0753  1.5818  2.6403
 2931SOL     OW20428   2.354   1.165   8.506 -0.5152  0.6097 -0.1956
 2931SOL    HW120429   2.282   1.156   8.444  0.1955 -0.5780 -0.8424
 2931SOL    HW220430   2.329   1.099   8.571 -1.0258  0.5073 -0.4969
 2932SOL     OW20431   0.179   3.391  11.521 -0.1449  0.4925 -0.3551
 2932SOL    HW120432   0.087   3.368  11.507  0.5695 -2.5802  0.0004
 2932SOL    HW220433   0.176   3.459  11.589 -2.1151 -0.0145  0.0784
 2933SOL     OW20434   0.898   0.769   3.321  0.4398  0.0661  0.1324
 2933SOL    HW120435   0.980   0.766   3.370  1.3336  0.0690 -1.3730
 2933SOL    HW220436   0.850   0.835   3.370  1.9520 -0.2279  2.0178
 2934SOL     OW20437   2.552   3.353   6.183 -0.4055 -0.5915  0.4941
 2934SOL    HW120438   2.591   3.437   6.205  0.5056 -0.4848 -1.5451
 2934SOL    HW220439   2.634   3.313   6.153  0.6100  0.6160  1.6886
 2935SOL     OW20440   2.158   0.546   2.244  0.1361 -0.0306  0.4010
 2935SOL    HW120441   2.172   0.580   2.155  0.3999  2.4704  1.3882
 2935SOL    HW220442   2.063   0.553   2.253 -0.0816  0.5294 -2.3108
 2936SOL     OW20443   3.797   0.637  11.485  0.4304 -0.0650 -0.0424
 2936SOL    HW120444   3.711   0.666  11.518  0.3960 -0.2359  0.0219
 2936SOL    HW220445   3.816   0.709  11.425 -1.2304  0.5545  0.1607
 2937SOL     OW20446   4.278   0.190  10.142 -0.0755  0.2817 -0.0420
 2937SOL    HW120447   4.338   0.261  10.117  0.9032 -0.5318  0.0125
 2937SOL    HW220448   4.251   0.222  10.228  0.7822 -1.5938  0.9219
 2938SOL     OW20449   1.817   0.389  14.951  0.1053 -0.4606  0.5211
 2938SOL    HW120450   1.724   0.411  14.944 -0.4441 -2.6559  1.3157
 2938SOL    HW220451   1.804   0.305  14.993  1.8061 -1.8859 -1.8066
 2939SOL     OW20452   3.057   3.871   7.047  0.1996 -0.3657  0.5142
 2939SOL    HW120453   3.037   3.960   7.019 -1.1958 -1.1036 -0.8478
 2939SOL    HW220454   3.126   3.901   7.106  0.2536 -0.0944  0.3079
 2940SOL     OW20455   1.068   0.807   6.387 -0.2498  0.0545 -0.2570
 2940SOL    HW120456   1.122   0.886   6.387  1.2651 -0.9940 -0.2763
 2940SOL    HW220457   1.138   0.748   6.361  0.5206 -0.6170  3.2382
 2941SOL     OW20458   1.928   2.388   8.517  0.6597 -0.0131 -0.2830
 2941SOL    HW120459   1.974   2.466   8.487  0.0806  0.4755  0.0834
 2941SOL    HW220460   1.987   2.358   8.586  0.7740 -0.0509 -0.3990
 2942SOL     OW20461   1.206   0.065  16.241  0.0203  0.4044 -0.8347
 2942SOL    HW120462   1.243   4.728  16.201 -0.0620  0.2478 -0.6055
 2942SOL    HW220463   1.152   0.028  16.311  1.9165 -0.7003  0.0481
 2943SOL     OW20464   1.849   3.540   1.653  0.6399  0.0877  0.6020
 2943SOL    HW120465   1.774   3.511   1.600  1.1008 -0.5847  0.3133
 2943SOL    HW220466   1.920   3.503   1.600 -1.4505 -0.7240 -1.6261
 2944SOL     OW20467   1.133   2.246  16.704 -0.8575 -0.1605 -0.4964
 2944SOL    HW120468   1.146   2.317  16.767  0.2741 -0.5727 -0.2630
 2944SOL    HW220469   1.126   2.170  16.760 -2.2473  1.8368  2.0489
 2945SOL     OW20470   0.010   1.464   3.778  0.6232 -0.1854  0.3372
 2945SOL    HW120471   0.015   1.546   3.728 -1.8265 -1.5665 -2.1922
 2945SOL    HW220472   0.091   1.476   3.826  0.6492 -3.1370  1.0376
 2946SOL     OW20473   0.109   1.446   2.037 -0.4041  0.2526 -0.1103
 2946SOL    HW120474   0.111   1.373   2.099 -1.7552  0.8762  0.6810
 2946SOL    HW220475   0.048   1.402   1.977 -0.9393  0.3323  0.3707
 2947SOL     OW20476   1.712   3.050   3.518 -0.1877  0.8341 -0.2734
 2947SOL    HW120477   1.722   3.058   3.613 -0.8703  1.0553 -0.2204
 2947SOL    HW220478   1.641   2.986   3.514  1.3087 -0.7345 -2.1336
 2948SOL     OW20479   1.834   3.715   4.384 -0.0348  0.1138 -0.5558
 2948SOL    HW120480   1.890   3.777   4.430  1.4611 -0.4080 -1.6547
 2948SOL    HW220481   1.874   3.630   4.404  2.2386  0.5286 -3.4620
 2949SOL     OW20482   3.533   3.547   9.381 -0.2321 -0.0275  0.1794
 2949SOL    HW120483   3.577   3.619   9.427 -0.7176  0.5814 -0.3184
 2949SOL    HW220484   3.569   3.472   9.429 -1.9819 -0.0660  1.4218
 2950SOL     OW20485   4.190   1.930  14.854  0.3903 -0.4954 -0.1953
 2950SOL    HW120486   4.137   2.007  14.835  0.4221  0.0520  1.8528
 2950SOL    HW220487   4.234   1.924  14.770  1.8636 -0.8816  0.6074
 2951SOL     OW20488   2.218   4.566   5.686 -0.4430  0.3578  0.4618
 2951SOL    HW120489   2.239   4.593   5.597 -2.1560 -1.5605 -0.5138
 2951SOL    HW220490   2.243   4.648   5.730 -1.3970  0.0578  1.5532
 2952SOL     OW20491   3.236   2.429   6.441 -0.2946 -0.0145 -0.1092
 2952SOL    HW120492   3.244   2.473   6.526 -0.8935  1.9068 -1.0512
 2952SOL    HW220493   3.253   2.340   6.471 -0.4280  0.1868  0.5590
 2953SOL     OW20494   3.210   0.382  15.538  0.2103 -0.0699 -0.1927
 2953SOL    HW120495   3.217   0.294  15.501  3.5265 -0.0342  0.3466
 2953SOL    HW220496   3.242   0.355  15.624  1.5029 -0.6517 -0.8523
 2954SOL     OW20497   1.743   4.525  12.134  0.2005 -0.2420 -0.6733
 2954SOL    HW120498   1.762   4.495  12.045  2.3238 -0.3003 -0.2104
 2954SOL    HW220499   1.680   4.463  12.170 -0.6070  3.2466  3.9632
 2955SOL     OW20500   2.084   2.795   2.522 -0.2339  0.2068  0.3196
 2955SOL    HW120501   2.141   2.807   2.447 -0.0945  1.6068  0.6522
 2955SOL    HW220502   2.046   2.712   2.495  3.4889 -0.9527 -1.2327
 2956SOL     OW20503   3.121   3.849   4.910  0.1450 -0.7054 -0.3139
 2956SOL    HW120504   3.113   3.828   4.817  1.3983 -0.4477 -0.4664
 2956SOL    HW220505   3.071   3.930   4.898  0.2619 -0.5994 -0.0879
 2957SOL     OW20506   1.907   1.230   4.107 -0.3936  0.5156  0.1909
 2957SOL    HW120507   2.000   1.243   4.088 -0.1346  0.8537  1.7011
 2957SOL    HW220508   1.865   1.316   4.109  0.5069  0.9754 -0.4566
 2958SOL     OW20509   0.730   1.583   0.926 -0.3935 -0.2308 -0.5488
 2958SOL    HW120510   0.814   1.539   0.913 -0.1716 -1.0254  3.6008
 2958SOL    HW220511   0.742   1.637   1.004  1.9156 -1.6307  0.0702
 2959SOL     OW20512   2.741   1.287   4.034 -0.1190  0.1783  0.5822
 2959SOL    HW120513   2.783   1.331   3.960 -0.7882 -0.7181 -0.3198
 2959SOL    HW220514   2.807   1.220   4.052 -1.0311 -0.8071  0.2327
 2960SOL     OW20515   3.984   3.621  16.921  0.2990 -0.2418  0.6760
 2960SOL    HW120516   3.962   3.673  16.999 -2.4918 -1.8545  0.9685
 2960SOL    HW220517   4.008   3.690  16.859  0.2570  0.0462  0.9802
 2961SOL     OW20518   4.175   3.258   8.634 -0.6228  0.1213  0.2848
 2961SOL    HW120519   4.175   3.333   8.695  4.3995 -0.3159  0.8044
 2961SOL    HW220520   4.105   3.208   8.675  0.4110 -0.7714  0.9615
 2962SOL     OW20521   0.476   2.679   1.495  0.2265 -0.5253 -0.6524
 2962SOL    HW120522   0.527   2.711   1.421  0.1827 -0.4481 -0.6489
 2962SOL    HW220523   0.539   2.673   1.568 -1.6209 -1.4537  0.8788
 2963SOL     OW20524   3.868   3.642   8.437 -0.9611 -0.1018 -0.0582
 2963SOL    HW120525   3.911   3.563   8.469 -0.6387  0.6598  1.4135
 2963SOL    HW220526   3.933   3.706   8.467  0.0904 -0.2732 -2.0192
 2964SOL     OW20527   1.759   4.066  12.873 -0.1025 -0.2288  0.0245
 2964SOL    HW120528   1.780   4.063  12.780 -0.1096  1.6528 -0.0419
 2964SOL    HW220529   1.667   4.083  12.855 -0.2828 -0.0204  1.1178
 2965SOL     OW20530   3.515   1.719   6.940 -0.1856  0.2617 -0.0414
 2965SOL    HW120531   3.599   1.764   6.947 -0.0056  0.2489 -2.2985
 2965SOL    HW220532   3.515   1.681   6.852 -0.3983  0.2044 -0.0174
 2966SOL     OW20533   2.133   2.247   1.269  0.1246  0.3411  0.5206
 2966SOL    HW120534   2.161   2.210   1.353 -2.3520 -2.8603 -0.0471
 2966SOL    HW220535   2.081   2.173   1.238 -1.1523  0.9078  1.3334
 2967SOL     OW20536   2.207   1.451  10.461  0.5508  0.3917 -0.0417
 2967SOL    HW120537   2.287   1.490  10.425  0.0654  0.3206 -1.2131
 2967SOL    HW220538   2.251   1.400  10.528 -0.1973  0.0038  0.1605
 2968SOL     OW20539   0.194   0.337   7.378 -0.0990  0.0279  0.1874
 2968SOL    HW120540   0.269   0.281   7.356 -1.8279 -1.1123 -2.7797
 2968SOL    HW220541   0.177   0.372   7.290  1.5620  1.3884  0.3985
 2969SOL     OW20542   2.616   2.161  11.131  0.5242 -0.1550  0.6731
 2969SOL    HW120543   2.651   2.208  11.207 -1.8292  0.6368  1.2690
 2969SOL    HW220544   2.581   2.083  11.173  1.9985 -0.6196  1.0252
 2970SOL     OW20545   2.844   0.264   3.357 -0.0077  0.5561 -0.2539
 2970SOL    HW120546   2.761   0.311   3.358 -1.7335 -2.4772 -1.7639
 2970SOL    HW220547   2.890   0.299   3.433 -1.0764 -1.7393  1.4370
 2971SOL     OW20548   1.511   4.735   9.937  0.6958 -1.0540 -0.1780
 2971SOL    HW120549   1.519   4.688  10.019 -0.0875  0.4722  0.7769
 2971SOL    HW220550   1.425   4.702   9.909 -0.9823  2.0299  1.2884
 2972SOL     OW20551   2.074   3.647   4.933  0.1421  0.5280 -0.3092
 2972SOL    HW120552   2.161   3.606   4.929  0.1734  0.5134  0.5225
 2972SOL    HW220553   2.061   3.651   5.028  1.2424  0.5605 -0.1578
 2973SOL     OW20554   0.075   2.621  14.831  0.0330  0.0646  0.3423
 2973SOL    HW120555   0.132   2.695  14.808 -0.5351  1.1436  2.3797
 2973SOL    HW220556   0.082   2.636  14.925  0.0181 -2.0183  0.6775
 2974SOL     OW20557   2.945   1.234  12.347  0.0352  0.0443  0.3549
 2974SOL    HW120558   2.996   1.199  12.420  1.1057 -0.4498 -0.6305
 2974SOL    HW220559   3.016   1.261  12.289  0.8215 -1.2826  0.7051
 2975SOL     OW20560   3.683   0.504  11.239 -0.1464  0.3386  0.1073
 2975SOL    HW120561   3.749   0.563  11.275  1.3517 -1.2801  0.0045
 2975SOL    HW220562   3.733   0.423  11.230  1.2452  1.2583 -0.3315
 2976SOL     OW20563   1.791   1.325   2.156 -0.1211 -0.0073  0.0270
 2976SOL    HW120564   1.772   1.410   2.115  0.1730 -0.5581 -1.2605
 2976SOL    HW220565   1.886   1.335   2.152 -0.1815  0.8172  0.7119
 2977SOL     OW20566   2.134   0.016  13.469  0.0664 -0.6507 -0.0711
 2977SOL    HW120567   2.092   0.065  13.540  0.3052 -0.3136 -0.1645
 2977SOL    HW220568   2.054   0.009  13.416  0.5557 -2.0632 -0.6269
 2978SOL     OW20569   2.042   0.698   5.396 -0.2875 -0.0772  0.4798
 2978SOL    HW120570   2.004   0.726   5.479  0.3236 -1.6760  1.3043
 2978SOL    HW220571   1.979   0.633   5.367 -0.4685 -0.4920  1.7926
 2979SOL     OW20572   0.658   1.796   8.654  0.3378 -0.7256  0.3724
 2979SOL    HW120573   0.671   1.795   8.749 -2.6829  0.8434  0.8177
 2979SOL    HW220574   0.710   1.719   8.633 -1.7564 -1.1926 -3.1561
 2980SOL     OW20575   3.300   0.558   8.566  0.6727 -0.1600 -0.0822
 2980SOL    HW120576   3.335   0.500   8.499 -0.1955 -0.8972  0.0952
 2980SOL    HW220577   3.372   0.619   8.586 -2.3310  3.1109  0.7298
 2981SOL     OW20578   0.233   0.812   7.968 -0.5127 -0.3942  0.1417
 2981SOL    HW120579   0.235   0.901   7.932  0.8185 -0.2590  0.5620
 2981SOL    HW220580   0.320   0.783   7.942 -0.9181 -0.7781 -0.7951
 2982SOL     OW20581   0.608   2.979   9.987 -0.3197  0.7787  0.1383
 2982SOL    HW120582   0.685   3.004   9.935 -0.8051 -0.0254 -0.9547
 2982SOL    HW220583   0.617   3.041  10.061 -2.2923 -1.1301  1.9707
 2983SOL     OW20584   1.705   0.809   8.206 -0.4320  0.1619 -0.2552
 2983SOL    HW120585   1.732   0.865   8.279 -1.2605 -1.6097  1.4005
 2983SOL    HW220586   1.711   0.722   8.244 -0.8342  0.2955  0.1148
 2984SOL     OW20587   4.723   3.635   4.239 -0.7018  0.4344 -0.7054
 2984SOL    HW120588   0.071   3.625   4.269 -1.2861  0.9163  1.2128
 2984SOL    HW220589   4.726   3.607   4.147  3.2514  0.1388 -0.4840
 2985SOL     OW20590   1.279   4.341   4.560  0.3437 -0.7331  0.1782
 2985SOL    HW120591   1.200   4.392   4.542  0.1668 -0.5713  1.4199
 2985SOL    HW220592   1.344   4.410   4.554  0.2153 -0.6021  0.2901
 2986SOL     OW20593   2.668   4.246   7.715  0.2381 -0.3060  0.4635
 2986SOL    HW120594   2.704   4.288   7.637 -0.4857 -1.1627 -0.3307
 2986SOL    HW220595   2.650   4.319   7.774 -0.4184  0.1394 -0.2919
 2987SOL     OW20596   0.702   4.075   7.556  0.5257  0.0181 -0.1089
 2987SOL    HW120597   0.793   4.046   7.550  0.7787  1.5874 -3.9609
 2987SOL    HW220598   0.655   3.994   7.572 -1.1942  1.2625  1.1551
 2988SOL     OW20599   0.142   1.718   2.869  0.4501  0.0704  0.7145
 2988SOL    HW120600   0.133   1.623   2.871 -3.1633  0.3968  0.0396
 2988SOL    HW220601   0.051   1.747   2.868  0.6181  0.5962  0.4676
 2989SOL     OW20602   1.402   2.109   3.202 -0.1607 -0.2674 -0.0084
 2989SOL    HW120603   1.367   2.164   3.132  2.3437  0.8500 -0.3905
 2989SOL    HW220604   1.471   2.072   3.148  0.8326 -0.5331  1.4452
 2990SOL     OW20605   3.603   0.710   3.443 -0.2160 -0.2335 -0.3429
 2990SOL    HW120606   3.675   0.693   3.503  0.4066 -1.2648 -1.3804
 2990SOL    HW220607   3.532   0.653   3.471 -0.8446 -1.3101 -4.1258
 2991SOL     OW20608   1.488   4.710   2.055  0.7989 -0.0736  0.0238
 2991SOL    HW120609   1.521   4.630   2.013  0.4271  0.2206 -0.8520
 2991SOL    HW220610   1.499   0.033   1.985  0.8532 -0.7151 -0.5706
 2992SOL     OW20611   0.211   4.191   6.220 -0.0949  0.5175 -0.1478
 2992SOL    HW120612   0.177   4.107   6.188  0.6272  0.7762 -1.5889
 2992SOL    HW220613   0.260   4.157   6.295  2.1413  0.8140 -1.4962
 2993SOL     OW20614   4.442   1.971   2.258  0.4571  0.5532 -0.1622
 2993SOL    HW120615   4.527   1.934   2.236  0.5863  1.3315 -0.9593
 2993SOL    HW220616   4.419   2.020   2.179  1.3817  1.2288 -0.0076
 2994SOL     OW20617   2.725   0.474   5.817  0.5814 -0.3575 -0.1586
 2994SOL    HW120618   2.720   0.483   5.721 -0.0538  2.3557  0.1328
 2994SOL    HW220619   2.817   0.483   5.839  0.4672 -0.5273  0.3858
 2995SOL     OW20620   2.890   2.964   6.324  0.1213 -0.4790  0.1183
 2995SOL    HW120621   2.922   2.979   6.413 -0.8884 -2.8614  0.8841
 2995SOL    HW220622   2.809   2.920   6.351  0.2621 -0.4481  0.5847
 2996SOL     OW20623   3.031   4.684  17.237  0.0801 -0.3555  0.5594
 2996SOL    HW120624   3.028   0.017  17.177 -0.2108 -0.8464 -0.0434
 2996SOL    HW220625   2.980   4.712  17.314  1.3707  0.1933  1.2064
 2997SOL     OW20626   2.632   4.624  17.641  0.5407  0.6605  0.0036
 2997SOL    HW120627   2.606   4.545  17.595 -2.5222  1.1108  0.9621
 2997SOL    HW220628   2.728   4.622  17.642  0.5501  1.2076  0.5665
 2998SOL     OW20629   1.989   0.168  16.456  0.6107  0.1659 -0.1517
 2998SOL    HW120630   1.974   0.077  16.481 -1.8004  0.1573 -1.5611
 2998SOL    HW220631   1.984   0.216  16.539 -0.8418 -2.8399  1.4933
 2999SOL     OW20632   1.138   0.648  16.723 -0.2902 -0.2078 -0.5311
 2999SOL    HW120633   1.152   0.673  16.815  1.7985  0.2301 -0.9756
 2999SOL    HW220634   1.057   0.598  16.734  0.3447 -1.8763 -3.6637
 3000SOL     OW20635   3.059   3.625   7.171  0.0848  0.1573  0.4056
 3000SOL    HW120636   3.015   3.642   7.254 -0.6726 -1.2348  0.2832
 3000SOL    HW220637   3.043   3.704   7.119 -0.2372  0.0060  0.2713
 3001SOL     OW20638   2.618   1.497   8.080  0.1161 -0.3012  0.5837
 3001SOL    HW120639   2.706   1.516   8.113  0.9755  0.9041 -2.3718
 3001SOL    HW220640   2.566   1.516   8.158  3.1174  2.3545  1.9180
 3002SOL     OW20641   4.280   0.312  16.085 -0.2962  0.3083 -0.2508
 3002SOL    HW120642   4.269   0.386  16.144 -0.8942 -1.0444  1.3640
 3002SOL    HW220643   4.223   0.254  16.136  1.2930 -0.4371  0.6815
 3003SOL     OW20644   3.502   3.562   1.447  0.7913  0.2202 -0.4980
 3003SOL    HW120645   3.509   3.658   1.447 -2.6220  0.4683 -2.4172
 3003SOL    HW220646   3.435   3.550   1.514  1.2049 -2.5644 -0.5896
 3004SOL     OW20647   2.139   2.742   8.678 -0.1636  0.4824 -0.5915
 3004SOL    HW120648   2.094   2.783   8.752  2.6001  1.3149  0.6219
 3004SOL    HW220649   2.233   2.754   8.692 -0.3903  2.4402 -0.8040
 3005SOL     OW20650   2.269   4.267   0.815 -0.4704 -0.4223  0.3370
 3005SOL    HW120651   2.265   4.199   0.748  1.2097 -1.6887  1.5209
 3005SOL    HW220652   2.249   4.346   0.765 -0.0036 -1.8525 -2.0701
 3006SOL     OW20653   2.991   1.564   5.327 -0.0944 -0.3788  0.0612
 3006SOL    HW120654   3.002   1.659   5.322  0.7610 -0.4692  0.2798
 3006SOL    HW220655   2.962   1.546   5.237 -0.8303  1.8323 -0.1324
 3007SOL     OW20656   3.203   0.018  14.800 -0.1935  0.2856 -0.6729
 3007SOL    HW120657   3.194   0.110  14.775 -1.7535 -0.1530 -1.7391
 3007SOL    HW220658   3.211   4.726  14.711  1.8719  2.2270 -1.2417
 3008SOL     OW20659   3.394   4.604  11.596  0.1635  0.3145 -0.4822
 3008SOL    HW120660   3.407   4.619  11.690  2.3846  0.3112 -0.7918
 3008SOL    HW220661   3.424   4.514  11.582 -0.5966  0.1990 -1.4177
 3009SOL     OW20662   3.135   1.522  10.042 -0.4727 -0.5564  0.1354
 3009SOL    HW120663   3.098   1.534   9.955 -1.1543 -0.3535  0.4499
 3009SOL    HW220664   3.227   1.546  10.030 -0.9037  1.6584  1.1440
 3010SOL     OW20665   4.395   4.230   3.578 -0.6102  0.2216 -0.3130
 3010SOL    HW120666   4.333   4.240   3.650 -1.0971 -2.1468 -0.4312
 3010SOL    HW220667   4.344   4.195   3.505  1.7010 -0.5610 -1.5491
 3011SOL     OW20668   0.001   1.083   1.153 -0.3073 -0.5240 -0.1070
 3011SOL    HW120669   4.717   0.997   1.122 -0.9598 -0.6468  0.7955
 3011SOL    HW220670   4.688   1.097   1.230 -0.4598 -0.7948 -0.1692
 3012SOL     OW20671   1.535   1.387   3.300  0.7135  0.5825  0.2086
 3012SOL    HW120672   1.559   1.310   3.249  0.9715  1.6494 -1.2716
 3012SOL    HW220673   1.586   1.460   3.265 -0.0814  1.5651  1.0517
 3013SOL     OW20674   1.408   0.598   5.663  0.5413  0.3825 -0.3523
 3013SOL    HW120675   1.447   0.607   5.750  1.5577 -0.8301 -0.6840
 3013SOL    HW220676   1.442   0.518   5.623 -2.3119 -0.5793 -0.8474
 3014SOL     OW20677   2.545   2.718   1.119 -0.3965  0.1907 -0.4012
 3014SOL    HW120678   2.537   2.810   1.144 -2.2595  0.1949 -1.0407
 3014SOL    HW220679   2.641   2.717   1.109 -0.4903  1.2879 -1.4358
 3015SOL     OW20680   0.849   3.715   8.054  0.0898 -0.1995 -0.0246
 3015SOL    HW120681   0.776   3.677   8.005  1.4143  0.5211 -2.5177
 3015SOL    HW220682   0.878   3.643   8.110 -0.8642 -0.7342 -0.2233
 3016SOL     OW20683   4.277   3.250   3.680 -0.0729  0.6401  0.0130
 3016SOL    HW120684   4.313   3.240   3.769  0.9646 -0.1886 -0.5018
 3016SOL    HW220685   4.357   3.277   3.634  0.2556  0.0713  0.2553
 3017SOL     OW20686   1.955   4.622   0.742 -0.0735 -0.0042  0.0135
 3017SOL    HW120687   1.925   4.544   0.788  2.6636 -1.1804 -0.2282
 3017SOL    HW220688   1.880   4.681   0.753 -0.5558 -0.5206 -0.5279
 3018SOL     OW20689   4.204   2.705   7.170 -0.1320 -0.0496  0.2556
 3018SOL    HW120690   4.179   2.687   7.079 -2.1248  1.6729  0.4697
 3018SOL    HW220691   4.272   2.770   7.155  0.4857 -0.6227  0.5512
 3019SOL     OW20692   4.647   2.231   2.416 -0.3169  0.2602  0.3665
 3019SOL    HW120693   4.739   2.205   2.413 -0.6722 -0.7602 -1.6346
 3019SOL    HW220694   4.625   2.221   2.323  1.2944  0.4804 -0.0582
 3020SOL     OW20695   2.731   4.387  15.375 -0.2920 -0.2508  0.3306
 3020SOL    HW120696   2.739   4.428  15.289  1.3486  0.9026  1.0380
 3020SOL    HW220697   2.814   4.426  15.403  0.2281 -0.2939 -1.1299
 3021SOL     OW20698   2.286   0.005   5.461 -0.2020 -0.4525  0.2786
 3021SOL    HW120699   2.193   0.023   5.449  0.2255  1.7177  0.2163
 3021SOL    HW220700   2.310   0.073   5.398 -0.1355 -0.6010  0.1423
 3022SOL     OW20701   2.401   0.964   7.255 -0.6186 -0.6074 -0.3072
 3022SOL    HW120702   2.323   0.987   7.304  1.3659  2.5069  1.4039
 3022SOL    HW220703   2.389   1.026   7.183  1.1727  1.2532  0.9872
 3023SOL     OW20704   4.605   0.764   9.744 -0.2120  0.2290 -0.3089
 3023SOL    HW120705   4.603   0.792   9.836  0.6886  2.0372 -0.8479
 3023SOL    HW220706   4.549   0.829   9.703  1.7807  0.0564 -3.2610
 3024SOL     OW20707   1.976   3.688   6.370 -0.4287  0.8237 -0.2469
 3024SOL    HW120708   1.931   3.708   6.451 -0.3087  1.7991 -0.4181
 3024SOL    HW220709   1.986   3.774   6.329  1.7425 -0.6983 -2.9951
 3025SOL     OW20710   0.817   1.611   9.248  0.0741 -0.5644  0.0439
 3025SOL    HW120711   0.818   1.617   9.152  0.1054  2.4770  0.2249
 3025SOL    HW220712   0.726   1.600   9.276 -0.3193 -0.2731 -1.1105
 3026SOL     OW20713   3.476   1.743  10.739  0.3657  0.2373 -0.0725
 3026SOL    HW120714   3.516   1.697  10.812  0.0126  1.8997  1.1777
 3026SOL    HW220715   3.428   1.679  10.686 -0.5053  0.5128  0.3903
 3027SOL     OW20716   4.607   3.789   9.749  0.7912 -0.0363  0.5288
 3027SOL    HW120717   4.658   3.869   9.736  0.0961  0.5204  1.2724
 3027SOL    HW220718   4.617   3.785   9.844  0.7978  3.5883  0.6709
 3028SOL     OW20719   3.798   4.255   2.150  0.4860 -0.2703  0.4721
 3028SOL    HW120720   3.878   4.306   2.136  1.2169 -1.5416  0.0502
 3028SOL    HW220721   3.795   4.207   2.067  0.5949 -0.0692  0.3517
 3029SOL     OW20722   2.629   4.011   3.313  0.4343  0.5556 -0.2953
 3029SOL    HW120723   2.645   4.031   3.405  0.1161  2.2396 -0.6095
 3029SOL    HW220724   2.612   4.099   3.278 -2.5206 -0.4970 -1.4442
 3030SOL     OW20725   1.638   0.786   6.555 -0.3684  0.1247 -0.0439
 3030SOL    HW120726   1.715   0.805   6.502  0.5847 -1.5216  0.7421
 3030SOL    HW220727   1.634   0.871   6.598  2.3015  0.5779 -0.7008
 3031SOL     OW20728   3.133   0.316   9.046 -0.0536  0.3962 -0.0354
 3031SOL    HW120729   3.164   0.318   8.955 -0.6411 -1.7005 -0.2853
 3031SOL    HW220730   3.174   0.237   9.080 -0.4670 -0.3456 -1.2721
 3032SOL     OW20731   1.192   0.868   7.719 -0.2148  0.0377  0.7340
 3032SOL    HW120732   1.143   0.798   7.762 -1.8942  0.4934 -0.4742
 3032SOL    HW220733   1.146   0.874   7.635  0.0459  2.2934  0.7648
 3033SOL     OW20734   2.063   4.544   1.918 -0.5270  0.2944 -0.0957
 3033SOL    HW120735   1.976   4.567   1.885 -0.2910  0.9432 -0.2840
 3033SOL    HW220736   2.046   4.454   1.943  2.1667 -0.3198 -0.4683
 3034SOL     OW20737   2.224   3.308   5.477 -0.6356  0.5862 -0.2650
 3034SOL    HW120738   2.297   3.276   5.425  2.3106  1.8030  3.0784
 3034SOL    HW220739   2.155   3.247   5.453 -0.0303 -0.1317 -0.2015
 3035SOL     OW20740   0.320   0.798   6.609 -0.3959  0.6241  0.0160
 3035SOL    HW120741   0.266   0.793   6.688  0.2939 -1.9706  0.3007
 3035SOL    HW220742   0.389   0.852   6.647  0.4284 -0.2589 -0.2328
 3036SOL     OW20743   3.233   2.059  11.561 -0.1627 -0.0760 -0.2191
 3036SOL    HW120744   3.311   2.111  11.542 -1.0250  1.1274 -0.5042
 3036SOL    HW220745   3.186   2.120  11.619 -0.8398  0.6611 -1.5441
 3037SOL     OW20746   1.608   3.412   6.753 -0.2458  0.3938 -0.1449
 3037SOL    HW120747   1.683   3.353   6.748  1.7650  3.1760 -3.2679
 3037SOL    HW220748   1.546   3.375   6.815 -0.1588  1.7133  0.7373
 3038SOL     OW20749   1.271   0.967  15.781  0.0835 -0.5057  0.2463
 3038SOL    HW120750   1.255   1.045  15.834 -1.2827 -2.4641  2.6917
 3038SOL    HW220751   1.212   0.902  15.820 -0.2070  0.5025  1.5130
 3039SOL     OW20752   4.113   0.820   5.049 -0.0668  0.3859 -0.4620
 3039SOL    HW120753   4.061   0.743   5.070  3.3864 -1.2095  2.1316
 3039SOL    HW220754   4.118   0.869   5.131  1.5596 -0.9257  0.2086
 3040SOL     OW20755   4.208   1.433   5.124  0.1257 -0.4926  0.2290
 3040SOL    HW120756   4.124   1.403   5.157  0.5488 -1.2728  0.6053
 3040SOL    HW220757   4.197   1.517   5.080  2.0573 -0.1790  0.3165
 3041SOL     OW20758   3.541   4.412   7.376  0.0415  0.5680 -1.0298
 3041SOL    HW120759   3.627   4.444   7.403 -0.4494 -1.6697  3.2513
 3041SOL    HW220760   3.536   4.331   7.427  0.7172 -0.0669 -1.9557
 3042SOL     OW20761   1.103   2.327  11.681  0.2622  0.4831  0.3534
 3042SOL    HW120762   1.136   2.238  11.676  1.9533  1.1112  0.3445
 3042SOL    HW220763   1.020   2.316  11.728  0.4482 -0.7852  0.3567
 3043SOL     OW20764   0.763   2.017  16.227 -0.1092 -0.1414 -0.3746
 3043SOL    HW120765   0.745   2.101  16.269  1.3559 -0.7399  1.4531
 3043SOL    HW220766   0.688   2.028  16.168  0.8156 -0.6015 -1.6366
 3044SOL     OW20767   3.339   3.905   8.360  0.0852  0.0690 -0.1276
 3044SOL    HW120768   3.260   3.925   8.410 -0.5518 -0.2436 -1.0082
 3044SOL    HW220769   3.405   3.964   8.396  1.1716 -1.1121 -0.1881
 3045SOL     OW20770   1.693   1.769   0.758 -0.5204  0.3967 -0.4788
 3045SOL    HW120771   1.670   1.805   0.673 -0.9571  0.9033 -0.1498
 3045SOL    HW220772   1.608   1.761   0.802 -0.0957 -0.0087  0.2651
 3046SOL     OW20773   2.596   0.508  12.961  0.5278 -0.1013  0.6718
 3046SOL    HW120774   2.620   0.415  12.964 -1.1666 -0.5539  0.6089
 3046SOL    HW220775   2.685   0.542  12.973  0.5104  0.2850 -0.2848
 3047SOL     OW20776   3.952   2.171   0.681 -0.7630  0.6885 -0.2206
 3047SOL    HW120777   3.856   2.171   0.685 -0.7541  1.6965  0.2193
 3047SOL    HW220778   3.950   2.220   0.598 -0.0009 -1.2461 -1.3539
 3048SOL     OW20779   4.454   3.294   6.552 -0.0434 -0.0102 -0.1511
 3048SOL    HW120780   4.451   3.203   6.581 -3.6259  0.2267  0.2772
 3048SOL    HW220781   4.361   3.313   6.537 -0.8502 -3.6905  0.2492
 3049SOL     OW20782   3.943   4.703   9.159  0.2854 -0.9332  0.8080
 3049SOL    HW120783   4.027   4.688   9.203  0.7488  0.5916  0.4331
 3049SOL    HW220784   3.935   0.048   9.198  1.4697 -0.7286  0.6118
 3050SOL     OW20785   2.972   2.381   8.160 -0.3909 -0.0026  0.1093
 3050SOL    HW120786   2.887   2.357   8.196 -2.2486  3.8496 -1.6792
 3050SOL    HW220787   3.025   2.375   8.239 -1.8947  0.4442  1.1416
 3051SOL     OW20788   0.496   2.833  14.753  0.0591  0.0753  0.2654
 3051SOL    HW120789   0.486   2.810  14.845  2.0671  1.5621  0.8487
 3051SOL    HW220790   0.446   2.915  14.752 -2.3586 -1.4434 -2.2162
 3052SOL     OW20791   2.607   1.869   2.098  0.0996 -0.0278  0.1803
 3052SOL    HW120792   2.650   1.907   2.174  0.4635  0.2277 -0.1537
 3052SOL    HW220793   2.600   1.779   2.129 -2.2745 -0.9942 -3.1168
 3053SOL     OW20794   1.288   0.361   7.029  0.3873  0.2356  0.1090
 3053SOL    HW120795   1.329   0.335   7.111 -0.1506 -0.5666  0.1253
 3053SOL    HW220796   1.248   0.443   7.059  0.1529  0.2382 -0.2167
 3054SOL     OW20797   2.850   1.903   4.786  0.7404 -0.0659  0.3265
 3054SOL    HW120798   2.810   1.985   4.815 -0.3575 -1.2455  2.1078
 3054SOL    HW220799   2.939   1.908   4.821  1.2678 -0.2800 -0.9870
 3055SOL     OW20800   1.710   4.635  14.072 -0.2590  0.0045 -0.5048
 3055SOL    HW120801   1.689   4.651  14.164 -1.2825  0.1779 -0.7759
 3055SOL    HW220802   1.737   4.543  14.071 -0.9680 -0.2472  2.4343
 3056SOL     OW20803   0.373   1.558   0.671 -0.0533 -0.1434 -0.4151
 3056SOL    HW120804   0.465   1.569   0.693  0.6225  0.1871 -3.3873
 3056SOL    HW220805   0.369   1.472   0.629 -3.1684 -0.4235  0.4433
 3057SOL     OW20806   1.855   1.330   8.159 -0.7152  0.1574  0.7504
 3057SOL    HW120807   1.856   1.256   8.098 -0.4108 -0.8845  2.0235
 3057SOL    HW220808   1.850   1.290   8.246  1.4967  0.3314  0.9537
 3058SOL     OW20809   3.965   3.340  15.064 -0.2489 -0.0767 -0.0523
 3058SOL    HW120810   3.992   3.387  15.142 -1.7986  0.8726 -0.1050
 3058SOL    HW220811   3.910   3.411  15.030 -1.1732 -0.0760  1.4868
 3059SOL     OW20812   0.005   2.636   3.513 -0.5193  0.0764  0.1169
 3059SOL    HW120813   4.661   2.633   3.554 -0.6606 -1.0512 -0.2653
 3059SOL    HW220814   0.057   2.572   3.562 -0.6562 -0.0688  0.0713
 3060SOL     OW20815   0.976   1.038   3.124  0.3084 -0.9729 -0.1292
 3060SOL    HW120816   0.974   0.942   3.121 -1.0139 -0.9826  1.2259
 3060SOL    HW220817   0.882   1.052   3.116  0.4173  0.2249  0.6984
 3061SOL     OW20818   4.012   1.871  15.617 -0.6117  0.1189 -0.0973
 3061SOL    HW120819   4.090   1.869  15.673 -1.6813  0.2861  1.3873
 3061SOL    HW220820   3.992   1.964  15.627  3.1416  0.9980 -0.6758
 3062SOL     OW20821   1.822   1.223   8.416 -0.1654 -0.1596  0.3091
 3062SOL    HW120822   1.852   1.278   8.489  4.2770 -1.4805 -0.4952
 3062SOL    HW220823   1.742   1.181   8.446 -1.2375  1.0153 -0.9370
 3063SOL     OW20824   0.068   0.472   2.689 -0.3954 -0.1575 -0.3653
 3063SOL    HW120825   0.036   0.554   2.653 -1.0031  0.1874  1.0067
 3063SOL    HW220826   0.023   0.408   2.634 -0.4687  0.3149 -0.8515
 3064SOL     OW20827   3.162   0.751   2.578 -0.2419 -0.1113 -0.3550
 3064SOL    HW120828   3.237   0.795   2.538 -0.4743  1.4033  0.8570
 3064SOL    HW220829   3.184   0.777   2.668 -0.4340 -0.8246 -0.1057
 3065SOL     OW20830   2.224   3.045  14.345  0.1307 -0.5904  0.2457
 3065SOL    HW120831   2.176   3.079  14.270  2.6310  1.3749 -0.4690
 3065SOL    HW220832   2.245   2.955  14.320 -1.0907 -0.4874 -1.1752
 3066SOL     OW20833   4.179   4.312   1.854  0.0417  0.3210 -0.3799
 3066SOL    HW120834   4.173   4.403   1.825  0.5670  0.9537  1.5204
 3066SOL    HW220835   4.130   4.271   1.782 -1.3924  1.5713 -0.1171
 3067SOL     OW20836   0.884   3.322   6.875  0.3535 -0.2463 -0.1752
 3067SOL    HW120837   0.871   3.235   6.913  1.0807  0.6680  2.1864
 3067SOL    HW220838   0.827   3.322   6.798  0.1936  0.0945 -0.0556
 3068SOL     OW20839   0.816   3.379   2.570  0.4694  0.4622  0.3789
 3068SOL    HW120840   0.808   3.347   2.480 -2.1875  0.7997  0.4814
 3068SOL    HW220841   0.760   3.318   2.617  0.1247 -0.8808 -1.7851
 3069SOL     OW20842   3.992   1.863   0.708  0.5149  0.0407 -0.3895
 3069SOL    HW120843   3.985   1.948   0.665 -0.9015 -1.6417 -3.4955
 3069SOL    HW220844   3.913   1.824   0.670  0.1950  0.9778 -0.6838
 3070SOL     OW20845   0.662   1.594   5.971  0.1793 -0.0666  0.0176
 3070SOL    HW120846   0.686   1.539   5.897  0.8043 -0.3411  0.4308
 3070SOL    HW220847   0.731   1.561   6.028  1.1063  2.4782  0.3644
 3071SOL     OW20848   3.769   1.849   3.786 -0.2655  0.1872  0.3572
 3071SOL    HW120849   3.823   1.855   3.864  0.6040  0.5261 -0.2727
 3071SOL    HW220850   3.701   1.913   3.806 -1.9962 -1.5473  0.0314
 3072SOL     OW20851   2.018   1.632   9.524  0.2036 -0.4510  0.3074
 3072SOL    HW120852   2.062   1.555   9.489  2.1891  0.0362  1.7646
 3072SOL    HW220853   2.093   1.683   9.554  1.6352 -1.5564 -1.3769
 3073SOL     OW20854   0.910   2.215   4.016  0.5536  0.0051  0.5852
 3073SOL    HW120855   0.868   2.249   4.095 -1.8950  0.3932 -0.8822
 3073SOL    HW220856   0.883   2.123   4.018  1.2412 -0.2385 -0.7056
 3074SOL     OW20857   3.513   0.543   7.963  0.1444 -0.6220 -0.6502
 3074SOL    HW120858   3.448   0.561   8.031  0.5529  0.9038 -0.6688
 3074SOL    HW220859   3.542   0.634   7.965 -0.4014 -0.4963  1.9076
 3075SOL     OW20860   3.764   4.082   1.598 -0.1210 -0.2618  0.8533
 3075SOL    HW120861   3.775   4.170   1.560  0.0393 -0.4119  0.5479
 3075SOL    HW220862   3.669   4.074   1.597  0.0743 -2.4075 -1.6042
 3076SOL     OW20863   1.685   1.710   2.712 -0.0134 -0.1237  0.8660
 3076SOL    HW120864   1.686   1.614   2.712 -0.6731 -0.1367  2.0830
 3076SOL    HW220865   1.771   1.726   2.673 -0.6219  0.5790 -0.1606
 3077SOL     OW20866   2.838   1.537   9.064  0.4898 -0.3053  0.4193
 3077SOL    HW120867   2.881   1.527   8.979  1.9656 -1.4263  1.2926
 3077SOL    HW220868   2.911   1.512   9.120 -1.0185  0.0649  2.5539
 3078SOL     OW20869   4.676   2.026   4.044 -0.4695  0.6409 -0.2647
 3078SOL    HW120870   4.694   2.079   3.967 -2.2109 -0.5397 -1.4720
 3078SOL    HW220871   4.654   1.939   4.010  0.5547  0.5781 -0.7512
 3079SOL     OW20872   0.822   2.901   3.058 -0.0940 -0.2222  0.2512
 3079SOL    HW120873   0.733   2.872   3.035  1.0967 -1.2880 -3.0770
 3079SOL    HW220874   0.857   2.819   3.094  3.3427  0.6999 -1.0510
 3080SOL     OW20875   0.065   1.608  11.110 -0.1195 -0.6223  0.1341
 3080SOL    HW120876   0.022   1.589  11.194 -0.7486 -0.5121 -0.1639
 3080SOL    HW220877   4.729   1.635  11.061  1.0063  1.0620 -0.7375
 3081SOL     OW20878   1.272   0.822   4.092  0.1016  0.0683 -0.2304
 3081SOL    HW120879   1.255   0.728   4.095  0.0908  0.1245  1.4722
 3081SOL    HW220880   1.356   0.834   4.135  0.5802 -1.8147 -0.6205
 3082SOL     OW20881   4.043   4.149   1.677 -0.2468  0.4479  0.1865
 3082SOL    HW120882   4.084   4.065   1.659 -0.9800 -0.4724  2.9321
 3082SOL    HW220883   3.958   4.117   1.708  1.5690 -2.6147  1.9579
 3083SOL     OW20884   2.827   3.059  11.359  0.3823 -0.2047 -0.1225
 3083SOL    HW120885   2.887   3.123  11.319 -1.3611  1.2912 -0.3551
 3083SOL    HW220886   2.791   3.019  11.280 -1.4587 -0.2628  0.7595
 3084SOL     OW20887   3.171   0.796  13.077 -0.2837 -0.3200  0.3040
 3084SOL    HW120888   3.080   0.776  13.100 -0.9664  0.6614 -1.4944
 3084SOL    HW220889   3.174   0.863  13.008 -1.2427 -0.4025  0.1791
 3085SOL     OW20890   0.652   3.931   7.243 -0.1229  0.2090 -0.2721
 3085SOL    HW120891   0.671   3.855   7.189  1.5288 -0.9428  1.9295
 3085SOL    HW220892   0.676   3.900   7.331  1.5877 -0.4720 -0.9772
 3086SOL     OW20893   0.532   3.667  15.710 -0.0857  0.3884  0.8159
 3086SOL    HW120894   0.479   3.711  15.643  0.9765  1.3942  0.6402
 3086SOL    HW220895   0.461   3.647  15.772 -0.1295 -1.9761 -0.0017
 3087SOL     OW20896   4.717   4.468   1.375  0.4555 -0.2015  0.1433
 3087SOL    HW120897   4.655   4.395   1.376  0.2161 -0.0094 -1.5837
 3087SOL    HW220898   0.027   4.457   1.455  1.2828  0.2878 -0.3256
 3088SOL     OW20899   4.698   0.493  14.735  0.0653 -0.1221  0.0586
 3088SOL    HW120900   4.660   0.453  14.813 -0.3402  0.0456 -0.0556
 3088SOL    HW220901   0.046   0.493  14.767  0.4237 -0.4999 -0.9363
 3089SOL     OW20902   2.442   3.133  16.855 -0.1373  0.1047 -0.0446
 3089SOL    HW120903   2.483   3.133  16.941 -0.0855 -0.2723 -0.0691
 3089SOL    HW220904   2.495   3.201  16.813  0.7374  0.5794  1.8142
 3090SOL     OW20905   3.169   0.980   5.600  0.4718  0.2467 -0.7122
 3090SOL    HW120906   3.200   0.896   5.566  0.9605  0.3477 -0.5247
 3090SOL    HW220907   3.207   0.972   5.688  0.1803 -1.3074 -0.7266
 3091SOL     OW20908   0.552   3.729  15.328 -0.1306  0.0934  0.7896
 3091SOL    HW120909   0.618   3.764  15.387 -1.4085  1.2269  1.5534
 3091SOL    HW220910   0.470   3.749  15.374 -0.5768 -1.3225  0.6148
 3092SOL     OW20911   1.926   2.441  17.323  0.2780 -0.4519  0.3009
 3092SOL    HW120912   1.868   2.368  17.343 -1.0844  0.7022  0.5189
 3092SOL    HW220913   1.908   2.500  17.396 -0.7242 -1.2201  0.6659
 3093SOL     OW20914   0.661   1.422   8.490  0.5587  0.3606 -0.2511
 3093SOL    HW120915   0.592   1.431   8.424 -0.1027  1.7063  0.6375
 3093SOL    HW220916   0.684   1.330   8.477 -0.1953 -0.1465  1.9990
 3094SOL     OW20917   2.427   2.098  10.807 -0.3469  0.6132  0.2885
 3094SOL    HW120918   2.510   2.145  10.805  0.9115 -1.6959 -1.8221
 3094SOL    HW220919   2.468   2.012  10.799 -0.1041  0.7943 -0.3776
 3095SOL     OW20920   2.703   2.761   8.589  0.6189  0.3877  0.0039
 3095SOL    HW120921   2.719   2.713   8.670  1.9306 -3.2020 -2.3765
 3095SOL    HW220922   2.739   2.842   8.624  2.5089  0.3696 -1.9448
 3096SOL     OW20923   1.220   2.121   1.672 -0.1709  0.2968  0.2501
 3096SOL    HW120924   1.127   2.096   1.669  0.0407 -0.6475  1.8283
 3096SOL    HW220925   1.263   2.069   1.604 -2.1312 -0.5403 -0.3560
 3097SOL     OW20926   1.137   3.014   3.979 -0.7862  0.3096  0.2175
 3097SOL    HW120927   1.142   3.099   3.935  1.8666  1.3190  2.5128
 3097SOL    HW220928   1.059   2.977   3.937 -0.1779 -0.6007 -0.1044
 3098SOL     OW20929   1.387   3.477   1.703 -0.2745  0.4789 -0.0687
 3098SOL    HW120930   1.297   3.502   1.724  0.3680  2.1515  0.7207
 3098SOL    HW220931   1.395   3.385   1.729 -3.3895  0.1928 -0.1487
 3099SOL     OW20932   0.537   2.026   5.297 -0.5822 -0.3641 -0.0941
 3099SOL    HW120933   0.442   2.014   5.296 -0.7428  0.9161 -0.9275
 3099SOL    HW220934   0.546   2.068   5.211 -0.8778 -0.2642 -0.0783
 3100SOL     OW20935   2.694   0.685   4.832  0.6277  0.3180  0.1097
 3100SOL    HW120936   2.679   0.598   4.796 -0.7241 -0.1612  1.8160
 3100SOL    HW220937   2.780   0.703   4.796  0.8549 -2.5240 -0.7616
 3101SOL     OW20938   4.557   1.831   5.806  0.1260 -0.0526  0.5358
 3101SOL    HW120939   4.561   1.886   5.884 -1.8585  0.1435  0.5144
 3101SOL    HW220940   4.484   1.773   5.827  0.5415 -1.4191 -1.8225
 3102SOL     OW20941   4.640   2.770   7.799 -0.3145  0.6247  1.0310
 3102SOL    HW120942   4.726   2.802   7.825  1.3038 -0.7258 -2.6256
 3102SOL    HW220943   4.620   2.713   7.873 -2.6039 -0.3032 -0.2909
 3103SOL     OW20944   3.368   2.501   4.570  0.2332 -0.3390 -0.1188
 3103SOL    HW120945   3.350   2.594   4.553  0.6833 -0.1758  0.3000
 3103SOL    HW220946   3.277   2.476   4.552  0.6422 -0.9348 -1.3625
 3104SOL     OW20947   3.636   1.289   8.377 -0.0157  0.0745 -0.6191
 3104SOL    HW120948   3.555   1.243   8.356  1.3227 -1.9073 -1.4832
 3104SOL    HW220949   3.600   1.373   8.350 -1.7727 -0.2261  0.8346
 3105SOL     OW20950   4.610   3.474   5.496  0.1369  0.2225 -0.0615
 3105SOL    HW120951   4.568   3.558   5.514 -1.8202 -1.0755  1.5328
 3105SOL    HW220952   4.568   3.427   5.568  2.7670 -1.9642  0.0433
 3106SOL     OW20953   3.865   3.548   4.390 -0.0431  0.2848  0.3538
 3106SOL    HW120954   3.927   3.562   4.319  1.4059 -1.1524  1.3224
 3106SOL    HW220955   3.912   3.487   4.448  1.5038 -2.5620 -3.8889
 3107SOL     OW20956   0.557   4.738   6.245  0.2079 -0.3526 -0.3838
 3107SOL    HW120957   0.482   0.035   6.290  1.2524 -0.4119  1.4528
 3107SOL    HW220958   0.635   0.020   6.296  0.1151  1.0119 -0.8962
 3108SOL     OW20959   2.605   3.900   5.863 -0.1914  0.5456  0.6799
 3108SOL    HW120960   2.627   3.827   5.805 -1.4725  1.2950 -0.7652
 3108SOL    HW220961   2.571   3.971   5.808 -1.9306 -0.4289  0.4921
 3109SOL     OW20962   3.001   4.473   1.952 -0.3139  0.0082  0.1760
 3109SOL    HW120963   3.031   4.418   1.879 -2.0669 -1.1502  0.3135
 3109SOL    HW220964   3.044   4.443   2.032 -1.4939 -1.1680  0.3721
 3110SOL     OW20965   0.138   2.170   7.756  0.1424 -0.5863  0.1401
 3110SOL    HW120966   0.182   2.200   7.676 -0.1305  1.1407  0.6316
 3110SOL    HW220967   0.215   2.162   7.813  0.8246  0.7554 -0.5908
 3111SOL     OW20968   1.336   2.243  17.409 -0.6163  0.3209 -0.3200
 3111SOL    HW120969   1.378   2.314  17.360 -0.5471  1.1022  0.8797
 3111SOL    HW220970   1.244   2.260  17.392 -0.5770  1.9577  1.0385
 3112SOL     OW20971   3.725   1.622   7.262  0.0730  0.5385 -0.1774
 3112SOL    HW120972   3.777   1.542   7.250 -1.1435 -0.8447  3.9655
 3112SOL    HW220973   3.789   1.682   7.299 -1.8446  2.4658 -0.0155
 3113SOL     OW20974   1.404   4.243  10.941  0.0962 -0.6250 -0.5105
 3113SOL    HW120975   1.498   4.263  10.949 -0.5428  1.8570  1.0697
 3113SOL    HW220976   1.366   4.288  11.016  0.5204 -1.3067  0.1159
 3114SOL     OW20977   0.184   2.226   2.372 -0.0970  0.2428 -0.0271
 3114SOL    HW120978   0.194   2.316   2.339 -1.7504  0.4088 -0.0670
 3114SOL    HW220979   0.221   2.221   2.460  0.6838  0.4228 -0.3461
 3115SOL     OW20980   2.055   3.893   6.763  0.3892  0.0586 -0.2864
 3115SOL    HW120981   2.094   3.902   6.850  1.3146  2.5423 -0.9470
 3115SOL    HW220982   2.055   3.799   6.743 -1.8434 -0.4668  2.2311
 3116SOL     OW20983   4.353   3.800  12.353 -0.7800  0.3678  0.4528
 3116SOL    HW120984   4.286   3.846  12.403 -1.4412 -0.8539  0.6732
 3116SOL    HW220985   4.424   3.865  12.356 -0.5352  0.0043  2.2447
 3117SOL     OW20986   1.228   2.341   7.939  0.1790  0.6955 -0.3394
 3117SOL    HW120987   1.173   2.263   7.952  1.5352  0.3437  3.0853
 3117SOL    HW220988   1.311   2.304   7.968 -0.2113  0.4240  0.4270
 3118SOL     OW20989   1.139   0.567   4.158  0.1312  0.2037  0.0348
 3118SOL    HW120990   1.054   0.597   4.192 -0.1021 -1.6069  1.0500
 3118SOL    HW220991   1.173   0.512   4.228 -1.1318 -0.7952 -0.1369
 3119SOL     OW20992   3.125   1.700   9.732 -0.2132  0.3970 -0.1868
 3119SOL    HW120993   3.201   1.756   9.716  0.8297 -0.6287  1.1499
 3119SOL    HW220994   3.157   1.610   9.725  0.7983  0.6188  1.5582
 3120SOL     OW20995   2.262   0.041  11.767  0.0120 -0.1594 -0.1818
 3120SOL    HW120996   2.277   0.080  11.854 -0.0632  0.4048 -0.4210
 3120SOL    HW220997   2.198   4.715  11.789 -0.3842  0.4769  0.6340
 3121SOL     OW20998   4.624   2.493  15.406  0.0225 -0.1059 -0.4698
 3121SOL    HW120999   4.573   2.567  15.438  0.1326 -0.4667  0.5388
 3121SOL    HW221000   4.594   2.424  15.466 -0.1963 -1.0300 -1.6428
 3122SOL     OW21001   2.020   3.577   3.177 -0.7463  1.0543  0.0206
 3122SOL    HW121002   2.029   3.670   3.196  0.2180  0.9933 -0.1266
 3122SOL    HW221003   1.931   3.555   3.205 -0.2507 -0.5938  0.2996
 3123SOL     OW21004   3.660   1.624   2.326 -0.2407 -0.2369  0.0256
 3123SOL    HW121005   3.744   1.643   2.284 -0.0895  1.7834  1.2583
 3123SOL    HW221006   3.655   1.528   2.335  1.0095 -0.0942  2.3427
 3124SOL     OW21007   2.251   3.417   7.318 -0.1402  0.0407  0.1313
 3124SOL    HW121008   2.163   3.443   7.293  0.3937 -0.1081 -1.8775
 3124SOL    HW221009   2.229   3.363   7.395  1.7736 -1.5002 -0.4065
 3125SOL     OW21010   0.209   3.985   9.155 -0.3226 -0.4848  0.0053
 3125SOL    HW121011   0.298   3.963   9.181 -0.4641 -0.4418  0.5300
 3125SOL    HW221012   0.214   4.048   9.082 -1.4631 -0.8074 -0.3519
 3126SOL     OW21013   0.119   0.896   5.072 -0.2304  0.5731  0.4782
 3126SOL    HW121014   0.044   0.893   5.130  0.3018 -0.1522  1.1315
 3126SOL    HW221015   0.191   0.932   5.125  0.3453 -1.7789  1.3245
 3127SOL     OW21016   0.875   1.775   6.665 -0.1170 -0.4456  0.0258
 3127SOL    HW121017   0.844   1.772   6.574 -2.7441  0.8770  0.8708
 3127SOL    HW221018   0.965   1.744   6.660  0.0309 -0.0847  0.4813
 3128SOL     OW21019   1.453   3.328  14.613 -0.2170  0.3641  0.1901
 3128SOL    HW121020   1.396   3.405  14.608 -1.0538 -0.3951 -1.8483
 3128SOL    HW221021   1.460   3.301  14.704  3.9139 -0.2458 -0.3014
 3129SOL     OW21022   2.933   1.638   6.159 -0.3532  0.2314  0.1501
 3129SOL    HW121023   3.026   1.658   6.173 -0.3494 -0.7806  1.5279
 3129SOL    HW221024   2.906   1.716   6.110  1.6093 -0.1641 -1.5979
 3130SOL     OW21025   1.241   1.000   6.941 -0.6537  0.4245 -0.3165
 3130SOL    HW121026   1.241   0.936   7.012  0.1908 -1.7348 -2.2980
 3130SOL    HW221027   1.199   1.078   6.977 -1.6512 -0.0450 -0.4831
 3131SOL     OW21028   3.103   0.171   6.750 -0.2271  0.2751 -0.3334
 3131SOL    HW121029   3.189   0.162   6.792 -0.3114  0.7492 -0.0603
 3131SOL    HW221030   3.049   0.120   6.811  1.9161 -0.8139  0.6727
 3132SOL     OW21031   0.089   3.762   9.086 -0.2414 -0.3094 -0.0741
 3132SOL    HW121032   0.112   3.772   8.993 -0.3640 -2.0652 -0.2923
 3132SOL    HW221033   0.141   3.835   9.120  0.3950 -0.3526 -0.9500
 3133SOL     OW21034   1.487   3.748  16.880  0.4494  0.0224 -0.0605
 3133SOL    HW121035   1.491   3.760  16.975  2.1864  0.8281 -0.2323
 3133SOL    HW221036   1.573   3.785  16.859 -0.2213  0.4993 -1.9490
 3134SOL     OW21037   3.916   2.107   2.805  0.2370 -0.8820 -0.8349
 3134SOL    HW121038   3.955   2.145   2.727 -2.4181  2.3008 -0.5836
 3134SOL    HW221039   3.839   2.066   2.766 -0.1238  0.3829 -1.4445
 3135SOL     OW21040   0.920   4.369   5.195  0.4003  0.3028 -0.0345
 3135SOL    HW121041   1.012   4.370   5.170  0.3809  1.0594 -0.0648
 3135SOL    HW221042   0.911   4.463   5.206  0.4263  0.5382 -2.2315
 3136SOL     OW21043   1.082   0.101   9.467 -0.3039  0.0207  0.3721
 3136SOL    HW121044   1.007   0.093   9.527  0.9163  2.1076  2.1908
 3136SOL    HW221045   1.100   0.195   9.475 -2.9339  0.4570  1.3087
 3137SOL     OW21046   3.572   3.723  12.796  0.2840  0.0851  0.0751
 3137SOL    HW121047   3.516   3.791  12.760 -0.8621  0.3081  2.2748
 3137SOL    HW221048   3.587   3.770  12.878  0.9244  0.7244 -0.4142
 3138SOL     OW21049   0.011   3.186   2.307 -0.3268 -0.3340  0.3359
 3138SOL    HW121050   4.742   3.204   2.400  0.0620  1.3353  0.0605
 3138SOL    HW221051   4.736   3.092   2.297  0.9064 -0.4265 -0.9595
 3139SOL     OW21052   2.675   0.261   9.065 -0.2262 -0.2422 -0.0577
 3139SOL    HW121053   2.682   0.275   9.160  1.9753 -0.4983 -0.1768
 3139SOL    HW221054   2.637   0.173   9.067 -1.1639  0.1998  2.4737
 3140SOL     OW21055   0.128   1.344   9.605  0.3432  0.6424 -0.5230
 3140SOL    HW121056   0.065   1.397   9.654 -0.4183 -0.1888 -0.6098
 3140SOL    HW221057   0.148   1.281   9.674 -1.0418  0.8602  0.0920
 3141SOL     OW21058   0.286   1.502   4.392 -0.4234 -0.5033  0.8071
 3141SOL    HW121059   0.280   1.415   4.354 -0.1567 -1.0237  1.9802
 3141SOL    HW221060   0.352   1.489   4.460  2.1131 -2.7985 -2.1326
 3142SOL     OW21061   4.706   3.170   9.026 -0.1979  0.1391 -0.1500
 3142SOL    HW121062   4.690   3.076   9.020 -1.3412  0.2278  1.5708
 3142SOL    HW221063   4.690   3.199   8.936  1.4473  0.6778 -0.2685
 3143SOL     OW21064   1.353   2.445   9.130 -0.3271  0.0374  0.3568
 3143SOL    HW121065   1.341   2.540   9.120  1.3833  0.3953  1.5760
 3143SOL    HW221066   1.285   2.413   9.071  1.1348 -3.1155  0.4357
 3144SOL     OW21067   3.721   1.702   9.458  0.3352  0.2105  0.0933
 3144SOL    HW121068   3.816   1.702   9.443  0.1993 -2.1028 -0.8020
 3144SOL    HW221069   3.716   1.761   9.533  1.0350  0.3245  0.0546
 3145SOL     OW21070   3.982   0.786   8.488 -0.3932 -0.4881 -0.4113
 3145SOL    HW121071   3.946   0.851   8.428  1.4141 -0.7676 -1.7945
 3145SOL    HW221072   3.908   0.725   8.489 -0.9710  0.2086 -1.0831
 3146SOL     OW21073   1.004   4.559   3.021  0.2157  0.5337  0.0227
 3146SOL    HW121074   0.979   4.562   2.929  0.0278  1.3050  0.0999
 3146SOL    HW221075   0.971   4.643   3.054  0.8523  0.2389  1.4126
 3147SOL     OW21076   1.970   1.557   3.782  0.0138  0.6726 -0.0691
 3147SOL    HW121077   1.994   1.636   3.733  0.0341  0.4241 -0.4571
 3147SOL    HW221078   1.964   1.585   3.874  0.5069  0.9311 -0.1146
 3148SOL     OW21079   1.754   0.065   6.173 -0.0138 -0.5941 -0.5913
 3148SOL    HW121080   1.788   0.028   6.092 -0.2827 -0.0720 -0.9434
 3148SOL    HW221081   1.666   0.092   6.147 -0.1758 -0.2430  0.2957
 3149SOL     OW21082   1.193   3.393   6.497 -0.3998 -0.0149 -0.8954
 3149SOL    HW121083   1.191   3.476   6.546  0.5596 -0.2884 -0.3870
 3149SOL    HW221084   1.108   3.393   6.453 -0.7216  4.1700 -0.2224
 3150SOL     OW21085   0.470   1.343  15.601  0.2180 -0.0653 -0.0951
 3150SOL    HW121086   0.499   1.275  15.540  3.0620 -1.2691  2.6177
 3150SOL    HW221087   0.506   1.422  15.561 -1.3902 -0.0212 -1.4282
 3151SOL     OW21088   0.606   4.518   4.986 -0.0305  0.0203 -0.0668
 3151SOL    HW121089   0.532   4.476   4.944 -0.1807  0.9479 -0.7253
 3151SOL    HW221090   0.664   4.444   4.974  0.0928  0.2870 -1.0993
 3152SOL     OW21091   2.978   0.383  12.857 -0.1325 -0.1710  0.1747
 3152SOL    HW121092   2.965   0.310  12.918 -3.5195 -0.5136 -0.9763
 3152SOL    HW221093   3.064   0.351  12.828 -0.0668  0.2670 -0.1036
 3153SOL     OW21094   2.781   1.237   5.137  0.3009  0.7466  0.0442
 3153SOL    HW121095   2.876   1.240   5.131  0.1786  3.6675 -0.4910
 3153SOL    HW221096   2.763   1.243   5.231 -2.5120  2.5285 -0.5849
 3154SOL     OW21097   3.999   0.223   2.933 -0.2525 -0.4712 -0.2189
 3154SOL    HW121098   4.094   0.219   2.942 -0.3411  0.4855  1.2038
 3154SOL    HW221099   3.989   0.297   2.993  0.4297 -0.5540 -0.0068
 3155SOL     OW21100   4.676   4.195  14.489 -0.2462  0.0127 -0.4522
 3155SOL    HW121101   0.005   4.156  14.438  2.9552  2.5880  1.9806
 3155SOL    HW221102   4.730   4.264  14.529  0.3365 -0.7770  0.1076
 3156SOL     OW21103   2.224   3.096   3.426  0.1548  0.0421 -0.2144
 3156SOL    HW121104   2.194   3.152   3.355 -1.6000  0.2138  0.6695
 3156SOL    HW221105   2.239   3.015   3.378 -0.8738  0.2763 -0.9274
 3157SOL     OW21106   1.827   4.064   1.527  0.1083 -0.4012  0.4746
 3157SOL    HW121107   1.909   4.111   1.516  1.0402 -3.1183 -4.0278
 3157SOL    HW221108   1.861   3.985   1.569  1.7095 -0.8757 -1.7362
 3158SOL     OW21109   3.367   0.880   6.948  0.1417 -0.1038  0.9778
 3158SOL    HW121110   3.441   0.844   6.997 -0.9633 -2.4903  0.8568
 3158SOL    HW221111   3.419   0.935   6.891  1.2880 -0.7543  1.4101
 3159SOL     OW21112   3.284   1.778   7.053 -0.2088 -0.0220  0.6369
 3159SOL    HW121113   3.371   1.761   7.018 -0.4030  1.4613 -0.5895
 3159SOL    HW221114   3.271   1.695   7.099 -0.9593  0.9331  2.1552
 3160SOL     OW21115   3.556   1.844   7.896 -0.3189  0.1156 -0.1614
 3160SOL    HW121116   3.475   1.834   7.845  1.0814 -1.9968 -1.9512
 3160SOL    HW221117   3.619   1.862   7.826 -1.8036  2.4667 -0.9315
 3161SOL     OW21118   2.721   0.268   2.473 -0.2682 -0.5110 -0.2289
 3161SOL    HW121119   2.752   0.303   2.389 -2.6049 -2.4583 -1.9135
 3161SOL    HW221120   2.793   0.289   2.533 -2.3990  0.1368  2.0683
 3162SOL     OW21121   3.434   3.799  11.998  0.1980  0.3408  0.0453
 3162SOL    HW121122   3.394   3.884  11.978  1.5451  1.0518  0.3362
 3162SOL    HW221123   3.374   3.760  12.061 -2.3520 -0.3219 -2.8296
 3163SOL     OW21124   2.842   3.750  17.376  0.0768  0.4643  0.1584
 3163SOL    HW121125   2.752   3.733  17.405  0.1515 -1.1563 -0.5422
 3163SOL    HW221126   2.844   3.840  17.346 -0.4536 -0.0552 -1.4136
 3164SOL     OW21127   2.951   2.569   3.561  0.2053  0.9513 -0.0539
 3164SOL    HW121128   2.888   2.540   3.627 -0.5354 -0.3784 -1.3479
 3164SOL    HW221129   2.921   2.518   3.486  2.2893  0.7664 -0.7817
 3165SOL     OW21130   0.214   2.929  15.970 -0.1511 -0.1963  0.6079
 3165SOL    HW121131   0.258   2.965  15.893 -0.7396  1.9675  1.3020
 3165SOL    HW221132   0.140   2.880  15.933 -0.5379 -0.4849  1.7751
 3166SOL     OW21133   3.315   3.757   6.326 -0.0844  0.3360 -0.3066
 3166SOL    HW121134   3.294   3.832   6.270 -2.2314  0.7223  1.0292
 3166SOL    HW221135   3.292   3.799   6.408 -0.4325 -0.0565 -0.2041
 3167SOL     OW21136   4.024   2.726  16.239 -0.4261 -0.8571 -0.5643
 3167SOL    HW121137   3.938   2.686  16.225 -0.3951 -0.5793 -1.5039
 3167SOL    HW221138   4.028   2.784  16.163 -2.1880 -1.3041 -1.0103
 3168SOL     OW21139   1.724   2.317   7.177  0.0572  0.3684 -0.4033
 3168SOL    HW121140   1.799   2.275   7.133 -0.7722 -1.2604 -0.2779
 3168SOL    HW221141   1.766   2.363   7.249 -1.6796  0.6408  0.4238
 3169SOL     OW21142   3.985   1.037   0.524  0.5478 -0.1285  0.0805
 3169SOL    HW121143   4.068   1.063   0.565  0.7493  2.8560 -2.1813
 3169SOL    HW221144   3.951   1.125   0.513 -0.8811 -0.6410  0.5035
 3170SOL     OW21145   2.979   0.148   0.691 -0.2473  0.5337 -0.1963
 3170SOL    HW121146   2.996   0.093   0.615  2.6191 -0.9007  1.4918
 3170SOL    HW221147   2.884   0.150   0.691 -0.2115  2.6598  2.5002
 3171SOL     OW21148   3.614   3.692   9.056 -0.2624  0.1867  0.2310
 3171SOL    HW121149   3.629   3.607   9.096 -2.2088  0.3235  1.2802
 3171SOL    HW221150   3.646   3.748   9.126  1.1595  0.6638 -0.8053
 3172SOL     OW21151   3.856   0.463  16.734  0.1889  0.0466  0.4763
 3172SOL    HW121152   3.943   0.473  16.772  0.3853  1.8870 -0.4416
 3172SOL    HW221153   3.856   0.541  16.678 -0.5468 -1.2275 -1.3236
 3173SOL     OW21154   2.454   3.811   9.356  0.2759  0.1167  0.2555
 3173SOL    HW121155   2.444   3.850   9.443  0.1289  2.4830 -0.8263
 3173SOL    HW221156   2.366   3.774   9.356 -0.2676  1.4072 -2.3177
 3174SOL     OW21157   0.862   1.491   8.273  0.3868  0.9791 -0.3053
 3174SOL    HW121158   0.822   1.499   8.359 -1.3720 -1.5471 -0.9088
 3174SOL    HW221159   0.896   1.577   8.248 -0.7125  1.1126 -1.2981
 3175SOL     OW21160   4.707   4.469  14.557 -0.5658 -0.0783  0.3256
 3175SOL    HW121161   4.612   4.457  14.567 -0.8185  0.7558 -1.0702
 3175SOL    HW221162   4.718   4.555  14.596 -0.5585  0.6700 -1.3284
 3176SOL     OW21163   3.376   3.419   6.605  0.0627 -1.0642 -0.2188
 3176SOL    HW121164   3.414   3.335   6.633  1.0726 -0.5260  0.0169
 3176SOL    HW221165   3.438   3.487   6.630  0.7946 -0.8768 -2.5904
 3177SOL     OW21166   2.970   1.418   6.412  0.1382 -0.3055  0.0948
 3177SOL    HW121167   2.954   1.343   6.470 -1.0299 -1.6931 -2.0421
 3177SOL    HW221168   3.061   1.399   6.389 -0.5681 -3.3279 -0.3022
 3178SOL     OW21169   0.889   3.817   4.956 -0.1760  0.0155 -0.5441
 3178SOL    HW121170   0.945   3.793   5.030 -1.0126 -1.6324 -0.4401
 3178SOL    HW221171   0.914   3.757   4.885 -2.3459 -0.9823 -0.4738
 3179SOL     OW21172   1.319   1.553   7.252  0.1075 -0.1413 -0.0118
 3179SOL    HW121173   1.386   1.605   7.296 -0.4417  1.2706 -0.8681
 3179SOL    HW221174   1.318   1.471   7.303 -0.5267 -0.5281 -0.6434
 3180SOL     OW21175   0.126   2.910   4.598 -0.5758 -0.3057  0.4217
 3180SOL    HW121176   0.123   2.942   4.688 -3.3022 -0.7737  0.4998
 3180SOL    HW221177   0.032   2.895   4.586 -0.5842  0.1653 -0.1009
 3181SOL     OW21178   4.006   1.431   8.280  0.1701 -0.2976  0.5628
 3181SOL    HW121179   3.991   1.370   8.208  1.0532  1.8237 -1.4334
 3181SOL    HW221180   4.014   1.511   8.228  0.3532 -0.7724 -0.1412
 3182SOL     OW21181   4.005   4.162   2.591  0.4190  0.5314  0.0032
 3182SOL    HW121182   3.967   4.230   2.647 -2.5647 -0.5611 -0.7159
 3182SOL    HW221183   3.936   4.165   2.526  0.4566  0.0814 -0.0535
 3183SOL     OW21184   0.901   1.348   5.398  0.3308  0.2236  0.6008
 3183SOL    HW121185   0.960   1.420   5.422  1.6550 -0.0471 -1.8047
 3183SOL    HW221186   0.820   1.360   5.447  1.1931  1.0042  1.8365
 3184SOL     OW21187   4.338   4.519   3.273 -0.3753  0.3284  0.6433
 3184SOL    HW121188   4.381   4.505   3.189 -1.6685 -2.1019  0.3840
 3184SOL    HW221189   4.390   4.456   3.322 -0.7538 -0.6174 -0.1783
 3185SOL     OW21190   1.783   2.126   4.621  0.2739 -0.1103  0.1400
 3185SOL    HW121191   1.821   2.152   4.537 -1.4203  2.5653  0.2049
 3185SOL    HW221192   1.809   2.034   4.628 -0.1659 -0.2897 -0.5673
 3186SOL     OW21193   2.619   1.105   1.993  0.2385  0.2464 -0.8359
 3186SOL    HW121194   2.575   1.071   2.071  2.0198 -2.0100 -0.8118
 3186SOL    HW221195   2.545   1.125   1.936  0.5455  0.4465 -1.1575
 3187SOL     OW21196   4.157   2.482   1.488  0.4636 -0.5679 -0.5079
 3187SOL    HW121197   4.190   2.433   1.413  0.4136 -0.6672 -0.4658
 3187SOL    HW221198   4.063   2.491   1.473  0.4111  1.9733  1.4589
 3188SOL     OW21199   0.285   3.150   3.649  0.2896  0.2115  0.2686
 3188SOL    HW121200   0.364   3.137   3.700 -0.3404  0.0944  1.2119
 3188SOL    HW221201   0.235   3.077   3.684 -1.0916  0.8257 -0.4013
 3189SOL     OW21202   3.360   2.662   3.552  0.1331  0.4182 -0.3027
 3189SOL    HW121203   3.423   2.593   3.574 -0.6608 -0.3116 -0.2987
 3189SOL    HW221204   3.292   2.651   3.619 -0.5294 -1.1379 -1.2341
 3190SOL     OW21205   4.291   0.150   8.428 -0.6299  0.1379  0.2517
 3190SOL    HW121206   4.245   0.073   8.395  0.5511 -1.1915  1.6739
 3190SOL    HW221207   4.305   0.187   8.341  1.1189 -1.1713 -0.0281
 3191SOL     OW21208   2.931   3.734   7.403  0.1737  0.0596  0.1298
 3191SOL    HW121209   2.836   3.739   7.414  0.0254  1.7737 -1.8548
 3191SOL    HW221210   2.957   3.734   7.495  0.5386 -0.5589  0.0228
 3192SOL     OW21211   4.353   0.097   5.611  0.3726  0.7767  0.4428
 3192SOL    HW121212   4.332   0.037   5.540  2.1094  0.7798 -0.0846
 3192SOL    HW221213   4.412   0.048   5.668 -1.8930  1.3200  3.2500
 3193SOL     OW21214   4.116   4.320   9.172  0.2578  0.3350  0.4382
 3193SOL    HW121215   4.043   4.382   9.178 -0.4280 -0.7012  3.0457
 3193SOL    HW221216   4.131   4.309   9.078 -1.0488 -1.1984  0.4019
 3194SOL     OW21217   1.289   3.363   9.539 -0.0995 -0.1652  0.4469
 3194SOL    HW121218   1.356   3.299   9.512 -1.2070 -0.4752 -1.5612
 3194SOL    HW221219   1.210   3.311   9.528  0.2182 -0.1527 -1.8902
 3195SOL     OW21220   3.434   4.599  10.122  0.2909 -0.1800 -0.2768
 3195SOL    HW121221   3.344   4.612  10.151  0.2470 -0.1064 -0.4485
 3195SOL    HW221222   3.466   4.623  10.209  0.0229  0.2719 -0.3043
 3196SOL     OW21223   1.231   2.904   2.859  0.0272  0.1289 -0.1240
 3196SOL    HW121224   1.152   2.886   2.808 -0.5114  1.5452  0.2023
 3196SOL    HW221225   1.266   2.817   2.876  0.6380  0.1234 -1.4948
 3197SOL     OW21226   2.258   0.451  15.812 -0.3418 -0.0255  0.2203
 3197SOL    HW121227   2.183   0.423  15.865  0.7221 -3.5952 -0.1324
 3197SOL    HW221228   2.250   0.545  15.829  1.7710 -0.0866  1.4761
 3198SOL     OW21229   2.843   2.615  14.960 -0.0161 -0.1582  0.4190
 3198SOL    HW121230   2.765   2.668  14.977  0.8052  1.2474 -0.2278
 3198SOL    HW221231   2.894   2.679  14.910 -0.8381  2.5649  3.1175
 3199SOL     OW21232   1.812   0.261  13.410 -0.8902 -0.0834 -0.3509
 3199SOL    HW121233   1.800   0.348  13.373  0.6669  0.8392  1.2948
 3199SOL    HW221234   1.737   0.247  13.468 -1.6061  3.4464 -0.4723
 3200SOL     OW21235   3.614   1.309   6.159  0.3849  0.0543 -0.0323
 3200SOL    HW121236   3.697   1.344   6.191 -0.9412  1.0738  2.2574
 3200SOL    HW221237   3.607   1.340   6.069  0.5773  2.0756  0.6376
 3201SOL     OW21238   4.622   2.085  15.733 -0.4196 -0.8338  0.4095
 3201SOL    HW121239   4.600   2.060  15.822  0.6420  0.8703  1.1465
 3201SOL    HW221240   4.712   2.055  15.720 -0.0540  1.2659 -2.0971
 3202SOL     OW21241   3.328   4.601   2.084  0.8661 -0.2066 -0.3773
 3202SOL    HW121242   3.271   4.570   2.154  0.7398 -0.3188 -0.5295
 3202SOL    HW221243   3.368   4.682   2.117 -0.7341  1.1308 -1.7117
 3203SOL     OW21244   2.849   1.586   8.172  0.0005  0.3522  0.2520
 3203SOL    HW121245   2.856   1.637   8.253  3.5683 -2.1210  1.4870
 3203SOL    HW221246   2.927   1.613   8.124 -0.5265  1.3299 -0.0493
 3204SOL     OW21247   3.747   0.776   2.876 -0.2700 -0.0357  0.3917
 3204SOL    HW121248   3.702   0.770   2.792  0.2843 -2.5653  0.2664
 3204SOL    HW221249   3.709   0.701   2.922 -0.7215  0.3638  0.6728
 3205SOL     OW21250   3.393   2.688  10.827  0.4835 -0.8762 -0.2855
 3205SOL    HW121251   3.300   2.669  10.843 -0.1490  2.4774  0.0655
 3205SOL    HW221252   3.435   2.603  10.816  1.7965 -0.4885  1.7522
 3206SOL     OW21253   0.998   4.622  10.738  0.2653 -0.7968  0.6415
 3206SOL    HW121254   1.063   4.686  10.766 -1.5731  0.2399  2.4442
 3206SOL    HW221255   0.962   4.598  10.823 -1.1598 -2.0285 -0.3089
 3207SOL     OW21256   1.239   3.575   4.440  0.2756 -0.3702  0.4210
 3207SOL    HW121257   1.163   3.617   4.481  3.1927  3.0210  2.2804
 3207SOL    HW221258   1.207   3.563   4.350  0.5439  1.5245  0.0640
 3208SOL     OW21259   3.733   4.041   7.486 -0.1772  0.4494  0.7573
 3208SOL    HW121260   3.717   4.090   7.567  2.0778  1.3710  0.6514
 3208SOL    HW221261   3.686   3.965   7.521 -0.1742  0.4345  0.7292
 3209SOL     OW21262   4.416   4.698  10.630 -0.1363  0.7665  0.2771
 3209SOL    HW121263   4.394   4.622  10.684  2.1496 -0.2442 -0.2159
 3209SOL    HW221264   4.477   4.659  10.568 -0.7151  0.8522 -0.3339
 3210SOL     OW21265   3.962   4.371   3.631  0.1105  0.4163  0.9271
 3210SOL    HW121266   3.925   4.380   3.720  0.8397  0.4068  1.2294
 3210SOL    HW221267   4.030   4.437   3.639  1.2588 -0.5993 -0.4860
 3211SOL     OW21268   3.369   1.733   4.072 -0.3607  1.2079 -1.0015
 3211SOL    HW121269   3.377   1.772   4.160 -0.0263  1.3549 -1.0966
 3211SOL    HW221270   3.437   1.769   4.016 -1.0118  2.8397 -0.7477
 3212SOL     OW21271   4.722   2.547  15.122 -0.1802  0.0877 -0.2001
 3212SOL    HW121272   4.673   2.523  15.201 -0.2379  0.3730 -0.1480
 3212SOL    HW221273   4.732   2.458  15.089  0.0252 -0.0935  0.3576
 3213SOL     OW21274   1.969   0.140  10.578 -0.6146  0.6316 -0.0168
 3213SOL    HW121275   2.001   0.230  10.569  1.1558  0.0439  0.4705
 3213SOL    HW221276   1.889   0.153  10.629 -0.5670  1.7050 -0.2158
 3214SOL     OW21277   1.814   0.219   9.548 -0.0330 -0.1827 -0.2055
 3214SOL    HW121278   1.901   0.210   9.588  0.5087  0.1833 -1.2888
 3214SOL    HW221279   1.749   0.234   9.616 -1.9304  0.1634 -2.0704
 3215SOL     OW21280   3.744   4.364  14.334 -0.1286 -0.1681 -0.3748
 3215SOL    HW121281   3.787   4.430  14.389  0.2884 -0.3402 -0.4886
 3215SOL    HW221282   3.696   4.318  14.402  0.3611  2.2873  1.6188
 3216SOL     OW21283   1.795   0.339   8.800  0.0306  0.2052 -1.1716
 3216SOL    HW121284   1.741   0.403   8.845  1.7051  0.0163  1.1222
 3216SOL    HW221285   1.809   0.274   8.869  2.5238  2.0897  0.0797
 3217SOL     OW21286   4.544   1.124   2.306 -1.3408  0.0259  0.3346
 3217SOL    HW121287   4.490   1.192   2.346  1.2436  1.4587  1.3810
 3217SOL    HW221288   4.563   1.073   2.385  1.4545 -1.0713 -1.0595
 3218SOL     OW21289   0.685   0.004   5.474 -0.1490 -0.0203  0.2406
 3218SOL    HW121290   0.763   4.733   5.529 -0.4792  0.0160  0.7168
 3218SOL    HW221291   0.639   0.063   5.535  1.3234  2.2899 -0.8620
 3219SOL     OW21292   1.763   4.374  14.067  0.4400 -0.1312 -0.3608
 3219SOL    HW121293   1.826   4.316  14.024  0.3792 -1.4718  1.3588
 3219SOL    HW221294   1.749   4.321  14.146 -0.1429 -0.9091 -0.9787
 3220SOL     OW21295   1.690   0.167   3.890 -0.1845 -0.3613 -0.2967
 3220SOL    HW121296   1.728   0.159   3.802 -1.0351  0.4592 -0.7398
 3220SOL    HW221297   1.761   0.137   3.947 -0.8889 -1.8825 -0.2009
 3221SOL     OW21298   2.371   1.561  12.917 -0.0125 -0.1606 -0.1499
 3221SOL    HW121299   2.307   1.499  12.882 -0.7539  0.4830  0.0725
 3221SOL    HW221300   2.325   1.644  12.922  0.4058  0.0760 -0.1939
 3222SOL     OW21301   2.731   3.049   7.057  0.5555 -0.6654  0.0293
 3222SOL    HW121302   2.684   3.006   6.985  1.3578 -2.7405  0.7377
 3222SOL    HW221303   2.813   3.001   7.065  0.0531 -1.8263 -1.6888
 3223SOL     OW21304   0.806   3.619  10.710 -0.2520  0.3346 -0.7084
 3223SOL    HW121305   0.857   3.548  10.671 -0.6675  0.4618 -1.4821
 3223SOL    HW221306   0.755   3.572  10.776  0.4032 -1.3290 -1.3994
 3224SOL     OW21307   4.335   2.118   5.697 -0.6130 -0.0305 -0.1064
 3224SOL    HW121308   4.345   2.127   5.602  0.0249 -0.4497 -0.0764
 3224SOL    HW221309   4.423   2.153   5.708 -0.2636 -0.6657 -0.9075
 3225SOL     OW21310   0.018   2.554   5.402 -0.8250  0.5282 -0.4989
 3225SOL    HW121311   0.028   2.540   5.496  2.7464  1.3206 -0.7633
 3225SOL    HW221312   0.063   2.476   5.368 -0.8400  0.0767  0.5260
 3226SOL     OW21313   3.789   2.917  15.579  0.1251 -0.0090  0.1071
 3226SOL    HW121314   3.783   2.843  15.518 -0.4865 -0.5706  0.8551
 3226SOL    HW221315   3.855   2.980  15.549  0.5650 -0.2730  0.5216
 3227SOL     OW21316   1.558   2.908   0.912 -0.2780 -0.9266 -0.1936
 3227SOL    HW121317   1.543   2.902   1.006  0.3415 -0.0100 -0.0374
 3227SOL    HW221318   1.520   2.825   0.881 -0.0117  0.0282 -3.1458
 3228SOL     OW21319   0.986   0.164   1.544 -0.4899 -0.3454 -0.2136
 3228SOL    HW121320   1.053   0.153   1.477  0.2716  1.7062  0.1785
 3228SOL    HW221321   0.988   0.085   1.598  1.2332 -0.8594 -1.0305
 3229SOL     OW21322   0.640   2.763   5.341 -0.1881 -0.5050 -0.2359
 3229SOL    HW121323   0.710   2.699   5.332 -1.7445 -2.2246  0.0125
 3229SOL    HW221324   0.664   2.822   5.270 -1.8220  1.0330  0.4846
 3230SOL     OW21325   1.143   3.423   5.236  0.1763  0.2663  0.0035
 3230SOL    HW121326   1.188   3.483   5.295  1.8087 -1.9281  0.9906
 3230SOL    HW221327   1.172   3.453   5.150  0.4712  1.0201  0.3763
 3231SOL     OW21328   1.277   3.419  11.345  0.3763  0.5077  0.0081
 3231SOL    HW121329   1.298   3.338  11.299 -0.6786  1.0806 -1.4892
 3231SOL    HW221330   1.353   3.476  11.332 -1.0528  2.1392 -1.1711
 3232SOL     OW21331   2.287   2.886  17.495  0.0758  0.0374 -0.0468
 3232SOL    HW121332   2.253   2.797  17.489  2.0585 -0.9858  3.6859
 3232SOL    HW221333   2.378   2.858  17.512  0.3775  1.3684  0.5149
 3233SOL     OW21334   3.052   4.143   3.119 -0.2737 -0.5653  0.6685
 3233SOL    HW121335   3.143   4.170   3.111 -0.0106 -1.7569 -0.3567
 3233SOL    HW221336   3.004   4.227   3.121 -0.2272 -0.5169 -0.1913
 3234SOL     OW21337   0.642   4.285   3.337 -0.8505 -0.3087  0.0572
 3234SOL    HW121338   0.588   4.234   3.277 -0.9583  0.7863 -0.7633
 3234SOL    HW221339   0.613   4.233   3.412  1.5555 -1.8139 -0.0409
 3235SOL     OW21340   1.871   3.164   5.802 -0.0248 -0.6008 -0.5061
 3235SOL    HW121341   1.862   3.231   5.734  1.1707 -0.6549 -0.7173
 3235SOL    HW221342   1.852   3.222   5.876 -0.9896  0.2574 -1.4148
 3236SOL     OW21343   0.333   2.123   8.746  0.0211 -0.1768 -0.5715
 3236SOL    HW121344   0.375   2.103   8.830 -2.7784 -3.3501  0.0728
 3236SOL    HW221345   0.395   2.080   8.687  0.3619 -0.4187 -0.0355
 3237SOL     OW21346   0.526   4.112   5.895  0.1556  0.0983  0.3537
 3237SOL    HW121347   0.472   4.187   5.870  2.3623  1.0298 -1.6221
 3237SOL    HW221348   0.573   4.083   5.817 -1.2191 -0.1858 -0.3787
 3238SOL     OW21349   2.168   1.556   0.349  0.0546  0.2029 -0.0826
 3238SOL    HW121350   2.227   1.560   0.273  2.8659 -0.9389  2.0538
 3238SOL    HW221351   2.101   1.494   0.320 -0.2896  0.9924 -1.0100
 3239SOL     OW21352   0.812   4.717  16.683  0.0819  0.3237  0.5969
 3239SOL    HW121353   0.747   4.650  16.663  2.6204 -1.6886 -0.8623
 3239SOL    HW221354   0.888   4.673  16.720 -0.2479 -0.7694 -0.0196
 3240SOL     OW21355   4.119   0.413  16.846 -0.1051 -0.3233  0.0866
 3240SOL    HW121356   4.183   0.475  16.813  0.7917 -0.2452  1.9378
 3240SOL    HW221357   4.155   0.381  16.929  0.5268 -0.4389 -0.2334
 3241SOL     OW21358   1.356   2.892   6.148  0.0167 -0.3852  0.3277
 3241SOL    HW121359   1.261   2.878   6.146 -0.2169  1.1794  0.3356
 3241SOL    HW221360   1.373   2.978   6.109  0.3545 -0.3109  0.6442
 3242SOL     OW21361   0.039   1.202   8.190  0.8294 -0.5134 -0.3074
 3242SOL    HW121362   4.725   1.192   8.267  0.1477 -0.5316 -0.8142
 3242SOL    HW221363   4.739   1.142   8.129 -1.5392 -0.0340  0.8567
 3243SOL     OW21364   1.866   4.091  12.598 -0.0230  0.2353 -0.5729
 3243SOL    HW121365   1.889   4.039  12.522  0.5788  1.1483 -1.0131
 3243SOL    HW221366   1.935   4.078  12.664 -0.3592 -2.0611 -0.6579
 3244SOL     OW21367   3.786   3.016   6.499 -0.0213  0.1143  0.3957
 3244SOL    HW121368   3.737   3.097   6.487 -2.4531 -1.5125 -0.7366
 3244SOL    HW221369   3.718   2.956   6.530  1.3169 -1.4683  0.2486
 3245SOL     OW21370   2.084   1.304   6.503 -0.1144  0.0854  0.1477
 3245SOL    HW121371   2.165   1.296   6.453 -0.8124  2.4732 -1.3804
 3245SOL    HW221372   2.073   1.213   6.528  0.5974  0.3713  1.5037
 3246SOL     OW21373   4.228   2.474   1.804 -0.3658  0.6268 -0.6138
 3246SOL    HW121374   4.198   2.444   1.718  1.1698 -2.0495 -0.2249
 3246SOL    HW221375   4.247   2.394   1.853 -2.8390  1.4043  1.6347
 3247SOL     OW21376   4.124   0.468   3.397  0.0729 -0.1207 -0.3479
 3247SOL    HW121377   4.151   0.559   3.386 -0.3494  0.2495  1.6190
 3247SOL    HW221378   4.028   0.465   3.398  0.0998 -2.1178 -2.9472
 3248SOL     OW21379   2.160   3.585  15.618  0.4496 -0.4829  0.1834
 3248SOL    HW121380   2.157   3.677  15.590 -0.3104  0.0276  1.8888
 3248SOL    HW221381   2.254   3.573  15.614  0.3641 -1.3020  0.6799
 3249SOL     OW21382   1.718   2.937   8.284  0.2023  0.0690  0.2203
 3249SOL    HW121383   1.658   2.863   8.297  0.9222 -0.6284 -0.3743
 3249SOL    HW221384   1.718   2.988   8.365  1.2858  1.6463 -0.7770
 3250SOL     OW21385   4.254   1.641   3.224 -0.0986 -0.7797  0.3417
 3250SOL    HW121386   4.291   1.570   3.277  0.6980 -0.9212 -0.4013
 3250SOL    HW221387   4.239   1.709   3.289 -0.9834 -0.4881 -0.1678
 3251SOL     OW21388   3.079   1.149   9.616  0.6043 -0.3270 -0.1035
 3251SOL    HW121389   3.078   1.063   9.658  0.1021 -1.2033 -1.9273
 3251SOL    HW221390   3.073   1.123   9.524  1.4952  2.0627 -0.8441
 3252SOL     OW21391   2.350   4.499   6.520  0.9538 -0.1480  0.7178
 3252SOL    HW121392   2.381   4.540   6.601  0.8467  0.7307  0.3240
 3252SOL    HW221393   2.256   4.512   6.533  1.1292  0.0480  1.7820
 3253SOL     OW21394   3.016   4.447   7.989 -0.1148 -0.1707  0.0252
 3253SOL    HW121395   3.016   4.382   7.919  0.5590  1.5387 -1.5753
 3253SOL    HW221396   3.111   4.448   7.998 -0.0338 -0.3841 -0.8260
 3254SOL     OW21397   2.208   1.770   3.174  0.0197  0.2447 -0.1932
 3254SOL    HW121398   2.218   1.861   3.144 -1.3136 -0.0311 -1.4968
 3254SOL    HW221399   2.133   1.745   3.120  0.1948  2.0399 -1.2933
 3255SOL     OW21400   3.033   0.239   4.117 -0.3854 -0.9550  0.3908
 3255SOL    HW121401   2.990   0.159   4.146 -1.9299  0.6946  2.6270
 3255SOL    HW221402   2.959   0.294   4.142 -0.3411 -1.0731  0.7880
 3256SOL     OW21403   1.421   1.784  14.548 -0.1416  0.1680  0.0070
 3256SOL    HW121404   1.346   1.821  14.501 -0.8836 -1.7940 -0.3841
 3256SOL    HW221405   1.381   1.756  14.630  1.0824 -1.0506  0.1965
 3257SOL     OW21406   0.728   0.495  15.948  0.1750  0.1309 -0.0599
 3257SOL    HW121407   0.756   0.472  15.859  2.5424 -0.8737  0.9436
 3257SOL    HW221408   0.657   0.555  15.924  0.4674 -0.0886 -1.4813
 3258SOL     OW21409   1.823   4.714  11.825 -0.7263  0.0058  0.4800
 3258SOL    HW121410   1.778   4.634  11.853  1.9027 -1.1404  1.4824
 3258SOL    HW221411   1.755   0.019  11.778 -0.1324  0.1390 -0.2455
 3259SOL     OW21412   4.364   0.434   6.308  0.4973  0.0285 -0.0913
 3259SOL    HW121413   4.304   0.507   6.292  0.7067  0.4379  1.0181
 3259SOL    HW221414   4.316   0.366   6.261  0.6719 -0.6297  0.6812
 3260SOL     OW21415   3.158   4.184  16.843 -0.3519  0.2901 -0.7665
 3260SOL    HW121416   3.205   4.154  16.920 -0.5042 -1.8458 -1.4911
 3260SOL    HW221417   3.210   4.262  16.823  0.0532  0.7476  2.1881
 3261SOL     OW21418   4.135   1.317   4.712 -0.0246 -0.2391 -0.0975
 3261SOL    HW121419   4.111   1.230   4.682 -0.2067 -0.4511  0.6648
 3261SOL    HW221420   4.225   1.321   4.678 -0.4313  0.9782 -1.0246
 3262SOL     OW21421   4.023   4.415   2.091  0.4540  0.2461 -0.4766
 3262SOL    HW121422   4.041   4.505   2.064 -1.0095  0.3014 -1.2453
 3262SOL    HW221423   4.043   4.363   2.014 -0.1713 -0.4051 -0.2040
 3263SOL     OW21424   1.282   0.976   5.775 -0.4840 -0.4602 -0.1341
 3263SOL    HW121425   1.267   0.901   5.717  0.8317 -0.0715 -0.9634
 3263SOL    HW221426   1.292   1.043   5.707 -0.2526  0.9627  1.3107
 3264SOL     OW21427   1.979   0.561   8.907 -0.4064 -0.0698  0.1367
 3264SOL    HW121428   1.920   0.516   8.846 -0.1774 -1.3016  0.8382
 3264SOL    HW221429   1.914   0.581   8.974  0.3000  1.4100  0.3618
 3265SOL     OW21430   1.630   2.852   2.656 -0.0782  0.0880  0.3042
 3265SOL    HW121431   1.710   2.800   2.662  0.2811  0.6690  0.5571
 3265SOL    HW221432   1.639   2.912   2.730 -2.4605 -0.0730  0.7183
 3266SOL     OW21433   2.610   2.038  12.931 -1.1849 -0.0313  0.1038
 3266SOL    HW121434   2.689   1.990  12.956  0.3975  1.6088 -1.7068
 3266SOL    HW221435   2.640   2.115  12.883 -1.1971  0.3445  0.7038
 3267SOL     OW21436   3.944   1.345   7.801 -0.0379  0.1845  0.2630
 3267SOL    HW121437   3.929   1.264   7.752 -0.4208  0.6923 -0.4537
 3267SOL    HW221438   4.009   1.383   7.742  0.0259 -0.4710 -0.0934
 3268SOL     OW21439   0.787   1.136   1.813  0.1179  0.4988  0.4242
 3268SOL    HW121440   0.706   1.177   1.843 -0.1391 -0.6875  1.3411
 3268SOL    HW221441   0.829   1.214   1.779  1.1294  0.5296  1.7463
 3269SOL     OW21442   4.189   0.323   2.356  0.3505  0.0898  0.0842
 3269SOL    HW121443   4.103   0.284   2.370 -0.6292  2.9858  2.2013
 3269SOL    HW221444   4.245   0.296   2.429  0.2804 -0.5965 -0.1157
 3270SOL     OW21445   3.024   1.318   1.961 -0.5488 -0.1807 -0.5678
 3270SOL    HW121446   2.999   1.351   1.875  1.5822  1.0482 -0.7272
 3270SOL    HW221447   3.049   1.401   2.002 -1.7416  0.0585 -0.3154
 3271SOL     OW21448   2.940   3.488  17.283  0.3010 -0.4874  0.8585
 3271SOL    HW121449   2.918   3.417  17.344  2.5388 -1.0738  0.9787
 3271SOL    HW221450   2.907   3.567  17.325 -1.0183  0.1794 -1.4357
 3272SOL     OW21451   3.910   0.128   3.600 -0.6913 -0.0418 -0.4056
 3272SOL    HW121452   3.935   0.085   3.682 -1.2506  0.2737 -0.0706
 3272SOL    HW221453   3.985   0.187   3.592 -0.4935 -0.3829 -1.0435
 3273SOL     OW21454   3.430   0.490   9.448 -0.7955  0.2163 -0.1029
 3273SOL    HW121455   3.362   0.535   9.498  0.6474  1.5072  0.6736
 3273SOL    HW221456   3.376   0.479   9.369 -0.9275  2.2434 -0.2975
 3274SOL     OW21457   3.849   1.099  11.389 -0.6709 -0.5587 -0.5644
 3274SOL    HW121458   3.778   1.036  11.382  0.0471 -1.3390 -0.8613
 3274SOL    HW221459   3.917   1.042  11.426  0.2813  0.6753 -0.4029
 3275SOL     OW21460   1.603   4.696   9.470 -0.0913 -0.2188 -0.3706
 3275SOL    HW121461   1.597   4.706   9.565  0.6202 -1.1699 -0.2284
 3275SOL    HW221462   1.547   0.026   9.441 -0.2249 -0.0699  0.2483
 3276SOL     OW21463   2.787   1.797   9.348 -0.0473  0.2592  0.4343
 3276SOL    HW121464   2.746   1.853   9.282 -0.9636  2.1096  2.5648
 3276SOL    HW221465   2.878   1.797   9.318  0.9178 -0.7350  3.3640
 3277SOL     OW21466   0.577   2.820   2.928  0.0110  0.0007 -1.2165
 3277SOL    HW121467   0.507   2.828   2.863 -2.5314 -1.6718  1.3019
 3277SOL    HW221468   0.600   2.912   2.934 -0.3473  0.1154 -1.5998
 3278SOL     OW21469   4.514   0.296   0.825 -0.2899  0.2039  0.5020
 3278SOL    HW121470   4.452   0.231   0.792 -0.8482  1.0452 -0.1066
 3278SOL    HW221471   4.503   0.353   0.749  1.3226 -1.7457 -1.1841
 3279SOL     OW21472   2.305   1.444   8.044 -0.5358 -0.3682  0.6375
 3279SOL    HW121473   2.314   1.524   8.096  0.7683  0.6398 -1.1546
 3279SOL    HW221474   2.304   1.366   8.099  0.0981  0.8341  2.3847
 3280SOL     OW21475   2.090   3.746   6.026 -0.1186 -0.4561  0.0550
 3280SOL    HW121476   2.028   3.788   5.968  0.8835  0.6835 -0.1928
 3280SOL    HW221477   2.064   3.788   6.107  0.6042 -1.5812  0.8827
 3281SOL     OW21478   4.571   0.721  12.397 -0.3020  0.1042  0.2110
 3281SOL    HW121479   4.477   0.705  12.383 -0.6205  0.6920  1.6954
 3281SOL    HW221480   4.592   0.773  12.319  0.6069 -2.0409 -0.9634
 3282SOL     OW21481   1.847   0.609   5.228 -0.3439 -0.0981 -0.1508
 3282SOL    HW121482   1.904   0.660   5.171  0.2284 -1.2329 -0.5919
 3282SOL    HW221483   1.759   0.639   5.204 -0.0347 -0.3717 -1.6183
 3283SOL     OW21484   3.014   2.080   7.161 -0.2898 -0.2409  0.2573
 3283SOL    HW121485   2.953   2.046   7.095  1.7393  0.2658 -1.8713
 3283SOL    HW221486   3.044   2.167   7.134 -1.1078 -0.3701 -1.0301
 3284SOL     OW21487   0.029   0.067   6.040  0.0168 -0.5651  0.2317
 3284SOL    HW121488   4.730   0.139   5.991  0.7367  0.3083  0.8909
 3284SOL    HW221489   4.714   0.061   6.117 -0.9852  0.1102 -0.4594
 3285SOL     OW21490   3.140   4.735  15.656  0.3242 -0.0360 -0.2673
 3285SOL    HW121491   3.130   4.644  15.683  2.3339  0.1072  0.9349
 3285SOL    HW221492   3.164   0.030  15.741 -1.6332  1.1818 -0.2440
 3286SOL     OW21493   0.165   4.441   8.810 -0.0155 -0.2672  0.0707
 3286SOL    HW121494   0.076   4.468   8.787 -0.2456  0.8676  2.3108
 3286SOL    HW221495   0.190   4.468   8.899  0.8606  3.1235 -1.2096
 3287SOL     OW21496   1.550   1.767  13.252 -0.1840 -0.5947  0.0629
 3287SOL    HW121497   1.506   1.737  13.331  2.1678 -0.9508  1.2349
 3287SOL    HW221498   1.475   1.797  13.201  0.4289 -0.5661 -0.8236
 3288SOL     OW21499   0.960   0.286   2.516 -0.7634  0.1024 -0.1128
 3288SOL    HW121500   0.925   0.371   2.541 -3.3602 -2.1317  3.9807
 3288SOL    HW221501   1.052   0.302   2.540 -0.3369 -1.2040 -0.8939
 3289SOL     OW21502   0.877   4.487   2.369  0.1498 -0.1312  0.3883
 3289SOL    HW121503   0.849   4.579   2.364 -0.2372 -0.1353  2.5361
 3289SOL    HW221504   0.928   4.489   2.288  2.6433 -2.4756  1.8908
 3290SOL     OW21505   4.290   1.663  13.236  0.2091 -0.2781  0.0765
 3290SOL    HW121506   4.237   1.740  13.256  0.1991 -0.0625 -0.8072
 3290SOL    HW221507   4.284   1.653  13.141  1.2390  2.8243 -0.3145
 3291SOL     OW21508   4.640   0.856   2.809 -0.2895  0.8453  0.1272
 3291SOL    HW121509   4.719   0.835   2.859  0.5729  1.9248 -0.8017
 3291SOL    HW221510   4.574   0.796   2.845  0.4794  0.8750  1.6263
 3292SOL     OW21511   3.866   4.347   8.320 -0.3669  0.2423 -0.3708
 3292SOL    HW121512   3.926   4.282   8.284 -1.2928  0.0191 -1.5081
 3292SOL    HW221513   3.928   4.399   8.372 -1.8886  1.7161 -0.0024
 3293SOL     OW21514   0.250   0.041   0.486  0.1014 -0.4658 -0.3112
 3293SOL    HW121515   0.323   4.721   0.475 -0.6059 -1.3677  0.0879
 3293SOL    HW221516   0.288   0.123   0.457 -0.1488 -1.3978 -3.2185
 3294SOL     OW21517   3.061   4.093  12.086 -0.1300  0.5647  0.0621
 3294SOL    HW121518   3.156   4.094  12.078 -0.1444 -2.4011 -0.7304
 3294SOL    HW221519   3.034   4.177  12.049 -0.7498  0.2863 -0.1289
 3295SOL     OW21520   2.272   0.746   7.515 -0.2207  0.0651 -0.1945
 3295SOL    HW121521   2.250   0.839   7.506  1.1508  0.5898  2.1351
 3295SOL    HW221522   2.281   0.730   7.609 -2.2993  1.7161  0.2847
 3296SOL     OW21523   3.570   1.471   3.855  0.5046 -0.4780 -0.5718
 3296SOL    HW121524   3.511   1.421   3.912  1.0086  2.2671  2.3419
 3296SOL    HW221525   3.643   1.508   3.905  0.3039 -0.5765 -0.2045
 3297SOL     OW21526   2.463   0.391  17.599  0.1969 -0.4341 -0.9704
 3297SOL    HW121527   2.463   0.429  17.511  0.9982 -0.2265 -0.8764
 3297SOL    HW221528   2.467   0.299  17.574  1.6497 -0.5550 -0.2719
 3298SOL     OW21529   4.586   2.814   2.720 -0.5853 -0.2461  0.2032
 3298SOL    HW121530   4.594   2.905   2.749 -0.1995 -0.2616  0.1464
 3298SOL    HW221531   4.492   2.798   2.721 -0.4409 -1.1583 -1.4776
 3299SOL     OW21532   1.914   4.615   1.061  0.0138 -0.1975  0.3401
 3299SOL    HW121533   1.992   4.574   1.099  1.1407  1.1240 -0.5110
 3299SOL    HW221534   1.948   4.700   1.033 -0.0075 -1.3254 -3.0880
 3300SOL     OW21535   4.160   0.895   6.027 -0.0074  0.0071 -0.1414
 3300SOL    HW121536   4.103   0.894   6.104 -0.0772 -0.8079 -0.2101
 3300SOL    HW221537   4.181   0.803   6.012 -0.7932 -0.0108 -1.0912
 3301SOL     OW21538   0.864   2.478   7.940 -0.0977 -0.6338 -0.0892
 3301SOL    HW121539   0.838   2.388   7.919  1.5655 -0.9810 -0.6541
 3301SOL    HW221540   0.941   2.491   7.884  0.5965 -0.3242  0.9401
 3302SOL     OW21541   0.818   3.891   2.161 -0.1772  0.2973 -0.2668
 3302SOL    HW121542   0.799   3.799   2.143 -1.4552  0.6491 -0.7393
 3302SOL    HW221543   0.906   3.886   2.197  0.1364 -1.6810 -1.2906
 3303SOL     OW21544   4.232   3.432  16.918 -0.6109  0.0964  0.0537
 3303SOL    HW121545   4.265   3.473  16.998  2.3827 -0.4304 -0.9366
 3303SOL    HW221546   4.144   3.471  16.916 -1.3276 -1.5278 -0.5342
 3304SOL     OW21547   1.276   1.389   5.171  0.3548 -0.3205 -0.1979
 3304SOL    HW121548   1.305   1.447   5.101  2.9965 -0.5774  0.6844
 3304SOL    HW221549   1.207   1.334   5.134  0.0762 -0.7108  0.8824
 3305SOL     OW21550   1.020   0.679   7.783  0.1828 -0.4095 -0.2325
 3305SOL    HW121551   1.010   0.649   7.692  0.0429  2.5693 -1.2141
 3305SOL    HW221552   1.031   0.599   7.833 -4.4540 -0.2711  1.0253
 3306SOL     OW21553   1.107   4.472   5.536 -0.2968  0.1321  0.1320
 3306SOL    HW121554   1.161   4.429   5.602  1.6401  1.1014 -0.8040
 3306SOL    HW221555   1.141   4.429   5.458 -0.4387 -0.5755  0.4620
 3307SOL     OW21556   3.927   3.880   4.119 -0.1277  0.7169 -0.7267
 3307SOL    HW121557   3.871   3.832   4.059 -0.8124  0.5369  0.0579
 3307SOL    HW221558   4.002   3.904   4.064  0.0976 -2.1436 -1.6597
 3308SOL     OW21559   0.278   3.966  13.968  0.2601  0.4349  0.0905
 3308SOL    HW121560   0.349   3.961  14.033 -1.3929 -1.3884  1.7398
 3308SOL    HW221561   0.328   3.981  13.888 -0.3952 -2.3998 -0.8372
 3309SOL     OW21562   1.581   2.520   4.589  0.0280  0.1718 -0.9058
 3309SOL    HW121563   1.496   2.476   4.587 -0.1363  0.3388  3.1203
 3309SOL    HW221564   1.564   2.572   4.668 -1.7507  1.3958 -2.0921
 3310SOL     OW21565   4.324   2.077   3.204 -0.1866 -0.1553 -0.1569
 3310SOL    HW121566   4.408   2.080   3.157 -0.0248 -0.5864  0.1068
 3310SOL    HW221567   4.261   2.097   3.135 -2.1365  0.1893  1.7314
 3311SOL     OW21568   1.519   4.234  16.579  0.5358 -0.4114  0.0931
 3311SOL    HW121569   1.507   4.146  16.615 -0.8281 -0.5482 -0.6866
 3311SOL    HW221570   1.537   4.205  16.489 -0.0318  1.1681 -0.5351
 3312SOL     OW21571   4.465   4.715   3.038  0.2909  0.2226  0.2362
 3312SOL    HW121572   4.491   4.626   3.014  1.6439  0.1501  1.9414
 3312SOL    HW221573   4.544   0.026   3.032 -0.3679  1.3382  1.5371
 3313SOL     OW21574   1.956   3.334  16.827  0.1114 -0.1293 -0.0300
 3313SOL    HW121575   2.032   3.385  16.856  0.6400 -1.2851  0.6126
 3313SOL    HW221576   1.891   3.366  16.889  0.1399  0.5015 -0.3312
 3314SOL     OW21577   3.613   2.545   4.427  0.4242  0.2754  0.4072
 3314SOL    HW121578   3.559   2.541   4.505  1.4912 -0.3377  1.1204
 3314SOL    HW221579   3.581   2.473   4.372 -1.1686  1.2892  0.0215
 3315SOL     OW21580   0.694   1.501   3.937 -0.0267  0.4011 -0.3463
 3315SOL    HW121581   0.618   1.456   3.974 -0.1495 -0.7637 -2.0556
 3315SOL    HW221582   0.643   1.570   3.894  0.5408  0.9863 -0.0894
 3316SOL     OW21583   3.377   0.071   6.985 -0.5914 -0.1551  0.1615
 3316SOL    HW121584   3.423   0.058   6.903 -1.1509 -0.6207 -0.0761
 3316SOL    HW221585   3.449   0.091   7.045  0.0469 -0.7966 -0.3968
 3317SOL     OW21586   1.361   0.470   8.834 -0.1163 -0.5062 -0.0580
 3317SOL    HW121587   1.388   0.560   8.851  1.3923 -1.3830  2.1626
 3317SOL    HW221588   1.393   0.422   8.910  0.3178 -1.0704 -0.5916
 3318SOL     OW21589   0.412   1.283  13.757 -0.2951 -0.3253 -0.3543
 3318SOL    HW121590   0.386   1.237  13.837  0.7770  0.2319  0.3157
 3318SOL    HW221591   0.504   1.258  13.757 -0.6581 -1.6482  0.3468
 3319SOL     OW21592   0.986   0.347   3.479 -1.0421 -0.3514 -0.3267
 3319SOL    HW121593   0.898   0.377   3.504  0.0029  1.8311  0.8030
 3319SOL    HW221594   0.969   0.261   3.442 -0.9289 -0.5206  0.0209
 3320SOL     OW21595   0.766   2.541   8.668  0.0864 -0.5270  0.2141
 3320SOL    HW121596   0.826   2.557   8.594  1.2462  0.2436  1.3186
 3320SOL    HW221597   0.712   2.620   8.661 -1.3756 -1.7707 -2.8874
 3321SOL     OW21598   1.019   3.032   7.470  0.3092  0.3424  0.3927
 3321SOL    HW121599   0.952   3.092   7.504 -1.2376 -0.0479 -1.9402
 3321SOL    HW221600   1.071   3.097   7.422 -0.6153 -0.2368 -1.3700
 3322SOL     OW21601   3.055   1.578   1.235  0.5799 -0.7047 -0.1820
 3322SOL    HW121602   3.075   1.499   1.184 -1.5844 -0.8904 -0.7190
 3322SOL    HW221603   2.978   1.611   1.189  1.2151 -0.2310 -0.9133
 3323SOL     OW21604   0.615   2.005   2.898  0.3704 -0.5299 -0.9353
 3323SOL    HW121605   0.584   2.094   2.914  0.8374 -0.4044 -0.7131
 3323SOL    HW221606   0.536   1.959   2.869  0.3785 -0.7194 -0.6506
 3324SOL     OW21607   1.638   3.775   1.484  0.2817  0.5293 -0.2642
 3324SOL    HW121608   1.548   3.806   1.473 -0.4164 -2.4602 -3.0728
 3324SOL    HW221609   1.620   3.682   1.500 -1.6415  1.2135  1.5872
 3325SOL     OW21610   4.678   1.911   7.062  0.3909  0.7259 -0.1891
 3325SOL    HW121611   4.666   1.906   7.157  0.0263 -1.0287 -0.3165
 3325SOL    HW221612   0.011   1.971   7.056  0.5913  0.3366 -1.5347
 3326SOL     OW21613   3.956   1.211  17.492 -0.1932 -0.3327 -0.2829
 3326SOL    HW121614   3.905   1.183  17.416  2.8402 -1.3961 -1.8917
 3326SOL    HW221615   4.011   1.133  17.494  3.3158  2.1446 -0.4644
 3327SOL     OW21616   3.550   2.533   7.103  0.5038 -0.6537  0.0444
 3327SOL    HW121617   3.526   2.497   7.189 -0.4100  0.6691  0.3426
 3327SOL    HW221618   3.524   2.625   7.108 -0.4321 -0.8754 -0.8632
 3328SOL     OW21619   3.784   4.158   1.286  1.3600  0.6617  0.4124
 3328SOL    HW121620   3.853   4.224   1.280 -0.9934  2.9510 -1.3365
 3328SOL    HW221621   3.735   4.211   1.348  0.1018 -0.4891  0.4092
 3329SOL     OW21622   2.859   0.232   0.127  0.0171  0.4425  0.6260
 3329SOL    HW121623   2.864   0.222   0.032 -1.2190  0.1248  0.5867
 3329SOL    HW221624   2.842   0.326   0.133  0.7374  0.5621  0.8033
 3330SOL     OW21625   4.071   3.518   1.773  0.0568  0.2458  0.1142
 3330SOL    HW121626   4.058   3.426   1.798 -0.7368  0.6305  1.1155
 3330SOL    HW221627   4.165   3.516   1.758 -0.0979  0.0047 -0.8593
 3331SOL     OW21628   1.447   2.007  17.449  0.2908  0.4031 -0.0395
 3331SOL    HW121629   1.392   2.085  17.459 -0.3372  0.2228 -2.0192
 3331SOL    HW221630   1.483   2.034  17.365  1.5555 -1.1963 -0.0323
 3332SOL     OW21631   0.534   1.206   6.706 -0.2266  0.1416  0.3497
 3332SOL    HW121632   0.518   1.255   6.787 -2.0013 -1.2010  0.8114
 3332SOL    HW221633   0.581   1.267   6.649  0.0476  0.1948  0.6288
 3333SOL     OW21634   2.000   0.370   5.232  0.0484  0.0539  0.0331
 3333SOL    HW121635   1.941   0.442   5.210  0.4188  0.6632  1.0312
 3333SOL    HW221636   1.949   0.324   5.298  2.8628  0.5768  2.5660
 3334SOL     OW21637   0.338   2.022   5.021 -0.1071  0.7657  0.2633
 3334SOL    HW121638   0.416   2.071   5.048  0.1449  1.0285 -0.9648
 3334SOL    HW221639   0.372   1.939   4.989  2.5116  1.5618  0.9704
 3335SOL     OW21640   0.102   1.164  12.372  0.9113 -0.8392  0.0605
 3335SOL    HW121641   0.065   1.206  12.449  0.6118  1.1621 -1.1561
 3335SOL    HW221642   0.172   1.106  12.402  0.1901 -1.5832  0.2981
 3336SOL     OW21643   0.564   3.877   2.316 -0.2937  0.2200 -0.6833
 3336SOL    HW121644   0.610   3.927   2.248  0.2496  0.1254 -0.3842
 3336SOL    HW221645   0.602   3.790   2.314  2.5810  1.4566 -0.0679
 3337SOL     OW21646   2.897   1.403   3.850  0.1296 -0.2639  0.5700
 3337SOL    HW121647   2.988   1.404   3.879  0.2913  1.2449  0.0490
 3337SOL    HW221648   2.891   1.488   3.805  1.0793 -1.8559 -2.5201
 3338SOL     OW21649   1.466   3.687   8.124  0.3194 -0.0878 -0.4370
 3338SOL    HW121650   1.410   3.763   8.141 -0.1622 -0.4486 -0.3992
 3338SOL    HW221651   1.408   3.619   8.088  1.4018 -1.2553  0.0371
 3339SOL     OW21652   3.957   1.246   8.825 -0.6511 -0.2103 -0.6427
 3339SOL    HW121653   3.997   1.316   8.772 -0.2943  0.6770  0.7943
 3339SOL    HW221654   3.867   1.275   8.839 -0.4426 -0.0350  0.3379
 3340SOL     OW21655   2.122   1.227  15.011 -0.2255  0.6804 -0.1629
 3340SOL    HW121656   2.080   1.150  14.971 -2.0951  2.1817 -1.0799
 3340SOL    HW221657   2.211   1.219  14.978 -0.0110  1.2462  0.2870
 3341SOL     OW21658   4.741   3.515   7.879 -0.1474 -0.3326  0.4809
 3341SOL    HW121659   0.012   3.576   7.807 -1.1728 -2.1879 -1.2725
 3341SOL    HW221660   4.688   3.449   7.834  0.4572  0.0369 -0.7873
 3342SOL     OW21661   2.209   1.654  12.238  0.2156  0.0655 -0.4523
 3342SOL    HW121662   2.125   1.611  12.227  1.2152 -1.6981 -1.1796
 3342SOL    HW221663   2.197   1.734  12.187 -0.9406 -0.1107 -0.4572
 3343SOL     OW21664   3.339   0.020  15.965  0.5190 -0.5244  0.4348
 3343SOL    HW121665   3.379   0.107  15.978  0.8077 -0.4378 -0.9442
 3343SOL    HW221666   3.313   0.001  16.055 -0.1006  1.7318  0.7274
 3344SOL     OW21667   2.305   0.279   9.274  0.3892  0.6233 -0.4528
 3344SOL    HW121668   2.367   0.312   9.338 -0.6602  2.8872 -0.5888
 3344SOL    HW221669   2.319   0.344   9.205  2.8139 -1.0710 -1.5311
 3345SOL     OW21670   3.189   4.066  12.615 -0.1220 -0.5872 -0.5507
 3345SOL    HW121671   3.109   4.041  12.662 -1.8737 -0.1072 -3.2988
 3345SOL    HW221672   3.167   4.028  12.530 -0.1657  0.3685 -0.9648
 3346SOL     OW21673   0.498   2.386   2.556  0.0394 -0.1684 -0.0422
 3346SOL    HW121674   0.443   2.404   2.633  1.4119 -1.5671  1.2672
 3346SOL    HW221675   0.570   2.332   2.589  0.1668 -0.4855 -0.8295
 3347SOL     OW21676   0.529   1.674   9.439  0.0929 -0.2511 -0.4583
 3347SOL    HW121677   0.574   1.612   9.497 -0.4558  0.1436  0.3831
 3347SOL    HW221678   0.439   1.644   9.448 -0.7717  2.7672  0.9908
 3348SOL     OW21679   1.027   3.501   1.220 -0.6219 -0.3733  0.4060
 3348SOL    HW121680   1.060   3.574   1.272 -0.3938  0.1293 -0.4443
 3348SOL    HW221681   0.932   3.514   1.216 -0.5318 -0.8650 -3.3434
 3349SOL     OW21682   2.408   0.484  16.834  0.0736 -0.1221 -0.3563
 3349SOL    HW121683   2.396   0.574  16.803  0.5484 -0.0448 -0.3089
 3349SOL    HW221684   2.498   0.489  16.865  0.9669  1.1504 -3.0573
 3350SOL     OW21685   2.974   3.331   6.411 -0.6906 -0.2774  0.2720
 3350SOL    HW121686   2.940   3.320   6.499 -1.9040  0.2169 -0.1269
 3350SOL    HW221687   2.960   3.425   6.401  0.8165 -0.3117 -2.2981
 3351SOL     OW21688   3.603   0.433   1.643 -0.4019 -0.0257  0.2116
 3351SOL    HW121689   3.668   0.485   1.689 -0.9297  1.4563 -0.6995
 3351SOL    HW221690   3.585   0.490   1.568 -1.4484 -1.1423 -0.4042
 3352SOL     OW21691   2.439   2.968   3.726 -0.8015  0.3927  0.1250
 3352SOL    HW121692   2.369   2.911   3.757  0.7682 -0.7988  1.4128
 3352SOL    HW221693   2.400   3.054   3.708  0.3472  0.9904  0.5003
 3353SOL     OW21694   0.901   0.741   7.486  0.0588 -0.1896 -0.2565
 3353SOL    HW121695   0.993   0.758   7.464 -0.0832 -0.3442 -0.9641
 3353SOL    HW221696   0.850   0.769   7.411 -1.3847 -0.5462  0.5854
 3354SOL     OW21697   2.282   2.129   1.475 -0.5821  0.1765 -0.1762
 3354SOL    HW121698   2.376   2.117   1.457 -0.2605  1.9550  0.3294
 3354SOL    HW221699   2.277   2.198   1.541  0.2199  1.4161 -1.4010
 3355SOL     OW21700   4.587   3.473   5.136 -0.1828  0.0011  0.3679
 3355SOL    HW121701   4.639   3.489   5.214 -0.2455  2.3989 -0.0894
 3355SOL    HW221702   4.538   3.556   5.135  1.5160  0.9879 -0.6866
 3356SOL     OW21703   2.770   1.501  13.365  0.5875 -0.3056  0.3918
 3356SOL    HW121704   2.677   1.488  13.383  0.6617 -0.4866  0.6324
 3356SOL    HW221705   2.760   1.566  13.295  2.1702  0.8855  1.2759
 3357SOL     OW21706   0.376   2.045  10.614  0.0277  0.2526 -0.5323
 3357SOL    HW121707   0.347   2.029  10.525 -0.3889  1.5604 -0.6266
 3357SOL    HW221708   0.371   1.956  10.648 -1.4584 -0.9971 -4.0759
 3358SOL     OW21709   2.493   1.740   7.084 -0.4653  0.0628  0.6047
 3358SOL    HW121710   2.402   1.731   7.113 -0.5492 -0.2403  0.2552
 3358SOL    HW221711   2.538   1.740   7.169 -0.1076 -1.5163  0.4210
 3359SOL     OW21712   1.051   2.699   0.831  0.1275  0.2337  0.0231
 3359SOL    HW121713   1.129   2.754   0.838 -0.1628  0.5854  0.4868
 3359SOL    HW221714   1.052   2.664   0.920  1.5104 -0.1461 -0.1309
 3360SOL     OW21715   2.019   1.064   6.670 -0.3323 -0.5735  0.0064
 3360SOL    HW121716   2.079   0.990   6.677  1.3951  0.4952 -3.3836
 3360SOL    HW221717   2.035   1.114   6.751  1.9946 -2.3049  0.6139
 3361SOL     OW21718   0.957   0.334   8.830 -0.0779 -0.5105 -0.3298
 3361SOL    HW121719   1.001   0.254   8.859 -0.3204  0.8838  3.8943
 3361SOL    HW221720   1.027   0.372   8.777 -0.4169  3.2287  1.8360
 3362SOL     OW21721   1.308   0.811   2.249 -0.1678 -0.3148  0.6711
 3362SOL    HW121722   1.327   0.875   2.180  0.7326 -0.4103  0.8243
 3362SOL    HW221723   1.218   0.794   2.224 -0.9945  0.8836  2.8779
 3363SOL     OW21724   4.094   0.567   4.449 -0.2011 -0.3989 -0.0874
 3363SOL    HW121725   4.068   0.593   4.538  0.8694 -1.7634  0.6266
 3363SOL    HW221726   4.168   0.628   4.445 -0.3773 -0.2528 -1.0240
 3364SOL     OW21727   0.927   0.343  16.059  0.0927 -0.6958  0.0818
 3364SOL    HW121728   0.849   0.394  16.038  2.8488  2.5415 -2.2530
 3364SOL    HW221729   0.891   0.254  16.065  0.4956 -0.8996 -0.5251
 3365SOL     OW21730   0.746   3.653  11.556 -0.4568 -0.4537  0.1434
 3365SOL    HW121731   0.660   3.694  11.548 -1.3680 -1.9401  2.4779
 3365SOL    HW221732   0.743   3.645  11.651 -1.2644 -0.7174  0.0924
 3366SOL     OW21733   1.279   2.474  11.087 -0.3386  0.0954  0.8483
 3366SOL    HW121734   1.327   2.497  11.167 -0.1185 -3.2224  1.6627
 3366SOL    HW221735   1.271   2.382  11.113  0.0613 -1.1139 -3.2974
 3367SOL     OW21736   3.513   0.929   5.135  0.1872  0.4282  0.6859
 3367SOL    HW121737   3.479   0.855   5.085 -0.9436  0.5440  1.2622
 3367SOL    HW221738   3.437   0.987   5.146  0.6142  0.7373  2.0462
 3368SOL     OW21739   2.930   4.571   3.553 -0.0672  0.3652  0.1963
 3368SOL    HW121740   2.960   4.578   3.643  0.1178 -0.3035  0.1858
 3368SOL    HW221741   3.006   4.609   3.507 -1.7951  1.7316 -1.5334
 3369SOL     OW21742   1.207   1.950   7.516  0.5468 -0.0466  0.1503
 3369SOL    HW121743   1.277   1.892   7.545  1.7546  0.3105 -2.0741
 3369SOL    HW221744   1.241   2.010   7.450 -1.6095 -0.1076 -1.0286
 3370SOL     OW21745   2.387   2.895   5.534  0.2395 -0.3769 -0.2049
 3370SOL    HW121746   2.395   2.919   5.627  0.1434 -0.8461 -0.0733
 3370SOL    HW221747   2.454   2.953   5.498 -0.3002  0.5185  0.2016
 3371SOL     OW21748   1.147   1.841  17.196 -0.4651 -0.1969  0.0630
 3371SOL    HW121749   1.083   1.777  17.227  1.1755 -2.1871 -0.6303
 3371SOL    HW221750   1.088   1.916  17.184 -1.8658 -1.1988  0.6487
 3372SOL     OW21751   2.616   2.781  11.715 -0.0283 -0.3844  0.1463
 3372SOL    HW121752   2.559   2.858  11.709 -0.7659 -1.1296 -2.2562
 3372SOL    HW221753   2.552   2.712  11.731 -1.4191  1.0432  0.8320
 3373SOL     OW21754   1.927   1.605   8.619  0.2886 -0.5817 -0.2333
 3373SOL    HW121755   1.877   1.644   8.548  1.3917 -1.6753 -1.6058
 3373SOL    HW221756   2.015   1.629   8.590 -0.7500  2.3770 -0.8980
 3374SOL     OW21757   3.066   4.104   6.307  0.1833 -0.2101  0.1053
 3374SOL    HW121758   3.003   4.177   6.315  1.0646  0.5465  0.1543
 3374SOL    HW221759   3.057   4.088   6.213  1.8385 -0.5180  0.0146
 3375SOL     OW21760   0.054   3.576  12.876  0.2895  0.1209 -0.1127
 3375SOL    HW121761   0.109   3.528  12.814  0.3522 -0.5515  0.4642
 3375SOL    HW221762   0.031   3.511  12.943 -0.2207 -0.5213 -0.9081
 3376SOL     OW21763   2.983   2.129  13.721 -0.3525  0.0400  0.7704
 3376SOL    HW121764   3.055   2.090  13.770  0.6604  1.5964  0.5315
 3376SOL    HW221765   3.021   2.134  13.633 -0.9528  0.0962  0.5137
 3377SOL     OW21766   2.472   3.479   7.953 -0.3475  0.3712 -0.1298
 3377SOL    HW121767   2.509   3.401   7.995 -1.1150 -0.4697 -1.0167
 3377SOL    HW221768   2.520   3.486   7.871  0.5331  0.5127  0.3912
 3378SOL     OW21769   3.159   4.632   7.000 -0.6427  0.0825 -0.0518
 3378SOL    HW121770   3.188   4.558   7.052 -1.0103  0.0742  0.1436
 3378SOL    HW221771   3.244   4.671   6.981 -1.5960  0.9196 -2.5638
 3379SOL     OW21772   1.288   0.069   8.655 -0.1606 -0.2528 -0.1939
 3379SOL    HW121773   1.221   0.001   8.656 -1.4034  0.9853 -0.2706
 3379SOL    HW221774   1.244   0.151   8.633 -2.5897 -1.5177  0.0104
 3380SOL     OW21775   4.233   4.381  12.353  0.3463  0.0044  0.0556
 3380SOL    HW121776   4.185   4.349  12.429  0.1044 -0.2280 -0.1971
 3380SOL    HW221777   4.167   4.363  12.286 -0.9395  0.0781  1.2914
 3381SOL     OW21778   3.021   0.499   2.550 -0.0599  0.3825 -0.5448
 3381SOL    HW121779   3.057   0.514   2.638 -2.1352 -1.2656  0.5911
 3381SOL    HW221780   3.003   0.589   2.521 -0.6363 -0.3626 -2.4972
 3382SOL     OW21781   3.225   1.378   0.226  0.4095  0.3292  0.3344
 3382SOL    HW121782   3.265   1.291   0.216 -0.6636 -0.1864  0.5942
 3382SOL    HW221783   3.188   1.387   0.138  0.6966 -1.5002  0.0240
 3383SOL     OW21784   1.637   1.029  15.417 -0.3780  0.6714  0.1483
 3383SOL    HW121785   1.561   0.994  15.463  0.3726 -1.3358 -0.1421
 3383SOL    HW221786   1.705   1.039  15.484  0.5461  0.1903 -0.7176
 3384SOL     OW21787   3.023   1.509   1.518 -0.5428  0.1611 -0.4168
 3384SOL    HW121788   3.029   1.518   1.423  0.7445 -0.6168 -0.4192
 3384SOL    HW221789   3.041   1.598   1.550  1.2809 -0.8044  1.2438
 3385SOL     OW21790   1.885   2.920   6.894 -0.1749  0.4954  0.0791
 3385SOL    HW121791   1.892   2.826   6.910  0.9364  0.5519 -0.0797
 3385SOL    HW221792   1.899   2.918   6.800 -1.6635  1.4832 -0.1754
 3386SOL     OW21793   0.047   2.119   5.048  0.1916  0.1551  0.1406
 3386SOL    HW121794   0.033   2.110   4.953  0.5746  0.9608  0.0078
 3386SOL    HW221795   0.124   2.177   5.051 -0.3250  0.8697 -0.3995
 3387SOL     OW21796   3.355   2.806   3.290  0.0886  0.4293  0.0717
 3387SOL    HW121797   3.361   2.770   3.378 -0.4174  1.7716  0.6611
 3387SOL    HW221798   3.262   2.829   3.289 -0.0802 -0.2705 -0.1139
 3388SOL     OW21799   4.447   0.739   3.514 -0.5626  0.0122  0.2072
 3388SOL    HW121800   4.542   0.744   3.526 -0.8173  0.7185  1.8770
 3388SOL    HW221801   4.414   0.694   3.592 -0.9900  2.4262  1.4280
 3389SOL     OW21802   3.537   0.814  10.709 -0.4012  0.1419 -0.1732
 3389SOL    HW121803   3.462   0.802  10.768 -0.1490  0.7728  0.2807
 3389SOL    HW221804   3.573   0.892  10.751 -0.3440  1.2175 -2.2514
 3390SOL     OW21805   3.363   3.369   0.409  1.4141 -0.1549  0.1013
 3390SOL    HW121806   3.379   3.457   0.375 -1.0849  0.0226 -0.6502
 3390SOL    HW221807   3.286   3.394   0.461  0.1220 -0.2209 -1.7867
 3391SOL     OW21808   2.161   2.721   6.272  0.2095 -0.2849  0.5919
 3391SOL    HW121809   2.205   2.769   6.202 -0.6973  1.7233  1.3987
 3391SOL    HW221810   2.070   2.748   6.263  0.6447  1.5391  1.5339
 3392SOL     OW21811   1.718   3.825   1.781 -0.5921  0.2844 -0.2405
 3392SOL    HW121812   1.634   3.779   1.786 -0.9504  0.9439 -0.1096
 3392SOL    HW221813   1.752   3.790   1.699  2.4162 -1.6303  1.8246
 3393SOL     OW21814   4.493   1.464  13.310  0.2874  0.4640  0.3247
 3393SOL    HW121815   4.517   1.404  13.239 -0.0974 -1.0403  1.4648
 3393SOL    HW221816   4.405   1.499  13.292  0.5139  0.9850  0.2189
 3394SOL     OW21817   3.584   0.011  11.121 -0.3391  0.0217  0.3474
 3394SOL    HW121818   3.660   4.694  11.125 -1.1595 -0.9256  1.7551
 3394SOL    HW221819   3.537   4.707  11.051  0.1840  1.2909 -0.8532
 3395SOL     OW21820   0.381   2.364   5.863  0.1474 -0.3325 -0.2650
 3395SOL    HW121821   0.459   2.315   5.890 -0.7398 -0.5864  1.8401
 3395SOL    HW221822   0.335   2.294   5.817  0.3385 -0.5685 -0.0951
 3396SOL     OW21823   0.378   1.818   5.511  0.3967  0.5111 -0.3249
 3396SOL    HW121824   0.298   1.771   5.488  2.8651 -3.5575 -0.6533
 3396SOL    HW221825   0.372   1.888   5.445 -0.1607 -0.7200 -1.5764
 3397SOL     OW21826   1.904   2.994   4.541 -0.1862 -0.0832  0.8336
 3397SOL    HW121827   1.969   3.048   4.498 -1.9047  1.4106  0.0954
 3397SOL    HW221828   1.968   2.940   4.586 -2.3298 -2.7552  0.7287
 3398SOL     OW21829   4.463   0.358  10.065  0.1961 -0.6353  0.1313
 3398SOL    HW121830   4.475   0.387   9.975  0.4155  0.2539  0.4436
 3398SOL    HW221831   4.539   0.403  10.103 -0.9171 -0.9564  2.7632
 3399SOL     OW21832   4.468   2.919  15.966  0.1121  0.1906 -0.4777
 3399SOL    HW121833   4.379   2.903  15.998 -0.2281 -1.6935 -2.4375
 3399SOL    HW221834   4.484   3.009  15.995  3.3791 -0.2193 -0.9761
 3400SOL     OW21835   3.346   0.889   5.843  0.0751  0.6036 -0.4543
 3400SOL    HW121836   3.355   0.969   5.894  0.0432  0.8017 -0.7572
 3400SOL    HW221837   3.283   0.848   5.901 -1.0716 -0.2439 -2.3189
 3401SOL     OW21838   2.762   2.440   3.731 -0.5704  0.4717  0.0452
 3401SOL    HW121839   2.799   2.365   3.777  0.0064  0.7034 -0.0332
 3401SOL    HW221840   2.691   2.459   3.791 -1.4579  0.3919 -0.9807
 3402SOL     OW21841   3.235   4.734   8.355 -0.0197  0.0047 -0.1493
 3402SOL    HW121842   3.186   0.065   8.392  0.8028 -0.0721  1.0818
 3402SOL    HW221843   3.211   4.669   8.421 -0.8861 -1.0153 -1.4641
 3403SOL     OW21844   0.358   3.079   8.159 -0.1365  0.1713 -0.8678
 3403SOL    HW121845   0.436   3.026   8.142 -1.0241 -1.3479 -0.1327
 3403SOL    HW221846   0.394   3.167   8.172 -0.6885  0.1468  0.8140
 3404SOL     OW21847   3.451   2.582   8.673  0.1043 -0.0689  0.0214
 3404SOL    HW121848   3.371   2.575   8.725  0.1053 -1.6683 -0.1904
 3404SOL    HW221849   3.435   2.519   8.603 -0.0036 -1.9932  1.7676
 3405SOL     OW21850   2.533   3.446   5.697 -0.3494 -0.1978 -0.5051
 3405SOL    HW121851   2.575   3.447   5.610  2.1487 -0.6948  0.6917
 3405SOL    HW221852   2.525   3.352   5.711  1.8866 -0.4073 -0.6267
 3406SOL     OW21853   1.898   2.684  16.411  0.4479 -0.9452  1.1702
 3406SOL    HW121854   1.807   2.711  16.400  0.6540 -0.8465 -0.2783
 3406SOL    HW221855   1.929   2.749  16.474 -0.4256 -0.1809  0.8056
 3407SOL     OW21856   4.459   2.803   5.126  0.3193 -0.4831  0.0433
 3407SOL    HW121857   4.526   2.837   5.186 -0.9827  2.9359 -0.4632
 3407SOL    HW221858   4.449   2.714   5.159 -0.2860  0.1850  1.6960
 3408SOL     OW21859   3.582   1.899   5.186 -0.4067  0.1101 -0.0921
 3408SOL    HW121860   3.677   1.907   5.179 -0.2130 -0.9955  1.2508
 3408SOL    HW221861   3.562   1.949   5.265  1.5619 -1.1626  1.1959
 3409SOL     OW21862   1.662   1.674   7.682  0.1716  0.1436  0.1349
 3409SOL    HW121863   1.723   1.601   7.691  0.4290  0.6555  2.4989
 3409SOL    HW221864   1.719   1.749   7.664 -1.3190  1.2885  0.1476
 3410SOL     OW21865   1.382   4.125  11.900 -0.2676 -0.4932  0.4283
 3410SOL    HW121866   1.381   4.127  11.804 -1.5032 -0.0245  0.4561
 3410SOL    HW221867   1.419   4.038  11.915  2.7913  0.1107 -3.4154
 3411SOL     OW21868   2.479   4.364   8.521  0.5527  0.1705 -0.1091
 3411SOL    HW121869   2.457   4.317   8.601 -0.9649  0.1570 -0.5248
 3411SOL    HW221870   2.515   4.292   8.469 -1.6589 -0.3675 -0.9039
 3412SOL     OW21871   2.157   4.664   3.277 -0.0263  0.3346 -0.2136
 3412SOL    HW121872   2.192   4.575   3.275  0.8364  0.6296  1.7463
 3412SOL    HW221873   2.114   4.658   3.363 -0.7689  2.1867 -0.4567
 3413SOL     OW21874   3.130   2.799  16.520 -0.4641 -0.4371 -0.6678
 3413SOL    HW121875   3.194   2.838  16.460  1.9336  0.8971  2.7130
 3413SOL    HW221876   3.119   2.717  16.473  0.4988  0.1182 -1.8734
 3414SOL     OW21877   1.164   0.725   0.688 -0.2061 -0.2022 -0.2919
 3414SOL    HW121878   1.087   0.691   0.734 -0.8051 -1.2909 -2.0753
 3414SOL    HW221879   1.136   0.816   0.686 -0.3476 -0.2586 -0.8838
 3415SOL     OW21880   3.822   1.834   8.753 -0.3057  0.5440  0.0450
 3415SOL    HW121881   3.832   1.742   8.729  0.6226  0.7071 -0.2152
 3415SOL    HW221882   3.745   1.855   8.700 -1.2040 -1.8650  0.3937
 3416SOL     OW21883   3.650   1.333  10.942  0.6872 -0.2786  0.1495
 3416SOL    HW121884   3.555   1.334  10.948  0.6640  0.6151 -0.3638
 3416SOL    HW221885   3.684   1.279  11.014  0.8193 -0.2634  0.0980
 3417SOL     OW21886   0.733   4.279   5.020  0.8858  0.0748 -0.0497
 3417SOL    HW121887   0.794   4.323   5.081  2.5432 -2.5448  0.1695
 3417SOL    HW221888   0.777   4.201   4.988 -1.8026 -1.2096 -0.5897
 3418SOL     OW21889   4.527   0.790   1.901  0.1187 -0.0282 -0.1227
 3418SOL    HW121890   4.522   0.863   1.963  0.6512  0.9008 -1.1636
 3418SOL    HW221891   4.622   0.783   1.886  0.4839  2.3699  1.0194
 3419SOL     OW21892   3.448   4.226   7.536 -0.2793  0.4152 -0.0746
 3419SOL    HW121893   3.511   4.224   7.609  0.7529 -2.3243 -1.0662
 3419SOL    HW221894   3.379   4.166   7.564 -2.8396  2.4083 -2.1759
 3420SOL     OW21895   2.330   2.150   0.253  0.0378  0.0409  0.1369
 3420SOL    HW121896   2.323   2.075   0.312 -0.0509  0.3316  0.4973
 3420SOL    HW221897   2.411   2.134   0.204  0.8773  3.1317  0.5668
 3421SOL     OW21898   0.789   1.570   8.975 -0.3171  0.1962  0.1791
 3421SOL    HW121899   0.833   1.606   8.899 -1.3325 -0.5922 -0.7814
 3421SOL    HW221900   0.696   1.576   8.952 -0.3731  1.0210  0.6147
 3422SOL     OW21901   0.140   3.164   0.679 -0.4332  0.4108  0.5327
 3422SOL    HW121902   0.184   3.085   0.648  1.3806  1.3376  0.7736
 3422SOL    HW221903   0.147   3.208   0.594 -3.0413 -3.7168 -1.8267
 3423SOL     OW21904   0.161   0.787   2.930 -0.0463 -0.1614  0.0849
 3423SOL    HW121905   0.207   0.702   2.926 -1.6296 -0.9970 -0.1609
 3423SOL    HW221906   0.232   0.850   2.914 -0.1343  0.0905  0.6979
 3424SOL     OW21907   1.866   3.229   6.296 -0.1722  0.9397  0.3938
 3424SOL    HW121908   1.961   3.224   6.300 -0.1760  0.2995 -0.3860
 3424SOL    HW221909   1.839   3.138   6.310 -0.8707  0.6637 -2.8121
 3425SOL     OW21910   4.287   4.620  12.986 -0.2424  0.6429 -0.1706
 3425SOL    HW121911   4.376   4.591  12.968  0.1356 -0.1954  2.9321
 3425SOL    HW221912   4.252   4.551  13.042  1.1431  1.7672  2.0758
 3426SOL     OW21913   1.979   4.425   4.677 -0.0175 -0.2288 -0.5562
 3426SOL    HW121914   1.961   4.455   4.766  0.5441  2.0074 -1.1907
 3426SOL    HW221915   2.074   4.418   4.677  0.0579  0.8154 -1.5745
 3427SOL     OW21916   4.016   1.751  11.704  0.0166  0.2903 -0.3480
 3427SOL    HW121917   4.082   1.740  11.772 -0.8312  0.4205  0.5004
 3427SOL    HW221918   4.016   1.845  11.685  0.1372  0.5661  1.0362
 3428SOL     OW21919   1.000   1.733  13.244 -0.5462  0.2004 -0.6322
 3428SOL    HW121920   1.089   1.699  13.253 -1.7230 -2.7560 -0.3451
 3428SOL    HW221921   0.960   1.681  13.175 -0.1830 -2.6342  1.2896
 3429SOL     OW21922   0.979   3.977   7.573 -0.5223 -0.3538  0.1728
 3429SOL    HW121923   0.985   3.882   7.561 -0.9191 -0.5398  1.4717
 3429SOL    HW221924   1.061   4.002   7.530 -0.3005 -0.6079  0.4487
 3430SOL     OW21925   3.285   1.785   3.098  0.4369 -1.3868 -0.3977
 3430SOL    HW121926   3.217   1.845   3.130 -0.1913 -1.4432 -1.6560
 3430SOL    HW221927   3.308   1.827   3.015  0.8301 -1.3215 -0.2578
 3431SOL     OW21928   1.150   0.030   7.999 -0.2601 -0.0170  0.0148
 3431SOL    HW121929   1.105   4.703   8.048  1.0759  0.5029  2.0109
 3431SOL    HW221930   1.126   0.005   7.910 -1.0733  0.4546  0.1047
 3432SOL     OW21931   3.271   2.880   8.022 -0.1287 -0.7780  0.0848
 3432SOL    HW121932   3.201   2.830   8.064 -1.2028  1.1005  0.4757
 3432SOL    HW221933   3.247   2.972   8.020  3.0503  0.0539 -0.2856
 3433SOL     OW21934   3.162   3.342   8.815 -0.2136 -1.0920  0.1947
 3433SOL    HW121935   3.071   3.319   8.794 -0.0717  0.3646 -1.9218
 3433SOL    HW221936   3.179   3.306   8.902 -0.0672  0.7661  0.9368
 3434SOL     OW21937   2.447   3.926  17.510  0.3889  0.3134  0.0883
 3434SOL    HW121938   2.428   3.894  17.422  1.6587 -1.5670  0.5101
 3434SOL    HW221939   2.357   3.927  17.542  0.2829  1.2349 -0.2395
 3435SOL     OW21940   0.488   3.709  11.576 -0.0587  0.6454  0.1531
 3435SOL    HW121941   0.401   3.743  11.557 -0.3020 -1.8414 -3.2866
 3435SOL    HW221942   0.482   3.729  11.669 -3.3405 -0.9225  0.2643
 3436SOL     OW21943   2.732   0.419   4.779  0.1681 -0.1391 -0.2981
 3436SOL    HW121944   2.728   0.395   4.872 -0.0025 -0.5672 -0.4163
 3436SOL    HW221945   2.678   0.355   4.734  2.2237 -0.7973 -1.8351
 3437SOL     OW21946   3.290   1.796   9.413 -0.2093  0.0049 -0.6750
 3437SOL    HW121947   3.274   1.702   9.414 -2.3685  0.3903  1.0325
 3437SOL    HW221948   3.329   1.811   9.500  2.5352 -2.7359 -1.4335
 3438SOL     OW21949   4.174   1.878   7.633 -0.1531 -0.3032 -0.2976
 3438SOL    HW121950   4.203   1.804   7.580  0.1917 -0.9368  0.7710
 3438SOL    HW221951   4.247   1.886   7.694 -0.3852  1.9762 -0.3065
 3439SOL     OW21952   3.655   2.212   3.363  0.2763  0.2300  0.5769
 3439SOL    HW121953   3.706   2.160   3.301 -1.5635  0.8263 -1.4473
 3439SOL    HW221954   3.623   2.142   3.419  0.1981 -1.2391 -1.2773
 3440SOL     OW21955   4.000   3.889   1.495 -0.3367 -0.5818 -0.2405
 3440SOL    HW121956   3.984   3.799   1.466 -0.4407 -0.3826 -0.8136
 3440SOL    HW221957   3.911   3.924   1.492 -0.6970 -1.6135 -1.9997
 3441SOL     OW21958   0.599   1.254   4.205  0.1801 -0.6985 -0.1658
 3441SOL    HW121959   0.516   1.210   4.185  0.7536 -1.0999 -1.6343
 3441SOL    HW221960   0.663   1.205   4.154  0.1941  0.2897 -1.0802
 3442SOL     OW21961   0.091   2.921   3.065 -0.1773 -0.4542  0.1020
 3442SOL    HW121962   0.071   2.850   3.003 -0.7673 -0.5925  0.4481
 3442SOL    HW221963   0.107   2.886   3.153  0.2972 -0.6629 -0.0696
 3443SOL     OW21964   1.217   2.174   5.246 -0.1947  0.2984  0.7123
 3443SOL    HW121965   1.241   2.093   5.199 -3.6876 -1.0038  1.1888
 3443SOL    HW221966   1.297   2.196   5.294  0.6988 -0.8741 -0.2217
 3444SOL     OW21967   0.485   0.602   3.495 -0.1664  0.5633 -0.2448
 3444SOL    HW121968   0.547   0.633   3.430  0.9247 -0.4189  0.3295
 3444SOL    HW221969   0.416   0.561   3.442  0.8828  0.5373 -1.5707
 3445SOL     OW21970   2.394   1.608   6.385  0.7818  0.0595 -0.0229
 3445SOL    HW121971   2.331   1.560   6.331 -0.7601  0.6571  1.2562
 3445SOL    HW221972   2.451   1.644   6.317  0.7273  0.1574 -0.0163
 3446SOL     OW21973   1.455   4.508  10.793  0.0555  0.5986  0.0345
 3446SOL    HW121974   1.446   4.419  10.759  0.1971  1.1147 -1.3442
 3446SOL    HW221975   1.550   4.507  10.804 -0.1319 -0.1255  1.6355
 3447SOL     OW21976   2.909   2.929   8.059 -0.1211  0.3358  0.0832
 3447SOL    HW121977   2.895   2.838   8.085  0.3442 -0.2074 -1.5102
 3447SOL    HW221978   2.919   2.975   8.142 -0.0352  0.7693 -0.1625
 3448SOL     OW21979   1.195   0.320   1.851 -0.0415 -0.2760 -0.1285
 3448SOL    HW121980   1.284   0.352   1.868 -0.2120 -0.2178  0.6247
 3448SOL    HW221981   1.204   0.266   1.773 -0.9282  0.5517 -0.8106
 3449SOL     OW21982   1.730   2.149   1.421  0.0404 -0.2608  0.1277
 3449SOL    HW121983   1.773   2.070   1.454 -0.4583  0.1097  1.6725
 3449SOL    HW221984   1.801   2.210   1.404 -0.5073  0.0751 -0.9563
 3450SOL     OW21985   1.166   2.624   3.276 -0.3106  0.2799 -0.1215
 3450SOL    HW121986   1.244   2.659   3.318 -0.4535  0.4158  0.0306
 3450SOL    HW221987   1.111   2.610   3.353 -3.4199  2.3593 -1.9332
 3451SOL     OW21988   1.624   2.148  16.708 -0.0433 -0.0299 -0.6329
 3451SOL    HW121989   1.661   2.088  16.644  1.1049  1.4927 -1.4016
 3451SOL    HW221990   1.546   2.192  16.673 -1.0719 -2.7476 -1.7199
 3452SOL     OW21991   0.430   2.406  15.423  0.1911 -0.0425 -0.3345
 3452SOL    HW121992   0.354   2.463  15.412 -1.7831 -2.0618  3.0295
 3452SOL    HW221993   0.502   2.466  15.400  0.8279 -0.1768  1.3159
 3453SOL     OW21994   3.097   4.091   2.377 -0.0434 -0.0394  0.6227
 3453SOL    HW121995   3.097   4.169   2.433 -3.2108  0.0368  0.5630
 3453SOL    HW221996   3.079   4.026   2.444 -1.0444 -0.7945 -0.3775
 3454SOL     OW21997   0.687   4.633   3.583  0.3612 -0.6796  0.1483
 3454SOL    HW121998   0.599   4.622   3.620  0.0526  1.5635  0.0861
 3454SOL    HW221999   0.675   4.658   3.491 -0.4443 -0.8347  0.2116
 3455SOL     OW22000   1.941   2.348   8.979  0.3309  0.3204  0.1583
 3455SOL    HW122001   1.915   2.326   9.068 -0.9211  3.5936  0.5846
 3455SOL    HW222002   1.924   2.442   8.978  1.3475  0.5057  0.1048
 3456SOL     OW22003   2.605   2.986   2.870  0.2805  0.2233 -0.4641
 3456SOL    HW122004   2.689   2.940   2.869  0.8653  1.3184 -1.8512
 3456SOL    HW222005   2.582   2.993   2.778  1.8150  1.6026 -0.7497
 3457SOL     OW22006   1.663   0.512   8.922 -0.2820 -0.4032 -0.3156
 3457SOL    HW122007   1.581   0.495   8.969 -0.4177  1.2320  0.0360
 3457SOL    HW222008   1.714   0.546   8.995 -0.5599 -1.9175  0.5903
 3458SOL     OW22009   4.330   1.142   5.430 -0.5797 -0.0119  0.1434
 3458SOL    HW122010   4.328   1.217   5.371 -0.1666 -0.0386  0.0968
 3458SOL    HW222011   4.347   1.179   5.517  2.8024 -0.4939 -0.3381
 3459SOL     OW22012   2.162   0.481   5.657  0.2012  0.2053  0.8775
 3459SOL    HW122013   2.191   0.392   5.678  0.4607  0.1766  0.3952
 3459SOL    HW222014   2.069   0.466   5.645  0.4339  0.6451 -1.4794
 3460SOL     OW22015   3.583   1.278   7.151  0.3580  0.1781 -0.1089
 3460SOL    HW122016   3.636   1.218   7.099 -0.3934  1.0602 -1.8842
 3460SOL    HW222017   3.539   1.336   7.089  2.5265  0.8911 -0.9675
 3461SOL     OW22018   2.789   0.912  15.874 -0.1688  0.1836 -0.3350
 3461SOL    HW122019   2.862   0.858  15.844  0.0211 -0.1856  0.7875
 3461SOL    HW222020   2.720   0.882  15.815  3.0139 -1.8234 -3.0167
 3462SOL     OW22021   1.290   0.533  12.671  0.1283 -0.4327  0.2704
 3462SOL    HW122022   1.197   0.543  12.692  0.1984 -1.6696  1.1420
 3462SOL    HW222023   1.296   0.590  12.594  1.7470 -2.6344 -1.2188
 3463SOL     OW22024   0.275   0.656   6.393  0.3622 -0.1061 -0.4011
 3463SOL    HW122025   0.337   0.583   6.389  1.1704  0.5170  0.5668
 3463SOL    HW222026   0.319   0.702   6.465 -0.0474 -1.6062  0.8095
 3464SOL     OW22027   4.742   3.338   2.078 -0.1579  0.0444  0.4587
 3464SOL    HW122028   0.014   3.287   2.158 -0.6268 -0.9255 -0.0729
 3464SOL    HW222029   0.020   3.279   2.005  0.7581  1.4150 -0.4079
 3465SOL     OW22030   3.334   0.750   8.851 -0.6913  0.4513 -0.1032
 3465SOL    HW122031   3.254   0.701   8.870 -0.1225 -0.5439 -0.2668
 3465SOL    HW222032   3.298   0.833   8.820  0.7650  1.0501 -0.2090
 3466SOL     OW22033   0.767   2.898   7.672  0.8185  0.7588 -0.3282
 3466SOL    HW122034   0.772   2.951   7.593  2.0323  0.5725 -0.3857
 3466SOL    HW222035   0.701   2.943   7.725  2.6139  0.0573  2.5451
 3467SOL     OW22036   1.188   1.034   5.187  0.0388 -0.3905  0.2798
 3467SOL    HW122037   1.160   1.079   5.267  1.6635 -0.5048  0.9102
 3467SOL    HW222038   1.124   1.064   5.123  1.3836  3.0497  0.5292
 3468SOL     OW22039   1.640   4.212   6.544  0.5824 -0.2211 -0.4975
 3468SOL    HW122040   1.630   4.169   6.459  1.7799  0.4836 -0.9964
 3468SOL    HW222041   1.684   4.293   6.518  1.1763  0.1641  1.6808
 3469SOL     OW22042   4.572   4.100   0.560  0.7411  0.2131 -0.0256
 3469SOL    HW122043   4.624   4.020   0.553 -0.8633 -0.9401  1.0382
 3469SOL    HW222044   4.619   4.141   0.633 -0.5492  1.1320  0.2954
 3470SOL     OW22045   2.050   0.484   2.916  0.1182  0.5536 -0.4767
 3470SOL    HW122046   1.968   0.489   2.866 -0.5529  0.0236  0.5622
 3470SOL    HW222047   2.070   0.391   2.915 -0.3116  0.4358  1.2267
 3471SOL     OW22048   2.870   3.026   4.493  0.2969  0.1748 -0.2460
 3471SOL    HW122049   2.786   3.051   4.455 -0.9366 -1.5884  1.3239
 3471SOL    HW222050   2.897   2.956   4.434  1.4139  0.7401 -0.4048
 3472SOL     OW22051   4.042   2.276  14.960  0.7465  0.4357 -0.8931
 3472SOL    HW122052   4.086   2.361  14.969  0.5235  0.4563  0.0279
 3472SOL    HW222053   4.052   2.257  14.867 -0.2622  1.1242 -1.1467
 3473SOL     OW22054   0.554   2.195   8.363  0.0576  0.1347  0.6475
 3473SOL    HW122055   0.570   2.258   8.434  3.5999 -0.6054  0.5331
 3473SOL    HW222056   0.526   2.123   8.419  0.1879  0.1972  0.7936
 3474SOL     OW22057   3.840   1.960   3.420  0.0508  0.0663 -0.1477
 3474SOL    HW122058   3.868   2.014   3.346  0.4592 -0.6961 -0.5579
 3474SOL    HW222059   3.878   2.012   3.491 -0.1127  0.7169 -0.5416
 3475SOL     OW22060   1.752   2.376  16.799  0.4360  0.1946 -0.1416
 3475SOL    HW122061   1.755   2.400  16.707  0.3270 -2.2136 -0.7666
 3475SOL    HW222062   1.717   2.287  16.792 -1.6864  1.2411 -2.6442
 3476SOL     OW22063   0.524   1.609   3.703 -0.1331 -0.1940 -0.2053
 3476SOL    HW122064   0.526   1.514   3.697  1.6166 -0.1334 -0.4006
 3476SOL    HW222065   0.440   1.615   3.657 -0.1039  0.8624 -0.1324
 3477SOL     OW22066   3.527   1.224   0.080  0.7705  0.2217 -0.8184
 3477SOL    HW122067   3.458   1.163   0.105  1.7473 -0.8349 -0.7131
 3477SOL    HW222068   3.606   1.173   0.099 -0.8471 -1.9479  0.0487
 3478SOL     OW22069   2.542   1.260   6.228 -0.6253  0.2138 -0.0132
 3478SOL    HW122070   2.560   1.236   6.137 -0.2752  1.2111 -0.2025
 3478SOL    HW222071   2.598   1.336   6.243 -0.4586 -0.3275  2.2310
 3479SOL     OW22072   3.948   2.132   3.240  0.0935 -0.6204  0.1570
 3479SOL    HW122073   4.008   2.112   3.168  1.7920 -2.5167  2.0980
 3479SOL    HW222074   3.938   2.227   3.228 -1.0219 -0.6161  1.0899
 3480SOL     OW22075   3.188   1.128   9.015 -0.1798  0.5542  0.0986
 3480SOL    HW122076   3.233   1.197   8.967 -0.3825  1.3170  1.0150
 3480SOL    HW222077   3.164   1.077   8.938 -1.5800 -0.2707  1.0640
 3481SOL     OW22078   0.762   3.461   1.810  0.5348 -0.0698 -0.2736
 3481SOL    HW122079   0.668   3.468   1.790 -0.0154 -0.8623  1.9982
 3481SOL    HW222080   0.799   3.462   1.722  0.7807  1.0098 -0.1604
 3482SOL     OW22081   2.777   0.225   6.465 -0.4197 -0.0308 -0.8068
 3482SOL    HW122082   2.751   0.167   6.537  0.5026  0.9357  0.3012
 3482SOL    HW222083   2.865   0.256   6.486 -0.2986 -0.3075 -0.8968
 3483SOL     OW22084   1.176   3.853  11.192  0.3767 -0.1576 -0.4721
 3483SOL    HW122085   1.265   3.842  11.158  0.2576  0.8392 -1.0955
 3483SOL    HW222086   1.180   3.948  11.204 -1.1116 -0.4520  2.2872
 3484SOL     OW22087   1.763   4.253   3.647 -0.4853 -0.3248 -0.0270
 3484SOL    HW122088   1.786   4.340   3.615 -1.6145  0.3393  0.9633
 3484SOL    HW222089   1.807   4.255   3.732 -1.2128  1.1529  0.3188
 3485SOL     OW22090   0.137   1.970   9.794 -0.0578  0.3127  0.2724
 3485SOL    HW122091   0.103   1.905   9.732 -0.2260  1.6726 -1.0348
 3485SOL    HW222092   0.087   2.046   9.766  0.8017  0.8584  0.2442
 3486SOL     OW22093   4.293   4.464  14.457  0.0765  0.0392  0.0752
 3486SOL    HW122094   4.339   4.392  14.500 -1.7003  0.0148  1.9479
 3486SOL    HW222095   4.328   4.539  14.505  0.7286  0.3346 -0.8866
 3487SOL     OW22096   1.494   2.267  11.431  0.9673  0.0339  0.2957
 3487SOL    HW122097   1.589   2.259  11.434  0.9406 -0.0707  0.7600
 3487SOL    HW222098   1.468   2.262  11.523  1.3859  0.9885  0.4640
 3488SOL     OW22099   0.385   1.287   5.851  0.2040 -0.2847  0.3462
 3488SOL    HW122100   0.319   1.299   5.920 -0.2665 -2.1194  0.2359
 3488SOL    HW222101   0.443   1.218   5.883 -0.1302 -0.4260  0.6476
 3489SOL     OW22102   4.538   1.954  16.490  0.2466  0.4539 -0.3546
 3489SOL    HW122103   4.586   1.885  16.535 -1.3118 -0.3956  0.0209
 3489SOL    HW222104   4.587   2.023  16.533  4.1069 -3.3136  1.2367
 3490SOL     OW22105   1.476   0.902  16.421  0.2202  0.5492 -0.2979
 3490SOL    HW122106   1.447   0.990  16.445 -2.7299 -0.7153  0.7730
 3490SOL    HW222107   1.458   0.860  16.506 -1.4349  1.1674 -0.3396
 3491SOL     OW22108   4.062   1.377  14.563  0.0746  0.5262 -0.6086
 3491SOL    HW122109   4.006   1.367  14.641 -0.8128 -1.4126 -1.5007
 3491SOL    HW222110   4.001   1.337  14.501  1.7516 -1.1851 -1.1262
 3492SOL     OW22111   2.005   0.524   9.671  0.2788 -0.5139 -0.1415
 3492SOL    HW122112   1.980   0.497   9.583  0.8087  3.1494 -1.4079
 3492SOL    HW222113   1.943   0.488   9.735 -1.2068  0.5389 -0.9946
 3493SOL     OW22114   4.597   2.912   1.750  0.4677 -0.6003 -0.4394
 3493SOL    HW122115   4.611   2.827   1.708  1.1492 -0.3719 -0.6748
 3493SOL    HW222116   4.607   2.886   1.841 -0.6527 -1.5045 -0.5749
 3494SOL     OW22117   1.959   2.341   7.695 -0.7369  0.0956 -0.0203
 3494SOL    HW122118   1.915   2.420   7.727  2.1595  2.3625 -1.6528
 3494SOL    HW222119   2.042   2.383   7.674  0.6077 -1.0884  2.9561
 3495SOL     OW22120   4.652   4.102   2.530  0.0976 -0.0604 -0.0552
 3495SOL    HW122121   4.596   4.141   2.462 -0.9362 -1.3987  0.0401
 3495SOL    HW222122   4.740   4.124   2.501  0.4939 -1.5423  0.0210
 3496SOL     OW22123   2.781   3.204   1.618 -0.2769  0.9671 -0.2087
 3496SOL    HW122124   2.763   3.270   1.550 -0.1131  1.5206  0.2885
 3496SOL    HW222125   2.875   3.218   1.631 -0.2176 -1.6534  1.9036
 3497SOL     OW22126   0.447   0.699   4.341  0.0004  0.0746 -0.0358
 3497SOL    HW122127   0.379   0.754   4.381 -0.4525 -1.0082  0.7157
 3497SOL    HW222128   0.447   0.746   4.257  1.3440  0.9358  0.4501
 3498SOL     OW22129   2.196   3.527   6.460 -0.4733  0.0375 -0.3862
 3498SOL    HW122130   2.282   3.566   6.472 -0.9879  0.6819  1.1022
 3498SOL    HW222131   2.150   3.599   6.416  0.8786  0.3395 -1.3096
 3499SOL     OW22132   0.021   2.384  16.672 -0.0771 -0.4666 -0.3678
 3499SOL    HW122133   0.075   2.416  16.744  0.6686  0.9583 -1.5611
 3499SOL    HW222134   4.717   2.311  16.712 -0.7061  0.7508  1.1540
 3500SOL     OW22135   0.917   1.124   9.685 -0.1917 -0.5350 -0.4889
 3500SOL    HW122136   1.012   1.129   9.692 -0.1988 -0.6207 -0.3385
 3500SOL    HW222137   0.904   1.104   9.592  1.5252  0.3695 -0.9329
 3501SOL     OW22138   2.632   2.098  17.238 -0.0640  0.2351  0.1425
 3501SOL    HW122139   2.664   2.188  17.233  1.7087 -0.4234 -0.4070
 3501SOL    HW222140   2.559   2.097  17.301  0.1236 -1.3409  0.3398
 3502SOL     OW22141   4.629   0.550   6.350  0.2809 -0.2445  0.3671
 3502SOL    HW122142   4.675   0.485   6.298 -1.4310 -2.0444  1.1132
 3502SOL    HW222143   4.540   0.520   6.331 -0.2416  1.2759  0.3641
 3503SOL     OW22144   4.515   0.346   3.648  0.1006 -0.4214  0.0284
 3503SOL    HW122145   4.493   0.278   3.712  2.0769 -0.9800  0.1062
 3503SOL    HW222146   4.541   0.303   3.567  2.0598  0.5265  0.1370
 3504SOL     OW22147   1.543   3.208   2.478  0.3911  0.1027  0.0333
 3504SOL    HW122148   1.490   3.184   2.554 -0.8115  0.1969 -0.7752
 3504SOL    HW222149   1.568   3.122   2.443  0.2615 -0.9708  2.5331
 3505SOL     OW22150   0.278   4.511   6.871 -0.2528  0.4509  0.3445
 3505SOL    HW122151   0.350   4.493   6.810  0.5180  2.3957  0.6695
 3505SOL    HW222152   0.230   4.580   6.826 -0.7512 -1.1626 -1.5924
 3506SOL     OW22153   2.369   2.637   3.856 -0.5894 -0.6890  0.0140
 3506SOL    HW122154   2.308   2.665   3.788  1.2845 -0.9275 -1.7575
 3506SOL    HW222155   2.328   2.679   3.932 -1.0765 -0.1848 -0.5262
 3507SOL     OW22156   4.361   3.660  12.969 -0.3359 -0.3090 -0.0826
 3507SOL    HW122157   4.400   3.574  12.983 -0.7325 -0.1048  2.2037
 3507SOL    HW222158   4.436   3.720  12.976 -1.2486  0.4308  2.9878
 3508SOL     OW22159   0.171   2.421   3.617  0.0959  0.0562  0.0463
 3508SOL    HW122160   0.142   2.408   3.707 -2.0532 -0.1516 -0.6818
 3508SOL    HW222161   0.134   2.343   3.576  1.9389 -0.9839  0.3431
 3509SOL     OW22162   1.190   3.978   3.834 -0.2080  0.2055 -0.4954
 3509SOL    HW122163   1.163   4.068   3.856  0.1196  0.5708 -1.5753
 3509SOL    HW222164   1.244   3.963   3.912 -1.5480 -1.6303  0.0775
 3510SOL     OW22165   2.889   2.468   4.093  0.2612 -0.1939 -0.1635
 3510SOL    HW122166   2.975   2.497   4.062 -0.1646 -1.1487 -2.3028
 3510SOL    HW222167   2.834   2.502   4.022 -1.8985 -0.2591  1.5067
 3511SOL     OW22168   3.771   1.213  10.212  0.0000  0.1401 -0.3665
 3511SOL    HW122169   3.781   1.199  10.307  0.5053 -0.4694 -0.5122
 3511SOL    HW222170   3.842   1.269  10.183 -0.4240  1.0338  0.3152
 3512SOL     OW22171   3.781   4.211   6.353  0.6550 -0.1707 -0.1166
 3512SOL    HW122172   3.834   4.174   6.423 -2.0691 -2.4729  0.7594
 3512SOL    HW222173   3.764   4.299   6.388  0.1890  0.5660 -2.1602
 3513SOL     OW22174   3.245   1.535   3.542 -0.5428 -0.5668  0.3556
 3513SOL    HW122175   3.281   1.608   3.591 -1.5021 -0.0925  0.3575
 3513SOL    HW222176   3.318   1.473   3.549  0.0540  0.1599  0.5282
 3514SOL     OW22177   4.629   1.797   0.967  0.3406  0.3610  0.2942
 3514SOL    HW122178   4.664   1.739   1.035 -0.7092 -0.3028  0.2670
 3514SOL    HW222179   4.536   1.790   0.988  0.5039 -0.2942  0.7873
 3515SOL     OW22180   3.931   3.621   2.265 -0.0318 -0.2660 -0.0622
 3515SOL    HW122181   3.898   3.548   2.317 -0.7355  0.2006  0.1445
 3515SOL    HW222182   3.885   3.696   2.305  1.8255  0.9059 -0.1172
 3516SOL     OW22183   1.587   1.798   4.821 -0.1989 -0.5259 -0.5599
 3516SOL    HW122184   1.571   1.886   4.856 -2.3597  0.2318 -3.4367
 3516SOL    HW222185   1.588   1.741   4.898 -1.2467 -2.1934 -1.8063
 3517SOL     OW22186   4.184   1.570   8.756  0.7272  0.0032  0.2323
 3517SOL    HW122187   4.140   1.625   8.821  0.4319  0.6996 -0.5625
 3517SOL    HW222188   4.124   1.565   8.682  0.3049 -3.1243  0.7950
 3518SOL     OW22189   1.604   3.397   5.184  0.1518  0.0013 -0.3772
 3518SOL    HW122190   1.647   3.355   5.110  0.9845 -1.1542  0.7569
 3518SOL    HW222191   1.566   3.318   5.222 -0.3474  0.0609 -0.7486
 3519SOL     OW22192   0.110   4.458   4.943 -0.3576 -0.5276 -0.1848
 3519SOL    HW122193   0.153   4.538   4.974  0.2114 -0.5526 -0.9128
 3519SOL    HW222194   0.178   4.416   4.892  1.5166  0.7462  1.2452
 3520SOL     OW22195   1.762   3.946  13.123 -0.2238 -0.1697 -0.3138
 3520SOL    HW122196   1.671   3.919  13.111 -0.7424  1.6141 -0.3199
 3520SOL    HW222197   1.762   4.010  13.052  0.3210 -1.5134 -1.5280
 3521SOL     OW22198   2.520   3.611  15.128 -0.4613  0.1119 -0.6806
 3521SOL    HW122199   2.589   3.561  15.172  0.6843  0.2831 -2.3074
 3521SOL    HW222200   2.498   3.550  15.057 -0.9177 -2.0443  1.3088
 3522SOL     OW22201   1.519   1.796   2.911  0.3343  0.1145 -0.4664
 3522SOL    HW122202   1.466   1.739   2.966  0.5308  0.3503 -0.0277
 3522SOL    HW222203   1.580   1.740   2.864  0.3884 -0.1324 -0.0974
 3523SOL     OW22204   2.044   1.993   1.427  0.3411 -0.1263  0.2126
 3523SOL    HW122205   2.135   2.022   1.433  0.0491  1.1682 -1.6114
 3523SOL    HW222206   2.008   2.023   1.510  1.0248 -2.3854  1.3082
 3524SOL     OW22207   2.692   1.728   6.399  0.0208 -0.5152 -0.2539
 3524SOL    HW122208   2.696   1.634   6.382 -2.9076 -0.4971 -1.0311
 3524SOL    HW222209   2.740   1.758   6.322  0.9590 -0.3703  0.3816
 3525SOL     OW22210   1.471   3.672  11.258  0.3950  0.2326 -0.3205
 3525SOL    HW122211   1.471   3.729  11.181 -2.2681 -1.6708 -1.7277
 3525SOL    HW222212   1.450   3.737  11.325  1.0681 -0.2527  0.3679
 3526SOL     OW22213   0.088   3.139  14.494 -0.1990  0.9225  0.9120
 3526SOL    HW122214   0.180   3.142  14.518 -0.0974 -0.3561  0.7007
 3526SOL    HW222215   0.047   3.145  14.580 -1.5959 -1.1948  0.4014
 3527SOL     OW22216   1.366   1.697   9.487  0.4010 -0.4990 -0.4406
 3527SOL    HW122217   1.363   1.774   9.431 -0.2261 -1.3067 -1.5272
 3527SOL    HW222218   1.459   1.704   9.509  0.0373  1.4536  0.4673
 3528SOL     OW22219   1.362   3.246   7.499  0.1003 -0.1869  0.4814
 3528SOL    HW122220   1.289   3.242   7.437  0.8457  0.0162 -0.4092
 3528SOL    HW222221   1.354   3.335   7.534 -0.8553 -0.0967  0.0290
 3529SOL     OW22222   4.695   3.443   1.797  0.4666  0.2093 -0.1738
 3529SOL    HW122223   4.686   3.468   1.889  0.2013  0.6317 -0.3148
 3529SOL    HW222224   4.642   3.364   1.789  0.2458  0.5562 -2.1223
 3530SOL     OW22225   0.737   4.456   0.178 -0.2935  0.1459 -0.5215
 3530SOL    HW122226   0.811   4.445   0.238 -1.8797  1.4216  1.6369
 3530SOL    HW222227   0.720   4.549   0.191 -1.2466 -0.0792 -0.1278
 3531SOL     OW22228   1.789   1.821   3.193  0.4078  0.2759 -0.2996
 3531SOL    HW122229   1.756   1.911   3.188  0.7673  0.4505  0.4945
 3531SOL    HW222230   1.855   1.811   3.124 -0.5094 -1.6377 -0.9034
 3532SOL     OW22231   3.996   0.883   2.938  0.3323 -0.4950 -0.1738
 3532SOL    HW122232   3.918   0.827   2.944 -0.2986  0.4238  0.1435
 3532SOL    HW222233   3.994   0.908   2.846  2.4797 -1.8113 -0.5702
 3533SOL     OW22234   2.079   3.711   5.549  0.9034 -0.1191 -0.4005
 3533SOL    HW122235   2.016   3.663   5.495 -0.5044 -0.4151  1.5134
 3533SOL    HW222236   2.119   3.640   5.598  1.0107 -0.4223 -0.9321
 3534SOL     OW22237   0.811   0.063  14.817 -0.0937 -0.0439 -0.5488
 3534SOL    HW122238   0.829   0.003  14.889 -0.8569  0.1899 -0.1614
 3534SOL    HW222239   0.900   0.090  14.794 -0.2928  0.2864 -0.9271
 3535SOL     OW22240   0.451   4.386   1.510  0.2917  0.0964  0.0492
 3535SOL    HW122241   0.467   4.301   1.552 -1.1835 -1.1767 -1.9550
 3535SOL    HW222242   0.393   4.423   1.576 -0.1939 -1.0157  0.2598
 3536SOL     OW22243   1.389   3.901   2.922  0.0565  0.0568 -0.0047
 3536SOL    HW122244   1.426   3.866   2.841 -1.3138 -1.2900 -0.0595
 3536SOL    HW222245   1.318   3.960   2.897 -0.2622  0.9162  2.8722
 3537SOL     OW22246   0.464   3.990   6.132 -0.5944  0.0681  0.2994
 3537SOL    HW122247   0.401   3.922   6.104 -0.5826  0.0975  0.2008
 3537SOL    HW222248   0.478   4.034   6.048 -4.2490  1.7653  0.5825
 3538SOL     OW22249   2.810   3.684   2.514  0.2378 -0.1168 -0.1445
 3538SOL    HW122250   2.795   3.668   2.607  0.9825 -1.0473 -0.1834
 3538SOL    HW222251   2.771   3.607   2.473  1.3090 -1.8310  2.0791
 3539SOL     OW22252   2.499   1.560   8.610  0.3632  0.4615 -0.2296
 3539SOL    HW122253   2.519   1.503   8.536 -0.1741  1.2311 -0.9664
 3539SOL    HW222254   2.470   1.500   8.679  0.3209  0.6421 -0.0893
 3540SOL     OW22255   2.273   1.000   2.834 -0.6701 -0.5281 -0.0814
 3540SOL    HW122256   2.358   0.984   2.875 -0.0838 -0.1721 -1.1569
 3540SOL    HW222257   2.281   0.945   2.756  1.8367  2.5848 -2.0532
 3541SOL     OW22258   2.727   3.274   2.258 -0.7057  0.2645  0.3402
 3541SOL    HW122259   2.796   3.209   2.266 -1.9774 -1.2987 -1.5255
 3541SOL    HW222260   2.663   3.211   2.226 -0.9763  0.9977 -0.5583
 3542SOL     OW22261   4.093   1.629  16.514 -0.2733  0.4356  0.8448
 3542SOL    HW122262   4.031   1.582  16.458 -0.2318  0.9322  0.3752
 3542SOL    HW222263   4.126   1.692  16.449 -0.9168 -0.0620  0.0292
 3543SOL     OW22264   1.686   3.037   3.801 -0.1006  0.2250  0.5342
 3543SOL    HW122265   1.699   3.022   3.894 -1.9590 -0.5458  0.6552
 3543SOL    HW222266   1.602   3.083   3.801 -0.0407  0.3432 -0.1718
 3544SOL     OW22267   2.549   2.369   4.180 -0.4766  0.3921  0.3344
 3544SOL    HW122268   2.550   2.313   4.257 -1.4552 -2.0417 -1.4368
 3544SOL    HW222269   2.614   2.433   4.209 -1.4063  1.1176  0.8147
 3545SOL     OW22270   2.594   1.934   6.599  0.0196  0.0097 -0.5340
 3545SOL    HW122271   2.616   1.908   6.509 -0.7224 -0.5698 -0.5506
 3545SOL    HW222272   2.562   1.847   6.624 -0.3723 -0.7931 -3.7517
 3546SOL     OW22273   0.991   4.040   4.659 -0.2868  1.0438  0.1886
 3546SOL    HW122274   0.902   4.016   4.636 -0.1329  1.2017 -0.5866
 3546SOL    HW222275   1.022   4.041   4.568  1.3025  0.0956  0.7179
 3547SOL     OW22276   4.064   2.380   3.873 -0.3762 -0.0165  0.1159
 3547SOL    HW122277   4.091   2.289   3.863 -0.8565 -0.2677  1.1266
 3547SOL    HW222278   4.101   2.417   3.792  1.0687  1.5933  1.5124
 3548SOL     OW22279   3.252   2.000   4.674 -0.1717 -0.3243  0.0308
 3548SOL    HW122280   3.218   2.010   4.585  0.0370  1.5488  0.1640
 3548SOL    HW222281   3.309   2.077   4.679  1.3297 -1.3162 -1.7259
 3549SOL     OW22282   4.492   3.698   5.541  0.8198  0.1123 -0.2180
 3549SOL    HW122283   4.474   3.744   5.623 -0.5947 -1.7743  0.5297
 3549SOL    HW222284   4.421   3.723   5.483  0.2396  0.2800  0.5663
 3550SOL     OW22285   0.337   2.555   1.903 -0.3912  0.5335 -0.1430
 3550SOL    HW122286   0.351   2.648   1.918 -2.7093  0.8088  0.3771
 3550SOL    HW222287   0.416   2.519   1.863 -0.4537 -0.0716  0.2801
 3551SOL     OW22288   3.908   2.150   7.479 -0.4450 -0.6915 -0.2487
 3551SOL    HW122289   3.941   2.238   7.461  1.1736 -1.3003 -0.2514
 3551SOL    HW222290   3.914   2.144   7.575  1.3541 -1.6885 -0.4174
 3552SOL     OW22291   1.164   4.220  15.230 -0.4943  0.2660 -0.4117
 3552SOL    HW122292   1.237   4.277  15.253  1.4976 -2.4198  0.0115
 3552SOL    HW222293   1.176   4.165  15.308 -0.5449  0.1398 -0.4915
 3553SOL     OW22294   0.131   2.760   5.929  0.0838 -0.3751  0.2051
 3553SOL    HW122295   0.134   2.801   6.015 -0.9606 -1.4876  0.7652
 3553SOL    HW222296   0.225   2.743   5.927  0.3661  1.2827 -0.9305
 3554SOL     OW22297   1.696   1.551  12.308  0.1440 -0.5253 -0.7182
 3554SOL    HW122298   1.674   1.531  12.399  2.0059  0.6627 -0.0085
 3554SOL    HW222299   1.671   1.468  12.268  1.8561 -1.0041 -0.7698
 3555SOL     OW22300   2.660   3.271   4.739 -0.4069  0.3789 -0.9042
 3555SOL    HW122301   2.661   3.180   4.770 -1.6741 -0.3076 -2.8819
 3555SOL    HW222302   2.624   3.308   4.819 -1.0297 -2.6306  0.2111
 3556SOL     OW22303   1.390   1.543   9.101  0.1427  0.3707  0.2493
 3556SOL    HW122304   1.471   1.520   9.147  0.4450  3.4856  1.2533
 3556SOL    HW222305   1.322   1.528   9.167  0.5765 -0.8413  0.4241
 3557SOL     OW22306   1.437   2.489  14.240 -0.1312  0.2971  0.4843
 3557SOL    HW122307   1.371   2.521  14.301 -0.4927  0.9927 -0.2876
 3557SOL    HW222308   1.388   2.414  14.206 -0.3597  1.2406 -1.2554
 3558SOL     OW22309   0.615   2.466   6.098  0.2522  0.5771 -0.1582
 3558SOL    HW122310   0.617   2.521   6.019  2.2472  0.4179 -0.1983
 3558SOL    HW222311   0.694   2.506   6.133  0.9931 -2.3217  1.4825
 3559SOL     OW22312   3.513   4.591  14.984 -0.7039 -0.0616 -0.2720
 3559SOL    HW122313   3.580   4.541  14.937  0.0815  2.9145 -2.3645
 3559SOL    HW222314   3.511   4.670  14.929  1.8422 -1.4366 -2.3911
 3560SOL     OW22315   4.326   3.273   4.338  0.5345  0.9024 -0.2811
 3560SOL    HW122316   4.364   3.306   4.256 -1.6408  0.8869 -1.2822
 3560SOL    HW222317   4.342   3.353   4.388  1.7064 -0.9239  2.2719
 3561SOL     OW22318   0.170   2.265   6.036  0.4870  0.1963  0.0287
 3561SOL    HW122319   0.083   2.228   6.051  0.7865 -1.5019 -2.3481
 3561SOL    HW222320   0.182   2.257   5.942  1.2423  0.2322  0.1204
 3562SOL     OW22321   4.250   3.193  14.053 -0.2045 -0.1923  0.0705
 3562SOL    HW122322   4.312   3.133  14.011  0.5870 -1.5728  3.2363
 3562SOL    HW222323   4.307   3.269  14.045 -1.5803  0.7046 -1.3687
 3563SOL     OW22324   1.462   1.961   9.879  0.0143 -0.4133  0.0793
 3563SOL    HW122325   1.471   1.874   9.840  2.2456 -1.1260  2.1762
 3563SOL    HW222326   1.398   1.996   9.817 -2.7530 -0.1611  3.1189
 3564SOL     OW22327   4.249   0.214   6.166 -0.1655  0.0885 -0.3318
 3564SOL    HW122328   4.241   0.270   6.088 -0.0783 -2.3556 -2.0753
 3564SOL    HW222329   4.205   0.138   6.129  1.3080 -1.5555  1.2966
 3565SOL     OW22330   1.856   4.392   1.633 -0.0334 -0.2468 -0.4346
 3565SOL    HW122331   1.936   4.353   1.667  0.9364  1.2986 -0.9378
 3565SOL    HW222332   1.833   4.459   1.699 -1.9169 -2.9593  1.6651
 3566SOL     OW22333   2.940   2.385   1.718  0.0924 -0.1197 -0.4960
 3566SOL    HW122334   2.886   2.430   1.783  0.2276  0.5460 -0.8424
 3566SOL    HW222335   2.901   2.425   1.640 -0.6420  0.2590  0.0594
 3567SOL     OW22336   3.674   4.403   5.649  0.1802 -0.1489 -0.0341
 3567SOL    HW122337   3.639   4.483   5.689 -0.1574 -0.2752 -0.0686
 3567SOL    HW222338   3.616   4.341   5.693 -1.5381 -0.3973 -2.6329
 3568SOL     OW22339   4.563   1.696   5.058 -1.3523 -0.1883  0.1213
 3568SOL    HW122340   4.593   1.669   4.971  0.3565 -1.1732  1.0073
 3568SOL    HW222341   4.588   1.621   5.113 -2.0043 -0.8510 -0.4806
 3569SOL     OW22342   2.405   0.676   5.010 -0.0415 -0.0753  0.1731
 3569SOL    HW122343   2.324   0.624   5.007  1.5760 -2.5973  0.7208
 3569SOL    HW222344   2.418   0.678   4.915  1.4357  3.0586  0.4482
 3570SOL     OW22345   2.944   4.365   6.351 -0.2596  0.2737 -0.7323
 3570SOL    HW122346   2.955   4.459   6.360  4.7242 -0.5489  2.2713
 3570SOL    HW222347   2.887   4.355   6.275  1.0847 -0.5180 -1.6602
 3571SOL     OW22348   2.574   1.728   2.557 -0.2254  0.0003  0.4691
 3571SOL    HW122349   2.589   1.637   2.531 -1.0777 -0.9405  3.3961
 3571SOL    HW222350   2.498   1.714   2.613 -0.7784 -0.1290 -0.3170
 3572SOL     OW22351   4.169   0.489   0.205  0.2655  0.5107  0.5200
 3572SOL    HW122352   4.196   0.490   0.297  1.1759  2.0293  0.2358
 3572SOL    HW222353   4.099   0.424   0.207  0.3555  0.4668  2.8761
 3573SOL     OW22354   3.006   4.618   1.431  0.2029  0.0144 -0.0251
 3573SOL    HW122355   2.934   4.680   1.439 -1.4215 -1.6783 -1.6415
 3573SOL    HW222356   2.962   4.559   1.370 -1.3828 -0.0538  1.1709
 3574SOL     OW22357   4.158   4.100   0.704 -0.4199  0.3256  0.8845
 3574SOL    HW122358   4.122   4.048   0.776 -1.6258  0.8946  0.7052
 3574SOL    HW222359   4.117   4.055   0.630  1.7503 -1.2124  0.6329
 3575SOL     OW22360   0.726   3.027   2.233 -0.1168  0.3681  0.4134
 3575SOL    HW122361   0.749   3.062   2.318  3.0579 -0.6692 -0.0430
 3575SOL    HW222362   0.795   2.964   2.214  0.1652  0.8175 -0.0654
 3576SOL     OW22363   0.168   4.713   4.575  0.4545  0.2236 -0.0797
 3576SOL    HW122364   0.260   4.740   4.578  0.7885 -0.8061 -0.8921
 3576SOL    HW222365   0.173   4.618   4.567  0.8533  0.1345  1.3218
 3577SOL     OW22366   0.750   0.395   0.294 -0.3872  0.1893  1.0711
 3577SOL    HW122367   0.841   0.374   0.273 -0.7942 -0.1717 -0.3290
 3577SOL    HW222368   0.764   0.406   0.388 -0.5473 -1.0355  1.2440
 3578SOL     OW22369   1.908   4.581   4.901 -0.2843  0.2033  0.7644
 3578SOL    HW122370   1.972   4.524   4.943  0.0255 -0.7688 -1.0249
 3578SOL    HW222371   1.831   4.569   4.957 -0.6462  2.2569  0.7152
 3579SOL     OW22372   4.494   4.293   9.809 -0.4287 -0.2255  0.9282
 3579SOL    HW122373   4.564   4.356   9.793  0.9784 -1.6720  1.2706
 3579SOL    HW222374   4.428   4.346   9.853  1.4683  0.7241  2.6610
 3580SOL     OW22375   2.958   3.099   2.360  0.3717 -0.2887 -0.3195
 3580SOL    HW122376   2.974   3.155   2.435  0.3134  1.5183 -1.6429
 3580SOL    HW222377   3.049   3.071   2.348  0.2102 -0.1505 -1.9659
 3581SOL     OW22378   1.658   1.741   3.435 -0.4800 -0.3366  0.2561
 3581SOL    HW122379   1.707   1.781   3.363 -0.9043 -2.6191 -1.3068
 3581SOL    HW222380   1.577   1.782   3.403 -0.6759  0.1468  1.3901
 3582SOL     OW22381   0.517   0.806   2.387  0.0774 -0.0123 -0.0786
 3582SOL    HW122382   0.524   0.743   2.316  2.2100 -1.8316  1.7480
 3582SOL    HW222383   0.608   0.805   2.416  0.5562  0.9364 -1.5425
 3583SOL     OW22384   1.232   1.037  10.195 -0.3988  0.1976  0.2476
 3583SOL    HW122385   1.239   1.063  10.287 -0.0219  1.1653 -0.0607
 3583SOL    HW222386   1.161   1.096  10.170 -1.1718  0.2583  2.6356
 3584SOL     OW22387   3.459   1.300  16.974 -0.8945  0.1505  0.3942
 3584SOL    HW122388   3.434   1.373  16.918 -1.0909 -1.4585 -1.6151
 3584SOL    HW222389   3.377   1.253  16.958 -0.5284 -0.6999  1.0021
 3585SOL     OW22390   0.508   4.732  15.066 -0.4021  0.2503 -0.8483
 3585SOL    HW122391   0.575   4.664  15.067  0.8116  1.4537 -1.4637
 3585SOL    HW222392   0.436   4.670  15.081  0.9751 -0.7956  1.5475
 3586SOL     OW22393   4.716   3.330  13.038 -0.0297  0.0245 -0.6286
 3586SOL    HW122394   4.648   3.339  12.971 -2.1761  1.1022  1.6761
 3586SOL    HW222395   4.666   3.307  13.116 -0.1250  0.3377 -0.5973
 3587SOL     OW22396   2.658   3.836   7.120 -0.3002  0.1870 -0.2579
 3587SOL    HW122397   2.570   3.871   7.107  0.9714  3.2719 -0.5195
 3587SOL    HW222398   2.667   3.792   7.205 -1.0327  0.1439 -0.2047
 3588SOL     OW22399   3.668   0.045   0.240  0.0625 -0.3774  0.0076
 3588SOL    HW122400   3.748   0.007   0.275 -0.7353  0.0418  2.2722
 3588SOL    HW222401   3.608   4.722   0.277 -0.1779 -0.2440 -0.1496
 3589SOL     OW22402   0.659   0.190   4.063  0.0326  0.1682 -0.0642
 3589SOL    HW122403   0.571   0.228   4.061  0.3407  0.7989 -2.0752
 3589SOL    HW222404   0.634   0.098   4.056  0.8116 -0.1723  1.5478
 3590SOL     OW22405   1.933   3.061   2.148  0.1667  0.0996 -0.0584
 3590SOL    HW122406   2.004   3.018   2.195 -1.0658 -0.7376  1.0135
 3590SOL    HW222407   1.967   3.033   2.063  0.1466  1.6889 -0.6041
 3591SOL     OW22408   3.087   2.971   5.593 -0.0558 -0.3314  0.0216
 3591SOL    HW122409   3.107   2.918   5.671 -0.8484  0.6906  0.9321
 3591SOL    HW222410   3.019   2.915   5.554 -1.2068  0.2558  1.1542
 3592SOL     OW22411   3.745   1.292  13.870 -0.5060  0.4391  0.1222
 3592SOL    HW122412   3.718   1.220  13.928  0.7577 -0.2313 -0.1187
 3592SOL    HW222413   3.833   1.307  13.905  0.8919 -3.1875 -1.7781
 3593SOL     OW22414   1.504   2.961   3.270  0.1358 -0.0043  0.2188
 3593SOL    HW122415   1.496   2.883   3.215 -0.0581  0.5192 -0.4811
 3593SOL    HW222416   1.509   2.917   3.355 -1.8781 -0.2783  0.2049
 3594SOL     OW22417   2.836   3.940   6.753 -0.5619  0.4331 -0.4119
 3594SOL    HW122418   2.908   3.986   6.708 -0.5954  1.6587  0.7828
 3594SOL    HW222419   2.853   3.846   6.746  2.0419  0.9332 -0.8039
 3595SOL     OW22420   4.392   4.701   6.287 -0.2210 -0.1671  0.7544
 3595SOL    HW122421   4.387   4.631   6.222 -1.0334  0.3556  0.2405
 3595SOL    HW222422   4.324   0.020   6.256  0.3702 -0.6473 -1.5142
 3596SOL     OW22423   0.624   0.202  11.716 -0.1642 -0.3616  0.0741
 3596SOL    HW122424   0.628   0.189  11.810 -2.4619 -1.2179  0.0597
 3596SOL    HW222425   0.639   0.296  11.703  3.5154 -0.8731  0.7967
 3597SOL     OW22426   0.243   1.419   8.589  0.2265  0.2760 -0.0405
 3597SOL    HW122427   0.206   1.442   8.504  0.8551 -0.5723 -0.5456
 3597SOL    HW222428   0.309   1.488   8.596  0.1830  0.2439  0.6495
 3598SOL     OW22429   4.047   1.722   2.499  0.5098 -0.1782  0.4132
 3598SOL    HW122430   4.066   1.638   2.458 -2.4041 -1.8084  2.4437
 3598SOL    HW222431   4.130   1.768   2.483  0.1049 -0.3383 -2.1073
 3599SOL     OW22432   4.711   0.962  11.934 -0.1865  0.1165 -0.6975
 3599SOL    HW122433   0.032   0.889  11.935  1.8088  1.8385  0.5215
 3599SOL    HW222434   0.019   1.034  11.971 -1.4401  0.5672  0.1021
 3600SOL     OW22435   2.335   1.028   3.899  0.3463 -0.4091  0.4174
 3600SOL    HW122436   2.343   1.077   3.981 -1.3060 -0.8305  0.8213
 3600SOL    HW222437   2.419   1.047   3.855 -0.0464  0.8164  0.1933
 3601SOL     OW22438   4.564   2.330   5.069  0.3425 -0.2371  0.0512
 3601SOL    HW122439   4.505   2.258   5.091 -0.6148  0.7473  0.7061
 3601SOL    HW222440   4.649   2.285   5.071 -0.2163 -1.3461 -1.2679
 3602SOL     OW22441   3.001   1.117   7.524 -0.0186 -0.5045 -0.3899
 3602SOL    HW122442   3.026   1.196   7.572 -0.4254  0.7058 -2.2054
 3602SOL    HW222443   3.022   1.132   7.432 -1.5217 -0.6639 -0.7542
 3603SOL     OW22444   1.565   4.702   6.482 -0.2831 -0.1847  0.2804
 3603SOL    HW122445   1.645   4.713   6.432 -1.1752 -2.2333 -1.6115
 3603SOL    HW222446   1.591   0.009   6.560 -1.4278  1.8074 -0.6003
 3604SOL     OW22447   2.853   0.337   8.897  0.2952  0.1101  0.5039
 3604SOL    HW122448   2.777   0.307   8.947 -1.5043  0.9879 -1.7202
 3604SOL    HW222449   2.797   0.368   8.825  0.7582  3.3219  1.5368
 3605SOL     OW22450   3.635   0.635  13.170  0.4049 -0.2311 -0.0504
 3605SOL    HW122451   3.606   0.684  13.093 -0.1906  0.4981  0.6392
 3605SOL    HW222452   3.687   0.703  13.211  0.1301  0.1728 -0.3645
 3606SOL     OW22453   3.385   0.119  16.947 -0.4231 -0.0969  0.0196
 3606SOL    HW122454   3.467   0.164  16.926 -0.2066 -1.0821 -1.2452
 3606SOL    HW222455   3.347   0.116  16.859 -0.2934  1.4544 -0.0888
 3607SOL     OW22456   0.053   0.127   4.741 -0.5194 -0.2929  0.4595
 3607SOL    HW122457   0.118   0.197   4.743  0.5327 -1.3369  1.8358
 3607SOL    HW222458   0.088   0.064   4.679 -3.2765 -0.9757 -0.4293
 3608SOL     OW22459   3.166   0.506   6.986  0.4287  0.3165 -0.0336
 3608SOL    HW122460   3.258   0.528   7.000 -0.6706  3.6946  1.8833
 3608SOL    HW222461   3.166   0.413   7.011 -1.2410  0.9593  2.4054
 3609SOL     OW22462   3.533   2.930  12.754  0.2498  0.3622 -0.5608
 3609SOL    HW122463   3.597   2.905  12.821 -0.1890  1.5270  0.2811
 3609SOL    HW222464   3.522   3.023  12.773 -2.2809 -0.1640  0.4671
 3610SOL     OW22465   2.011   0.293  15.194 -0.5719 -0.4203 -0.3860
 3610SOL    HW122466   2.044   0.297  15.104  0.4143  1.0104  0.0263
 3610SOL    HW222467   1.916   0.298  15.183 -0.4623  0.1293 -1.1094
 3611SOL     OW22468   3.986   1.757   3.420  0.5945 -0.3147  0.5477
 3611SOL    HW122469   3.922   1.827   3.409 -0.0284 -0.6422  2.0345
 3611SOL    HW222470   4.069   1.804   3.426  0.1199  0.6366 -0.3992
 3612SOL     OW22471   1.149   0.699  16.996 -0.1917 -0.9595  0.1552
 3612SOL    HW122472   1.106   0.769  17.046  0.1719 -0.5992 -0.0327
 3612SOL    HW222473   1.102   0.624  17.031 -0.2478 -0.9505  0.0980
 3613SOL     OW22474   1.262   1.952   7.010  0.0115 -0.0039 -0.0685
 3613SOL    HW122475   1.249   2.039   7.049 -1.3197  0.5675 -1.8013
 3613SOL    HW222476   1.346   1.921   7.045 -0.3623  1.6204  2.3531
 3614SOL     OW22477   2.705   2.527   4.428  0.1610  0.5233  0.8127
 3614SOL    HW122478   2.713   2.436   4.456 -1.2431  0.3660  0.7097
 3614SOL    HW222479   2.794   2.547   4.398  0.1608  1.6567  1.5524
 3615SOL     OW22480   2.911   0.779   4.669 -0.1190  0.2228 -0.3073
 3615SOL    HW122481   2.909   0.817   4.581 -1.7566  0.7631 -0.0359
 3615SOL    HW222482   2.967   0.703   4.653 -2.1847 -1.4713  0.5053
 3616SOL     OW22483   0.167   0.710  14.485  0.2862 -0.0061 -0.3351
 3616SOL    HW122484   0.182   0.799  14.517  0.9752 -0.9274  1.9732
 3616SOL    HW222485   0.163   0.669  14.572 -1.8470 -0.7554 -0.7997
 3617SOL     OW22486   2.542   3.200   5.798 -0.0159  0.1262 -0.1202
 3617SOL    HW122487   2.631   3.210   5.833  1.2774 -0.1496 -3.3580
 3617SOL    HW222488   2.534   3.105   5.795 -0.1869  0.0737  2.2735
 3618SOL     OW22489   0.470   0.751  17.260 -0.0352 -0.1293 -0.0108
 3618SOL    HW122490   0.394   0.760  17.203 -0.0803  1.5043  0.3040
 3618SOL    HW222491   0.518   0.685  17.209  3.0609  1.3675  0.9694
 3619SOL     OW22492   0.362   2.258   4.137 -0.3411  0.1494  0.2607
 3619SOL    HW122493   0.433   2.229   4.195  0.5458 -0.3066 -1.0277
 3619SOL    HW222494   0.293   2.193   4.146 -0.9070  0.7263  0.0538
 3620SOL     OW22495   4.570   3.102   2.755 -0.1098 -0.2695  0.1492
 3620SOL    HW122496   4.628   3.157   2.703  1.8326 -2.0766  0.4435
 3620SOL    HW222497   4.526   3.162   2.816 -0.7106  0.1819 -0.7240
 3621SOL     OW22498   4.174   1.078   2.447 -0.2104 -0.0438 -0.2792
 3621SOL    HW122499   4.110   1.149   2.437  0.1575  0.1295 -1.4038
 3621SOL    HW222500   4.121   1.000   2.462 -0.2862 -0.3382 -2.1389
 3622SOL     OW22501   3.853   4.630   6.392  0.1763 -0.0350 -0.2439
 3622SOL    HW122502   3.789   4.600   6.328  0.1703 -0.7681  0.1044
 3622SOL    HW222503   3.841   4.725   6.394  1.7482  0.1323  1.3040
 3623SOL     OW22504   0.638   0.299  17.289 -0.0372  0.0664  0.6839
 3623SOL    HW122505   0.584   0.222  17.274 -0.5326  0.3237  1.1690
 3623SOL    HW222506   0.702   0.262  17.350  2.1205  1.7922 -0.5282
 3624SOL     OW22507   2.900   0.813  12.750  0.0456  0.1850 -0.2047
 3624SOL    HW122508   2.895   0.790  12.657  0.7697  1.1543 -0.4912
 3624SOL    HW222509   2.989   0.847  12.761  0.5548 -0.7265 -1.5022
 3625SOL     OW22510   3.085   3.524   7.882 -0.3303 -0.4264 -0.0531
 3625SOL    HW122511   3.180   3.518   7.888 -0.4515 -0.8292  1.5894
 3625SOL    HW222512   3.079   3.568   7.798 -0.9157 -0.3460  0.0284
 3626SOL     OW22513   2.724   3.433   7.256 -0.0934  0.2338 -0.5092
 3626SOL    HW122514   2.812   3.434   7.219  0.9757  0.4621  2.0442
 3626SOL    HW222515   2.671   3.440   7.177 -1.8138 -0.4390  0.5772
 3627SOL     OW22516   3.332   3.201   6.260 -0.2985 -0.6423  0.1739
 3627SOL    HW122517   3.316   3.287   6.299  0.4083 -0.6702  0.5367
 3627SOL    HW222518   3.425   3.190   6.278 -0.0599  2.6601  0.9641
 3628SOL     OW22519   4.071   0.322   3.862  0.5180 -0.2992  0.2049
 3628SOL    HW122520   4.086   0.299   3.770 -1.8776  2.1060 -0.8001
 3628SOL    HW222521   4.095   0.242   3.909  3.4347  1.6287  1.9555
 3629SOL     OW22522   2.119   2.564   1.678  0.3471 -0.0385  0.0512
 3629SOL    HW122523   2.112   2.562   1.583  0.3303 -1.0273  0.0782
 3629SOL    HW222524   2.167   2.482   1.690  1.8553  0.7774 -0.4572
 3630SOL     OW22525   2.932   0.856   9.165  0.7776  0.1049 -0.4238
 3630SOL    HW122526   2.848   0.818   9.141  0.4511  1.4553 -1.3883
 3630SOL    HW222527   2.927   0.939   9.117  2.2246  1.2803  1.4366
 3631SOL     OW22528   2.074   4.000   8.663 -0.5920 -0.2644 -0.3277
 3631SOL    HW122529   2.044   3.928   8.607 -0.8357 -2.2076  2.2957
 3631SOL    HW222530   2.149   4.034   8.614 -1.4113  1.2768 -0.5080
 3632SOL     OW22531   3.762   4.026   4.293  0.0610 -0.0606  0.5902
 3632SOL    HW122532   3.827   3.979   4.241  0.4320 -0.8492  1.7779
 3632SOL    HW222533   3.817   4.067   4.360  0.8053  0.0907 -0.1196
 3633SOL     OW22534   3.792   3.856  16.879 -0.5890 -0.2039  0.2391
 3633SOL    HW122535   3.788   3.852  16.783 -3.0283 -0.5744  0.3671
 3633SOL    HW222536   3.697   3.856  16.892 -0.9405  0.8074 -2.3629
 3634SOL     OW22537   2.481   0.865   8.731 -0.4781 -0.5387 -0.0150
 3634SOL    HW122538   2.450   0.917   8.805  2.9929 -2.0991  2.5511
 3634SOL    HW222539   2.574   0.888   8.726 -1.2120  2.1078 -1.3500
 3635SOL     OW22540   1.904   3.460   4.413  0.1123  0.1516 -0.1283
 3635SOL    HW122541   1.821   3.416   4.397 -0.6186  0.7727  1.8914
 3635SOL    HW222542   1.938   3.430   4.329  0.5725 -3.2351  1.2666
 3636SOL     OW22543   3.752   0.170   6.785 -0.7112  0.2070 -0.4539
 3636SOL    HW122544   3.691   0.231   6.828 -0.4195  0.6432 -0.6539
 3636SOL    HW222545   3.770   0.215   6.702  0.1752  2.3432  0.9190
 3637SOL     OW22546   0.089   1.597   8.043  0.3487  0.1668  0.2318
 3637SOL    HW122547   0.030   1.603   7.968  1.5403 -2.4307 -0.9162
 3637SOL    HW222548   0.115   1.689   8.044 -2.1782  0.8913 -0.1382
 3638SOL     OW22549   2.637   3.712   7.420  0.5699  0.5012 -0.1063
 3638SOL    HW122550   2.618   3.618   7.416 -0.0868  0.6498 -0.5163
 3638SOL    HW222551   2.554   3.752   7.446  0.3881 -0.0683  0.2028
 3639SOL     OW22552   3.826   3.177   5.070  0.5697  0.5943 -0.0512
 3639SOL    HW122553   3.740   3.216   5.055  1.4841  2.5134 -0.2676
 3639SOL    HW222554   3.817   3.096   5.019  1.3881 -0.4562  1.4491
 3640SOL     OW22555   2.117   0.273  15.432  0.1668  0.3518 -0.1848
 3640SOL    HW122556   2.039   0.311  15.472  1.2483  1.5837  0.7462
 3640SOL    HW222557   2.103   0.291  15.339  2.3653 -0.7670 -0.7276
 3641SOL     OW22558   2.871   0.364   6.745 -0.8637 -0.0559  0.0747
 3641SOL    HW122559   2.938   0.296   6.740 -1.6431 -0.7528 -0.7924
 3641SOL    HW222560   2.802   0.327   6.800 -0.7479 -2.1456 -1.1929
 3642SOL     OW22561   0.428   2.065   8.162  0.2632 -0.6684 -0.4576
 3642SOL    HW122562   0.476   2.120   8.224  0.6521  0.6744 -1.9456
 3642SOL    HW222563   0.339   2.071   8.198  1.3217 -0.3125  2.0588
 3643SOL     OW22564   2.785   3.614   6.674 -0.3127  0.8057  0.0759
 3643SOL    HW122565   2.858   3.662   6.715 -0.1066  0.1286  0.4973
 3643SOL    HW222566   2.724   3.603   6.746  1.4522  0.2271  1.4743
 3644SOL     OW22567   0.897   1.256   6.835 -0.1083  0.4226  0.4002
 3644SOL    HW122568   0.936   1.343   6.825  2.5130 -1.2151 -3.5618
 3644SOL    HW222569   0.823   1.263   6.774  0.7444  0.5969 -0.6235
 3645SOL     OW22570   3.116   3.402   8.129 -0.3982 -0.2305  0.0501
 3645SOL    HW122571   3.062   3.454   8.189 -0.8511 -1.1849  0.4720
 3645SOL    HW222572   3.092   3.443   8.046 -1.1650 -1.4017 -0.3020
 3646SOL     OW22573   0.917   0.973   3.538 -0.2583 -0.0900  0.3642
 3646SOL    HW122574   0.881   1.056   3.505  1.3868  0.4889  0.0541
 3646SOL    HW222575   1.003   0.998   3.570 -0.5327  1.6463 -0.2574
 3647SOL     OW22576   3.125   1.315   2.338 -0.6073 -0.1777 -0.3170
 3647SOL    HW122577   3.145   1.275   2.422 -1.2392 -1.4178 -0.7529
 3647SOL    HW222578   3.029   1.321   2.342 -0.7615 -3.0417 -0.0298
 3648SOL     OW22579   1.796   1.160   9.562 -0.6562  0.6310  0.1526
 3648SOL    HW122580   1.726   1.206   9.609  0.0873  1.8422  0.0765
 3648SOL    HW222581   1.865   1.226   9.566 -1.3993  1.4204  0.0748
 3649SOL     OW22582   3.645   3.449   2.201 -0.4621  0.1498  0.7383
 3649SOL    HW122583   3.723   3.404   2.235  1.3087  1.0477 -2.1606
 3649SOL    HW222584   3.628   3.516   2.267 -1.1317 -1.4649  2.2035
 3650SOL     OW22585   1.026   4.164   6.977  0.1285 -0.3030 -0.2751
 3650SOL    HW122586   1.020   4.259   6.968  1.4961  0.0623  2.5588
 3650SOL    HW222587   1.055   4.139   6.889  2.1322 -1.9270  0.8451
 3651SOL     OW22588   2.483   3.676   1.873  0.2032 -0.3103 -0.0201
 3651SOL    HW122589   2.463   3.725   1.794  0.9605 -2.9853 -1.8477
 3651SOL    HW222590   2.546   3.726   1.926  0.5103  0.6374 -1.2614
 3652SOL     OW22591   1.022   0.675   9.145 -0.0019 -0.0091  0.9348
 3652SOL    HW122592   1.046   0.611   9.211  0.1089 -0.0435  0.8608
 3652SOL    HW222593   0.946   0.632   9.105  0.6238 -0.3407  0.0830
 3653SOL     OW22594   2.847   2.017   6.141  0.1757  0.4745  0.6862
 3653SOL    HW122595   2.864   2.085   6.076 -0.1494  1.5086  1.6781
 3653SOL    HW222596   2.891   2.050   6.219  0.8707 -0.3180  0.6305
 3654SOL     OW22597   0.510   3.265  10.144  0.0915  0.4834 -0.2195
 3654SOL    HW122598   0.558   3.309  10.074 -0.0779  0.5568 -0.2902
 3654SOL    HW222599   0.575   3.289  10.210 -0.8700  2.0445  0.1707
 3655SOL     OW22600   1.952   1.258   1.596 -0.2157 -0.4354 -0.2421
 3655SOL    HW122601   2.020   1.192   1.586 -0.4491 -1.1021  2.4664
 3655SOL    HW222602   2.004   1.334   1.568 -0.6144 -0.5975 -1.4178
 3656SOL     OW22603   2.630   4.205   0.586 -0.1309  0.0074  0.2209
 3656SOL    HW122604   2.708   4.234   0.634 -0.3643  0.2851  0.4318
 3656SOL    HW222605   2.675   4.160   0.515  0.9382  0.1534  0.7906
 3657SOL     OW22606   0.386   4.413   6.433 -0.2960 -0.0253 -0.4077
 3657SOL    HW122607   0.415   4.327   6.401  1.3180 -0.2202  1.5271
 3657SOL    HW222608   0.401   4.411   6.528  1.0182 -0.3643 -0.6190
 3658SOL     OW22609   3.636   2.741   4.253  0.1461  0.3920 -0.0728
 3658SOL    HW122610   3.637   2.678   4.325  0.8713  0.4719 -0.0100
 3658SOL    HW222611   3.718   2.707   4.216  0.3445 -0.1360  0.8663
 3659SOL     OW22612   4.725   0.747   3.570 -0.2674  0.0771 -0.1216
 3659SOL    HW122613   0.021   0.662   3.550 -0.2869  0.4473 -1.7502
 3659SOL    HW222614   0.055   0.808   3.556  0.7438 -1.2032 -0.4561
 3660SOL     OW22615   1.956   4.055   9.347 -0.6090  0.3588  0.1156
 3660SOL    HW122616   1.973   4.122   9.281 -0.7056  0.4732  0.2072
 3660SOL    HW222617   1.936   4.117   9.418 -1.2224  0.5266 -0.2006
 3661SOL     OW22618   0.006   1.570   3.112 -0.1074  0.0782 -0.6841
 3661SOL    HW122619   4.683   1.558   3.042 -0.8407  1.2980 -0.2041
 3661SOL    HW222620   0.065   1.630   3.066  2.0238  0.0746  2.0420
 3662SOL     OW22621   3.279   1.202  14.969 -0.4328  0.1596  0.2562
 3662SOL    HW122622   3.232   1.221  15.050 -1.1695 -0.5182 -0.0088
 3662SOL    HW222623   3.315   1.122  15.005 -0.8977 -0.5894 -0.9213
 3663SOL     OW22624   4.418   1.204  16.648 -0.7649  0.1634 -0.4176
 3663SOL    HW122625   4.438   1.134  16.587 -0.3617 -0.7085  0.7092
 3663SOL    HW222626   4.356   1.255  16.597 -2.8223 -2.6550 -0.7721
 3664SOL     OW22627   2.967   0.519   4.692  0.1368  0.3743 -0.6347
 3664SOL    HW122628   2.976   0.451   4.625  1.0868 -0.4552  0.3463
 3664SOL    HW222629   2.892   0.482   4.739  0.8182 -0.9569 -0.5929
 3665SOL     OW22630   1.470   4.506  12.855 -0.1548  0.3121  0.5579
 3665SOL    HW122631   1.553   4.518  12.809  0.3132  0.2848  1.4064
 3665SOL    HW222632   1.420   4.586  12.838  1.9322  1.3536 -0.6652
 3666SOL     OW22633   3.601   2.885   0.731 -0.2483 -0.7517  0.0406
 3666SOL    HW122634   3.662   2.925   0.794  0.6176 -3.8790  1.1899
 3666SOL    HW222635   3.616   2.943   0.656  1.5313  0.0616  1.0209
 3667SOL     OW22636   2.965   2.057   6.658 -0.1166  0.2201 -0.4892
 3667SOL    HW122637   3.060   2.054   6.664 -0.1694  1.4198  0.9587
 3667SOL    HW222638   2.947   1.977   6.608 -1.7648 -0.3612  1.0286
 3668SOL     OW22639   2.890   0.076   4.325  0.1004  0.3889 -0.2776
 3668SOL    HW122640   2.953   0.011   4.355 -0.3741  0.7842  1.5676
 3668SOL    HW222641   2.903   0.147   4.389 -1.1238  1.3344 -1.0894
 3669SOL     OW22642   0.459   4.445  10.894 -0.3950 -0.6185 -0.0715
 3669SOL    HW122643   0.462   4.425  10.800 -1.6471 -0.7646 -0.0804
 3669SOL    HW222644   0.478   4.358  10.928  0.6076 -0.5773 -0.5422
 3670SOL     OW22645   0.225   3.368  14.671 -0.0239 -0.6526 -0.4110
 3670SOL    HW122646   0.178   3.428  14.612 -1.4558 -0.5167  0.8754
 3670SOL    HW222647   0.297   3.423  14.701 -0.1709 -1.0652  0.6806
 3671SOL     OW22648   0.568   3.382  15.858 -0.3301 -0.2772  0.6687
 3671SOL    HW122649   0.489   3.434  15.874  0.0300  0.9245 -1.5083
 3671SOL    HW222650   0.633   3.451  15.870 -1.5829  0.7215  1.6617
 3672SOL     OW22651   1.845   2.259  17.113 -0.0127 -0.4868  0.0669
 3672SOL    HW122652   1.866   2.296  17.199  2.4481  1.2332 -1.2851
 3672SOL    HW222653   1.787   2.326  17.077 -0.4639 -0.0312  1.6605
 3673SOL     OW22654   1.243   4.069   5.608 -0.0050  0.0411  0.1101
 3673SOL    HW122655   1.246   4.016   5.688  0.6220  2.1323  1.4531
 3673SOL    HW222656   1.281   4.152   5.635  4.3510 -1.1107 -2.4343
 3674SOL     OW22657   0.735   0.865   3.787 -0.4271  0.3409 -0.2268
 3674SOL    HW122658   0.815   0.876   3.839 -1.2571  0.7222  0.9462
 3674SOL    HW222659   0.722   0.772   3.803  0.5623  0.0481 -1.0836
 3675SOL     OW22660   3.160   1.055   8.485 -0.6848  0.2939 -0.3265
 3675SOL    HW122661   3.157   1.151   8.489  0.1077  0.3486 -1.0900
 3675SOL    HW222662   3.101   1.043   8.411 -1.9718 -0.1302  0.7565
 3676SOL     OW22663   3.985   0.805  16.304 -0.3048  0.1257 -0.4506
 3676SOL    HW122664   4.029   0.780  16.223 -1.7019  0.4425 -1.2901
 3676SOL    HW222665   4.054   0.862  16.338 -0.3692 -0.0319 -0.0491
 3677SOL     OW22666   1.953   1.536  12.233 -0.2816  0.0482 -0.0173
 3677SOL    HW122667   1.921   1.541  12.323 -0.3070  0.6445 -0.0581
 3677SOL    HW222668   1.877   1.576  12.190 -0.7149 -2.5873 -1.6629
 3678SOL     OW22669   1.078   1.710  14.326 -0.1594 -0.5987 -0.6085
 3678SOL    HW122670   0.985   1.725  14.310 -0.3363  0.5344  1.4475
 3678SOL    HW222671   1.122   1.685  14.245 -0.5554 -0.2108 -0.9411
 3679SOL     OW22672   3.815   3.166  11.086  0.2121 -0.2042 -0.2908
 3679SOL    HW122673   3.876   3.096  11.062 -0.8640 -0.1391 -3.3133
 3679SOL    HW222674   3.878   3.226  11.125 -0.7467  0.3064  0.4634
 3680SOL     OW22675   1.201   1.851  15.262  0.4568 -0.1054  0.2794
 3680SOL    HW122676   1.131   1.844  15.327 -0.0073 -0.7536 -0.2887
 3680SOL    HW222677   1.274   1.817  15.314 -0.6556 -1.3694  0.9914
 3681SOL     OW22678   3.363   2.512   9.484 -0.2174 -0.3256  0.2985
 3681SOL    HW122679   3.318   2.437   9.446  0.3358 -0.4628 -0.0957
 3681SOL    HW222680   3.322   2.512   9.571  1.3595 -0.3088  1.0535
 3682SOL     OW22681   2.304   2.741   0.057  0.3331 -0.2441  0.2852
 3682SOL    HW122682   2.243   2.793   0.005 -1.0371 -0.6809  1.4609
 3682SOL    HW222683   2.258   2.658   0.056 -1.7403  0.8900  1.3204
 3683SOL     OW22684   0.048   1.113  14.253  0.0053  0.4827 -0.0333
 3683SOL    HW122685   4.719   1.109  14.188  0.2033 -1.7456 -0.0928
 3683SOL    HW222686   0.055   1.208  14.262  1.6704  0.3350  0.2165
 3684SOL     OW22687   0.487   3.650  11.294 -0.4165 -0.1950  0.7832
 3684SOL    HW122688   0.456   3.568  11.256 -2.1147  0.0391  1.6725
 3684SOL    HW222689   0.499   3.629  11.387  0.8639 -1.4086  0.3414
 3685SOL     OW22690   4.019   3.770   0.278 -0.6228  0.3623 -0.0345
 3685SOL    HW122691   4.045   3.853   0.239 -0.4075  0.4557  0.3064
 3685SOL    HW222692   4.017   3.723   0.195 -1.0130 -0.7770  0.6161
 3686SOL     OW22693   1.431   0.701   7.544 -0.3157 -0.2798 -0.2025
 3686SOL    HW122694   1.432   0.764   7.616  0.4397  0.5362 -0.9252
 3686SOL    HW222695   1.458   0.623   7.593  0.5492 -1.2042 -2.1499
 3687SOL     OW22696   4.020   4.444   8.512 -0.1588  0.3996  0.0832
 3687SOL    HW122697   3.965   4.503   8.563 -0.6879  1.0175 -1.2125
 3687SOL    HW222698   4.101   4.495   8.510 -0.0443  0.2214  0.1503
 3688SOL     OW22699   4.456   1.711   3.655 -0.5936 -0.0684 -0.6419
 3688SOL    HW122700   4.459   1.617   3.674 -1.5018 -0.2761 -1.4959
 3688SOL    HW222701   4.361   1.719   3.646 -0.3846  0.6759 -2.1547
 3689SOL     OW22702   3.374   0.194   6.253 -0.1789 -0.1040  0.0015
 3689SOL    HW122703   3.298   0.169   6.306 -0.7651 -0.5841 -1.0643
 3689SOL    HW222704   3.436   0.127   6.282  1.2667  1.1298 -0.2419
 3690SOL     OW22705   3.761   4.417   9.146 -0.9945 -0.0055  0.0837
 3690SOL    HW122706   3.799   4.491   9.193  1.5282 -0.1719 -1.7083
 3690SOL    HW222707   3.777   4.347   9.210  2.2378 -0.6824 -1.4966
 3691SOL     OW22708   0.137   2.249  15.979 -0.0690 -0.3294  0.1803
 3691SOL    HW122709   0.134   2.300  15.899 -2.6028  0.6979  0.9371
 3691SOL    HW222710   0.212   2.191  15.963 -1.0913 -1.3563 -0.9119
 3692SOL     OW22711   2.923   1.383   0.463 -0.2364 -0.1064 -0.1223
 3692SOL    HW122712   2.995   1.328   0.433 -2.4318 -1.7425 -2.4120
 3692SOL    HW222713   2.884   1.401   0.377  2.4555 -1.1816 -1.5863
 3693SOL     OW22714   1.289   2.366   5.672  0.1748 -0.2856 -0.2800
 3693SOL    HW122715   1.378   2.332   5.669 -0.4053 -1.8868  1.3035
 3693SOL    HW222716   1.309   2.458   5.654  0.4813 -0.1850  0.5993
 3694SOL     OW22717   0.559   2.256   3.718  0.2659 -0.2091  0.0418
 3694SOL    HW122718   0.600   2.329   3.673  0.6835  0.0220  0.7904
 3694SOL    HW222719   0.499   2.289   3.785 -2.1319 -0.3255 -2.0470
 3695SOL     OW22720   2.744   2.148   4.833 -0.0189  0.1478  0.5126
 3695SOL    HW122721   2.704   2.231   4.860 -1.1067 -0.3597  0.4965
 3695SOL    HW222722   2.661   2.107   4.806 -0.4451  2.5655 -1.8169
 3696SOL     OW22723   0.525   0.382   2.908  0.3403  0.3052 -0.1436
 3696SOL    HW122724   0.579   0.394   2.830  1.4736 -2.5201  0.1898
 3696SOL    HW222725   0.449   0.437   2.888 -0.1319  0.2531  1.5112
 3697SOL     OW22726   4.554   0.685   4.034 -0.6119  0.1610 -0.4790
 3697SOL    HW122727   4.576   0.652   3.946  0.4287 -2.3805  0.7408
 3697SOL    HW222728   4.613   0.759   4.047  1.4123 -1.8479  1.5934
 3698SOL     OW22729   1.530   3.490   7.259  0.1666  0.3765  0.5378
 3698SOL    HW122730   1.483   3.559   7.212 -0.4839 -0.2090  0.3238
 3698SOL    HW222731   1.585   3.456   7.188 -0.2480  1.3744 -0.2593
 3699SOL     OW22732   1.318   4.586   3.072 -0.2242 -0.4851 -0.1488
 3699SOL    HW122733   1.245   4.546   3.024  0.9875  0.0655 -2.4741
 3699SOL    HW222734   1.389   4.558   3.014 -0.6922 -1.7865 -0.0873
 3700SOL     OW22735   1.391   1.834  10.959 -0.3269  0.0970 -0.4313
 3700SOL    HW122736   1.372   1.902  10.895  4.2641  0.1909 -1.6642
 3700SOL    HW222737   1.319   1.846  11.022  0.9521 -0.8900  1.2442
 3701SOL     OW22738   2.250   0.299   9.911 -0.4856 -0.3187  0.4621
 3701SOL    HW122739   2.195   0.223   9.891  0.2734 -0.4778 -1.0618
 3701SOL    HW222740   2.223   0.363   9.845 -1.2652 -1.5487 -0.4126
 3702SOL     OW22741   1.448   1.395   7.038 -0.0516 -0.1881  0.0001
 3702SOL    HW122742   1.520   1.445   7.000 -0.6003  0.7704  0.2090
 3702SOL    HW222743   1.425   1.463   7.101  0.3824  0.3881 -0.4668
 3703SOL     OW22744   2.000   2.805   8.895 -1.2563  0.4462  0.4789
 3703SOL    HW122745   1.932   2.739   8.909  1.6594 -2.1677  2.1957
 3703SOL    HW222746   1.965   2.889   8.924  0.5174  1.6651 -0.9522
 3704SOL     OW22747   4.289   1.559   9.192  0.9301 -0.3882 -0.1074
 3704SOL    HW122748   4.349   1.633   9.193  0.3240  0.1224 -2.6412
 3704SOL    HW222749   4.342   1.496   9.144  1.6788  1.7079 -2.0432
 3705SOL     OW22750   1.455   1.550   2.608 -0.5032  0.4260  0.4647
 3705SOL    HW122751   1.377   1.538   2.554  0.4854 -2.8695 -0.2114
 3705SOL    HW222752   1.423   1.562   2.698 -0.3018  0.7066  0.4991
 3706SOL     OW22753   2.652   3.367   8.455 -0.2410 -0.1973  0.0865
 3706SOL    HW122754   2.614   3.282   8.477  3.1755 -1.3682  1.4134
 3706SOL    HW222755   2.648   3.412   8.539  2.0089 -0.0454  0.1014
 3707SOL     OW22756   2.313   2.427   0.296  0.1245  0.8229  0.3080
 3707SOL    HW122757   2.403   2.447   0.271  0.3574  0.0201  0.4979
 3707SOL    HW222758   2.301   2.332   0.290  1.3932  0.6320  0.8076
 3708SOL     OW22759   0.544   1.596   5.360 -0.3360  0.1946 -0.2163
 3708SOL    HW122760   0.466   1.594   5.415  0.4636 -1.1114  0.8696
 3708SOL    HW222761   0.493   1.619   5.281  3.0585  1.7033 -1.9467
 3709SOL     OW22762   0.173   0.093   9.043  0.1938  0.0780  0.3085
 3709SOL    HW122763   0.244   0.107   9.106  0.4114  1.8195 -0.3125
 3709SOL    HW222764   0.178   4.741   9.029 -0.8237 -0.1680  1.5623
 3710SOL     OW22765   2.468   2.370  17.275  0.1491 -0.1419 -0.3370
 3710SOL    HW122766   2.438   2.318  17.350  1.6348 -0.1696  0.2314
 3710SOL    HW222767   2.549   2.408  17.309  0.1799 -0.8306  0.3370
 3711SOL     OW22768   3.792   2.339  10.667  0.2459  0.3188 -0.5194
 3711SOL    HW122769   3.734   2.289  10.610  1.7619  0.5838 -2.2645
 3711SOL    HW222770   3.733   2.393  10.721  2.1053  1.9642 -0.1407
 3712SOL     OW22771   2.142   1.609   6.931  0.1513 -0.0088 -0.6255
 3712SOL    HW122772   2.124   1.669   6.858 -0.8773  1.2323  0.6415
 3712SOL    HW222773   2.088   1.639   7.004 -1.3427  0.2920 -1.8347
 3713SOL     OW22774   4.370   2.580   5.224  0.2959  0.1000  0.0427
 3713SOL    HW122775   4.411   2.507   5.178 -0.7861 -0.1042 -0.6010
 3713SOL    HW222776   4.345   2.549   5.311 -0.5645  2.1275  0.5176
 3714SOL     OW22777   4.443   3.571   4.215  0.2369 -0.1838 -0.2026
 3714SOL    HW122778   4.536   3.589   4.228 -0.1005  0.7744  0.7996
 3714SOL    HW222779   4.423   3.655   4.174  2.1840  0.9748  1.2250
 3715SOL     OW22780   3.719   2.651   9.209  0.2880 -0.2021 -0.1596
 3715SOL    HW122781   3.663   2.672   9.284  2.8669  0.9142  1.4825
 3715SOL    HW222782   3.760   2.570   9.240 -0.5614 -0.5305  0.0860
 3716SOL     OW22783   0.775   3.872   3.585  0.2853  0.6725 -0.1417
 3716SOL    HW122784   0.862   3.841   3.560 -0.5011 -1.3508 -0.3838
 3716SOL    HW222785   0.806   3.930   3.654  1.2793  0.4284 -0.3852
 3717SOL     OW22786   2.562   4.698   7.049 -0.2302  0.5906  0.2902
 3717SOL    HW122787   2.543   0.046   7.075  2.2655  1.1055  0.3245
 3717SOL    HW222788   2.515   4.645   7.114 -0.4869 -2.0983 -2.0455
 3718SOL     OW22789   1.964   3.055   5.488 -0.4036  0.7937 -0.1975
 3718SOL    HW122790   1.881   3.015   5.514  0.2697 -0.5344 -0.0585
 3718SOL    HW222791   2.026   3.012   5.548 -2.1857 -2.0863 -0.4441
 3719SOL     OW22792   4.329   0.747   9.466 -0.0973  0.6059  0.2739
 3719SOL    HW122793   4.368   0.817   9.518  2.6978 -0.8746  0.2073
 3719SOL    HW222794   4.382   0.754   9.387  3.2713 -0.8354  2.3882
 3720SOL     OW22795   1.285   2.118   5.833  0.3055  0.2963 -0.2972
 3720SOL    HW122796   1.268   2.206   5.802  0.3077  0.6630  0.7319
 3720SOL    HW222797   1.352   2.142   5.896 -1.3171  1.4579  0.9923
 3721SOL     OW22798   0.294   0.687   5.246 -0.0781 -0.5023 -0.4966
 3721SOL    HW122799   0.332   0.765   5.286 -1.9335  1.3030 -2.2814
 3721SOL    HW222800   0.312   0.702   5.153  1.9930 -0.2472 -0.0591
 3722SOL     OW22801   4.600   4.173   2.073 -0.2428  0.3340  0.8813
 3722SOL    HW122802   4.667   4.164   2.005 -1.6612  0.5562 -0.5387
 3722SOL    HW222803   4.524   4.128   2.036  1.3638 -0.5132 -1.4460
 3723SOL     OW22804   4.320   4.496   4.165 -0.3212  0.5734  0.2575
 3723SOL    HW122805   4.379   4.467   4.095  0.0533 -0.9235  1.2017
 3723SOL    HW222806   4.235   4.488   4.123  0.1346  0.3404 -0.6284
 3724SOL     OW22807   0.114   3.006   6.362  0.5615 -0.1577  0.4052
 3724SOL    HW122808   0.132   3.098   6.347  1.0840 -0.2607  0.3975
 3724SOL    HW222809   0.159   2.983   6.444  0.4017 -0.0304  0.5294
 3725SOL     OW22810   2.693   1.729   3.698 -0.2545 -0.2031  0.1292
 3725SOL    HW122811   2.619   1.772   3.655 -0.6021  0.5283  1.4857
 3725SOL    HW222812   2.654   1.655   3.744  2.5477 -2.2462 -0.7419
 3726SOL     OW22813   3.379   0.438   0.014 -0.0269  0.1774 -0.1219
 3726SOL    HW122814   3.399   0.532   0.011 -1.2505  0.4239 -0.6460
 3726SOL    HW222815   3.306   0.427  17.718 -0.7167 -0.3015  0.7782
 3727SOL     OW22816   4.571   1.777   2.546 -0.1079 -0.2428  0.1225
 3727SOL    HW122817   4.551   1.744   2.633 -1.9735 -1.3614 -0.7114
 3727SOL    HW222818   4.626   1.854   2.562 -0.3149  0.3396 -1.8482
 3728SOL     OW22819   0.143   1.715   2.142  0.5176  0.2969  0.5950
 3728SOL    HW122820   0.152   1.641   2.081 -2.7478  0.0299  0.4212
 3728SOL    HW222821   0.213   1.681   2.198  0.6030 -1.4775 -0.5766
 3729SOL     OW22822   0.492   1.047   2.100  0.3848 -0.0843  0.3306
 3729SOL    HW122823   0.422   1.079   2.156  1.1130 -0.5902  1.5209
 3729SOL    HW222824   0.542   1.127   2.085 -0.0025  0.2193  0.6679
 3730SOL     OW22825   3.555   2.799   4.010 -0.2511 -0.2319 -0.7866
 3730SOL    HW122826   3.559   2.754   4.094 -2.2498 -1.4632 -1.3544
 3730SOL    HW222827   3.612   2.874   4.023  0.5271 -0.7118 -1.3573
 3731SOL     OW22828   4.602   3.312   3.060 -0.0077  0.8134  0.4511
 3731SOL    HW122829   4.531   3.254   3.032  0.4218  0.8244 -0.6910
 3731SOL    HW222830   4.642   3.249   3.119  1.8854  2.3930  0.8629
 3732SOL     OW22831   3.710   1.994   5.938 -0.0693 -0.0664 -0.4857
 3732SOL    HW122832   3.765   1.933   5.987 -0.6148 -1.0395 -1.0881
 3732SOL    HW222833   3.750   2.081   5.935 -1.9576  0.8497  0.7819
 3733SOL     OW22834   2.234   0.237   5.313  0.1294  0.4738 -0.1370
 3733SOL    HW122835   2.300   0.297   5.280 -2.3508  2.2759 -1.8650
 3733SOL    HW222836   2.162   0.296   5.289 -0.6041  0.2601  1.5471
 3734SOL     OW22837   4.373   0.998   4.033 -0.0762 -0.0754 -0.9511
 3734SOL    HW122838   4.331   0.925   3.988 -0.6598 -0.8481  0.8251
 3734SOL    HW222839   4.347   1.068   3.974 -0.6429  1.4778  1.1176
 3735SOL     OW22840   2.760   0.738   2.945 -0.2601 -0.5483  0.4635
 3735SOL    HW122841   2.707   0.665   2.978  0.2758 -0.3894  1.6685
 3735SOL    HW222842   2.834   0.733   3.005  0.9279  2.5482 -0.7316
 3736SOL     OW22843   2.014   2.616   3.873  0.0298 -0.2211 -0.2052
 3736SOL    HW122844   2.059   2.631   3.956 -0.4671  1.2810 -0.2106
 3736SOL    HW222845   1.922   2.624   3.899 -0.3604  0.0693 -1.6458
 3737SOL     OW22846   2.812   0.079   1.426  0.6385 -0.2437 -0.3552
 3737SOL    HW122847   2.728   0.084   1.379 -1.2615  2.2161  3.2854
 3737SOL    HW222848   2.775   0.062   1.512  2.9164  0.4042  0.7402
 3738SOL     OW22849   3.002   0.032   1.908 -0.3752  0.3748  0.0644
 3738SOL    HW122850   2.940   0.019   1.836  0.6404 -2.1883 -0.3439
 3738SOL    HW222851   3.010   4.683   1.935 -1.4031  0.4019  0.4449
 3739SOL     OW22852   3.205   3.313   5.774  0.3520 -0.3821  0.0210
 3739SOL    HW122853   3.124   3.323   5.826 -0.4076 -0.3994 -1.1632
 3739SOL    HW222854   3.176   3.270   5.693  0.1544 -0.6904  0.2528
 3740SOL     OW22855   0.753   3.031   2.739 -0.0056  0.0398 -0.0931
 3740SOL    HW122856   0.722   3.084   2.813  0.4687 -0.9166  0.7956
 3740SOL    HW222857   0.686   2.964   2.748 -0.2820 -0.2322 -4.3680
 3741SOL     OW22858   1.004   1.667   1.092  0.6102  0.2288 -0.3109
 3741SOL    HW122859   0.971   1.755   1.072 -0.7014 -0.2340 -0.1892
 3741SOL    HW222860   1.095   1.688   1.112  0.0738  0.4688  1.8725
 3742SOL     OW22861   1.834   0.637   2.771 -0.0301  0.0678 -0.2389
 3742SOL    HW122862   1.751   0.682   2.752  0.5785  0.9758 -0.7316
 3742SOL    HW222863   1.824   0.562   2.713  1.9990  0.1993 -0.7353
 3743SOL     OW22864   3.989   1.946   9.592  0.6720 -0.3545 -0.1111
 3743SOL    HW122865   3.954   1.868   9.635 -1.3185 -0.0994 -1.2657
 3743SOL    HW222866   4.047   1.979   9.661  1.0599 -3.0417  0.8666
 3744SOL     OW22867   4.331   4.470  13.408 -0.4853 -0.0825  0.0616
 3744SOL    HW122868   4.257   4.415  13.434  0.7778 -1.5513  0.5158
 3744SOL    HW222869   4.350   4.518  13.489 -2.1632  0.1938  0.2999
 3745SOL     OW22870   0.498   4.526   3.382  0.0051  0.4132 -0.6611
 3745SOL    HW122871   0.555   4.450   3.373  0.6745  0.9629 -1.0282
 3745SOL    HW222872   0.521   4.585   3.309 -2.7025  1.0578 -1.0290
 3746SOL     OW22873   0.138   0.798   0.061 -0.1800 -0.2658 -0.1549
 3746SOL    HW122874   0.164   0.797   0.153  0.0459  0.3173 -0.2161
 3746SOL    HW222875   0.115   0.707   0.042 -0.2895 -0.1126 -0.7597
 3747SOL     OW22876   3.795   0.403  14.352 -0.6591  0.1181  0.5558
 3747SOL    HW122877   3.700   0.406  14.361 -0.8956  2.9604 -3.0510
 3747SOL    HW222878   3.813   0.492  14.322  2.6047 -0.4507  0.8240
 3748SOL     OW22879   1.750   2.322   2.354 -0.3699  0.0868 -0.0204
 3748SOL    HW122880   1.836   2.281   2.345 -1.3216 -2.2431  1.7018
 3748SOL    HW222881   1.684   2.257   2.331 -0.2201 -0.3022  0.6653
 3749SOL     OW22882   4.415   1.900   7.740  0.1356  0.1359  0.3012
 3749SOL    HW122883   4.414   1.911   7.835 -0.6850 -1.8257  0.5085
 3749SOL    HW222884   4.505   1.919   7.712  0.8301 -1.4295  1.5017
 3750SOL     OW22885   0.148   2.089   9.162 -0.5844 -0.1639 -0.4119
 3750SOL    HW122886   0.153   2.185   9.165  1.2577 -0.1762 -2.7898
 3750SOL    HW222887   0.091   2.064   9.090  0.2369 -2.2468 -0.3177
 3751SOL     OW22888   4.518   4.526   6.955 -0.0982  0.4299  0.5824
 3751SOL    HW122889   4.535   4.444   6.907 -0.9589  0.7388 -0.2399
 3751SOL    HW222890   4.597   4.575   6.932  0.1514  0.1685  0.8870
 3752SOL     OW22891   3.844   1.644  14.416 -0.3080  0.2048  0.2763
 3752SOL    HW122892   3.838   1.640  14.511  2.9885 -0.0562  0.4801
 3752SOL    HW222893   3.898   1.568  14.395 -1.8089 -0.8835  0.4111
 3753SOL     OW22894   0.707   1.559   1.435  0.1234 -0.1818  0.4097
 3753SOL    HW122895   0.761   1.480   1.434 -0.0513 -0.3197  1.9826
 3753SOL    HW222896   0.764   1.623   1.477 -2.8503  0.4795  3.4831
 3754SOL     OW22897   1.622   2.855  15.561  0.0809  0.6034 -0.6486
 3754SOL    HW122898   1.647   2.896  15.479  1.7985 -0.7865 -0.8104
 3754SOL    HW222899   1.530   2.847  15.534  0.5959 -2.7804 -1.4587
 3755SOL     OW22900   1.208   0.575   3.183  0.4154 -0.1925  0.4229
 3755SOL    HW122901   1.290   0.543   3.145  0.7584  0.1733  0.8353
 3755SOL    HW222902   1.219   0.551   3.275 -1.5293 -1.2954  0.3575
 3756SOL     OW22903   4.340   1.801   6.327  0.5666 -0.2675 -0.6404
 3756SOL    HW122904   4.374   1.782   6.239 -1.0330 -1.4090 -1.0160
 3756SOL    HW222905   4.334   1.895   6.313 -0.9227 -0.2052  0.4604
 3757SOL     OW22906   0.326   4.428  12.506  0.2576  0.5218 -0.3196
 3757SOL    HW122907   0.411   4.431  12.462  1.4523  1.7383  2.0198
 3757SOL    HW222908   0.275   4.482  12.447 -0.3822  0.4201  0.1462
 3758SOL     OW22909   4.125   3.457   4.276  0.3783 -0.0737 -0.0520
 3758SOL    HW122910   4.134   3.553   4.274 -0.0826 -0.0070  1.2714
 3758SOL    HW222911   4.152   3.420   4.192 -0.4419  0.1662 -0.4274
 3759SOL     OW22912   0.357   4.638   8.768  0.3105 -0.4131 -0.3153
 3759SOL    HW122913   0.450   4.629   8.749  0.4157 -2.2092  1.0647
 3759SOL    HW222914   0.342   4.552   8.806 -0.4880 -0.2152 -0.1705
 3760SOL     OW22915   4.671   1.779   9.969  0.1056 -0.5675 -0.1376
 3760SOL    HW122916   4.705   1.705  10.019 -1.8325 -1.5148 -0.2126
 3760SOL    HW222917   4.640   1.829  10.044 -0.4317 -1.9626  0.5689
 3761SOL     OW22918   0.150   4.682  11.604  0.1360  0.1957  0.0747
 3761SOL    HW122919   0.236   4.723  11.607 -0.5591  1.6335  0.0651
 3761SOL    HW222920   0.104   0.015  11.641  1.6428 -0.1385  2.5921
 3762SOL     OW22921   3.552   3.901   1.844 -0.4949 -0.2053  0.2565
 3762SOL    HW122922   3.483   3.835   1.845 -1.3136  0.6426 -0.9381
 3762SOL    HW222923   3.525   3.968   1.781  0.0842 -0.3759 -0.1787
 3763SOL     OW22924   0.348   3.118   7.779 -0.5700 -0.0862  0.3520
 3763SOL    HW122925   0.314   3.163   7.857  2.8600 -0.1880  1.8897
 3763SOL    HW222926   0.314   3.175   7.709  0.8742 -1.1098 -1.1849
 3764SOL     OW22927   2.018   2.523   3.539  0.3030 -0.4363 -0.5206
 3764SOL    HW122928   2.066   2.606   3.535 -1.2757  0.5603  0.9032
 3764SOL    HW222929   2.083   2.459   3.511  1.7605  1.6851 -1.9956
 3765SOL     OW22930   2.055   4.694  11.563  0.0960 -0.2933  0.3091
 3765SOL    HW122931   2.078   4.612  11.606  0.7763 -1.3569 -2.0952
 3765SOL    HW222932   1.968   4.669  11.532  1.2361 -1.5550 -1.8833
 3766SOL     OW22933   0.275   0.336   6.841  0.1344  0.3341  0.3426
 3766SOL    HW122934   0.334   0.370   6.908 -1.7172  0.0117  2.1265
 3766SOL    HW222935   0.326   0.273   6.791 -0.2421 -2.0389  2.9616
 3767SOL     OW22936   4.053   3.374   5.012 -0.1103  0.0550  0.0876
 3767SOL    HW122937   4.000   3.329   5.078  0.3586 -0.8655 -0.1567
 3767SOL    HW222938   3.993   3.378   4.937  0.5453  0.4022 -0.4251
 3768SOL     OW22939   2.737   3.621   0.302  0.6410  0.2708 -0.2978
 3768SOL    HW122940   2.691   3.611   0.219 -0.5962  1.5029  0.2454
 3768SOL    HW222941   2.736   3.531   0.335 -0.1366 -0.0733 -1.2850
 3769SOL     OW22942   3.561   4.738   2.236  0.1609  0.2374  0.0352
 3769SOL    HW122943   3.600   0.017   2.151 -0.0854  0.3348 -0.0539
 3769SOL    HW222944   3.593   4.650   2.258 -1.0087  0.1032  1.2676
 3770SOL     OW22945   3.055   0.787   2.016 -0.4434 -0.4749 -0.1883
 3770SOL    HW122946   3.150   0.800   2.024 -0.7366  0.1250  2.3612
 3770SOL    HW222947   3.047   0.749   1.929  1.3516  0.6866 -0.8717
 3771SOL     OW22948   4.187   0.632   6.325 -0.7147 -0.5877  0.3523
 3771SOL    HW122949   4.221   0.700   6.268 -0.8236  0.9389  2.0839
 3771SOL    HW222950   4.207   0.663   6.414  0.6489  2.4843 -1.0354
 3772SOL     OW22951   4.136   4.142   4.607  0.2202  0.1418  0.2388
 3772SOL    HW122952   4.198   4.123   4.677  0.6184  1.4798  0.2489
 3772SOL    HW222953   4.160   4.234   4.593 -0.0008  0.0514 -0.7569
 3773SOL     OW22954   4.262   1.384  12.305  0.2053 -0.5629  0.5955
 3773SOL    HW122955   4.308   1.421  12.380  1.2016  0.1211 -0.3526
 3773SOL    HW222956   4.271   1.453  12.239  2.6968 -2.6241 -1.2061
 3774SOL     OW22957   0.650   1.275   2.019 -0.1191 -0.0315 -0.5002
 3774SOL    HW122958   0.743   1.278   2.039  0.0603  0.0118 -1.3487
 3774SOL    HW222959   0.620   1.357   1.979 -3.3876 -0.7515  0.4767
 3775SOL     OW22960   2.168   0.136  16.268  0.3478 -0.5439  0.8384
 3775SOL    HW122961   2.087   0.152  16.317 -0.9434 -1.2997 -0.9932
 3775SOL    HW222962   2.226   0.099  16.334  1.4334 -1.0215 -0.3752
 3776SOL     OW22963   1.432   0.468  13.827 -0.0549  0.1616 -0.0663
 3776SOL    HW122964   1.524   0.461  13.803  0.6299  0.3120  2.5642
 3776SOL    HW222965   1.402   0.388  13.783 -0.2544  0.9755 -1.4090
 3777SOL     OW22966   1.238   3.939   8.740  0.2104  0.3292 -0.5447
 3777SOL    HW122967   1.322   3.903   8.765 -0.7393 -1.4885  0.0230
 3777SOL    HW222968   1.239   4.017   8.795  2.1509 -1.0466  1.3441
 3778SOL     OW22969   0.478   3.744  14.901  0.2540 -0.2512  1.1407
 3778SOL    HW122970   0.431   3.665  14.930  0.7136 -0.2462  1.8860
 3778SOL    HW222971   0.480   3.715  14.810 -2.1001 -1.1779  1.3780
 3779SOL     OW22972   0.352   0.955   5.272 -0.5330 -1.1111  0.0855
 3779SOL    HW122973   0.308   1.038   5.288  1.2281 -0.3200  0.8449
 3779SOL    HW222974   0.446   0.970   5.264 -0.7274  1.1483  2.2052
 3780SOL     OW22975   2.582   1.218   9.520 -0.1847 -0.0156  0.1649
 3780SOL    HW122976   2.623   1.244   9.603  0.7948  0.7807 -0.5791
 3780SOL    HW222977   2.662   1.188   9.477  0.8575  1.3704  1.1518
 3781SOL     OW22978   1.912   0.776   5.642  0.3137  0.2183 -0.5793
 3781SOL    HW122979   1.855   0.840   5.684  0.5119 -1.2660  1.9782
 3781SOL    HW222980   1.844   0.713   5.618  1.0921 -0.4678 -0.9951
 3782SOL     OW22981   3.640   4.287  17.359 -0.0755  0.4404 -0.7952
 3782SOL    HW122982   3.733   4.307  17.354  0.0259  0.1676  0.0887
 3782SOL    HW222983   3.617   4.318  17.447  1.6771 -1.4306  0.3191
 3783SOL     OW22984   1.574   2.636   1.426 -0.1325 -0.4799  0.0638
 3783SOL    HW122985   1.486   2.658   1.457  0.5216  1.8612  0.2496
 3783SOL    HW222986   1.622   2.652   1.508 -1.3070  0.5656  0.5611
 3784SOL     OW22987   3.003   2.171   6.313 -0.0720 -0.1322 -0.0132
 3784SOL    HW122988   3.046   2.239   6.261  1.3669 -0.6494  0.4938
 3784SOL    HW222989   3.083   2.138   6.354 -0.0402  1.2666  1.0941
 3785SOL     OW22990   3.174   0.294  14.738  0.1089  0.5000 -0.5246
 3785SOL    HW122991   3.163   0.300  14.643  0.8193 -1.3091 -0.7201
 3785SOL    HW222992   3.124   0.372  14.761 -1.1535 -0.6774  0.6924
 3786SOL     OW22993   2.105   0.789   4.747  0.3351  0.0744  0.3390
 3786SOL    HW122994   2.027   0.839   4.768 -1.0856 -2.6307  1.5631
 3786SOL    HW222995   2.149   0.865   4.708  2.0394 -0.2967  1.4914
 3787SOL     OW22996   0.834   1.485  13.260  0.5886 -0.4212 -0.2608
 3787SOL    HW122997   0.826   1.392  13.282  1.6858 -0.1903  1.1569
 3787SOL    HW222998   0.904   1.492  13.194 -0.2789  0.9773 -1.0368
 3788SOL     OW22999   2.419   0.750   1.762 -0.7959  0.2655  0.2756
 3788SOL    HW123000   2.473   0.714   1.832 -1.4027 -4.0524 -1.4787
 3788SOL    HW223001   2.411   0.842   1.788 -0.6172  0.5684 -0.7322
 3789SOL     OW23002   4.595   3.887   4.239 -0.3968 -0.0581  0.4147
 3789SOL    HW123003   4.666   3.831   4.208 -0.8826 -0.2012 -0.4489
 3789SOL    HW223004   4.538   3.871   4.164 -2.1584  0.6409  1.5815
 3790SOL     OW23005   0.877   0.638   8.200  0.1123 -0.2816  0.4676
 3790SOL    HW123006   0.912   0.688   8.274 -1.2739  0.9443  0.2852
 3790SOL    HW223007   0.822   0.577   8.249 -2.0523  0.8082 -0.6035
 3791SOL     OW23008   0.148   0.616   9.976  0.0804 -0.7944 -0.5926
 3791SOL    HW123009   0.120   0.546   9.916  1.2178 -2.6307  1.0069
 3791SOL    HW223010   0.084   0.685   9.958  1.6166 -0.0202 -2.9654
 3792SOL     OW23011   2.607   0.484   7.725  0.2980 -0.4576  0.1652
 3792SOL    HW123012   2.661   0.530   7.789  0.5771  1.9829 -1.8302
 3792SOL    HW223013   2.599   0.551   7.656 -2.7691 -0.3942  0.5781
 3793SOL     OW23014   3.010   3.912  15.345  0.8266 -0.2265 -0.6139
 3793SOL    HW123015   2.940   3.849  15.365  0.4051  0.3484 -0.2670
 3793SOL    HW223016   3.029   3.879  15.257  2.6172  0.0301 -0.3209
 3794SOL     OW23017   4.713   3.841   4.656  0.5479 -0.6327 -0.0817
 3794SOL    HW123018   4.692   3.874   4.743 -0.9581  0.2157 -0.7670
 3794SOL    HW223019   4.718   3.749   4.682 -0.3945 -0.4363  0.7799
 3795SOL     OW23020   0.034   1.784  12.774 -0.4418  0.2700 -0.1422
 3795SOL    HW123021   0.130   1.787  12.783 -0.3648  0.9905 -1.1672
 3795SOL    HW223022   0.002   1.812  12.859 -0.2735 -1.8237  0.6051
 3796SOL     OW23023   2.581   2.007  16.972  0.2565 -0.9348  0.0229
 3796SOL    HW123024   2.577   2.046  17.060 -2.1070  1.3863 -1.1108
 3796SOL    HW223025   2.676   2.013  16.966  0.4271 -3.1266  0.7372
 3797SOL     OW23026   4.674   3.837   3.976 -0.0571  0.4587  0.3523
 3797SOL    HW123027   4.663   3.922   3.935 -1.1745  0.1999  0.1090
 3797SOL    HW223028   4.592   3.793   3.954 -0.1090 -0.3491  2.1791
 3798SOL     OW23029   0.230   0.587   7.518 -0.5446 -0.0438 -0.1111
 3798SOL    HW123030   0.214   0.506   7.469  2.3396 -0.0381 -1.0394
 3798SOL    HW223031   0.316   0.578   7.560  1.3617  3.0972 -3.4032
 3799SOL     OW23032   4.308   4.739   4.247  0.2240  0.1732  0.4908
 3799SOL    HW123033   4.298   4.655   4.203 -0.0968  0.4326  0.0643
 3799SOL    HW223034   4.220   0.025   4.273  0.2545  0.3810  0.3733
 3800SOL     OW23035   2.727   1.275   6.684 -0.6396  0.3002 -0.7112
 3800SOL    HW123036   2.789   1.326   6.633  0.1922 -4.2470 -4.2603
 3800SOL    HW223037   2.742   1.309   6.773 -0.7494  0.8503 -0.9038
 3801SOL     OW23038   4.000   4.415   0.235  0.8225 -0.0192  0.0284
 3801SOL    HW123039   3.998   4.361   0.313  1.2773  1.5996  1.1571
 3801SOL    HW223040   4.038   4.493   0.276 -0.3967  0.8380 -0.4681
 3802SOL     OW23041   4.433   3.771   3.002  0.2282 -0.2831  0.6424
 3802SOL    HW123042   4.508   3.743   3.053  1.8706  1.1497 -0.9844
 3802SOL    HW223043   4.372   3.698   3.013  0.7162 -0.8555 -0.4931
 3803SOL     OW23044   1.542   1.288   1.176 -0.0006 -0.2960 -0.1144
 3803SOL    HW123045   1.492   1.212   1.206 -1.7359  1.9370  2.7350
 3803SOL    HW223046   1.533   1.298   1.081  0.0023 -3.3682 -0.4368
 3804SOL     OW23047   1.157   0.350   5.807  0.3868 -0.2702  0.2869
 3804SOL    HW123048   1.185   0.270   5.852 -1.5164 -0.6183  0.8479
 3804SOL    HW223049   1.152   0.321   5.716  1.5021 -3.1470  1.1155
 3805SOL     OW23050   3.701   1.907   6.757  0.0487 -0.0816  0.4130
 3805SOL    HW123051   3.698   1.838   6.690  0.0106 -0.2793  0.6175
 3805SOL    HW223052   3.794   1.928   6.751 -0.0245  0.1778  0.1859
 3806SOL     OW23053   1.847   2.505   1.787 -0.4541  0.2984 -0.1751
 3806SOL    HW123054   1.933   2.495   1.747  0.7805  2.5344  1.8764
 3806SOL    HW223055   1.866   2.483   1.878 -0.7469 -1.3141 -0.5136
 3807SOL     OW23056   2.940   2.878   7.807  0.0777  0.4704 -0.2416
 3807SOL    HW123057   2.986   2.954   7.770 -0.4907 -0.4364 -2.8303
 3807SOL    HW223058   2.917   2.918   7.891 -3.4426  0.2993 -1.1294
 3808SOL     OW23059   1.342   3.106  14.124  0.3124  0.2795  1.0598
 3808SOL    HW123060   1.412   3.095  14.188  1.0429  1.2351  0.4273
 3808SOL    HW223061   1.377   3.062  14.047 -0.8096 -0.5906  1.0452
 3809SOL     OW23062   0.933   0.441   1.828  0.2473 -0.0542 -0.2051
 3809SOL    HW123063   0.920   0.411   1.737  0.9797  0.4620 -0.4786
 3809SOL    HW223064   1.020   0.480   1.825  0.7699 -1.4761 -3.8929
 3810SOL     OW23065   3.380   1.384   2.546 -0.0863 -0.2068 -0.1481
 3810SOL    HW123066   3.331   1.349   2.620 -1.7000  0.4185 -0.9213
 3810SOL    HW223067   3.421   1.459   2.590 -1.2786  1.0902 -1.2179
 3811SOL     OW23068   2.989   4.712   5.074 -0.0192  0.4547  0.3015
 3811SOL    HW123069   2.926   4.678   5.137  0.8997  1.2185  1.6267
 3811SOL    HW223070   3.068   4.662   5.094  0.5280  1.0884 -0.2323
 3812SOL     OW23071   4.389   2.953   2.269  0.3902 -0.5911  0.0636
 3812SOL    HW123072   4.387   2.864   2.304  1.5166 -0.4294  0.5479
 3812SOL    HW223073   4.333   2.999   2.331 -1.5254  1.9319 -3.5182
 3813SOL     OW23074   2.519   4.660   2.351  0.4694 -0.1234 -0.1809
 3813SOL    HW123075   2.554   4.619   2.272 -0.7122 -0.8693 -0.3151
 3813SOL    HW223076   2.430   4.623   2.349 -0.5813  2.2673  1.6384
 3814SOL     OW23077   4.150   1.013  16.385  1.0666  0.5107  0.9470
 3814SOL    HW123078   4.101   1.090  16.354  1.9036  0.3876 -0.7262
 3814SOL    HW223079   4.122   1.012  16.476 -2.7238  0.8931 -0.2057
 3815SOL     OW23080   4.564   0.638   6.767 -0.1202 -0.1508  0.3654
 3815SOL    HW123081   4.598   0.695   6.836  2.3803  0.6989 -1.5827
 3815SOL    HW223082   4.609   0.554   6.774  1.1011  0.3920 -0.9180
 3816SOL     OW23083   4.149   0.359   7.812  0.1933 -0.3336 -0.4016
 3816SOL    HW123084   4.152   0.278   7.863 -2.7334  0.3807  0.8951
 3816SOL    HW223085   4.068   0.399   7.843 -0.5516 -0.2777 -2.4422
 3817SOL     OW23086   2.895   2.111  15.834 -0.4207 -0.5282 -0.4950
 3817SOL    HW123087   2.959   2.182  15.833 -4.3191  2.9604  0.5565
 3817SOL    HW223088   2.813   2.158  15.817  1.4523  2.6578 -0.7134
 3818SOL     OW23089   0.674   0.116   3.112 -0.1607 -0.1890 -0.5601
 3818SOL    HW123090   0.590   0.078   3.139 -0.5324  0.4679 -0.7665
 3818SOL    HW223091   0.728   0.090   3.186 -1.2436  2.6034  1.2055
 3819SOL     OW23092   0.471   4.457   4.265  0.0012  0.3832 -0.1314
 3819SOL    HW123093   0.449   4.369   4.235  2.5265  0.1750 -1.3182
 3819SOL    HW223094   0.550   4.442   4.317 -0.6625 -2.2687  0.1054
 3820SOL     OW23095   0.745   4.109  10.854 -0.1076  0.2057  1.0051
 3820SOL    HW123096   0.764   4.183  10.797  1.7466 -2.5731 -1.9506
 3820SOL    HW223097   0.765   4.027  10.809 -0.2473 -1.0113  3.1361
 3821SOL     OW23098   3.363   2.060  10.434  0.1270 -0.6898 -0.3055
 3821SOL    HW123099   3.315   2.012  10.502  1.1566 -3.2495 -1.4044
 3821SOL    HW223100   3.421   2.118  10.484 -1.5057  1.1391 -0.5537
 3822SOL     OW23101   2.764   0.196  17.616 -0.1665 -0.0138  0.0662
 3822SOL    HW123102   2.805   0.174  17.533 -1.4917  0.6953 -0.7686
 3822SOL    HW223103   2.674   0.164  17.605  0.0776 -0.5435 -0.3542
 3823SOL     OW23104   0.653   1.107   9.237  0.5465  0.6044 -0.0351
 3823SOL    HW123105   0.641   1.062   9.153  1.4953 -0.4508  0.3919
 3823SOL    HW223106   0.564   1.140   9.247 -0.4107 -1.4234 -1.6793
 3824SOL     OW23107   2.745   3.680   9.493 -0.4224 -0.7014 -0.9177
 3824SOL    HW123108   2.694   3.603   9.518 -0.8683  0.2541  1.1542
 3824SOL    HW223109   2.708   3.741   9.558 -0.9654 -1.1586 -0.7988
 3825SOL     OW23110   0.422   1.210   7.236  0.0805 -0.2448 -0.2500
 3825SOL    HW123111   0.511   1.224   7.270  1.4670 -0.5293 -3.6929
 3825SOL    HW223112   0.383   1.162   7.308 -1.5816  3.5471  1.3972
 3826SOL     OW23113   2.391   1.865   8.068  0.3981  0.6924  0.2562
 3826SOL    HW123114   2.324   1.933   8.068 -0.7730 -0.4592  0.5579
 3826SOL    HW223115   2.442   1.892   7.992  0.6123 -0.5964 -0.0592
 3827SOL     OW23116   0.279   1.216   3.025 -0.3797 -0.1450  0.1486
 3827SOL    HW123117   0.201   1.209   3.080 -1.2455 -0.4189 -1.0850
 3827SOL    HW223118   0.331   1.155   3.078  0.6693  1.5053  0.9941
 3828SOL     OW23119   3.600   2.493  17.262  0.2867  0.3130 -0.6149
 3828SOL    HW123120   3.678   2.439  17.265 -1.4191 -2.1931 -1.3290
 3828SOL    HW223121   3.626   2.580  17.231  0.9977  0.5752  0.7252
 3829SOL     OW23122   2.823   4.465  17.212  0.1291 -0.3210  0.3437
 3829SOL    HW123123   2.914   4.480  17.189  0.1495  0.7979  1.1561
 3829SOL    HW223124   2.810   4.371  17.199 -1.7706 -0.1204  0.7672
 3830SOL     OW23125   0.607   3.173   4.422  0.3186 -0.1208  0.0188
 3830SOL    HW123126   0.553   3.246   4.451  1.4010 -1.0819  4.5532
 3830SOL    HW223127   0.561   3.101   4.466 -2.5498  2.6852  1.5838
 3831SOL     OW23128   2.810   4.056  15.099  0.2641 -0.6708 -0.0245
 3831SOL    HW123129   2.767   4.037  15.016 -1.8012  1.1608  0.6321
 3831SOL    HW223130   2.827   4.148  15.079  2.0264 -1.0824 -0.3540
 3832SOL     OW23131   1.336   2.557   7.785 -0.4623 -0.2022  0.4065
 3832SOL    HW123132   1.356   2.492   7.718 -0.2884  0.8409 -0.5504
 3832SOL    HW223133   1.299   2.493   7.845  0.6704 -0.8386  0.4268
 3833SOL     OW23134   0.121   2.949   1.627 -0.1472 -0.4760  0.3700
 3833SOL    HW123135   0.033   2.912   1.622  0.0889 -1.2144  1.6763
 3833SOL    HW223136   0.180   2.891   1.577 -0.4804  0.6960 -1.3963
 3834SOL     OW23137   3.851   4.683   3.418  0.5289  0.5863  0.1429
 3834SOL    HW123138   3.865   4.740   3.494  2.8774 -0.0713  0.2202
 3834SOL    HW223139   3.928   4.626   3.427  0.4828  0.7333  1.5542
 3835SOL     OW23140   2.170   1.542   6.255 -0.8116 -0.1958  0.0537
 3835SOL    HW123141   2.095   1.570   6.307 -0.0424  0.2317  0.9434
 3835SOL    HW223142   2.173   1.605   6.183  0.1314 -0.2268  0.0622
 3836SOL     OW23143   4.529   3.693   8.589  0.6122 -0.3339 -0.2858
 3836SOL    HW123144   4.568   3.627   8.533  1.0198 -0.3074 -0.0296
 3836SOL    HW223145   4.437   3.683   8.565  0.9397 -0.2557 -1.5651
 3837SOL     OW23146   2.548   0.294  13.633  0.0655 -0.5473  0.6611
 3837SOL    HW123147   2.595   0.374  13.611 -1.8882  0.5251  0.3906
 3837SOL    HW223148   2.614   0.228  13.655 -1.4793 -1.2607  3.1503
 3838SOL     OW23149   2.098   3.152   4.444 -0.3236  0.5868  0.9817
 3838SOL    HW123150   2.153   3.074   4.433 -0.6080  0.0016  3.5263
 3838SOL    HW223151   2.121   3.215   4.376 -0.6155  0.2692  0.5948
 3839SOL     OW23152   3.280   1.073  15.431  0.2735 -0.3385 -0.3160
 3839SOL    HW123153   3.363   1.120  15.434  0.3545 -0.6122  1.5433
 3839SOL    HW223154   3.286   1.028  15.515  0.6000  0.0151 -0.1493
 3840SOL     OW23155   3.213   2.559   3.201 -0.3568  0.3831 -0.0814
 3840SOL    HW123156   3.273   2.568   3.275 -1.5977 -0.8760  1.0918
 3840SOL    HW223157   3.280   2.517   3.148 -1.0118 -0.1993 -0.4533
 3841SOL     OW23158   3.227   3.974   0.715 -0.2753 -0.3248  0.6672
 3841SOL    HW123159   3.282   3.923   0.774 -0.1911  1.6705  2.2813
 3841SOL    HW223160   3.158   3.907   0.711  0.0653 -0.6920  0.9189
 3842SOL     OW23161   2.525   3.084   3.994  0.1656 -0.2703 -0.6387
 3842SOL    HW123162   2.437   3.077   3.958  0.1511  1.8783 -1.0082
 3842SOL    HW223163   2.580   3.105   3.919  1.8173  1.4975  1.0734
 3843SOL     OW23164   2.421   2.989   9.400  0.4502  0.1593 -0.2343
 3843SOL    HW123165   2.418   2.943   9.316 -2.2462  2.3584 -1.3214
 3843SOL    HW223166   2.373   2.927   9.455  0.2472  1.3046  0.8794
 3844SOL     OW23167   1.838   3.556   5.888  0.3092  0.5847  0.0605
 3844SOL    HW123168   1.820   3.626   5.950  1.3139  1.4526 -0.6127
 3844SOL    HW223169   1.879   3.494   5.948 -0.2051 -0.8634 -1.0879
 3845SOL     OW23170   0.794   1.893   7.186  0.1799  0.3596  0.3760
 3845SOL    HW123171   0.813   1.800   7.179  3.1835  1.0525 -0.5760
 3845SOL    HW223172   0.881   1.934   7.192 -0.1270  0.9355  0.8742
 3846SOL     OW23173   1.510   1.820   7.017 -0.1153 -0.1179 -0.6961
 3846SOL    HW123174   1.505   1.741   6.963  1.0430  0.6801 -1.9760
 3846SOL    HW223175   1.577   1.871   6.971  0.9267 -1.8982 -1.1773
 3847SOL     OW23176   1.270   0.591   5.024  0.0403 -0.1141 -0.5005
 3847SOL    HW123177   1.182   0.614   5.055  0.7381  1.0756  0.6270
 3847SOL    HW223178   1.307   0.564   5.108  0.1463 -1.1678 -0.8865
 3848SOL     OW23179   3.498   1.619   6.698  0.1663  0.7645 -1.1137
 3848SOL    HW123180   3.561   1.634   6.627  1.1741  0.0747 -0.3584
 3848SOL    HW223181   3.464   1.529   6.690  1.6901 -0.0697  1.7653
 3849SOL     OW23182   0.207   1.240   2.435 -0.1462 -0.3260 -0.0241
 3849SOL    HW123183   0.241   1.151   2.448  3.3270  1.1949  1.2635
 3849SOL    HW223184   0.154   1.228   2.356  0.3377  1.1949 -0.5637
 3850SOL     OW23185   0.563   0.773  16.236  0.1910 -0.2089  0.0115
 3850SOL    HW123186   0.479   0.755  16.194 -0.6970  1.2973  1.1658
 3850SOL    HW223187   0.613   0.803  16.160  1.1909 -0.1718  0.6836
 3851SOL     OW23188   3.154   3.945   8.563  0.5541 -0.0700  0.3637
 3851SOL    HW123189   3.084   3.903   8.612 -0.6206  0.7042 -0.6503
 3851SOL    HW223190   3.215   3.959   8.635 -0.8950 -0.3004  1.6153
 3852SOL     OW23191   1.776   2.690  15.709 -0.4351  0.9017  0.1115
 3852SOL    HW123192   1.785   2.752  15.781  0.2133  2.4177 -1.2603
 3852SOL    HW223193   1.747   2.744  15.636 -0.6786  0.5708 -0.0371
 3853SOL     OW23194   4.490   2.439   3.947  0.4284 -0.5383 -0.1746
 3853SOL    HW123195   4.411   2.451   4.000  0.5034  3.7094 -1.0294
 3853SOL    HW223196   4.553   2.413   4.015  0.4544 -0.1147 -0.0366
 3854SOL     OW23197   4.423   1.514   9.516  0.9296 -0.2810  0.1807
 3854SOL    HW123198   4.377   1.431   9.524 -2.2371  1.5749  1.0723
 3854SOL    HW223199   4.442   1.510   9.422 -0.2656  1.1843 -0.1290
 3855SOL     OW23200   1.674   2.687   1.689  0.4406  0.4283 -0.5146
 3855SOL    HW123201   1.632   2.678   1.774 -0.8072 -1.0647 -1.2986
 3855SOL    HW223202   1.745   2.626   1.709  0.3365  0.8810  1.1865
 3856SOL     OW23203   4.577   0.969  10.385 -0.4468 -0.0677  0.7464
 3856SOL    HW123204   4.503   0.910  10.368 -1.3665  2.0426 -2.3940
 3856SOL    HW223205   4.556   1.013  10.467 -0.0805  1.5367 -0.0317
 3857SOL     OW23206   1.117   3.371  15.243 -0.0759  0.0664 -0.3866
 3857SOL    HW123207   1.149   3.308  15.307 -0.3088  0.2893 -0.0523
 3857SOL    HW223208   1.039   3.324  15.213 -0.1746 -0.6256  0.9602
 3858SOL     OW23209   3.283   2.867   8.859  0.0192  0.4890 -0.3150
 3858SOL    HW123210   3.311   2.780   8.833  1.8047 -0.4165  4.6539
 3858SOL    HW223211   3.248   2.844   8.945  3.4171  0.8655  1.1474
 3859SOL     OW23212   0.131   3.844  14.160  0.6325 -0.0755 -0.1086
 3859SOL    HW123213   0.178   3.762  14.176  3.2872  1.4292 -0.1269
 3859SOL    HW223214   0.181   3.872  14.083 -0.7588 -0.0560 -1.0092
 3860SOL     OW23215   4.067   0.632   6.618  0.4071 -0.3756  0.1196
 3860SOL    HW123216   4.136   0.589   6.667  1.5340  2.1271  0.7468
 3860SOL    HW223217   4.055   0.697   6.687  1.9514  0.2413 -0.1922
 3861SOL     OW23218   1.033   1.379   9.766  0.3587  0.3786  0.3330
 3861SOL    HW123219   1.079   1.306   9.808 -0.8607 -0.2971  0.4985
 3861SOL    HW223220   0.953   1.375   9.819  0.6139 -0.0332  0.6827
 3862SOL     OW23221   0.576   4.709   2.080  0.3612  0.8223  0.4017
 3862SOL    HW123222   0.567   4.615   2.063  0.4349  0.8483  0.2176
 3862SOL    HW223223   0.606   4.731   1.992  2.7464  1.5506  1.3693
 3863SOL     OW23224   4.296   0.036   1.433  0.2577 -0.3581  0.4640
 3863SOL    HW123225   4.370   4.732   1.471 -0.9055 -1.8358  0.9291
 3863SOL    HW223226   4.339   0.111   1.391 -0.1944 -0.8681 -0.9271
 3864SOL     OW23227   2.075   2.890  13.984 -0.0830  0.1544  0.3505
 3864SOL    HW123228   2.140   2.820  13.980  1.3943  1.4230  1.8282
 3864SOL    HW223229   2.017   2.856  13.917 -0.0653  0.1414  0.3417
 3865SOL     OW23230   1.253   4.505   5.224  0.0082 -0.3835 -0.1733
 3865SOL    HW123231   1.204   4.493   5.143  0.9540  1.4451 -1.0095
 3865SOL    HW223232   1.288   4.417   5.234 -1.6524 -0.9468  0.8648
 3866SOL     OW23233   0.467   0.093   7.849 -0.2916  0.4792  0.3197
 3866SOL    HW123234   0.509   0.178   7.857 -0.3231  0.5917 -0.6888
 3866SOL    HW223235   0.464   0.076   7.755  0.6297  0.7130  0.2557
 3867SOL     OW23236   1.618   3.621   5.324  0.4660 -0.0111 -0.0674
 3867SOL    HW123237   1.526   3.641   5.343  0.1312 -0.9395 -0.6867
 3867SOL    HW223238   1.611   3.537   5.278  0.3819 -0.6870  1.1811
 3868SOL     OW23239   1.582   0.219  13.569 -0.7135  0.2007 -0.0886
 3868SOL    HW123240   1.502   0.268  13.550 -0.4141  0.6132 -0.2752
 3868SOL    HW223241   1.550   0.131  13.589 -2.0012  0.5826 -0.4460
 3869SOL     OW23242   1.665   4.016  11.317 -0.2837 -0.0872 -0.7404
 3869SOL    HW123243   1.643   3.993  11.408 -1.2097  1.8834 -0.4735
 3869SOL    HW223244   1.639   4.108  11.317  0.1493  0.0379  0.2190
 3870SOL     OW23245   3.562   2.640   8.939  0.4039  0.0402  0.2709
 3870SOL    HW123246   3.541   2.641   8.845 -0.5382 -0.4058  0.4777
 3870SOL    HW223247   3.541   2.549   8.962  3.1770 -0.8416 -0.6089
 3871SOL     OW23248   0.291   2.311   7.548 -0.1270 -0.3312 -0.1714
 3871SOL    HW123249   0.241   2.332   7.470  1.4824  0.1721 -1.0593
 3871SOL    HW223250   0.304   2.394   7.595 -1.8104 -1.0539  1.5657
 3872SOL     OW23251   0.387   4.045  11.493  0.2440 -0.7686 -0.7447
 3872SOL    HW123252   0.462   4.005  11.450  1.3354 -0.6123  1.0000
 3872SOL    HW223253   0.357   4.102  11.422 -1.2940 -0.4538  0.1524
 3873SOL     OW23254   3.682   3.736   2.084 -0.2089 -0.4380  0.1951
 3873SOL    HW123255   3.666   3.826   2.053  2.4794 -0.2600 -0.6086
 3873SOL    HW223256   3.702   3.736   2.177  0.3432  2.0655  0.0815
 3874SOL     OW23257   2.379   4.485   3.675 -0.3270 -0.0632 -0.1756
 3874SOL    HW123258   2.293   4.449   3.697 -0.5763  1.8658  2.1386
 3874SOL    HW223259   2.375   4.573   3.713  1.9745 -0.9578  2.1431
 3875SOL     OW23260   1.915   0.621   6.022  0.0961  0.1540 -0.6133
 3875SOL    HW123261   1.857   0.697   6.014 -1.0904 -0.5330  1.6226
 3875SOL    HW223262   1.993   0.664   5.987 -0.1736  1.6918  0.6761
 3876SOL     OW23263   3.070   1.294   5.430 -0.6078 -0.2307 -0.5846
 3876SOL    HW123264   3.163   1.308   5.412 -0.6133  0.5338 -0.0479
 3876SOL    HW223265   3.036   1.380   5.404 -1.1566  0.4265  2.2778
 3877SOL     OW23266   0.294   2.576   7.651  0.1496 -0.2388 -0.3103
 3877SOL    HW123267   0.282   2.604   7.560  0.2900  2.0930  0.3804
 3877SOL    HW223268   0.339   2.648   7.695  1.5712 -0.9302 -0.6468
 3878SOL     OW23269   1.949   2.935  12.556 -0.6739  0.4953 -0.5807
 3878SOL    HW123270   1.854   2.929  12.548 -0.8019 -0.2641  1.5460
 3878SOL    HW223271   1.959   3.001  12.487  0.9966  0.2487 -0.5679
 3879SOL     OW23272   0.892   2.500   1.401 -0.4751  0.0484  0.3173
 3879SOL    HW123273   0.972   2.449   1.411 -0.4875 -0.2455 -1.1925
 3879SOL    HW223274   0.834   2.444   1.350  1.1561 -2.3104  1.0611
 3880SOL     OW23275   1.817   4.606   1.787 -0.2082 -0.1574  0.4508
 3880SOL    HW123276   1.742   4.590   1.844 -1.1575 -0.2974 -0.8453
 3880SOL    HW223277   1.777   4.660   1.720  0.0798  0.0773  0.4693
 3881SOL     OW23278   1.100   3.755   5.848  0.4391 -0.1173 -1.0179
 3881SOL    HW123279   1.136   3.678   5.805  2.0185  0.6460 -1.0801
 3881SOL    HW223280   1.174   3.816   5.848  1.1704 -1.0027 -1.5693
 3882SOL     OW23281   3.892   2.227   9.115  0.1961  0.2853  1.0416
 3882SOL    HW123282   3.892   2.137   9.083  1.1110 -0.0557  2.0332
 3882SOL    HW223283   3.802   2.230   9.149 -0.7787 -2.6095 -1.2537
 3883SOL     OW23284   3.978   0.071  11.216  0.0284  0.0605  0.0380
 3883SOL    HW123285   3.949   0.135  11.280 -2.2438 -2.3087  1.3798
 3883SOL    HW223286   3.991   0.122  11.136  1.1709 -0.0485  0.1636
 3884SOL     OW23287   2.942   4.323   8.426  0.3529  0.2798  0.5136
 3884SOL    HW123288   2.908   4.392   8.369 -3.2492 -2.2916 -0.4653
 3884SOL    HW223289   2.957   4.375   8.505 -1.3724  0.8702  0.4494
 3885SOL     OW23290   3.575   2.443   2.958 -0.0233  0.9501 -0.6781
 3885SOL    HW123291   3.607   2.520   3.004  1.2182  0.5942 -0.9562
 3885SOL    HW223292   3.661   2.404   2.945 -0.4417  0.3281 -1.6822
 3886SOL     OW23293   1.013   0.787   2.668  0.1902 -0.4425  0.0809
 3886SOL    HW123294   0.951   0.806   2.738  2.6181 -1.6187  2.5071
 3886SOL    HW223295   1.024   0.881   2.652  0.6944 -0.3304  1.1095
 3887SOL     OW23296   2.503   1.143   3.497  0.0933 -0.3596  0.7061
 3887SOL    HW123297   2.414   1.137   3.531  0.2552 -4.2450  0.4792
 3887SOL    HW223298   2.562   1.141   3.573 -0.1024  0.4446  0.8754
 3888SOL     OW23299   2.816   1.521  12.169 -0.0455 -0.1654  0.0067
 3888SOL    HW123300   2.869   1.554  12.242  1.0386  0.2501 -0.9693
 3888SOL    HW223301   2.751   1.476  12.223  0.0465 -0.0882  0.1818
 3889SOL     OW23302   4.360   2.698   2.375 -0.0893  0.3002 -0.2143
 3889SOL    HW123303   4.303   2.640   2.425 -0.3816  1.9031  1.2772
 3889SOL    HW223304   4.397   2.637   2.311  0.3742  1.8650 -1.4262
 3890SOL     OW23305   2.342   2.241   2.145  0.2078  0.1530  0.3894
 3890SOL    HW123306   2.302   2.174   2.200 -0.1156  1.2008  1.4174
 3890SOL    HW223307   2.434   2.243   2.170 -0.4694 -0.4743  2.9546
 3891SOL     OW23308   1.184   0.947   8.570 -0.3865  0.3766 -0.5640
 3891SOL    HW123309   1.179   1.026   8.517  0.1803  0.2795 -0.7648
 3891SOL    HW223310   1.189   0.984   8.658  0.5824  0.0655 -0.4966
 3892SOL     OW23311   1.840   0.388   9.329 -0.1437 -0.6240 -0.1187
 3892SOL    HW123312   1.896   0.313   9.307 -0.9839 -1.9462  2.2982
 3892SOL    HW223313   1.812   0.364   9.417  0.9772  4.2874  1.5574
 3893SOL     OW23314   2.455   2.503   9.892 -0.3753  0.2480  0.4474
 3893SOL    HW123315   2.406   2.577   9.928 -0.9471 -0.0855  0.3720
 3893SOL    HW223316   2.483   2.447   9.965  1.5209  0.5783 -0.0452
 3894SOL     OW23317   3.567   0.499   5.202  0.1018  0.4481  0.1602
 3894SOL    HW123318   3.595   0.497   5.294 -0.9869 -0.0984  0.4838
 3894SOL    HW223319   3.479   0.534   5.210 -0.8671 -2.1224  0.7239
 3895SOL     OW23320   2.013   2.281   2.233  0.4965  0.4165 -0.0642
 3895SOL    HW123321   2.047   2.209   2.286  0.8440  0.8881  0.3496
 3895SOL    HW223322   2.073   2.353   2.254  0.1215  1.0843 -1.3009
 3896SOL     OW23323   3.783   1.303   4.063 -0.1018 -0.2382 -0.8026
 3896SOL    HW123324   3.778   1.212   4.092  2.0453  0.2098  1.0317
 3896SOL    HW223325   3.849   1.338   4.124  1.4098 -1.7778 -1.5642
 3897SOL     OW23326   0.890   2.323   5.471  0.3835  0.1697  0.3140
 3897SOL    HW123327   0.803   2.284   5.480  1.1434 -1.0372  2.5909
 3897SOL    HW223328   0.953   2.254   5.493 -0.2624 -1.6121 -3.3692
 3898SOL     OW23329   4.025   3.550   1.445 -0.4620  0.1788  0.6523
 3898SOL    HW123330   3.942   3.555   1.397  0.0694  2.8205 -0.0189
 3898SOL    HW223331   4.001   3.557   1.537 -1.0028  3.6085  0.2705
 3899SOL     OW23332   0.012   0.154   8.240  0.4929  0.2068  0.1410
 3899SOL    HW123333   0.025   0.217   8.169 -1.1803 -0.6522 -0.9202
 3899SOL    HW223334   0.097   0.111   8.254  1.1873  0.8429 -2.0937
 3900SOL     OW23335   0.839   4.072   4.907  0.1516 -0.2238  0.3188
 3900SOL    HW123336   0.859   3.981   4.928  0.8652 -0.1079  0.1354
 3900SOL    HW223337   0.910   4.085   4.844  0.5103 -1.7352  0.4046
 3901SOL     OW23338   2.563   3.102   7.260  0.5844 -0.2985  0.0363
 3901SOL    HW123339   2.603   3.085   7.345 -1.6693 -1.2591  0.9134
 3901SOL    HW223340   2.629   3.070   7.199  0.3351 -0.0679 -0.3531
 3902SOL     OW23341   4.550   2.374  13.516 -0.5392  0.0874 -0.4210
 3902SOL    HW123342   4.456   2.380  13.500 -0.5544 -0.1858 -0.4190
 3902SOL    HW223343   4.556   2.460  13.558  0.0502  0.6942 -1.7268
 3903SOL     OW23344   4.213   3.627   9.939  0.5309 -0.4504 -0.5594
 3903SOL    HW123345   4.192   3.696   9.876  2.2368  0.2476 -0.3624
 3903SOL    HW223346   4.128   3.585   9.952 -0.5445  2.1894  0.9735
 3904SOL     OW23347   2.096   2.859   4.630 -0.0268  0.2075  0.2104
 3904SOL    HW123348   2.083   2.805   4.707 -0.9100  1.6500  1.0717
 3904SOL    HW223349   2.153   2.807   4.573  1.1828  1.2054  0.4931
 3905SOL     OW23350   0.954   2.128   3.311 -0.0690  0.5756  0.6800
 3905SOL    HW123351   0.938   2.115   3.217 -0.9969  0.3460  0.8713
 3905SOL    HW223352   1.046   2.111   3.331 -0.2751 -0.6635  0.6052
 3906SOL     OW23353   2.358   2.209   4.646 -0.2970 -0.6013  0.4735
 3906SOL    HW123354   2.360   2.261   4.727 -1.2525 -1.6014  1.1491
 3906SOL    HW223355   2.265   2.188   4.654 -0.6534  0.0274 -2.0554
 3907SOL     OW23356   4.097   2.632   1.997 -0.2600 -0.1474  0.0526
 3907SOL    HW123357   4.178   2.582   1.980 -0.3741  0.0016 -0.9473
 3907SOL    HW223358   4.071   2.589   2.078 -0.7655  2.2200  1.1447
 3908SOL     OW23359   2.391   1.574   9.622  0.0053  0.4030  0.0637
 3908SOL    HW123360   2.430   1.561   9.709 -0.0123  2.7738  0.4355
 3908SOL    HW223361   2.349   1.659   9.637 -1.5632 -0.1262 -1.3647
 3909SOL     OW23362   3.924   3.191   8.745 -0.3660 -0.4190 -0.3264
 3909SOL    HW123363   3.902   3.195   8.651  2.4997  4.4351 -0.7878
 3909SOL    HW223364   3.858   3.137   8.789  0.3793 -1.9498 -1.0803
 3910SOL     OW23365   4.236   2.399   6.113  0.2314  0.1105 -0.7523
 3910SOL    HW123366   4.213   2.415   6.022 -1.9780 -1.7685 -0.5195
 3910SOL    HW223367   4.304   2.332   6.109  0.5745  0.2586  2.2680
 3911SOL     OW23368   1.772   2.728   5.464 -0.0329 -0.1840 -0.2767
 3911SOL    HW123369   1.751   2.811   5.507  0.5698  1.0863 -2.4216
 3911SOL    HW223370   1.729   2.669   5.526  1.1946 -0.4193  0.3405
 3912SOL     OW23371   0.386   3.385   0.748 -0.0021  0.4315  0.0537
 3912SOL    HW123372   0.300   3.422   0.730  0.1241  0.3277 -0.7529
 3912SOL    HW223373   0.426   3.438   0.818  2.1527 -1.8033  0.5128
 3913SOL     OW23374   2.558   2.097   9.427  0.4347 -0.4162  0.1084
 3913SOL    HW123375   2.608   2.086   9.345  0.5434  0.3182  0.0800
 3913SOL    HW223376   2.494   2.026   9.415 -0.4267  0.3814  0.0069
 3914SOL     OW23377   0.159   2.062   7.126 -0.1865  0.2898  0.1341
 3914SOL    HW123378   0.190   2.052   7.216 -1.2569 -1.5766  0.2942
 3914SOL    HW223379   0.241   2.053   7.078 -1.4998 -1.1519 -1.8465
 3915SOL     OW23380   4.265   0.740   0.162  0.5841  0.0984 -0.5261
 3915SOL    HW123381   4.241   0.775   0.248 -0.0118  2.8824 -1.8218
 3915SOL    HW223382   4.221   0.656   0.165 -0.0073  0.3813 -1.2799
 3916SOL     OW23383   0.434   2.780  15.006  0.1206  0.3879  0.0210
 3916SOL    HW123384   0.360   2.744  15.054 -0.4910  0.8427 -0.5663
 3916SOL    HW223385   0.439   2.869  15.043 -0.9941 -0.1202  1.4034
 3917SOL     OW23386   0.882   3.535  12.224 -0.0767 -0.3207  0.2408
 3917SOL    HW123387   0.949   3.526  12.157  1.6124 -0.2392  1.9387
 3917SOL    HW223388   0.926   3.601  12.277 -0.1594  0.4481 -0.6403
 3918SOL     OW23389   3.740   0.737   9.381  0.8042 -0.3038  0.2444
 3918SOL    HW123390   3.646   0.738   9.363  1.3778  0.4005 -2.6804
 3918SOL    HW223391   3.769   0.688   9.304 -2.5249 -1.0487 -0.5013
 3919SOL     OW23392   1.328   1.715  15.458  0.6285 -0.4436 -0.2849
 3919SOL    HW123393   1.374   1.648  15.509 -0.6342 -1.8808 -1.0477
 3919SOL    HW223394   1.318   1.788  15.520  0.1297 -0.4664 -0.3433
 3920SOL     OW23395   3.716   1.145   3.141 -0.0134  0.6941  0.2738
 3920SOL    HW123396   3.743   1.065   3.185 -2.1183  0.3015  0.8736
 3920SOL    HW223397   3.632   1.125   3.099  0.1505 -1.0686  0.7742
 3921SOL     OW23398   4.539   3.530   9.304 -0.3517  0.1130  0.0142
 3921SOL    HW123399   4.561   3.621   9.322 -0.0049 -0.0302  0.3191
 3921SOL    HW223400   4.572   3.521   9.215 -0.0526 -0.5671  0.1921
 3922SOL     OW23401   3.936   3.186  15.425 -0.9066 -0.2222  0.2258
 3922SOL    HW123402   3.981   3.270  15.420  1.1578 -1.3076  0.7941
 3922SOL    HW223403   3.862   3.190  15.363  0.4037  0.5504 -1.2875
 3923SOL     OW23404   0.894   3.805   6.042  0.7921  0.0430  0.0743
 3923SOL    HW123405   0.819   3.759   6.003 -0.3492  1.2375  0.8463
 3923SOL    HW223406   0.960   3.787   5.976  0.8748  1.5318 -0.2357
 3924SOL     OW23407   1.866   0.854   4.838 -0.2733 -0.3087 -0.1412
 3924SOL    HW123408   1.781   0.867   4.795  0.1165  2.9692  0.0506
 3924SOL    HW223409   1.831   0.846   4.927  0.7474 -0.8619  0.2070
 3925SOL     OW23410   2.033   0.373   6.742  0.0744  0.0169  0.2168
 3925SOL    HW123411   2.007   0.328   6.662  0.2679  1.1912 -0.5171
 3925SOL    HW223412   2.093   0.308   6.779 -0.3257  0.1099  1.0360
 3926SOL     OW23413   0.146   0.821   7.694 -0.0778 -0.1536  0.1563
 3926SOL    HW123414   0.147   0.740   7.644  0.4802  0.3657 -0.6769
 3926SOL    HW223415   0.178   0.796   7.781 -1.3171 -1.2430  0.2904
 3927SOL     OW23416   3.592   4.183  13.650  0.5228  0.4231  0.4848
 3927SOL    HW123417   3.684   4.208  13.643  0.8427 -0.4286  1.5782
 3927SOL    HW223418   3.562   4.203  13.561  1.5785  2.8784  0.6855
 3928SOL     OW23419   0.838   4.654   4.447  0.2371 -0.4276  0.0170
 3928SOL    HW123420   0.802   4.692   4.366 -0.0350 -0.3218  0.1866
 3928SOL    HW223421   0.783   4.575   4.448 -1.1004  0.4911 -1.0252
 3929SOL     OW23422   2.916   1.002   6.736 -0.6477 -0.0601 -0.2686
 3929SOL    HW123423   2.972   0.953   6.796  0.7278  0.5021 -1.0939
 3929SOL    HW223424   2.909   0.936   6.668 -1.9178  0.9161 -1.0773
 3930SOL     OW23425   3.578   1.851   5.702 -0.2401  0.3537  0.5456
 3930SOL    HW123426   3.658   1.860   5.754  2.1892 -0.7595 -3.0091
 3930SOL    HW223427   3.608   1.822   5.616  0.8129  2.0533  0.3649
 3931SOL     OW23428   4.453   2.897   3.982  0.2051  0.6108 -0.3106
 3931SOL    HW123429   4.453   2.909   3.887 -0.5033 -2.5473 -0.6951
 3931SOL    HW223430   4.519   2.830   4.001  0.5979  0.2898 -2.8645
 3932SOL     OW23431   4.249   1.243  14.697 -0.2758  0.5371  0.6654
 3932SOL    HW123432   4.185   1.277  14.635  0.2774 -0.6682 -0.5430
 3932SOL    HW223433   4.331   1.248  14.649  0.4347  0.2421  1.8434
 3933SOL     OW23434   3.620   1.993   6.199 -0.5322 -0.1671 -0.0358
 3933SOL    HW123435   3.696   1.945   6.232 -0.6676  0.4396  1.2019
 3933SOL    HW223436   3.631   1.975   6.106  2.5191  2.6481 -0.2416
 3934SOL     OW23437   0.765   2.806   4.374  0.1006 -0.2477  0.2207
 3934SOL    HW123438   0.717   2.750   4.435  1.0548  1.1332  2.2254
 3934SOL    HW223439   0.812   2.741   4.322  1.4138  0.6750  0.2322
 3935SOL     OW23440   3.721   1.681  11.660 -0.7663 -0.5414  0.1616
 3935SOL    HW123441   3.811   1.659  11.684 -0.3355  1.3770  0.2879
 3935SOL    HW223442   3.706   1.760  11.712 -0.4281  0.4931 -1.3100
 3936SOL     OW23443   3.458   3.068   6.589  0.2493  0.4613  0.1775
 3936SOL    HW123444   3.379   3.037   6.634 -1.0128  1.4035 -1.4111
 3936SOL    HW223445   3.514   2.994   6.616 -2.9319 -1.0788  2.4677
 3937SOL     OW23446   2.174   0.035   9.144  0.0275  0.1634  0.0501
 3937SOL    HW123447   2.232   4.741   9.077  0.7907  1.9236 -0.2321
 3937SOL    HW223448   2.198   0.128   9.145 -1.6932  0.5911  0.8117
 3938SOL     OW23449   3.436   4.405   3.330  0.5651 -0.6556 -0.2167
 3938SOL    HW123450   3.525   4.419   3.363 -0.2668 -0.7412  2.0819
 3938SOL    HW223451   3.389   4.481   3.365 -1.0771 -0.8510 -2.0118
 3939SOL     OW23452   1.888   2.528  16.177 -0.4043 -0.3667  0.3856
 3939SOL    HW123453   1.906   2.604  16.233 -1.2100  1.0854 -1.3417
 3939SOL    HW223454   1.921   2.456  16.231 -0.1392 -0.5651 -0.0444
 3940SOL     OW23455   0.859   0.968  11.143 -0.4027  0.4251  0.2667
 3940SOL    HW123456   0.774   0.991  11.106 -0.0310 -1.6926 -1.8971
 3940SOL    HW223457   0.915   1.005  11.074 -0.8692 -0.4726 -0.6014
 3941SOL     OW23458   2.202   0.808  14.173 -0.0430  0.1929 -0.5261
 3941SOL    HW123459   2.119   0.852  14.155  0.2816  1.1650  0.3092
 3941SOL    HW223460   2.176   0.730  14.222  1.0445 -0.3240 -0.7636
 3942SOL     OW23461   3.899   1.303   9.446 -0.0104  0.2049  0.1269
 3942SOL    HW123462   3.830   1.300   9.379  1.2073  0.5632 -1.1615
 3942SOL    HW223463   3.963   1.369   9.420 -1.9917  1.1114 -2.4772
 3943SOL     OW23464   2.562   1.014  13.436 -0.0077  0.1853 -0.7241
 3943SOL    HW123465   2.489   1.057  13.391  0.8106  1.5179 -0.7830
 3943SOL    HW223466   2.614   1.088  13.467 -0.1445  1.0613 -2.6183
 3944SOL     OW23467   0.285   2.100   4.670 -0.5880  0.3569 -0.1678
 3944SOL    HW123468   0.314   2.060   4.752  2.3667  3.1052  0.1346
 3944SOL    HW223469   0.363   2.074   4.620 -2.5343 -0.9714 -2.5514
 3945SOL     OW23470   1.827   4.442   5.796 -0.6262 -0.1057  0.2285
 3945SOL    HW123471   1.891   4.405   5.736 -0.6991  1.4975 -0.8400
 3945SOL    HW223472   1.742   4.406   5.767 -1.3882  2.8972 -1.2483
 3946SOL     OW23473   0.835   1.954   9.680 -0.1185 -0.6376 -0.3532
 3946SOL    HW123474   0.912   1.923   9.726 -0.3021  0.5545  0.7632
 3946SOL    HW223475   0.827   1.889   9.610 -2.4151 -1.6258  0.8238
 3947SOL     OW23476   0.745   3.747   7.429  0.5230 -0.1351 -0.1313
 3947SOL    HW123477   0.725   3.748   7.522 -1.2133  2.0945 -0.5239
 3947SOL    HW223478   0.692   3.670   7.409  0.9353 -0.3147 -0.5438
 3948SOL     OW23479   3.330   4.434   2.680 -0.5652  0.1611 -0.4289
 3948SOL    HW123480   3.335   4.527   2.660  0.0810 -0.0230 -1.1069
 3948SOL    HW223481   3.244   4.421   2.639 -1.6697  2.4108  1.1605
 3949SOL     OW23482   3.491   3.080   8.066  0.5369  0.1843  0.1224
 3949SOL    HW123483   3.419   3.053   8.010  0.7937 -0.0711 -0.0875
 3949SOL    HW223484   3.447   3.135   8.130  1.7692  1.0855  0.1799
 3950SOL     OW23485   0.269   0.135   5.490  0.0391  0.2707 -0.1849
 3950SOL    HW123486   0.207   0.207   5.480  1.6023  1.3372 -1.9900
 3950SOL    HW223487   0.209   0.069   5.527  1.8745 -1.5057 -0.3899
 3951SOL     OW23488   4.211   2.102   6.096  0.3272  0.0330  0.1020
 3951SOL    HW123489   4.121   2.124   6.119  1.0808  1.6307  1.5316
 3951SOL    HW223490   4.248   2.091   6.184  2.0980  0.0600 -0.6451
 3952SOL     OW23491   4.206   2.935   1.397  0.4187  0.3152  0.3952
 3952SOL    HW123492   4.298   2.950   1.375  0.1585  1.0332 -0.2489
 3952SOL    HW223493   4.192   2.994   1.471 -2.4657  0.4803 -0.2806
 3953SOL     OW23494   2.568   1.861   8.331  0.0022  0.7127  0.6337
 3953SOL    HW123495   2.576   1.881   8.238 -0.3270  1.2580  0.7244
 3953SOL    HW223496   2.642   1.904   8.373  1.5107 -0.4132 -0.8519
 3954SOL     OW23497   1.266   2.620   2.992  1.6569  0.1888  0.0605
 3954SOL    HW123498   1.196   2.564   2.958 -0.8055  2.4165  1.4073
 3954SOL    HW223499   1.281   2.583   3.079 -0.4202 -1.4878 -0.2876
 3955SOL     OW23500   4.177   0.783   5.467  0.1182 -0.1581  0.0695
 3955SOL    HW123501   4.207   0.715   5.406 -3.1496 -0.3570 -1.3252
 3955SOL    HW223502   4.176   0.861   5.412 -0.7606 -0.8907 -0.9514
 3956SOL     OW23503   2.431   3.947   5.578  0.4348  0.4914 -0.4757
 3956SOL    HW123504   2.406   3.923   5.488 -4.2915 -2.0506  1.5149
 3956SOL    HW223505   2.413   3.862   5.619  1.8682 -0.1814 -1.2279
 3957SOL     OW23506   0.644   1.868   3.872 -0.0164 -0.8355  0.0480
 3957SOL    HW123507   0.560   1.893   3.912  1.2990  1.0400  1.6229
 3957SOL    HW223508   0.616   1.813   3.799 -0.2877  0.2625 -0.6661
 3958SOL     OW23509   3.896   1.773   7.403  0.0685 -0.6004 -0.5583
 3958SOL    HW123510   3.884   1.700   7.463  1.5997 -1.3156 -1.1173
 3958SOL    HW223511   3.982   1.761   7.362  0.7014  2.1269 -0.0340
 3959SOL     OW23512   1.407   1.630   3.114 -0.4767 -0.1786  0.2492
 3959SOL    HW123513   1.354   1.574   3.171 -0.8989 -1.6997 -1.6742
 3959SOL    HW223514   1.402   1.714   3.161  3.1086 -1.5090  2.9827
 3960SOL     OW23515   3.430   0.904   7.816 -0.6197  0.1996 -0.1273
 3960SOL    HW123516   3.509   0.900   7.870  1.1766 -0.8458 -2.8068
 3960SOL    HW223517   3.462   0.857   7.738  2.5001 -0.1194  1.3330
 3961SOL     OW23518   4.268   3.403   7.307 -0.0207 -0.2709 -0.0783
 3961SOL    HW123519   4.259   3.316   7.268  2.5714 -0.3868 -0.3979
 3961SOL    HW223520   4.254   3.455   7.228  0.8663  0.8063  0.4836
 3962SOL     OW23521   0.742   1.717   2.032  0.1640 -0.2678 -0.3515
 3962SOL    HW123522   0.764   1.635   2.076 -0.4455  0.1657  0.7836
 3962SOL    HW223523   0.647   1.720   2.043 -0.0063  2.2196 -2.4797
 3963SOL     OW23524   0.749   0.778   9.302 -0.5188  0.5200  0.4473
 3963SOL    HW123525   0.743   0.805   9.211  0.6883  0.2228  0.2836
 3963SOL    HW223526   0.695   0.699   9.298  0.4534 -0.0777 -0.7213
 3964SOL     OW23527   0.053   1.192   2.196 -0.3456  0.2813 -0.2254
 3964SOL    HW123528   4.700   1.184   2.209 -0.6953 -0.5078 -3.2784
 3964SOL    HW223529   0.062   1.108   2.151  1.6283  0.4552 -0.1354
 3965SOL     OW23530   0.159   2.919   8.798 -0.1339 -0.2060 -0.2337
 3965SOL    HW123531   0.188   2.828   8.805 -0.5949 -0.4427 -1.3896
 3965SOL    HW223532   0.076   2.900   8.755 -0.4033 -0.3593  0.3454
 3966SOL     OW23533   0.918   2.810   2.382  0.0009  0.4199 -0.1501
 3966SOL    HW123534   0.901   2.740   2.444 -0.6186  1.2583  0.6336
 3966SOL    HW223535   1.004   2.839   2.413 -0.1632  0.1577  0.5613
 3967SOL     OW23536   1.719   0.581   9.645 -0.0170  0.1524 -0.3708
 3967SOL    HW123537   1.726   0.516   9.716  1.1879  0.7785  0.0776
 3967SOL    HW223538   1.625   0.585   9.627  0.0550  1.0816 -0.5282
 3968SOL     OW23539   3.228   1.254   3.852  0.3256  0.2334 -0.2151
 3968SOL    HW123540   3.305   1.243   3.796 -0.6304 -2.6116 -0.9686
 3968SOL    HW223541   3.259   1.338   3.887  0.3019  0.3308 -0.4294
 3969SOL     OW23542   3.899   0.719   5.526 -0.1690  0.4970 -0.0070
 3969SOL    HW123543   3.911   0.624   5.524 -0.5857  0.4902 -1.5266
 3969SOL    HW223544   3.987   0.750   5.504  0.2958 -0.9748 -0.2279
 3970SOL     OW23545   1.591   0.271   2.780  0.2531  0.2260  0.5331
 3970SOL    HW123546   1.539   0.212   2.835  0.7985 -0.4928  0.2926
 3970SOL    HW223547   1.542   0.274   2.698  0.3947 -1.7117  0.3630
 3971SOL     OW23548   2.458   1.862   1.598 -0.3768 -0.3063 -0.1877
 3971SOL    HW123549   2.544   1.824   1.577 -0.3268  1.2317 -2.6584
 3971SOL    HW223550   2.479   1.952   1.576  2.0809 -0.1551  2.6574
 3972SOL     OW23551   3.147   3.512   1.957  1.0727 -0.2901  0.0705
 3972SOL    HW123552   3.213   3.474   2.016  1.6474  0.0061 -0.3875
 3972SOL    HW223553   3.090   3.567   2.011  0.8673  0.2935 -0.7422
 3973SOL     OW23554   0.880   0.465   5.174 -0.1145  0.6039 -0.0854
 3973SOL    HW123555   0.839   0.401   5.233  2.0204 -0.7704 -0.0903
 3973SOL    HW223556   0.919   0.520   5.242 -0.4652  0.4594  0.2311
 3974SOL     OW23557   4.325   1.122  10.255  0.7717  0.1037 -0.1435
 3974SOL    HW123558   4.339   1.030  10.277  1.9053  0.6407  1.3643
 3974SOL    HW223559   4.381   1.122  10.177 -1.4623 -2.7742 -1.7645
 3975SOL     OW23560   1.295   3.118   8.824 -0.2328 -0.1672  0.3162
 3975SOL    HW123561   1.319   3.120   8.731 -0.9893 -2.3649  0.0944
 3975SOL    HW223562   1.270   3.027   8.835 -2.9204  0.6569  1.1792
 3976SOL     OW23563   2.292   1.722   9.351  0.6067  0.0450 -0.3979
 3976SOL    HW123564   2.364   1.680   9.398  0.2783  0.7619  0.7397
 3976SOL    HW223565   2.288   1.810   9.387 -3.7315 -0.2275 -0.2466
 3977SOL     OW23566   4.717   2.924  13.885  0.2742 -0.0292  0.4067
 3977SOL    HW123567   0.063   2.938  13.850 -0.6854  0.3970 -1.8600
 3977SOL    HW223568   4.665   2.926  13.805 -0.3568  1.4680  0.8492
 3978SOL     OW23569   0.056   2.730   1.960 -0.4517  0.6762  0.2304
 3978SOL    HW123570   0.147   2.760   1.967 -0.8424  2.3074 -1.4729
 3978SOL    HW223571   0.004   2.810   1.970 -2.2581 -0.3304 -1.1560
 3979SOL     OW23572   3.345   2.621   5.213 -0.1183 -0.4992 -0.2447
 3979SOL    HW123573   3.409   2.687   5.188  0.5093  0.0177  2.8020
 3979SOL    HW223574   3.383   2.594   5.296  0.2126  0.3849 -0.1097
 3980SOL     OW23575   1.047   1.765   5.319 -0.4847  0.4212  0.4414
 3980SOL    HW123576   1.111   1.769   5.248 -0.4264  0.2142  0.4812
 3980SOL    HW223577   0.975   1.819   5.287 -0.0357  1.2450  0.8023
 3981SOL     OW23578   3.368   3.243   4.807 -0.0295  0.1241 -0.8197
 3981SOL    HW123579   3.365   3.314   4.871 -1.6918  1.8559 -2.8189
 3981SOL    HW223580   3.309   3.181   4.850  1.8981 -0.6642  0.6756
 3982SOL     OW23581   2.620   1.555  10.404 -0.0494  0.3326 -0.3325
 3982SOL    HW123582   2.664   1.578  10.486  1.0122  1.1326 -1.1270
 3982SOL    HW223583   2.531   1.589  10.409  0.4861  1.4701  1.2476
 3983SOL     OW23584   1.172   0.207   2.880 -0.3126 -0.3098  0.2359
 3983SOL    HW123585   1.191   0.181   2.970 -2.8082  2.1056  1.5044
 3983SOL    HW223586   1.076   0.211   2.872 -0.1715  3.1601  0.0942
 3984SOL     OW23587   0.325   3.357  16.908  0.0554 -0.2303  0.6046
 3984SOL    HW123588   0.385   3.396  16.844  1.8363 -0.0165  2.4046
 3984SOL    HW223589   0.364   3.270  16.916 -2.0104 -1.2528 -0.4256
 3985SOL     OW23590   4.268   3.694   8.162  0.2596 -0.1021  0.2178
 3985SOL    HW123591   4.274   3.647   8.079 -0.9871  0.5094 -0.2212
 3985SOL    HW223592   4.336   3.637   8.196 -0.7858 -1.3974  0.1353
 3986SOL     OW23593   3.797   2.765   2.254  0.1666 -0.0540  0.3409
 3986SOL    HW123594   3.758   2.789   2.338 -1.6235 -0.8691 -0.2568
 3986SOL    HW223595   3.872   2.823   2.244  1.4080 -1.7204 -0.0823
 3987SOL     OW23596   0.419   2.645   5.171  0.0352 -0.0562 -0.3527
 3987SOL    HW123597   0.395   2.636   5.263 -0.6779  0.6331 -0.4690
 3987SOL    HW223598   0.448   2.736   5.168  0.2208 -0.1797 -2.5039
 3988SOL     OW23599   1.401   0.227   6.540 -0.1083  0.1681 -0.5774
 3988SOL    HW123600   1.456   0.299   6.571 -0.6226 -0.2419  1.2729
 3988SOL    HW223601   1.334   0.215   6.607  1.4846 -2.5055  0.5665
 3989SOL     OW23602   4.671   2.470   2.799  0.0545 -0.4890 -0.2296
 3989SOL    HW123603   4.724   2.393   2.818  2.4052  0.6770 -2.1065
 3989SOL    HW223604   4.682   2.479   2.705  1.0862  1.5567  0.0768
 3990SOL     OW23605   4.326   4.078   0.281  0.0325  0.1087 -0.4091
 3990SOL    HW123606   4.362   4.066   0.368  1.5954  0.7139 -0.9775
 3990SOL    HW223607   4.234   4.080   0.309 -0.1547 -1.2431 -0.9372
 3991SOL     OW23608   0.701   4.056  13.949  0.4253  0.1787 -0.0868
 3991SOL    HW123609   0.685   4.150  13.937  2.1739  0.1923 -2.2326
 3991SOL    HW223610   0.725   4.026  13.861  1.2989 -0.4074  0.3508
 3992SOL     OW23611   3.176   2.496  14.096  0.1229 -0.0165 -0.2029
 3992SOL    HW123612   3.212   2.417  14.136 -0.1516 -1.7749 -3.4230
 3992SOL    HW223613   3.086   2.489  14.127  0.3331 -0.1265  0.3826
 3993SOL     OW23614   3.184   0.442   3.379 -0.1995 -0.4272  0.2579
 3993SOL    HW123615   3.142   0.528   3.386 -0.1545 -0.3984  0.1838
 3993SOL    HW223616   3.149   0.402   3.458 -1.2645 -1.6400 -0.8223
 3994SOL     OW23617   2.265   2.737   7.951 -0.1926 -0.3815  0.1469
 3994SOL    HW123618   2.218   2.804   8.001  0.3454 -0.1750  0.3657
 3994SOL    HW223619   2.205   2.664   7.967 -0.9627  0.4703  1.2039
 3995SOL     OW23620   0.828   3.679   1.955 -0.1597 -0.0950 -0.3142
 3995SOL    HW123621   0.797   3.594   1.924 -1.1935  0.3736 -0.5702
 3995SOL    HW223622   0.873   3.649   2.034  0.0899  1.3163  0.0800
 3996SOL     OW23623   1.803   3.923   2.033 -0.5615 -0.1326  0.0431
 3996SOL    HW123624   1.735   3.990   2.040  0.4055  0.8823 -0.3648
 3996SOL    HW223625   1.782   3.883   1.949 -0.1978  0.2713 -0.2378
 3997SOL     OW23626   2.631   3.506   1.199  0.7492  0.8417 -0.3010
 3997SOL    HW123627   2.607   3.572   1.134  2.4274  2.5207  0.7677
 3997SOL    HW223628   2.717   3.540   1.224  0.2637  0.2417  2.2688
 3998SOL     OW23629   2.046   2.401   6.285  0.1569  0.4740  0.0895
 3998SOL    HW123630   1.964   2.444   6.263 -0.3134 -1.8154 -2.5729
 3998SOL    HW223631   2.107   2.424   6.215  0.2454 -3.7299 -1.2225
 3999SOL     OW23632   4.333   4.530  10.817  0.4307 -0.4134  0.2910
 3999SOL    HW123633   4.278   4.527  10.896 -0.4875  1.8414 -0.2692
 3999SOL    HW223634   4.399   4.462  10.832 -0.2433 -0.8784  1.1664
 4000SOL     OW23635   3.550   4.678   4.335  0.1135 -0.2225  0.4463
 4000SOL    HW123636   3.557   0.020   4.379 -0.4864  0.6500 -1.1122
 4000SOL    HW223637   3.573   4.613   4.402 -1.3621 -3.7138 -2.4350
 4001SOL     OW23638   2.826   4.547  11.874  0.0892 -0.1764 -0.5318
 4001SOL    HW123639   2.783   4.594  11.803 -0.8052  1.1627  0.9199
 4001SOL    HW223640   2.904   4.601  11.883  0.2985 -0.2449 -1.8991
 4002SOL     OW23641   3.449   2.741   7.857 -0.1592 -0.3821  0.4841
 4002SOL    HW123642   3.366   2.769   7.895  1.3961  2.6118  1.7341
 4002SOL    HW223643   3.475   2.680   7.926 -0.8961 -0.4116  0.7295
 4003SOL     OW23644   3.908   3.656  11.145 -0.0505  0.0440  0.3203
 4003SOL    HW123645   3.830   3.688  11.099 -0.3142  0.2985  0.9408
 4003SOL    HW223646   3.874   3.578  11.189  1.2394 -0.2397  0.8076
 4004SOL     OW23647   4.240   0.348  17.065 -0.2589  0.0370  0.4557
 4004SOL    HW123648   4.331   0.373  17.079 -0.6098  1.7485 -0.3689
 4004SOL    HW223649   4.253   0.255  17.048  2.2399  0.3472  0.7272
 4005SOL     OW23650   1.955   4.020   7.448 -0.3718 -0.3974 -0.0101
 4005SOL    HW123651   1.984   4.111   7.437 -0.1843 -0.3792  0.6376
 4005SOL    HW223652   2.024   3.975   7.497  0.1060  0.1966 -0.1329
 4006SOL     OW23653   3.370   1.675  15.823  0.2593 -0.1568  0.2600
 4006SOL    HW123654   3.385   1.581  15.837  0.0874 -0.2810 -0.3904
 4006SOL    HW223655   3.389   1.688  15.730  0.1365 -3.7530 -0.2912
 4007SOL     OW23656   1.436   0.873   8.499 -0.0345 -0.0355  0.2966
 4007SOL    HW123657   1.351   0.900   8.535 -0.3585 -0.8901  0.1662
 4007SOL    HW223658   1.419   0.783   8.470 -1.1487  0.3627 -0.3037
 4008SOL     OW23659   2.027   1.651   2.717  0.5770  0.1625  0.1119
 4008SOL    HW123660   2.001   1.631   2.627  0.7717 -0.6668  0.2352
 4008SOL    HW223661   2.023   1.564   2.758 -1.9383 -0.3983 -1.3364
 4009SOL     OW23662   4.458   3.912   3.346 -0.5393  0.5615  0.5668
 4009SOL    HW123663   4.387   3.852   3.322  2.2979 -1.7111 -2.1882
 4009SOL    HW223664   4.415   3.996   3.358 -1.3472  0.2571 -0.1307
 4010SOL     OW23665   3.528   3.959   4.163  0.3173 -0.4524  0.2973
 4010SOL    HW123666   3.533   4.019   4.089 -0.4067  0.2921  0.8592
 4010SOL    HW223667   3.616   3.974   4.199 -0.3787 -0.6494  2.0555
 4011SOL     OW23668   2.442   1.100  15.608 -0.1030  0.3693 -0.2371
 4011SOL    HW123669   2.522   1.048  15.616 -1.2032 -1.3693 -0.4766
 4011SOL    HW223670   2.367   1.041  15.606 -0.1282  0.4151 -0.6687
 4012SOL     OW23671   4.493   1.762   3.088 -0.0052 -0.3214 -0.4643
 4012SOL    HW123672   4.474   1.735   3.178 -2.4261  1.3483 -0.4900
 4012SOL    HW223673   4.403   1.785   3.067  0.1654  0.9174  0.1410
 4013SOL     OW23674   3.964   3.944   0.569  0.2149 -0.3163  0.5354
 4013SOL    HW123675   3.968   3.851   0.591 -1.0730 -1.1913 -2.9421
 4013SOL    HW223676   3.887   3.973   0.618  2.6729  1.5993  3.2507
 4014SOL     OW23677   3.095   1.551   5.852  0.2954 -0.0856 -0.1530
 4014SOL    HW123678   3.183   1.588   5.856  2.1565 -4.6645  1.0931
 4014SOL    HW223679   3.076   1.554   5.759  0.2974  1.2403 -0.1053
 4015SOL     OW23680   2.779   1.286  12.606  0.6763 -0.2726  0.3003
 4015SOL    HW123681   2.689   1.307  12.581  0.3213 -1.4466  0.6202
 4015SOL    HW223682   2.801   1.353  12.670 -1.0706 -0.1774  0.8096
 4016SOL     OW23683   4.283   1.936   2.740 -0.0550  0.0979 -0.0261
 4016SOL    HW123684   4.267   1.963   2.830  0.2466  0.1694  0.0069
 4016SOL    HW223685   4.338   2.010   2.714  0.8553 -0.3726  0.5426
 4017SOL     OW23686   3.154   4.002  12.329  0.1396  0.0412 -0.3977
 4017SOL    HW123687   3.221   3.951  12.284 -0.1196  0.7610 -1.6233
 4017SOL    HW223688   3.114   4.032  12.247 -0.0967  1.5642  0.2797
 4018SOL     OW23689   4.177   1.103   3.813 -0.5482  0.2414  0.1693
 4018SOL    HW123690   4.149   1.090   3.722  0.4725  0.9850 -0.2545
 4018SOL    HW223691   4.099   1.149   3.844 -1.3091 -0.4594 -0.6888
 4019SOL     OW23692   1.797   1.052   8.063 -0.0077 -0.3324 -0.3875
 4019SOL    HW123693   1.778   0.965   8.099  2.5391 -0.2932  1.0590
 4019SOL    HW223694   1.725   1.067   8.002 -1.7905  0.1327  1.8256
 4020SOL     OW23695   2.967   3.658   3.609  0.0521  1.0541 -0.2928
 4020SOL    HW123696   3.051   3.623   3.639 -0.5711  1.1521  1.5900
 4020SOL    HW223697   2.932   3.595   3.546  0.8943 -1.7185  2.0025
 4021SOL     OW23698   3.155   0.014   0.211 -0.4189  0.2399 -0.0579
 4021SOL    HW123699   3.160   4.711   0.296 -0.7335  1.7975  0.7831
 4021SOL    HW223700   3.230   0.074   0.215 -0.8118  0.6318  1.6234
 4022SOL     OW23701   1.493   1.885   2.608 -0.5296  0.2886 -0.4386
 4022SOL    HW123702   1.483   1.820   2.538  0.7983 -0.5462  0.1464
 4022SOL    HW223703   1.559   1.838   2.659 -1.4144  1.6023  1.9224
 4023SOL     OW23704   0.232   2.013  15.173  0.0004  0.0383  0.1362
 4023SOL    HW123705   0.184   1.967  15.242 -0.4728 -0.1599 -0.3197
 4023SOL    HW223706   0.295   2.053  15.232 -4.1772  3.6545  2.1699
 4024SOL     OW23707   3.834   1.089   7.732 -0.5622  0.0266  0.5263
 4024SOL    HW123708   3.901   1.069   7.666  0.7086 -1.9102  2.4053
 4024SOL    HW223709   3.758   1.045   7.695  0.7550 -1.4743 -0.4496
 4025SOL     OW23710   1.973   1.069  12.159  0.8463  0.3268 -0.3868
 4025SOL    HW123711   2.031   1.031  12.225  0.0613 -0.9545 -0.4306
 4025SOL    HW223712   1.949   0.991  12.109  0.7250  0.3570 -0.3760
 4026SOL     OW23713   3.720   3.596   1.748 -0.5778 -0.1197  0.1836
 4026SOL    HW123714   3.782   3.639   1.807  0.1938  0.0730 -0.7803
 4026SOL    HW223715   3.728   3.650   1.670 -1.6445 -0.2239 -0.0077
 4027SOL     OW23716   4.437   3.688   7.557 -0.2154  0.1040  0.1169
 4027SOL    HW123717   4.444   3.605   7.604  0.3060 -0.5276 -1.0775
 4027SOL    HW223718   4.377   3.736   7.614  0.9311  0.3737  1.0840
 4028SOL     OW23719   2.743   2.647  15.875 -0.2167  0.6901 -0.2379
 4028SOL    HW123720   2.770   2.698  15.952  2.2881 -1.3923  0.2433
 4028SOL    HW223721   2.648   2.642  15.888 -0.0859  0.0642  0.4259
 4029SOL     OW23722   0.093   1.112   7.061 -0.1362 -0.1872 -0.7367
 4029SOL    HW123723   0.137   1.027   7.069 -0.3500 -0.1568  0.7777
 4029SOL    HW223724   0.142   1.159   6.994 -0.0437 -0.2194 -0.6920
 4030SOL     OW23725   3.252   3.267   2.624  0.5025  0.1913  0.2190
 4030SOL    HW123726   3.287   3.344   2.669 -0.2736  0.9090 -0.3884
 4030SOL    HW223727   3.325   3.251   2.565 -0.5603  0.6360 -1.2280
 4031SOL     OW23728   2.401   4.322   3.471  0.3881 -0.4438 -0.0973
 4031SOL    HW123729   2.385   4.237   3.513 -1.1137 -0.1712 -0.1304
 4031SOL    HW223730   2.402   4.381   3.546 -2.4093  0.5461 -0.8451
 4032SOL     OW23731   3.378   1.965   9.229  0.1344  0.2879  0.0908
 4032SOL    HW123732   3.450   1.916   9.190 -1.2563 -0.4750 -1.5182
 4032SOL    HW223733   3.345   1.916   9.304 -2.7922 -0.1619 -1.4623
 4033SOL     OW23734   3.935   1.213  10.498  0.1047 -0.4256 -0.0489
 4033SOL    HW123735   3.941   1.239  10.589  2.7379 -0.2052 -0.3075
 4033SOL    HW223736   3.874   1.138  10.496  0.0419 -0.4185  1.7981
 4034SOL     OW23737   0.471   3.804  16.685 -0.1988 -0.2010 -0.0735
 4034SOL    HW123738   0.508   3.791  16.772  1.1877  0.3331 -0.5821
 4034SOL    HW223739   0.468   3.713  16.654  0.9295  1.0413 -3.8479
 4035SOL     OW23740   2.394   0.003   2.672 -0.0443 -0.8145  0.3762
 4035SOL    HW123741   2.411   0.055   2.594 -3.1121 -0.3767  0.0185
 4035SOL    HW223742   2.448   4.667   2.656  0.2562  0.2403 -3.5586
 4036SOL     OW23743   1.428   4.737  14.487 -0.5093  0.6455  0.6851
 4036SOL    HW123744   1.423   4.647  14.517  0.4522 -0.1345 -1.4848
 4036SOL    HW223745   1.337   0.025  14.488 -0.4303  0.8634  1.0820
 4037SOL     OW23746   3.203   0.871  10.930  0.0762  0.0085 -0.6908
 4037SOL    HW123747   3.117   0.831  10.942 -0.2315  0.7285 -0.5466
 4037SOL    HW223748   3.250   0.795  10.894  0.9011  0.1467  0.0876
 4038SOL     OW23749   3.076   4.228   7.232  0.2882  0.9834 -0.4226
 4038SOL    HW123750   3.063   4.189   7.145 -1.2451 -0.0942  0.3098
 4038SOL    HW223751   3.075   4.145   7.280 -0.9335  1.0470 -0.3582
 4039SOL     OW23752   2.829   2.708   1.446  0.1900 -0.0858 -0.0169
 4039SOL    HW123753   2.803   2.799   1.459 -0.8715 -0.3591 -0.1904
 4039SOL    HW223754   2.916   2.706   1.484  0.1179  0.1589  0.1579
 4040SOL     OW23755   2.563   2.741   5.965 -0.6391  0.4749  0.0589
 4040SOL    HW123756   2.638   2.716   6.018 -0.0212  0.3076 -0.8944
 4040SOL    HW223757   2.594   2.710   5.880  0.1259  0.6521  0.2764
 4041SOL     OW23758   3.245   3.029  10.246  0.2720 -0.1866  0.1938
 4041SOL    HW123759   3.236   3.124  10.256 -0.7692 -0.4262  1.5477
 4041SOL    HW223760   3.194   3.027  10.164  0.5402  3.8747 -0.0423
 4042SOL     OW23761   4.087   4.077   4.313  0.1771  0.1815 -0.3034
 4042SOL    HW123762   4.111   4.169   4.302  0.4909  0.1026 -0.2702
 4042SOL    HW223763   4.090   4.071   4.408  0.3886  2.6837 -0.1417
 4043SOL     OW23764   4.267   3.431   4.008  0.0847  0.1467 -0.2923
 4043SOL    HW123765   4.254   3.496   3.939 -2.8680  0.0469  0.1896
 4043SOL    HW223766   4.359   3.408   3.991  0.0009 -0.7051  0.4117
 4044SOL     OW23767   2.691   0.264  12.993  0.4029 -0.0338 -0.1077
 4044SOL    HW123768   2.684   0.259  13.088 -0.9499 -2.9437 -0.3408
 4044SOL    HW223769   2.782   0.239  12.979  1.6824  4.2100  0.7379
 4045SOL     OW23770   0.190   0.684   9.558  0.4141 -0.0935  0.3505
 4045SOL    HW123771   0.221   0.614   9.500  0.6324 -0.4918  0.9448
 4045SOL    HW223772   0.275   0.727   9.569  0.6630 -0.4486 -0.1419
 4046SOL     OW23773   3.424   2.076   7.736 -0.1234 -0.3431 -0.3845
 4046SOL    HW123774   3.463   2.039   7.656 -0.4443 -1.5039  0.0030
 4046SOL    HW223775   3.351   2.123   7.696 -0.3384  0.3002  0.7733
 4047SOL     OW23776   4.287   0.872   8.896  1.0024  0.2246  0.3238
 4047SOL    HW123777   4.313   0.781   8.879 -1.3541 -0.3552 -0.1513
 4047SOL    HW223778   4.220   0.887   8.830  0.9337 -3.1148 -0.3826
 4048SOL     OW23779   3.551   2.889  11.438  0.1302 -1.2259 -0.4401
 4048SOL    HW123780   3.603   2.886  11.357  1.0524  2.0350  0.0085
 4048SOL    HW223781   3.601   2.931  11.508  0.7366 -0.0987 -1.5476
 4049SOL     OW23782   3.958   0.824   3.491 -0.3992  0.3920  0.6796
 4049SOL    HW123783   3.902   0.776   3.552 -1.7239  0.5055 -0.4446
 4049SOL    HW223784   4.032   0.766   3.477 -0.3309  0.3801  1.0968
 4050SOL     OW23785   4.498   2.565   3.159 -0.2411  0.3316 -0.2532
 4050SOL    HW123786   4.571   2.517   3.198 -0.0367 -0.2531 -1.3784
 4050SOL    HW223787   4.539   2.637   3.110  3.1569  0.2286  2.4283
 4051SOL     OW23788   2.190   0.011   7.101  0.0813  0.1209  0.5591
 4051SOL    HW123789   2.109   0.036   7.145  0.0363  0.1417  0.4643
 4051SOL    HW223790   2.242   4.730   7.178 -1.4890 -2.7538  0.7347
 4052SOL     OW23791   3.014   3.791  12.049  0.2543 -0.2873  0.0311
 4052SOL    HW123792   2.970   3.848  11.987 -0.7094 -2.2672 -1.1278
 4052SOL    HW223793   2.984   3.706  12.017  2.1347 -0.8579 -0.2645
 4053SOL     OW23794   0.217   2.403   3.346 -0.1572  0.3753  0.4939
 4053SOL    HW123795   0.263   2.482   3.319 -2.8877  1.3734 -1.2478
 4053SOL    HW223796   0.222   2.421   3.439 -1.0234 -0.5460  0.7171
 4054SOL     OW23797   4.345   0.844   8.099  0.1842  0.5719 -0.3338
 4054SOL    HW123798   4.316   0.801   8.180  1.4830 -2.0478 -1.2704
 4054SOL    HW223799   4.421   0.883   8.142  0.6214 -1.6584  0.9069
 4055SOL     OW23800   4.693   4.514   4.004 -0.0666  0.1491  0.1117
 4055SOL    HW123801   4.611   4.469   3.981 -1.1648  1.0547  2.2377
 4055SOL    HW223802   4.732   4.452   4.066  2.3802 -0.0994 -1.7129
 4056SOL     OW23803   3.939   2.183   6.154  0.2706  0.0028  0.5935
 4056SOL    HW123804   3.898   2.204   6.070  0.4553  1.0298  0.7587
 4056SOL    HW223805   3.879   2.119   6.191 -1.5499 -0.0088 -2.3688
 4057SOL     OW23806   2.692   3.592   6.158  0.4319 -0.1678 -0.5047
 4057SOL    HW123807   2.713   3.565   6.068 -3.6840  0.0530 -1.5213
 4057SOL    HW223808   2.765   3.652   6.171  1.0119 -0.9998  0.1119
 4058SOL     OW23809   3.336   4.241   4.166  0.0372  0.1810 -0.1394
 4058SOL    HW123810   3.293   4.291   4.236 -1.2671  0.7817 -1.3515
 4058SOL    HW223811   3.428   4.262   4.180  0.0618  0.2471 -0.4082
 4059SOL     OW23812   4.247   0.490   7.605 -0.3148  0.2475 -0.0519
 4059SOL    HW123813   4.210   0.461   7.521  1.7691  1.1356 -1.2627
 4059SOL    HW223814   4.203   0.425   7.660  1.2076  0.1379  1.0258
 4060SOL     OW23815   0.812   3.710   9.062 -0.1850  0.5401 -0.1594
 4060SOL    HW123816   0.867   3.745   9.133 -2.1345  1.1136  1.0741
 4060SOL    HW223817   0.827   3.617   9.072  0.5763  0.5991 -0.7411
 4061SOL     OW23818   3.940   1.197  16.332  0.3147  0.7156 -0.2172
 4061SOL    HW123819   3.884   1.186  16.255 -1.1269 -0.3756  0.9676
 4061SOL    HW223820   3.878   1.174  16.402  1.3183 -0.2189  0.3642
 4062SOL     OW23821   1.761   3.299  11.025  0.0132  0.1430 -0.3390
 4062SOL    HW123822   1.675   3.274  10.991 -0.2938  0.6221  0.0884
 4062SOL    HW223823   1.733   3.353  11.099  0.7856  0.6446 -0.4017
 4063SOL     OW23824   1.810   1.312   0.061  0.4715 -0.1022  0.4928
 4063SOL    HW123825   1.778   1.231   0.101 -1.0499 -0.7021 -1.9169
 4063SOL    HW223826   1.766   1.304  17.742  3.1698 -1.1187 -0.8181
 4064SOL     OW23827   1.543   3.585   8.407 -0.4397  0.3265 -0.0329
 4064SOL    HW123828   1.529   3.511   8.348 -0.1205  2.0944 -2.3336
 4064SOL    HW223829   1.477   3.651   8.386 -1.0319 -0.3893 -0.4214
 4065SOL     OW23830   1.347   2.008  13.849 -0.1394  0.2341 -0.1474
 4065SOL    HW123831   1.430   2.040  13.885 -0.3306  1.4538 -0.7655
 4065SOL    HW223832   1.359   1.914  13.844 -2.0750 -0.0519  0.5385
 4066SOL     OW23833   1.596   2.563  14.512  0.2322 -0.0027 -0.5319
 4066SOL    HW123834   1.585   2.582  14.419 -0.6491  0.8753 -0.2468
 4066SOL    HW223835   1.573   2.647  14.550  1.5094 -0.7849  1.9167
 4067SOL     OW23836   3.094   2.637   6.316  0.0031 -0.3992 -0.7007
 4067SOL    HW123837   3.000   2.624   6.318  0.1188 -1.1672 -0.3229
 4067SOL    HW223838   3.124   2.552   6.348  0.6108  0.2584  0.4746
 4068SOL     OW23839   2.542   4.571   8.187 -0.0143 -0.0490 -0.1895
 4068SOL    HW123840   2.458   4.545   8.149  0.2362 -1.9275  0.5340
 4068SOL    HW223841   2.587   4.623   8.121 -0.0036 -1.3067 -1.1794
 4069SOL     OW23842   2.531   4.136   7.956  0.5915 -0.4493 -0.1105
 4069SOL    HW123843   2.536   4.181   7.872  1.0012  1.9147  1.1627
 4069SOL    HW223844   2.599   4.069   7.952 -0.4992 -1.5812  0.4137
 4070SOL     OW23845   1.007   0.942   8.161  0.0889  0.4847 -0.4715
 4070SOL    HW123846   0.982   0.935   8.253  0.3419  2.2725 -0.2696
 4070SOL    HW223847   1.087   0.890   8.152  0.1389  0.1937  1.8306
 4071SOL     OW23848   2.307   1.857   1.284 -0.2752  0.3309 -0.4764
 4071SOL    HW123849   2.319   1.911   1.206  0.9572  1.7494  0.6929
 4071SOL    HW223850   2.282   1.925   1.345  1.7138 -0.5702  1.3472
 4072SOL     OW23851   4.204   2.747  16.784 -0.3398  0.0450  0.0241
 4072SOL    HW123852   4.269   2.806  16.822  2.4660 -2.2975 -1.0880
 4072SOL    HW223853   4.187   2.783  16.697 -3.3844 -0.2291  0.5089
 4073SOL     OW23854   4.126   4.624   3.609  0.6695 -0.5986 -0.8502
 4073SOL    HW123855   4.145   4.699   3.553  1.1737  1.5680  2.2572
 4073SOL    HW223856   4.170   4.646   3.690  1.3707  1.7547 -1.8672
 4074SOL     OW23857   0.720   2.142   8.775 -0.0048  0.3628  0.4316
 4074SOL    HW123858   0.776   2.180   8.842  0.7702 -1.8089  1.0024
 4074SOL    HW223859   0.693   2.057   8.812  2.4275 -0.3280  0.6115
 4075SOL     OW23860   0.309   0.638   8.215  0.0622 -0.0993  0.3358
 4075SOL    HW123861   0.229   0.603   8.254 -0.7043 -0.1668 -1.3117
 4075SOL    HW223862   0.269   0.674   8.136  1.9249  1.6315  0.1950
 4076SOL     OW23863   1.980   1.977   6.562  0.1659 -0.4645  0.0766
 4076SOL    HW123864   1.887   1.998   6.549  0.4736  0.5357 -0.5297
 4076SOL    HW223865   2.033   2.049   6.529  0.2196 -0.3093  0.5052
 4077SOL     OW23866   2.738   4.582   4.222  0.9582  0.1113  0.0256
 4077SOL    HW123867   2.783   4.524   4.283  1.4935  1.5452  1.0133
 4077SOL    HW223868   2.807   4.647   4.210  1.5723 -0.4451  0.5590
 4078SOL     OW23869   1.386   1.045   9.823 -0.2281 -0.4189 -0.0806
 4078SOL    HW123870   1.419   1.005   9.742 -0.8452  1.0881 -1.0730
 4078SOL    HW223871   1.459   1.104   9.841 -2.0610  1.5730  0.8432
 4079SOL     OW23872   1.310   3.291  10.657  0.2223 -0.0412  0.0617
 4079SOL    HW123873   1.335   3.383  10.644  0.0530  0.0132  0.1268
 4079SOL    HW223874   1.277   3.262  10.571 -1.4692  1.8293  0.0855
 4080SOL     OW23875   2.556   4.039   1.100 -0.1219 -0.2319 -0.4082
 4080SOL    HW123876   2.627   3.976   1.095  0.0511  0.0552 -1.6115
 4080SOL    HW223877   2.510   4.022   1.017 -1.5189 -0.1715  0.3655
 4081SOL     OW23878   0.413   1.632   2.769 -0.1031 -0.2328  0.1102
 4081SOL    HW123879   0.322   1.612   2.792 -1.0529  3.5891 -0.1763
 4081SOL    HW223880   0.461   1.576   2.829 -1.8298 -2.3162 -0.4268
 4082SOL     OW23881   4.471   2.486   7.245  0.5427 -0.1752 -0.2768
 4082SOL    HW123882   4.565   2.502   7.249  0.6564 -0.7711 -0.4526
 4082SOL    HW223883   4.459   2.463   7.338 -2.5128  2.1459 -0.1148
 4083SOL     OW23884   4.653   2.211   6.092 -0.2997 -0.3514 -0.1946
 4083SOL    HW123885   4.619   2.124   6.073 -1.7756 -0.0583  1.1393
 4083SOL    HW223886   4.621   2.263   6.018 -0.1144  0.6731  0.4510
 4084SOL     OW23887   4.485   3.415   5.729 -0.0213  0.1529  0.2065
 4084SOL    HW123888   4.436   3.488   5.767  0.5699  1.5007 -1.6183
 4084SOL    HW223889   4.514   3.368   5.807  1.5802 -0.4751 -0.7715
 4085SOL     OW23890   3.573   3.229   0.256  0.0159  0.4492  0.1757
 4085SOL    HW123891   3.513   3.247   0.328  1.9778  0.7407  1.7178
 4085SOL    HW223892   3.538   3.152   0.210 -1.2924  1.6921 -0.8953
 4086SOL     OW23893   3.016   0.139   3.021  0.0319  0.5209 -0.1164
 4086SOL    HW123894   3.070   0.120   2.945  1.2026 -0.5028  0.9624
 4086SOL    HW223895   3.076   0.179   3.084 -1.7782  1.4414  1.0255
 4087SOL     OW23896   3.797   2.576   8.743  0.6718  0.4616 -0.0147
 4087SOL    HW123897   3.758   2.489   8.736  0.7738  0.2859  1.7329
 4087SOL    HW223898   3.731   2.630   8.699  1.0893  0.1005 -1.0951
 4088SOL     OW23899   3.691   1.629   8.027 -0.4982  0.1254 -0.4377
 4088SOL    HW123900   3.736   1.579   7.958  1.2676 -0.8778  1.4497
 4088SOL    HW223901   3.612   1.650   7.977 -1.0405 -0.5694  0.1355
 4089SOL     OW23902   4.215   3.796   3.377 -0.3343 -0.8857 -0.6447
 4089SOL    HW123903   4.122   3.818   3.378  0.1508  1.2039 -1.1839
 4089SOL    HW223904   4.223   3.757   3.463  0.5606  2.2213  0.6778
 4090SOL     OW23905   0.061   3.575   8.152  0.3260  0.1506  0.1981
 4090SOL    HW123906   0.022   3.539   8.073  0.6802 -0.6085  0.3745
 4090SOL    HW223907   4.739   3.644   8.168 -0.6756 -0.8622  0.5309
 4091SOL     OW23908   2.050   2.904  17.712 -0.2689 -0.0277  0.0012
 4091SOL    HW123909   1.972   2.882  17.764 -0.0691 -3.1270 -1.0095
 4091SOL    HW223910   2.067   2.812  17.695  0.9681  0.1928  0.0537
 4092SOL     OW23911   3.939   2.516   2.232 -0.0124  0.3828  0.0149
 4092SOL    HW123912   3.902   2.600   2.258  1.8777  1.5841 -1.1627
 4092SOL    HW223913   3.988   2.498   2.312  1.6040 -3.2220 -1.7638
 4093SOL     OW23914   4.432   3.912   5.689 -0.6747 -0.3101  0.3160
 4093SOL    HW123915   4.351   3.962   5.698 -0.0911  0.5339  0.8591
 4093SOL    HW223916   4.496   3.982   5.687 -0.7893 -0.3677 -5.5579
 4094SOL     OW23917   0.496   2.348   4.553  0.7220  0.0161  0.5896
 4094SOL    HW123918   0.526   2.410   4.619 -1.2736  0.8585  0.7043
 4094SOL    HW223919   0.401   2.359   4.564  0.7447  1.2803 -0.4296
 4095SOL     OW23920   0.355   2.011   6.776  0.2470 -0.7744 -0.1628
 4095SOL    HW123921   0.263   2.033   6.759  1.1900  3.4169  0.2916
 4095SOL    HW223922   0.383   2.089   6.823 -1.9988 -0.2545  0.3114
 4096SOL     OW23923   3.296   4.052   6.910  0.0727 -0.0224  0.1515
 4096SOL    HW123924   3.329   4.142   6.916  0.5899 -0.3735  2.5887
 4096SOL    HW223925   3.205   4.080   6.905 -0.1529 -0.6318  0.8277
 4097SOL     OW23926   3.769   0.317   6.555 -0.3816  0.4522  0.3646
 4097SOL    HW123927   3.730   0.401   6.531 -1.3291 -0.6650 -2.0484
 4097SOL    HW223928   3.846   0.316   6.498 -0.6417  3.9588 -0.0586
 4098SOL     OW23929   3.436   0.339   9.702 -0.2207 -0.7414  0.4905
 4098SOL    HW123930   3.488   0.259   9.706 -0.4302 -0.7927  2.1833
 4098SOL    HW223931   3.478   0.397   9.638 -1.7804 -1.5384 -1.2351
 4099SOL     OW23932   1.244   0.843   8.203  0.9104  0.8157  0.5141
 4099SOL    HW123933   1.324   0.872   8.160  1.4338 -1.5538 -0.1300
 4099SOL    HW223934   1.271   0.792   8.279 -0.6315 -1.0340 -0.1740
 4100SOL     OW23935   2.774   2.780   9.161  0.5550  0.0670 -0.0306
 4100SOL    HW123936   2.707   2.711   9.157 -0.6225  1.2066  0.2655
 4100SOL    HW223937   2.712   2.837   9.117  0.7907 -0.2329 -0.7545
 4101SOL     OW23938   4.061   3.623   7.770 -0.4303 -0.4103 -0.6676
 4101SOL    HW123939   4.070   3.702   7.716  1.0848  0.2627  0.5850
 4101SOL    HW223940   3.965   3.616   7.776 -0.3364 -0.0337  1.2079
 4102SOL     OW23941   2.163   1.432   3.347 -0.3379 -0.5982  0.1057
 4102SOL    HW123942   2.175   1.381   3.428 -0.9329 -0.2960  0.3790
 4102SOL    HW223943   2.247   1.476   3.335  0.0895 -1.0716  1.3222
 4103SOL     OW23944   0.715   1.082   2.617 -0.2613 -0.1123 -0.5730
 4103SOL    HW123945   0.626   1.094   2.652  0.5737 -2.2160  2.2485
 4103SOL    HW223946   0.698   1.128   2.535  0.2518 -0.0761 -0.6550
 4104SOL     OW23947   0.666   0.065   1.836 -0.2134  0.1068 -0.2058
 4104SOL    HW123948   0.703   0.147   1.870  0.8609  0.3208 -1.8474
 4104SOL    HW223949   0.605   0.105   1.774  0.1476 -2.1069 -2.0160
 4105SOL     OW23950   0.371   3.893  11.169 -0.4714  0.1917 -0.3128
 4105SOL    HW123951   0.289   3.850  11.193  0.1211  0.6978  2.6097
 4105SOL    HW223952   0.427   3.827  11.208  0.7360  1.3988 -0.0232
 4106SOL     OW23953   1.169   1.849   5.894  0.1570  0.0295  0.5328
 4106SOL    HW123954   1.248   1.827   5.845 -0.0470  0.0638  0.1908
 4106SOL    HW223955   1.107   1.779   5.872  0.4259  0.3508 -1.2615
 4107SOL     OW23956   0.496   1.975   8.522  0.1574 -0.2771  0.6814
 4107SOL    HW123957   0.573   1.931   8.559 -0.3997 -1.0812  0.8833
 4107SOL    HW223958   0.477   1.925   8.443  0.3125 -1.1521  1.1908
 4108SOL     OW23959   2.897   1.840  15.682  0.2640  0.1227 -0.1728
 4108SOL    HW123960   2.990   1.831  15.706 -0.0570 -0.8401  0.7326
 4108SOL    HW223961   2.880   1.928  15.715  0.6236  0.1263  0.0113
 4109SOL     OW23962   3.321   3.584  14.985  0.3279  0.7632 -0.4354
 4109SOL    HW123963   3.413   3.605  14.996  0.6003 -0.8124  0.2204
 4109SOL    HW223964   3.307   3.609  14.894 -1.7202  0.3940 -0.2288
 4110SOL     OW23965   2.518   1.226   7.688  0.1205  0.3477  0.3544
 4110SOL    HW123966   2.613   1.224   7.676 -0.1520 -0.9308 -1.5943
 4110SOL    HW223967   2.523   1.258   7.779 -3.0514  0.4348  0.5086
 4111SOL     OW23968   3.758   2.182   5.306 -0.2175 -0.1878  1.1786
 4111SOL    HW123969   3.723   2.215   5.389 -1.1207  1.1757  0.2766
 4111SOL    HW223970   3.698   2.221   5.241  0.9462 -0.5840 -0.1314
 4112SOL     OW23971   3.213   0.637   8.091 -0.2319 -0.5003 -0.4441
 4112SOL    HW123972   3.135   0.676   8.132 -1.0198 -0.3500 -2.0763
 4112SOL    HW223973   3.192   0.544   8.096 -1.7667 -0.2073 -1.2657
 4113SOL     OW23974   1.878   0.838   6.426  0.1983 -0.6002  0.3723
 4113SOL    HW123975   1.942   0.775   6.460 -0.9249 -1.4401  0.9090
 4113SOL    HW223976   1.908   0.846   6.335 -0.8801  1.1277  0.1619
 4114SOL     OW23977   0.283   4.702  15.387 -0.3740 -0.0484  0.0117
 4114SOL    HW123978   0.321   4.615  15.372 -2.9791 -1.0178 -0.9645
 4114SOL    HW223979   0.212   4.690  15.324 -0.4888 -0.9681  0.3128
 4115SOL     OW23980   0.721   0.514   5.545  0.0189 -0.1812 -0.0409
 4115SOL    HW123981   0.727   0.444   5.480 -0.7792 -0.6993  0.4293
 4115SOL    HW223982   0.707   0.468   5.628  0.2326  1.4000  0.8559
 4116SOL     OW23983   0.072   4.398   7.297  0.0208 -0.6399 -0.0443
 4116SOL    HW123984   0.091   4.417   7.205  1.1147 -2.0974 -0.1375
 4116SOL    HW223985   0.135   4.325   7.301 -0.4265 -0.9625  1.0019
 4117SOL     OW23986   2.374   1.641   1.982  0.2000  0.2615 -0.1955
 4117SOL    HW123987   2.348   1.600   2.064 -0.5040  3.4519  1.1661
 4117SOL    HW223988   2.454   1.593   1.964  0.2176  0.8698 -1.7780
 4118SOL     OW23989   0.470   3.563   1.975 -0.4148 -0.7264 -0.2547
 4118SOL    HW123990   0.493   3.473   1.952  2.7404 -0.5366  2.0396
 4118SOL    HW223991   0.376   3.560   1.993 -0.6441  0.8518 -1.2188
 4119SOL     OW23992   2.858   0.727  12.470 -0.0524 -0.4095  0.1409
 4119SOL    HW123993   2.807   0.648  12.488 -0.4660 -0.2588 -0.3541
 4119SOL    HW223994   2.928   0.694  12.413  2.1434  1.6052  1.6707
 4120SOL     OW23995   3.382   3.481   6.338 -0.4445  0.1495  0.1553
 4120SOL    HW123996   3.381   3.577   6.345 -1.0837 -0.0189  2.3812
 4120SOL    HW223997   3.369   3.473   6.432 -1.5979  1.9914  0.1577
 4121SOL     OW23998   2.736   0.215   9.320  0.0770 -0.0666  0.6374
 4121SOL    HW123999   2.782   0.263   9.389  1.1464 -0.5272  0.2395
 4121SOL    HW224000   2.722   0.130   9.361  1.5176 -1.5583 -1.9356
 4122SOL     OW24001   0.511   3.664   6.422  0.1771 -0.0913  0.2077
 4122SOL    HW124002   0.444   3.704   6.366  0.7386  1.4486  0.6382
 4122SOL    HW224003   0.593   3.690   6.380 -0.2509  0.8800 -0.0244
 4123SOL     OW24004   4.680   3.580   6.412 -0.2563 -0.8726  0.2795
 4123SOL    HW124005   4.606   3.545   6.361  3.2621 -1.0360 -4.7215
 4123SOL    HW224006   4.638   3.584   6.498  0.1128  1.6616  0.3330
 4124SOL     OW24007   1.463   4.408   0.396 -0.4625  0.8485 -0.2463
 4124SOL    HW124008   1.548   4.450   0.382  0.6039 -2.2796 -3.2821
 4124SOL    HW224009   1.478   4.317   0.369  1.2734  1.0583  0.0535
 4125SOL     OW24010   0.953   0.482  16.808  0.2192 -0.2885 -0.0924
 4125SOL    HW124011   0.917   0.401  16.770  1.7776 -0.7318 -0.6485
 4125SOL    HW224012   0.930   0.467  16.899  4.1547  0.5059  1.0321
 4126SOL     OW24013   4.467   2.610   8.447  0.0377 -0.3907 -0.6642
 4126SOL    HW124014   4.406   2.546   8.410  1.7838 -2.3050 -0.2609
 4126SOL    HW224015   4.524   2.626   8.372  2.1416 -3.1404  0.3711
 4127SOL     OW24016   3.837   2.496   7.071 -0.0047  0.2853 -0.2220
 4127SOL    HW124017   3.842   2.481   7.166 -4.5815  2.4183  0.3440
 4127SOL    HW224018   3.742   2.491   7.068  0.0162 -0.5006  0.5167
 4128SOL     OW24019   3.058   3.668   7.643 -0.1859 -0.6999  0.2550
 4128SOL    HW124020   3.118   3.725   7.690  0.6291  0.1790 -1.8402
 4128SOL    HW224021   3.113   3.634   7.572 -0.1977  1.7411 -0.9014
 4129SOL     OW24022   4.351   2.271  14.813 -0.1437  0.5039 -0.3352
 4129SOL    HW124023   4.341   2.208  14.741 -2.1647  2.3104 -1.6251
 4129SOL    HW224024   4.290   2.336  14.780  0.3795 -0.0485 -2.4132
 4130SOL     OW24025   0.674   2.968   7.403 -0.0791  0.5258  0.7601
 4130SOL    HW124026   0.696   3.016   7.323  0.4318  1.9813  1.7820
 4130SOL    HW224027   0.608   3.026   7.441 -1.8646 -0.4141 -0.8609
 4131SOL     OW24028   3.372   3.284   6.867 -0.6363  0.2117  0.7465
 4131SOL    HW124029   3.327   3.366   6.846 -1.5144 -0.6011 -0.5311
 4131SOL    HW224030   3.329   3.221   6.810  1.2983  1.1825 -1.7556
 4132SOL     OW24031   2.144   2.131   5.905  0.7839  0.1704  0.2383
 4132SOL    HW124032   2.201   2.071   5.856  1.8307  1.4044 -0.0580
 4132SOL    HW224033   2.131   2.201   5.841  1.5629  0.0929 -0.0119
 4133SOL     OW24034   3.572   3.306  12.134  0.0872 -0.2737 -0.3366
 4133SOL    HW124035   3.637   3.330  12.069  0.1881 -2.8118 -1.1727
 4133SOL    HW224036   3.626   3.295  12.213  1.8487 -2.9852 -1.9404
 4134SOL     OW24037   1.381   1.685   8.352  0.3602  0.1819 -0.0824
 4134SOL    HW124038   1.421   1.771   8.337  1.6808 -0.3774  0.2339
 4134SOL    HW224039   1.309   1.692   8.289 -0.4435  1.0413  0.9231
 4135SOL     OW24040   0.182   1.252   9.864 -0.3001  0.4290 -0.0303
 4135SOL    HW124041   0.105   1.273   9.916 -1.6321 -4.9862  0.2133
 4135SOL    HW224042   0.193   1.158   9.877 -0.4543  0.2360 -1.3263
 4136SOL     OW24043   3.240   1.577   2.274  0.1411 -0.5152 -0.3546
 4136SOL    HW124044   3.327   1.551   2.242  0.3248 -2.6596  1.9244
 4136SOL    HW224045   3.210   1.488   2.292  1.0863 -0.8259 -0.2656
 4137SOL     OW24046   2.385   4.004   0.340  0.4581  0.2751 -0.3825
 4137SOL    HW124047   2.332   3.931   0.308  3.2184 -1.4717 -0.9507
 4137SOL    HW224048   2.474   3.978   0.316  0.0515 -0.1775 -1.3866
 4138SOL     OW24049   2.615   1.044   6.595  0.1211  0.2463 -0.1220
 4138SOL    HW124050   2.631   1.125   6.645  0.2702 -0.5372  1.0957
 4138SOL    HW224051   2.639   0.985   6.666 -1.4260 -0.2046  0.0389
 4139SOL     OW24052   1.412   0.174   9.482 -0.1350 -0.2019  0.9811
 4139SOL    HW124053   1.470   0.230   9.430 -1.8063  0.8198  0.1950
 4139SOL    HW224054   1.336   0.183   9.424  0.5500  1.0844  0.2707
 4140SOL     OW24055   4.628   3.620  17.374 -0.4826 -0.2056  0.0252
 4140SOL    HW124056   4.669   3.640  17.459 -2.1458 -0.9226  0.9813
 4140SOL    HW224057   4.564   3.554  17.397  0.7731 -1.0361  1.1148
 4141SOL     OW24058   0.178   2.971   2.464 -0.5881  0.4575  0.2016
 4141SOL    HW124059   0.126   2.894   2.488 -0.3586  0.5138  0.8740
 4141SOL    HW224060   0.178   2.970   2.368 -0.5437 -1.7772  0.2109
 4142SOL     OW24061   4.026   2.183  14.702 -0.5156  0.4073 -0.1695
 4142SOL    HW124062   4.041   2.203  14.610 -1.6165  1.6929 -0.0733
 4142SOL    HW224063   3.936   2.153  14.705 -1.3022  2.5948 -1.5194
 4143SOL     OW24064   4.543   0.659  12.729  0.5149 -0.1131  0.1683
 4143SOL    HW124065   4.516   0.751  12.718  1.6166  0.5930  3.3196
 4143SOL    HW224066   4.563   0.669  12.822 -0.1263  1.9525  0.0991
 4144SOL     OW24067   0.363   3.387   6.492 -0.2850 -0.1365 -0.0191
 4144SOL    HW124068   0.300   3.351   6.429 -1.8916 -1.7536  2.5320
 4144SOL    HW224069   0.369   3.481   6.474 -1.9387 -0.3575 -1.8104
 4145SOL     OW24070   3.055   3.011   6.834 -0.1056 -0.8054 -0.4681
 4145SOL    HW124071   3.116   3.084   6.820 -0.7763 -0.1374  0.1144
 4145SOL    HW224072   3.034   3.004   6.927  1.2902 -2.1038 -0.2545
 4146SOL     OW24073   4.033   2.786   8.129 -0.2148 -0.3553 -0.0131
 4146SOL    HW124074   4.081   2.792   8.046  0.8955 -1.2939  0.5652
 4146SOL    HW224075   4.067   2.858   8.182 -1.9363  2.1790 -2.3072
 4147SOL     OW24076   4.476   3.177   4.551 -0.2745 -0.3342  0.1211
 4147SOL    HW124077   4.450   3.203   4.462  0.8883 -0.1817 -0.1724
 4147SOL    HW224078   4.473   3.082   4.538 -1.0621  0.1257 -3.0304
 4148SOL     OW24079   3.580   3.601  15.118  0.1795  0.0361 -0.1529
 4148SOL    HW124080   3.660   3.635  15.078  0.0022 -1.0589 -1.4517
 4148SOL    HW224081   3.614   3.612  15.206 -0.4436  1.3344 -0.0831
 4149SOL     OW24082   1.221   2.027  11.598  0.1077 -0.2224  0.5032
 4149SOL    HW124083   1.308   2.007  11.564  0.6425  3.0441 -0.0565
 4149SOL    HW224084   1.221   1.954  11.661  0.3573 -0.9107 -0.2847
 4150SOL     OW24085   3.469   1.374   2.291  0.6023 -0.2982  0.3493
 4150SOL    HW124086   3.436   1.362   2.380  0.6904  0.9464  0.5499
 4150SOL    HW224087   3.387   1.349   2.249 -0.0025  0.7045  0.9560
 4151SOL     OW24088   1.343   3.560   5.105  0.2115 -0.2695 -0.7992
 4151SOL    HW124089   1.386   3.581   5.022  1.0731  0.4027 -0.1759
 4151SOL    HW224090   1.404   3.494   5.139 -0.4893  0.1826  1.3595
 4152SOL     OW24091   4.345   1.606  11.048 -0.0364 -0.3323 -0.1774
 4152SOL    HW124092   4.257   1.643  11.049 -0.3901 -1.2567  1.3047
 4152SOL    HW224093   4.387   1.638  10.967 -0.4956  1.1874  0.1733
 4153SOL     OW24094   0.819   2.542  14.534  0.3158  0.5832 -0.4012
 4153SOL    HW124095   0.768   2.579  14.606  1.7291  0.6094  0.5902
 4153SOL    HW224096   0.759   2.542  14.459 -1.3355 -0.1549  0.9357
 4154SOL     OW24097   3.638   3.436   0.097  0.0179 -0.4299 -0.1030
 4154SOL    HW124098   3.732   3.421   0.083 -0.1593 -1.3185 -0.3125
 4154SOL    HW224099   3.611   3.354   0.139 -0.2912 -1.2734 -1.9308
 4155SOL     OW24100   3.912   1.130   9.991  0.4206 -0.3123 -0.1055
 4155SOL    HW124101   3.855   1.133  10.068  0.7142 -0.4977  0.1224
 4155SOL    HW224102   3.861   1.178   9.926  1.6533  0.1550 -0.7330
 4156SOL     OW24103   3.530   3.993   6.664  0.1265 -0.3391 -0.0551
 4156SOL    HW124104   3.563   4.001   6.753 -2.4586 -1.9479  1.0377
 4156SOL    HW224105   3.526   4.087   6.646  0.2588 -0.5050 -0.9604
 4157SOL     OW24106   2.415   2.410   6.307  0.4015  0.0788 -0.6262
 4157SOL    HW124107   2.487   2.376   6.253 -1.6881 -1.3697 -2.4773
 4157SOL    HW224108   2.349   2.429   6.240 -0.3711 -0.7895 -0.1051
 4158SOL     OW24109   4.694   0.359   5.951  0.2462 -0.5047  0.0702
 4158SOL    HW124110   4.734   0.319   5.874  0.1069 -2.3909  0.9891
 4158SOL    HW224111   4.602   0.337   5.941  0.0249 -0.3334  1.8342
 4159SOL     OW24112   4.425   1.330   2.440  0.1831  0.2406 -0.2511
 4159SOL    HW124113   4.395   1.354   2.527  2.8060  0.2248  0.6658
 4159SOL    HW224114   4.358   1.371   2.385  0.9283  0.1758 -1.2157
 4160SOL     OW24115   1.896   3.734   3.752  0.1632 -0.3722  0.0012
 4160SOL    HW124116   1.827   3.679   3.716 -0.8733  1.4622 -0.8018
 4160SOL    HW224117   1.872   3.824   3.731 -0.0394 -0.5852 -0.6913
 4161SOL     OW24118   0.429   0.255   7.630  0.1136  0.2361  0.1148
 4161SOL    HW124119   0.345   0.299   7.646  0.8137  1.8959 -0.7848
 4161SOL    HW224120   0.488   0.329   7.620 -1.2991  1.1114 -1.8856
 4162SOL     OW24121   4.414   3.947   8.284  0.0292  0.1343  0.1776
 4162SOL    HW124122   4.376   3.942   8.371 -0.1391 -0.5192  0.0624
 4162SOL    HW224123   4.365   3.874   8.246 -1.6155  0.6665  1.2713
 4163SOL     OW24124   0.886   3.433   1.539 -0.3558  0.4949 -0.5916
 4163SOL    HW124125   0.850   3.489   1.471 -0.6168  1.0786  0.0228
 4163SOL    HW224126   0.948   3.371   1.501 -0.8361  0.2566 -0.9758
 4164SOL     OW24127   0.286   0.799  17.460  0.8495  0.1529  0.9491
 4164SOL    HW124128   0.353   0.778  17.395  0.4581  0.2976  0.4972
 4164SOL    HW224129   0.200   0.793  17.420  1.2752  0.2404  0.0186
 4165SOL     OW24130   3.099   0.327   8.035 -0.4235 -0.1697  0.5766
 4165SOL    HW124131   3.099   0.249   8.091  1.9848  0.2820  1.2172
 4165SOL    HW224132   3.007   0.328   8.006  0.5351 -0.7433 -2.4569
 4166SOL     OW24133   0.724   1.412   6.672 -0.8644  0.1775  0.3040
 4166SOL    HW124134   0.675   1.485   6.709  1.1299  1.9357 -0.5246
 4166SOL    HW224135   0.808   1.452   6.650 -0.7253  0.4248  1.2935
 4167SOL     OW24136   1.914   3.323   2.151 -0.5519  0.3116  0.3356
 4167SOL    HW124137   1.959   3.315   2.066 -2.0020  0.6814 -0.4687
 4167SOL    HW224138   1.897   3.230   2.162 -0.0385  0.2241  0.4078
 4168SOL     OW24139   3.829   3.686   6.394  0.1087  0.8995  0.3996
 4168SOL    HW124140   3.819   3.602   6.349 -2.6038  1.7386 -0.5296
 4168SOL    HW224141   3.756   3.729   6.349 -1.5605  1.2188  3.4348
 4169SOL     OW24142   4.331   1.839  14.603 -0.6867  0.2545 -0.3439
 4169SOL    HW124143   4.410   1.812  14.556  0.0072  1.2831  0.2290
 4169SOL    HW224144   4.292   1.754  14.583  1.6313 -0.7692 -0.4723
 4170SOL     OW24145   0.031   0.025   1.774 -0.0543  0.4532  0.4573
 4170SOL    HW124146   4.722   0.066   1.704  1.8327 -0.0598 -1.2120
 4170SOL    HW224147   4.716   0.021   1.851 -1.7485  2.3575 -0.6978
 4171SOL     OW24148   0.995   0.068   6.310 -0.4559 -0.1469 -0.2896
 4171SOL    HW124149   1.004   0.001   6.242 -0.4849 -0.8839  0.4275
 4171SOL    HW224150   1.006   0.144   6.253  1.1786 -1.3487 -1.5897
 4172SOL     OW24151   3.973   2.392   9.956 -0.3906 -0.6690  0.2901
 4172SOL    HW124152   4.048   2.390   9.897 -0.8749 -1.5758 -0.2987
 4172SOL    HW224153   4.020   2.401  10.039  2.0542 -4.0705 -0.7173
 4173SOL     OW24154   1.685   4.322  10.960  0.3704  0.1229  0.2326
 4173SOL    HW124155   1.767   4.304  11.007  0.0167 -0.5742  0.5915
 4173SOL    HW224156   1.720   4.375  10.889  1.4813  0.2611  0.8833
 4174SOL     OW24157   3.184   1.827  15.683 -0.1200  0.0164  0.2306
 4174SOL    HW124158   3.220   1.779  15.759  0.7447 -1.9296 -1.4047
 4174SOL    HW224159   3.217   1.917  15.688  0.0067 -0.1778  3.1753
 4175SOL     OW24160   1.013   3.108   5.067 -0.2279  0.3863 -0.2784
 4175SOL    HW124161   0.968   3.164   5.004  0.0130  0.1805 -0.6329
 4175SOL    HW224162   1.098   3.100   5.024  0.9552 -1.1479  2.3538
 4176SOL     OW24163   0.328   4.694   8.106 -0.2532 -0.5020 -0.6705
 4176SOL    HW124164   0.403   0.008   8.125 -0.0716 -0.8492 -0.3746
 4176SOL    HW224165   0.366   4.609   8.127  0.0561 -0.4580 -1.0634
 4177SOL     OW24166   0.735   1.402   5.803  0.0710 -0.0981 -0.2374
 4177SOL    HW124167   0.673   1.329   5.808 -2.1498  1.6879 -1.3921
 4177SOL    HW224168   0.807   1.353   5.763 -0.0159 -0.3349 -0.1059
 4178SOL     OW24169   1.653   2.003   6.878  0.7528 -0.8820  0.3413
 4178SOL    HW124170   1.745   1.976   6.872  0.5093 -1.7314  0.5062
 4178SOL    HW224171   1.661   2.086   6.926  1.5692 -1.1606  0.6914
 4179SOL     OW24172   0.754   0.665  17.005 -0.1071 -0.5001 -0.4356
 4179SOL    HW124173   0.707   0.605  17.063  1.6739 -0.9837  0.5011
 4179SOL    HW224174   0.745   0.631  16.916  1.1711  0.3825 -0.8905
 4180SOL     OW24175   3.738   1.055   0.065  0.1561  0.3722 -0.5246
 4180SOL    HW124176   3.770   0.965   0.071 -0.1470  0.2938 -0.1238
 4180SOL    HW224177   3.779   1.096   0.140  0.4404 -0.2807 -0.3233
 4181SOL     OW24178   0.480   2.118   9.291  0.4003  0.2130  0.6003
 4181SOL    HW124179   0.502   2.195   9.344 -1.1775  0.8493  0.3325
 4181SOL    HW224180   0.425   2.068   9.351 -2.0085  0.4316 -1.4302
 4182SOL     OW24181   1.159   3.682   9.255 -0.0291 -0.3236  0.0489
 4182SOL    HW124182   1.104   3.609   9.282 -0.2514 -1.5937 -3.7883
 4182SOL    HW224183   1.236   3.685   9.311  0.7547 -2.5770 -0.9081
 4183SOL     OW24184   4.504   3.435   7.010 -0.1068  0.2270 -0.7784
 4183SOL    HW124185   4.537   3.491   6.941 -2.3974  0.3330 -1.7803
 4183SOL    HW224186   4.416   3.469   7.022  0.4348  0.8002  1.5764
 4184SOL     OW24187   0.906   4.665   8.144 -0.1740  0.0521  0.8093
 4184SOL    HW124188   0.838   4.680   8.210 -1.8973 -2.3082 -0.4029
 4184SOL    HW224189   0.862   4.637   8.063 -0.3216 -0.7727  1.1755
 4185SOL     OW24190   2.649   3.589  10.313 -0.7361 -0.2126  0.1039
 4185SOL    HW124191   2.677   3.615  10.226  1.7531  0.0888  1.0076
 4185SOL    HW224192   2.644   3.671  10.361 -0.2389  0.4480 -0.9903
 4186SOL     OW24193   1.667   1.345   4.448 -0.0462 -0.1794  0.7593
 4186SOL    HW124194   1.650   1.317   4.538 -2.4895 -1.7070 -0.1780
 4186SOL    HW224195   1.701   1.263   4.411 -2.0880 -0.4422 -0.5679
 4187SOL     OW24196   0.123   1.344   1.168  0.6338 -0.7340  0.2556
 4187SOL    HW124197   0.106   1.251   1.148 -1.4563 -0.3544  0.3158
 4187SOL    HW224198   0.164   1.337   1.254 -1.5836  0.1940  1.3780
 4188SOL     OW24199   3.944   4.116  12.703  0.1548 -0.4843 -0.3283
 4188SOL    HW124200   3.892   4.183  12.658 -1.8041 -2.1463 -0.5918
 4188SOL    HW224201   3.912   4.034  12.664 -0.3057 -0.4936  0.0682
 4189SOL     OW24202   3.083   4.357  14.828  0.2479  0.1370 -0.2168
 4189SOL    HW124203   3.082   4.338  14.734  2.9391 -3.3642  0.4842
 4189SOL    HW224204   3.178   4.362  14.832  0.1021  1.3372  1.7286
 4190SOL     OW24205   1.495   0.571   6.387 -0.2528  0.5397 -0.5866
 4190SOL    HW124206   1.481   0.646   6.329  1.4449  1.5924  0.3688
 4190SOL    HW224207   1.553   0.607   6.455 -0.1642 -0.2211 -0.2672
 4191SOL     OW24208   3.610   4.536  10.919 -0.0602  0.0566 -0.0234
 4191SOL    HW124209   3.645   4.448  10.902  0.0658 -0.0806  0.9215
 4191SOL    HW224210   3.544   4.556  10.853 -0.6877  1.7974  1.1472
 4192SOL     OW24211   0.459   0.195   8.781 -0.0042  0.3194  0.2455
 4192SOL    HW124212   0.544   0.176   8.741  0.5402  1.7423  0.7547
 4192SOL    HW224213   0.431   0.104   8.784 -4.2278  1.5192 -2.7486
 4193SOL     OW24214   4.197   2.897   3.040  0.4420  0.1720 -0.7505
 4193SOL    HW124215   4.240   2.961   3.097 -1.4588  0.9097 -0.1636
 4193SOL    HW224216   4.150   2.962   2.988 -0.4427  0.5589  0.5422
 4194SOL     OW24217   1.599   0.395   5.713 -0.4711 -0.5843  0.1766
 4194SOL    HW124218   1.568   0.313   5.751  0.7819 -0.9375  0.4443
 4194SOL    HW224219   1.623   0.435   5.797 -3.5153  0.0354  0.7683
 4195SOL     OW24220   3.941   1.931   7.110  0.1665  0.1052 -0.2014
 4195SOL    HW124221   4.017   1.939   7.167 -0.6152  1.7839  0.6347
 4195SOL    HW224222   3.895   1.860   7.154 -1.1884  0.1623 -1.5248
 4196SOL     OW24223   4.660   2.125   4.476  0.3367  0.6924  0.7970
 4196SOL    HW124224   4.638   2.111   4.568  1.2677  2.1796  1.2455
 4196SOL    HW224225   4.675   2.035   4.446 -1.0906  1.2640 -1.6288
 4197SOL     OW24226   2.123   3.007   9.146 -0.2578 -0.3945  0.5514
 4197SOL    HW124227   2.093   3.053   9.068 -0.0208  2.0093  1.8821
 4197SOL    HW224228   2.042   2.965   9.171  0.3898 -1.1211  1.4030
 4198SOL     OW24229   2.235   2.091   8.037 -0.3639 -0.1791 -0.2305
 4198SOL    HW124230   2.167   2.116   8.099 -1.1242  0.1193 -1.1908
 4198SOL    HW224231   2.187   2.061   7.960 -1.3337  0.9207 -0.0629
 4199SOL     OW24232   0.506   4.370   6.707  0.3301  0.2525 -0.0629
 4199SOL    HW124233   0.522   4.311   6.780  1.2723  0.0097 -0.4599
 4199SOL    HW224234   0.576   4.432   6.725  1.9215 -1.7501  0.6531
 4200SOL     OW24235   3.866   3.475   3.175 -0.1125  0.1310  0.0559
 4200SOL    HW124236   3.798   3.411   3.195 -0.1897 -0.6193 -2.6366
 4200SOL    HW224237   3.881   3.512   3.262  0.0662 -0.6253  0.3489
 4201SOL     OW24238   2.557   1.549   9.384 -0.1422  0.7859  0.0303
 4201SOL    HW124239   2.553   1.524   9.476 -1.4024 -1.5020 -0.6438
 4201SOL    HW224240   2.638   1.600   9.389  0.0955  0.4067  0.0451
 4202SOL     OW24241   3.533   2.316   5.606 -0.0410 -0.2781 -0.0088
 4202SOL    HW124242   3.516   2.242   5.664 -1.4932 -0.3321 -0.4864
 4202SOL    HW224243   3.628   2.307   5.596  0.1645  0.1640  1.6302
 4203SOL     OW24244   3.943   2.322   2.029  0.6934 -0.2917  0.5309
 4203SOL    HW124245   3.955   2.351   2.120  1.9199 -0.0395  0.2983
 4203SOL    HW224246   3.955   2.227   2.035  0.0397 -0.2841  2.1156
 4204SOL     OW24247   3.025   3.598   4.256  0.0141 -0.1461 -0.2554
 4204SOL    HW124248   2.930   3.608   4.250 -0.2064 -2.1712 -0.3303
 4204SOL    HW224249   3.026   3.506   4.230  1.4923  0.1071 -1.0821
 4205SOL     OW24250   1.603   1.671   9.951 -0.0789  0.7020 -0.9589
 4205SOL    HW124251   1.584   1.595   9.895 -0.8215  0.3382 -0.2159
 4205SOL    HW224252   1.544   1.649  10.023 -0.7973 -0.4447 -1.8973
 4206SOL     OW24253   0.400   3.985   7.690  0.6329  0.4642  0.5554
 4206SOL    HW124254   0.395   3.969   7.784 -0.4781 -1.4061  0.1764
 4206SOL    HW224255   0.354   4.067   7.672  0.2473 -0.7643 -4.0060
 4207SOL     OW24256   1.886   3.866   2.820 -0.4812  0.0851 -0.1012
 4207SOL    HW124257   1.876   3.897   2.910  1.8652  2.8125 -0.7718
 4207SOL    HW224258   1.948   3.925   2.778  0.5665 -1.2061 -0.3608
 4208SOL     OW24259   1.708   3.166   4.971  0.3250  0.1089 -0.0251
 4208SOL    HW124260   1.706   3.176   4.876 -0.9082  3.9250  0.3675
 4208SOL    HW224261   1.680   3.075   4.970  0.0967  0.2075 -1.6811
 4209SOL     OW24262   3.747   4.203   6.071  0.1198  0.7980 -0.3746
 4209SOL    HW124263   3.749   4.204   6.166 -2.3188 -1.3229 -0.3089
 4209SOL    HW224264   3.803   4.279   6.051  1.3715  0.2419  1.0060
 4210SOL     OW24265   4.520   0.278   8.583 -0.0746  0.1073  0.0685
 4210SOL    HW124266   4.437   0.247   8.548 -0.4488  0.5297  0.5902
 4210SOL    HW224267   4.578   0.214   8.541 -1.7623  0.4893 -2.8533
 4211SOL     OW24268   2.325   1.938   9.914  0.3792  0.4384 -0.1112
 4211SOL    HW124269   2.306   1.987   9.993  0.5938 -1.6797  1.2484
 4211SOL    HW224270   2.306   1.995   9.839 -2.7403 -0.2748  0.1594
 4212SOL     OW24271   3.520   0.020   4.840  0.3819 -0.2147  0.2718
 4212SOL    HW124272   3.555   0.030   4.752  1.1265 -0.2782  0.5565
 4212SOL    HW224273   3.443   0.077   4.846  0.5257  0.1116 -1.0920
 4213SOL     OW24274   3.376   2.218   0.705  1.0154  0.4204  0.1363
 4213SOL    HW124275   3.309   2.281   0.732  0.1991 -0.0965 -0.6829
 4213SOL    HW224276   3.332   2.147   0.659  1.9104 -1.1608  1.7526
 4214SOL     OW24277   0.156   3.853   5.957  0.2641 -0.4899 -0.3260
 4214SOL    HW124278   0.117   3.769   5.933 -0.2383 -0.0846 -0.9071
 4214SOL    HW224279   0.161   3.891   5.869 -2.0114 -1.0760 -0.6985
 4215SOL     OW24280   2.307   4.521  17.139  0.0848  0.5774  0.6014
 4215SOL    HW124281   2.286   4.438  17.096 -0.4386  1.3540 -0.6181
 4215SOL    HW224282   2.246   4.579  17.095  0.7633 -0.0638 -1.1992
 4216SOL     OW24283   2.366   0.262  16.704  0.4192  0.0353  0.3176
 4216SOL    HW124284   2.363   0.322  16.630 -0.7016 -0.2947  0.1087
 4216SOL    HW224285   2.387   0.322  16.775  1.0467  0.8490 -0.5571
 4217SOL     OW24286   1.111   1.046   2.042 -0.2498  0.0422 -0.9316
 4217SOL    HW124287   1.198   1.082   2.063 -0.0696 -2.4721  2.6452
 4217SOL    HW224288   1.138   0.954   2.045  0.7699  0.3348 -1.0956
 4218SOL     OW24289   1.149   1.264  10.571  0.2701 -0.4251 -0.5962
 4218SOL    HW124290   1.152   1.344  10.623  2.0708 -0.9801  0.1427
 4218SOL    HW224291   1.237   1.261  10.533  0.9479 -2.1573  1.1524
 4219SOL     OW24292   2.908   0.252  17.019 -0.0477  0.2225  0.3783
 4219SOL    HW124293   3.001   0.234  17.035  0.1351  1.0818  0.2931
 4219SOL    HW224294   2.911   0.309  16.942 -3.2489  0.9007  0.7675
 4220SOL     OW24295   3.784   4.510  10.073  0.1757  0.2564  0.2351
 4220SOL    HW124296   3.786   4.414  10.069 -2.0512  0.1685  1.1986
 4220SOL    HW224297   3.878   4.526  10.062 -0.1419  0.9297 -1.3579
 4221SOL     OW24298   3.995   2.154   2.502 -0.0524 -0.2866  0.5643
 4221SOL    HW124299   4.068   2.150   2.441 -0.8270 -1.1801 -0.2874
 4221SOL    HW224300   3.934   2.090   2.465 -0.7474 -0.0327  1.2533
 4222SOL     OW24301   2.222   1.343  10.110 -0.3986  0.3793  0.7625
 4222SOL    HW124302   2.299   1.301  10.149 -0.9382 -0.6428  0.7272
 4222SOL    HW224303   2.149   1.294  10.148 -1.0488  0.0782 -0.8590
 4223SOL     OW24304   2.558   3.404  14.903 -0.4827  0.3076 -0.3658
 4223SOL    HW124305   2.599   3.336  14.851  2.3497  1.9623 -0.2902
 4223SOL    HW224306   2.524   3.457  14.830 -1.3798  1.5565  0.9433
 4224SOL     OW24307   1.565   2.617  11.056  0.4844 -0.4656 -0.1675
 4224SOL    HW124308   1.601   2.547  11.111 -2.8289 -0.6152  1.8077
 4224SOL    HW224309   1.496   2.658  11.108 -0.9129 -1.9016 -0.8927
 4225SOL     OW24310   1.516   2.809   5.702 -0.5868 -0.1063 -0.2045
 4225SOL    HW124311   1.606   2.777   5.693  0.2689  1.7656  1.5492
 4225SOL    HW224312   1.526   2.904   5.703  0.4099 -0.2176  1.1488
 4226SOL     OW24313   2.658   3.523   8.215 -0.5675 -0.2089 -0.0993
 4226SOL    HW124314   2.661   3.597   8.276  3.7072  0.2293 -0.8250
 4226SOL    HW224315   2.666   3.453   8.280  1.7879  0.5531  0.4617
 4227SOL     OW24316   0.907   4.462   3.544  0.2361 -0.0709  0.3575
 4227SOL    HW124317   0.819   4.497   3.560  1.0908  1.3876  1.8170
 4227SOL    HW224318   0.904   4.470   3.448 -1.5657 -0.8725  0.3438
 4228SOL     OW24319   0.986   4.040  11.055 -0.0958  0.1294  0.1479
 4228SOL    HW124320   1.016   4.125  11.087 -1.2211  0.0771  1.3594
 4228SOL    HW224321   0.945   4.074  10.976  0.7104 -0.1055 -0.3671
 4229SOL     OW24322   2.587   1.313  15.736  0.5570  0.0103  0.8746
 4229SOL    HW124323   2.544   1.234  15.705  0.9317  0.2922 -0.3773
 4229SOL    HW224324   2.670   1.285  15.774  0.4689  1.4152  2.0967
 4230SOL     OW24325   2.282   4.126   1.266  0.0914 -0.2240  0.2238
 4230SOL    HW124326   2.254   4.196   1.208  1.2383 -0.2282 -0.3188
 4230SOL    HW224327   2.324   4.067   1.204  1.5772  2.0944 -0.9435
 4231SOL     OW24328   2.165   1.691   7.871 -0.8125 -0.4890 -0.1763
 4231SOL    HW124329   2.206   1.620   7.821  1.0371  0.4113  0.0801
 4231SOL    HW224330   2.212   1.755   7.818 -0.4789 -0.2211  0.4620
 4232SOL     OW24331   3.764   3.415   3.518  0.2825  0.1112 -0.3106
 4232SOL    HW124332   3.698   3.436   3.452 -0.5940 -0.6140  0.3312
 4232SOL    HW224333   3.718   3.343   3.561  1.1521 -0.3158 -0.0821
 4233SOL     OW24334   3.291   2.849   4.840 -0.5244 -0.7209 -0.3015
 4233SOL    HW124335   3.346   2.824   4.765  0.2217  1.1519 -0.3667
 4233SOL    HW224336   3.286   2.765   4.886 -0.4331 -1.0247 -0.8348
 4234SOL     OW24337   2.600   0.856   9.337  0.0058  0.2088 -0.2893
 4234SOL    HW124338   2.651   0.853   9.256  0.0423  0.4154 -0.2748
 4234SOL    HW224339   2.582   0.764   9.354  1.1244 -0.3084 -1.9202
 4235SOL     OW24340   4.550   3.103   7.343  0.0369 -0.2760 -0.2743
 4235SOL    HW124341   4.468   3.145   7.317  0.6288  0.4574 -0.9563
 4235SOL    HW224342   4.519   3.017   7.370  0.2783 -0.0579  0.7205
 4236SOL     OW24343   3.281   1.380   7.219  0.0446  0.4559 -0.1841
 4236SOL    HW124344   3.358   1.435   7.229  1.3483 -1.6130  1.0623
 4236SOL    HW224345   3.210   1.444   7.216 -0.3703 -0.1663 -3.9439
 4237SOL     OW24346   0.363   3.559  15.929  0.2684 -0.6301 -0.1284
 4237SOL    HW124347   0.313   3.638  15.906  0.4790 -0.3019  0.5439
 4237SOL    HW224348   0.330   3.539  16.017  0.6421  0.9423  0.3843
 4238SOL     OW24349   4.588   0.626   5.990  0.4198  0.5745 -0.1588
 4238SOL    HW124350   4.629   0.553   6.038 -2.2941 -1.8681 -1.5670
 4238SOL    HW224351   4.657   0.635   5.924 -0.2097 -2.4478 -1.2607
 4239SOL     OW24352   3.759   2.936   8.341  0.0013 -0.4659  0.0582
 4239SOL    HW124353   3.831   2.894   8.293 -0.1911 -1.1971  0.4174
 4239SOL    HW224354   3.698   2.907   8.273  0.1854 -1.0876  0.1533
 4240SOL     OW24355   1.445   2.380   2.602 -0.1086 -0.4537  0.4228
 4240SOL    HW124356   1.351   2.373   2.617  0.0668  0.3701  1.8773
 4240SOL    HW224357   1.454   2.475   2.607  1.8023 -0.6154 -0.1725
 4241SOL     OW24358   3.332   0.069  11.453 -0.1771 -0.7740 -0.6936
 4241SOL    HW124359   3.344   0.144  11.511 -3.5547 -0.4559 -0.3785
 4241SOL    HW224360   3.355   4.730  11.499 -2.3139 -0.5949  0.6643
 4242SOL     OW24361   4.443   4.722  10.112 -0.3078 -0.1523  0.0961
 4242SOL    HW124362   4.395   0.062  10.116  0.0602  0.0310  0.7142
 4242SOL    HW224363   4.482   4.734  10.025 -0.2092  2.7318  0.5597
 4243SOL     OW24364   2.413   0.863   2.594  0.6951 -0.3933 -0.0253
 4243SOL    HW124365   2.368   0.829   2.517  0.6348 -2.5920  0.9812
 4243SOL    HW224366   2.474   0.792   2.610  2.2517  1.2382  1.2783
 4244SOL     OW24367   3.948   1.458   6.654  0.6402  0.1065  0.5576
 4244SOL    HW124368   3.999   1.461   6.573  0.8100  0.7194  0.6855
 4244SOL    HW224369   4.018   1.471   6.718 -0.1088 -0.1405  1.4151
 4245SOL     OW24370   0.721   1.886   8.903  0.3848  0.4138 -0.2406
 4245SOL    HW124371   0.705   1.900   8.996 -0.6867 -2.8479  0.0879
 4245SOL    HW224372   0.798   1.831   8.919  0.7480  0.4975 -1.7148
 4246SOL     OW24373   3.061   4.610   5.437 -0.3514  0.3086  0.3097
 4246SOL    HW124374   3.122   4.550   5.479  0.8235  3.0213  2.5175
 4246SOL    HW224375   3.101   4.622   5.351  0.9562  0.6133  0.9614
 4247SOL     OW24376   1.751   3.627   8.091 -0.0216 -0.0682 -0.4170
 4247SOL    HW124377   1.668   3.616   8.136 -1.2149 -1.2957 -2.8909
 4247SOL    HW224378   1.791   3.684   8.157 -1.6372 -0.9744  1.3203
 4248SOL     OW24379   3.778   2.630  17.493  0.2341 -0.3061 -0.2840
 4248SOL    HW124380   3.714   2.693  17.461 -1.5599 -1.6884  0.5818
 4248SOL    HW224381   3.828   2.602  17.417  0.9554  2.2509 -0.7533
 4249SOL     OW24382   1.167   1.319   1.430  0.4460 -0.3039 -0.3428
 4249SOL    HW124383   1.182   1.409   1.457 -1.0044  0.0436 -0.6863
 4249SOL    HW224384   1.235   1.267   1.474  1.4181 -0.0904 -1.5760
 4250SOL     OW24385   4.672   0.055   5.280 -0.3888  0.1034  0.1737
 4250SOL    HW124386   4.604   4.730   5.268 -1.9900  1.5202  1.3094
 4250SOL    HW224387   4.694   0.070   5.189  1.5800  3.0493  1.1667
 4251SOL     OW24388   0.282   1.271  13.174 -0.0961  0.0174  0.5645
 4251SOL    HW124389   0.261   1.340  13.236  0.4043 -0.0661  0.8295
 4251SOL    HW224390   0.274   1.320  13.092 -2.3169 -0.4399  0.5127
 4252SOL     OW24391   0.860   0.372   4.609  0.6863  0.1662 -0.3267
 4252SOL    HW124392   0.910   0.295   4.581  2.0778  1.6597 -1.9300
 4252SOL    HW224393   0.908   0.447   4.574  1.8281  1.3916  3.8657
 4253SOL     OW24394   0.627   0.509   4.226  0.1967  0.0365  0.0991
 4253SOL    HW124395   0.555   0.562   4.260 -0.4486 -1.1892  0.6524
 4253SOL    HW224396   0.701   0.567   4.244  0.4356  0.1092 -1.1401
 4254SOL     OW24397   4.113   3.846   9.767 -0.0076 -0.4207  0.4701
 4254SOL    HW124398   4.102   3.941   9.779  1.4555  0.2263 -3.4176
 4254SOL    HW224399   4.145   3.842   9.677  1.1457  2.6386  0.7244
 4255SOL     OW24400   2.242   2.382   0.874 -0.2691  1.0978  0.0079
 4255SOL    HW124401   2.334   2.408   0.869  1.3394 -4.4829 -0.1539
 4255SOL    HW224402   2.229   2.368   0.780 -1.8019  4.1069 -0.1870
 4256SOL     OW24403   1.505   0.544   4.663 -0.7309 -0.1676 -0.5778
 4256SOL    HW124404   1.568   0.564   4.593  1.7574 -1.2222  1.3717
 4256SOL    HW224405   1.471   0.464   4.623 -1.7382 -0.6545  1.3034
 4257SOL     OW24406   2.838   0.790  17.323 -0.2221 -0.1257 -0.1480
 4257SOL    HW124407   2.832   0.707  17.276  1.6966 -0.7307  0.6646
 4257SOL    HW224408   2.932   0.807  17.331 -0.4687  0.0696  2.1693
 4258SOL     OW24409   3.062   0.576   6.462  0.0038 -0.1200 -0.1013
 4258SOL    HW124410   3.030   0.604   6.376 -0.0814 -2.3628 -0.8161
 4258SOL    HW224411   2.987   0.536   6.507 -1.9212  0.9889 -2.3146
 4259SOL     OW24412   4.405   3.069   5.437  0.2497  0.6231  0.3939
 4259SOL    HW124413   4.463   3.087   5.511  1.0161 -0.8610  0.1574
 4259SOL    HW224414   4.333   3.049   5.496  0.1208 -2.9246 -0.9716
 4260SOL     OW24415   0.030   3.559   4.736  0.1888  0.0234  0.1604
 4260SOL    HW124416   0.070   3.484   4.692  3.1111  1.7540 -0.1763
 4260SOL    HW224417   0.057   3.548   4.827  0.0216  0.8653  0.3142
 4261SOL     OW24418   0.949   0.556   2.510 -0.5234 -0.0665  0.6557
 4261SOL    HW124419   0.875   0.598   2.468  0.6632  2.0909  0.7114
 4261SOL    HW224420   0.975   0.626   2.569 -0.4925 -0.2084  0.8120
 4262SOL     OW24421   4.390   2.467   2.784  0.2840  0.1943 -0.4229
 4262SOL    HW124422   4.372   2.560   2.798 -1.1274 -0.3456  1.4880
 4262SOL    HW224423   4.484   2.452   2.789  0.5217  1.6457 -0.5953
 4263SOL     OW24424   0.344   4.475   4.584  0.0731  0.0476 -0.3810
 4263SOL    HW124425   0.329   4.381   4.595  1.5366 -0.0691  0.7658
 4263SOL    HW224426   0.396   4.475   4.504  1.2523 -1.2711  0.3826
 4264SOL     OW24427   1.643   1.008   7.328 -0.2453 -0.6524  0.1510
 4264SOL    HW124428   1.612   0.927   7.288 -0.4986 -1.1364  1.3169
 4264SOL    HW224429   1.583   1.078   7.303  0.6168 -0.3476 -1.0343
 4265SOL     OW24430   2.509   4.633   8.802  0.0854 -0.3430  0.5848
 4265SOL    HW124431   2.524   4.558   8.859  1.3571 -1.9094 -1.8064
 4265SOL    HW224432   2.588   4.622   8.750  0.4422 -0.3260  1.1200
 4266SOL     OW24433   4.167   1.649   6.068 -0.0704 -0.3663  0.3554
 4266SOL    HW124434   4.169   1.723   6.008  0.5069 -0.9617 -0.3658
 4266SOL    HW224435   4.074   1.627   6.066 -0.0702 -0.4252  0.9863
 4267SOL     OW24436   3.509   4.070   6.383  0.0289 -0.4311  0.0926
 4267SOL    HW124437   3.553   4.144   6.425 -1.0974  1.2726 -1.7192
 4267SOL    HW224438   3.518   4.005   6.452 -0.5828  0.8596  1.3938
 4268SOL     OW24439   0.325   0.378   8.942 -0.6327 -0.4855  0.6016
 4268SOL    HW124440   0.357   0.305   8.889 -0.9490  0.0656 -0.3467
 4268SOL    HW224441   0.238   0.384   8.902 -1.0899  0.5250  1.7282
 4269SOL     OW24442   1.610   3.566   3.104 -0.4873  0.1670 -0.1069
 4269SOL    HW124443   1.665   3.591   3.030 -4.8162  3.2203 -2.2810
 4269SOL    HW224444   1.533   3.521   3.070 -0.9684  1.6814 -1.0133
 4270SOL     OW24445   3.238   0.560   4.726  0.3472  0.6840  0.9537
 4270SOL    HW124446   3.259   0.528   4.814  0.1717  0.6935  0.9990
 4270SOL    HW224447   3.143   0.550   4.721  0.4641  0.7399 -1.4773
 4271SOL     OW24448   2.362   1.003   1.838 -0.1435  0.1514 -0.6288
 4271SOL    HW124449   2.337   1.093   1.858  0.5934  0.4535 -1.0807
 4271SOL    HW224450   2.302   0.987   1.765 -0.6826  1.4166 -0.4569
 4272SOL     OW24451   3.697   1.699   1.784  0.1144 -0.4059  0.0696
 4272SOL    HW124452   3.697   1.661   1.696 -1.5203 -0.9593  0.3007
 4272SOL    HW224453   3.777   1.751   1.784 -0.5877  0.6658  0.2023
 4273SOL     OW24454   3.591   2.930   1.782 -0.4233 -0.3028 -0.5042
 4273SOL    HW124455   3.566   3.021   1.798  0.9911 -0.1372  0.7023
 4273SOL    HW224456   3.683   2.944   1.759 -0.5011 -1.4629 -1.5851
 4274SOL     OW24457   2.821   3.866  12.218 -0.1047  0.4477  0.0833
 4274SOL    HW124458   2.913   3.859  12.190 -0.6969  1.2009 -2.0614
 4274SOL    HW224459   2.775   3.837  12.139 -0.0220  0.5936 -0.0207
 4275SOL     OW24460   0.971   0.709   1.759  0.0968 -0.0992 -0.2087
 4275SOL    HW124461   0.881   0.696   1.728  0.1226 -1.1533  0.1717
 4275SOL    HW224462   0.958   0.779   1.823 -0.2401  1.3088 -1.8059
 4276SOL     OW24463   0.641   4.031   8.632  0.1244 -0.4036 -0.4956
 4276SOL    HW124464   0.702   4.105   8.638 -0.1876 -0.2602  0.7327
 4276SOL    HW224465   0.670   3.979   8.706 -0.4062 -0.8614 -0.6083
 4277SOL     OW24466   1.348   3.947   5.850  0.3415 -0.1489  0.0368
 4277SOL    HW124467   1.442   3.965   5.843  0.2857 -0.4462 -1.6826
 4277SOL    HW224468   1.344   3.895   5.930 -1.7856 -1.5043 -0.9544
 4278SOL     OW24469   3.004   3.225  10.804 -0.3923  0.3892 -0.0576
 4278SOL    HW124470   3.088   3.248  10.843  1.0154 -1.0451 -2.3098
 4278SOL    HW224471   2.973   3.302  10.756 -1.0867 -0.1696 -0.5095
 4279SOL     OW24472   1.087   1.935   4.029  0.0038  0.0804 -0.8007
 4279SOL    HW124473   1.173   1.925   3.988 -0.0234 -0.6322 -0.6780
 4279SOL    HW224474   1.024   1.918   3.959 -0.6847 -0.3263 -0.0772
 4280SOL     OW24475   0.404   1.094   5.604  0.1281 -0.7049 -0.0070
 4280SOL    HW124476   0.356   1.167   5.643 -0.2934 -0.9778 -0.0184
 4280SOL    HW224477   0.429   1.058   5.689  0.0172 -0.6548  0.0464
 4281SOL     OW24478   3.086   0.287   6.491  0.7506 -0.0584 -0.1475
 4281SOL    HW124479   3.115   0.243   6.571 -0.2261 -0.9116 -0.2654
 4281SOL    HW224480   3.115   0.376   6.513  0.8956  0.3465 -1.9767
 4282SOL     OW24481   0.912   0.663  15.126  0.3007 -0.0064  0.1090
 4282SOL    HW124482   0.985   0.686  15.184 -1.0964  1.2196  1.4072
 4282SOL    HW224483   0.956   0.597  15.074 -3.3574 -1.4183 -1.2212
 4283SOL     OW24484   3.140   2.864   1.324  0.1310 -0.5731  0.0620
 4283SOL    HW124485   3.068   2.802   1.318  0.4688 -1.1412  1.8533
 4283SOL    HW224486   3.223   2.815   1.326  0.8295  0.6492  1.0915
 4284SOL     OW24487   2.112   3.798  12.518 -0.2786 -0.2730 -0.0221
 4284SOL    HW124488   2.199   3.800  12.559 -1.3437  0.4870  2.2387
 4284SOL    HW224489   2.137   3.793  12.426 -0.0480  0.8042 -0.0218
 4285SOL     OW24490   2.645   0.040   8.028 -0.9238 -0.5239 -0.1804
 4285SOL    HW124491   2.683   0.071   8.110  1.5306 -1.8065 -0.8369
 4285SOL    HW224492   2.716   0.012   7.970  0.1159  0.4053  0.6606
 4286SOL     OW24493   3.797   4.673  15.141  0.0282 -0.0938 -0.4257
 4286SOL    HW124494   3.804   4.714  15.055 -0.7814  0.4238 -0.2435
 4286SOL    HW224495   3.882   4.628  15.135  0.4632  0.9513 -2.1119
 4287SOL     OW24496   2.667   0.430  10.712 -0.3499  0.5417  0.1732
 4287SOL    HW124497   2.579   0.432  10.750 -0.9734  0.6507 -1.2680
 4287SOL    HW224498   2.647   0.409  10.621  1.3781  2.1510 -0.5746
 4288SOL     OW24499   3.936   0.541   7.858 -0.9378 -0.1239 -0.3414
 4288SOL    HW124500   3.944   0.636   7.862  0.7262 -0.2708 -0.1436
 4288SOL    HW224501   3.848   0.535   7.821 -0.3092 -0.0905 -1.8086
 4289SOL     OW24502   0.137   2.947   8.235 -0.2817 -1.2728 -0.4713
 4289SOL    HW124503   0.210   2.972   8.179 -0.8416 -2.4953 -1.7570
 4289SOL    HW224504   0.149   2.852   8.230 -1.2503 -1.4608  0.7174
 4290SOL     OW24505   2.797   2.177   1.313 -0.0655  0.1606  0.0234
 4290SOL    HW124506   2.811   2.263   1.353  0.0519  0.0891  0.1355
 4290SOL    HW224507   2.753   2.207   1.234 -0.8037  1.8604  1.0752
 4291SOL     OW24508   4.553   2.860   1.448 -0.4510  0.4555 -0.4236
 4291SOL    HW124509   4.593   2.791   1.395 -0.7880  0.6858 -0.9887
 4291SOL    HW224510   4.512   2.800   1.509  0.4904 -0.0394 -0.2659
 4292SOL     OW24511   1.084   2.822   6.284  0.1739 -0.5082  0.1297
 4292SOL    HW124512   0.989   2.814   6.278  0.2055  0.1535 -1.1200
 4292SOL    HW224513   1.091   2.911   6.319 -0.0983 -0.1036 -0.8699
 4293SOL     OW24514   4.385   4.263   8.395 -0.4422  0.3977  0.2807
 4293SOL    HW124515   4.409   4.340   8.447  0.5872  0.7760 -0.7527
 4293SOL    HW224516   4.430   4.274   8.311 -2.5336 -0.1191 -0.9022
 4294SOL     OW24517   2.696   3.476  14.544 -0.1040 -0.4121 -0.4566
 4294SOL    HW124518   2.636   3.509  14.610 -0.0220 -0.3554 -0.4105
 4294SOL    HW224519   2.662   3.498  14.458  0.0557  1.5541  0.0017
 4295SOL     OW24520   3.674   4.487   3.048  0.0312 -0.0263 -0.4387
 4295SOL    HW124521   3.612   4.551   3.082  1.2224  1.3154 -0.8151
 4295SOL    HW224522   3.705   4.514   2.962  2.4951  1.7414  1.0112
 4296SOL     OW24523   1.958   1.503  15.621  0.5369 -0.8681 -0.4468
 4296SOL    HW124524   2.026   1.461  15.569 -0.4106  1.7803 -3.8564
 4296SOL    HW224525   1.891   1.435  15.628 -0.9741  0.6088 -0.5451
 4297SOL     OW24526   3.958   1.981   7.989  0.0757 -0.2176  0.3604
 4297SOL    HW124527   4.046   2.016   7.978 -0.1953  0.4184  0.2117
 4297SOL    HW224528   3.932   1.947   7.904  2.5275  1.4469 -1.0609
 4298SOL     OW24529   2.227   2.552  15.052 -0.0326 -0.2555 -0.4183
 4298SOL    HW124530   2.180   2.583  14.974  1.5852  1.0834 -0.8566
 4298SOL    HW224531   2.313   2.589  15.032 -0.4990  0.0616 -1.8382
 4299SOL     OW24532   0.874   3.233   4.685 -0.6554 -0.0296  0.9712
 4299SOL    HW124533   0.834   3.161   4.636 -1.1579 -0.3916  1.8979
 4299SOL    HW224534   0.936   3.269   4.622 -2.3564 -1.8649 -1.7881
 4300SOL     OW24535   3.761   1.848   8.168  0.4956 -0.7318 -0.0802
 4300SOL    HW124536   3.746   1.763   8.126  0.7695 -0.7495 -0.1392
 4300SOL    HW224537   3.826   1.880   8.106  0.0086  2.9531  1.3318
 4301SOL     OW24538   3.960   3.074   7.799  0.4337  0.0290 -0.2078
 4301SOL    HW124539   4.030   3.137   7.779 -1.0586  1.3776 -1.1753
 4301SOL    HW224540   3.926   3.113   7.879  1.4416  1.9211 -0.6997
 4302SOL     OW24541   3.035   3.000  10.593 -0.1414 -0.0378  0.0220
 4302SOL    HW124542   3.002   3.077  10.638  0.2976  1.1376 -1.6628
 4302SOL    HW224543   2.990   3.009  10.509  0.2342 -0.6449 -0.2469
 4303SOL     OW24544   0.563   1.522   2.979  0.4130 -0.3889  0.6052
 4303SOL    HW124545   0.658   1.530   2.970  0.2405  0.2547 -0.5470
 4303SOL    HW224546   0.556   1.580   3.055 -1.7915  0.5331 -0.3244
 4304SOL     OW24547   1.484   3.541   4.553  0.2625 -0.4176 -0.1594
 4304SOL    HW124548   1.526   3.622   4.523 -2.7539  1.7775  1.4871
 4304SOL    HW224549   1.400   3.555   4.511 -0.0604  0.3291  0.7194
 4305SOL     OW24550   3.484   1.268   4.045  0.6553 -0.1731  0.4309
 4305SOL    HW124551   3.522   1.180   4.038 -0.4621 -0.6414  0.2879
 4305SOL    HW224552   3.568   1.308   4.066 -0.0216  0.7004  1.4623
 4306SOL     OW24553   2.834   1.731   8.463  0.5608 -0.1715  0.2486
 4306SOL    HW124554   2.761   1.717   8.523  2.5981  0.4277  2.8844
 4306SOL    HW224555   2.819   1.826   8.463  1.2567 -0.0497  1.6440
 4307SOL     OW24556   3.353   3.508   2.751 -0.6082  0.3329  0.1307
 4307SOL    HW124557   3.430   3.481   2.799 -0.2056  1.0268 -0.1155
 4307SOL    HW224558   3.288   3.482   2.816 -1.0298 -1.3462 -0.9653
 4308SOL     OW24559   1.195   0.316   8.672 -0.4202  0.3046 -0.3560
 4308SOL    HW124560   1.186   0.394   8.618 -1.6643  0.3006 -0.1425
 4308SOL    HW224561   1.265   0.352   8.726  0.9477 -0.1628 -1.8300
 4309SOL     OW24562   2.126   4.524  14.933  0.1248 -0.1880  0.1939
 4309SOL    HW124563   2.101   4.486  14.849  2.2992 -0.3729 -0.3771
 4309SOL    HW224564   2.043   4.537  14.977 -0.7282 -3.3254 -0.5293
 4310SOL     OW24565   4.116   0.948  15.021  0.1302  0.8916  0.3805
 4310SOL    HW124566   4.148   0.887  14.954  0.7290  1.0615  0.5093
 4310SOL    HW224567   4.203   0.988  15.029  0.7989 -0.0600 -2.0112
 4311SOL     OW24568   2.838   0.699  16.542  0.4177 -0.1018  0.0789
 4311SOL    HW124569   2.761   0.659  16.580 -1.9671  4.2816 -0.1479
 4311SOL    HW224570   2.812   0.689  16.450  1.1842  3.3099 -0.5069
 4312SOL     OW24571   3.177   0.444  10.143 -0.4093 -0.2315 -0.1439
 4312SOL    HW124572   3.208   0.382  10.209  2.4729  0.6238 -0.7109
 4312SOL    HW224573   3.202   0.398  10.063 -0.5538 -0.3214 -0.1369
 4313SOL     OW24574   3.735   2.614   0.469  0.1387  0.1805 -0.4260
 4313SOL    HW124575   3.673   2.591   0.538  2.1914  0.6006  1.5921
 4313SOL    HW224576   3.822   2.604   0.508  0.1351 -2.1257 -1.0113
 4314SOL     OW24577   1.371   0.260   1.625  0.0015 -0.2584  0.6066
 4314SOL    HW124578   1.411   0.293   1.545  1.5956 -0.2261  1.4374
 4314SOL    HW224579   1.301   0.210   1.582 -1.1212  1.0614  0.9000
 4315SOL     OW24580   1.181   1.789   9.176  0.0811 -0.6742 -0.6428
 4315SOL    HW124581   1.135   1.853   9.231  1.1751 -1.9245  1.7176
 4315SOL    HW224582   1.263   1.809   9.221 -0.3913 -2.2928  0.9446
 4316SOL     OW24583   3.882   0.238   7.471  0.1301  0.6353 -0.6121
 4316SOL    HW124584   3.804   0.188   7.446 -0.5303  1.6447 -0.5706
 4316SOL    HW224585   3.905   0.206   7.558 -0.0525  1.6487 -0.1964
 4317SOL     OW24586   0.200   2.539   6.544 -0.5770 -0.3223 -0.7177
 4317SOL    HW124587   0.187   2.586   6.462  1.4149  0.7792 -0.4038
 4317SOL    HW224588   0.183   2.449   6.517 -1.0104  0.3340 -2.5855
 4318SOL     OW24589   1.278   2.753  13.750 -0.1751  0.3111  0.0073
 4318SOL    HW124590   1.283   2.659  13.768  1.3832  0.2990 -0.5007
 4318SOL    HW224591   1.222   2.760  13.673 -0.5853 -2.9906  0.0065
 4319SOL     OW24592   2.233   3.183   2.350 -0.1699  0.0093 -0.1704
 4319SOL    HW124593   2.158   3.221   2.397  0.0426 -0.5885  0.6480
 4319SOL    HW224594   2.294   3.162   2.420 -0.1485  0.3992 -0.0713
 4320SOL     OW24595   3.329   4.276   4.921  0.5133  0.8933 -0.4584
 4320SOL    HW124596   3.239   4.302   4.903  0.5655  2.1306  1.1039
 4320SOL    HW224597   3.345   4.224   4.842 -0.1406 -0.8296  0.5397
 4321SOL     OW24598   0.942   2.861   7.959  0.1272  0.0773 -0.3651
 4321SOL    HW124599   0.901   2.854   7.873  0.1616  2.3408 -0.5508
 4321SOL    HW224600   0.931   2.955   7.970 -0.3112  0.0248 -0.3586
 4322SOL     OW24601   0.926   3.263   2.162 -0.0020  0.0621 -0.0183
 4322SOL    HW124602   0.849   3.246   2.215  0.2077  0.2060  0.3344
 4322SOL    HW224603   0.899   3.229   2.077 -1.8144 -3.6835  2.0859
 4323SOL     OW24604   2.026   0.461  10.820  0.0631 -0.5814 -0.1951
 4323SOL    HW124605   1.937   0.461  10.855  0.5503  4.1700  0.9736
 4323SOL    HW224606   2.067   0.394  10.876 -0.5758 -1.4866 -0.7984
 4324SOL     OW24607   4.649   3.102   3.628  0.0721 -0.2769 -0.2971
 4324SOL    HW124608   4.741   3.076   3.639 -0.1590 -1.8071 -2.0305
 4324SOL    HW224609   4.627   3.045   3.555  2.3493 -0.9825 -0.4334
 4325SOL     OW24610   3.555   2.302   4.064 -0.3287  0.0171  0.1977
 4325SOL    HW124611   3.617   2.277   3.995 -1.1178  0.0638 -0.5393
 4325SOL    HW224612   3.539   2.387   4.022 -3.0801  0.3421  1.8928
 4326SOL     OW24613   3.834   2.305  15.159  0.1060 -0.5550  0.1023
 4326SOL    HW124614   3.909   2.258  15.122 -0.0023 -0.1775 -0.5817
 4326SOL    HW224615   3.840   2.379  15.099 -1.7375 -2.4852 -2.4606
 4327SOL     OW24616   0.774   3.983   5.280 -0.0204 -0.0374  0.1364
 4327SOL    HW124617   0.821   4.042   5.221 -1.3540  0.8447 -0.0412
 4327SOL    HW224618   0.717   4.039   5.332 -1.9313  0.2686 -2.2824
 4328SOL     OW24619   2.257   1.800   6.490 -0.1124 -0.3616 -0.3389
 4328SOL    HW124620   2.222   1.839   6.409 -1.8930 -2.2779 -0.4858
 4328SOL    HW224621   2.315   1.736   6.449  0.1909 -0.4373  0.2261
 4329SOL     OW24622   2.807   2.807   3.523 -0.0226  0.2899  0.2672
 4329SOL    HW124623   2.722   2.771   3.549 -0.6698  0.8320 -1.1333
 4329SOL    HW224624   2.860   2.727   3.521 -0.2938  0.1638 -2.2885
 4330SOL     OW24625   2.580   2.671   3.616 -0.0358 -0.6841 -0.6698
 4330SOL    HW124626   2.541   2.585   3.632 -1.0016 -0.4828 -1.9442
 4330SOL    HW224627   2.528   2.718   3.681  1.0606 -1.5233  0.8170
 4331SOL     OW24628   2.046   3.236   4.727 -0.2894  0.0664  0.4378
 4331SOL    HW124629   2.072   3.190   4.647 -2.4062  0.6782 -0.5794
 4331SOL    HW224630   2.061   3.328   4.704 -1.9101  0.1455 -0.2943
 4332SOL     OW24631   0.928   4.003  16.522  0.3743 -0.1374  0.0853
 4332SOL    HW124632   1.000   4.065  16.507  0.3484 -0.4503 -1.3504
 4332SOL    HW224633   0.848   4.046  16.491  0.0522 -1.1664 -0.4949
 4333SOL     OW24634   3.177   4.518   4.616  1.0486 -0.0517  0.1576
 4333SOL    HW124635   3.253   4.507   4.673 -0.5237 -0.3507  2.1980
 4333SOL    HW224636   3.119   4.462   4.667  0.0998  0.4383 -0.3873
 4334SOL     OW24637   0.350   0.359   3.969  0.1778  0.0810 -0.2573
 4334SOL    HW124638   0.364   0.380   3.876 -0.5126 -0.1118 -0.4101
 4334SOL    HW224639   0.328   0.440   4.015  0.6290  0.2296 -0.3061
 4335SOL     OW24640   3.079   4.421   2.204 -0.1935  0.2579 -0.6432
 4335SOL    HW124641   3.095   4.488   2.270  1.6810  0.3632 -1.2001
 4335SOL    HW224642   2.988   4.394   2.214  0.7643 -2.9780 -0.7327
 4336SOL     OW24643   4.550   2.551  10.414  0.5994  0.3449  0.5865
 4336SOL    HW124644   4.615   2.592  10.357  0.7941  0.1044  0.6357
 4336SOL    HW224645   4.575   2.594  10.495 -1.0871  1.5207  0.5010
 4337SOL     OW24646   0.539   1.541   4.478 -0.4883  0.1454  0.0645
 4337SOL    HW124647   0.626   1.501   4.485 -0.2833  0.9387  1.8895
 4337SOL    HW224648   0.554   1.619   4.424 -1.0657  1.3103  1.5824
 4338SOL     OW24649   2.911   1.204  16.902 -0.0604  0.0391  0.4782
 4338SOL    HW124650   2.833   1.253  16.929 -0.4581  0.5304 -1.5672
 4338SOL    HW224651   2.898   1.185  16.809 -1.2527  0.3848  0.5719
 4339SOL     OW24652   1.381   2.743   3.425  0.0182  0.7345  0.3911
 4339SOL    HW124653   1.400   2.653   3.448 -0.7015  0.9043  1.6603
 4339SOL    HW224654   1.403   2.791   3.505  0.7868  0.4028  0.3783
 4340SOL     OW24655   4.289   1.451   6.191 -0.4052  0.0206  0.3088
 4340SOL    HW124656   4.250   1.523   6.142 -1.4606  0.3042  1.5633
 4340SOL    HW224657   4.365   1.418   6.144  0.2433 -0.4727  1.7133
 4341SOL     OW24658   1.715   3.562   1.929 -0.0512 -0.1764 -0.2389
 4341SOL    HW124659   1.654   3.489   1.937  0.0098 -0.0835  1.0419
 4341SOL    HW224660   1.739   3.549   1.837  0.2488 -1.7901  0.0710
 4342SOL     OW24661   4.524   4.369   1.746  0.2967  0.1150 -0.9825
 4342SOL    HW124662   4.616   4.368   1.773 -0.1828 -0.9411  0.6373
 4342SOL    HW224663   4.519   4.292   1.690 -0.5660  0.7734 -1.7974
 4343SOL     OW24664   2.356   3.990   4.215  0.2686 -0.4201 -0.5951
 4343SOL    HW124665   2.401   4.056   4.268  0.8117 -1.2101 -0.0737
 4343SOL    HW224666   2.285   4.036   4.169 -0.5452 -1.0949 -0.0275
 4344SOL     OW24667   3.119   1.784   3.370  0.0750 -0.3077  0.3493
 4344SOL    HW124668   3.159   1.698   3.384  1.2142 -0.1807 -2.1130
 4344SOL    HW224669   3.055   1.786   3.441  0.1621  1.1934  0.3860
 4345SOL     OW24670   2.303   2.003   9.317  0.4337  0.5635  0.3391
 4345SOL    HW124671   2.294   1.976   9.226 -2.4177 -0.5415  0.9532
 4345SOL    HW224672   2.236   2.071   9.326  0.1136  0.2920 -0.0139
 4346SOL     OW24673   2.958   0.765   5.881  0.0720  0.3075  0.0155
 4346SOL    HW124674   2.988   0.741   5.793 -0.7985 -0.8326  0.0321
 4346SOL    HW224675   2.873   0.807   5.865 -0.6456 -0.6979  1.2053
 4347SOL     OW24676   3.218   3.667   4.441 -0.4072  0.2396  0.3786
 4347SOL    HW124677   3.149   3.636   4.382 -0.2188  0.5270  0.0151
 4347SOL    HW224678   3.285   3.605   4.412  0.0165 -0.4060  2.7293
 4348SOL     OW24679   3.563   2.025   8.096  0.4179 -0.0187 -0.2731
 4348SOL    HW124680   3.637   1.997   8.149  0.4525 -1.6134 -1.1390
 4348SOL    HW224681   3.565   1.955   8.030 -1.4199  0.2406 -0.6158
 4349SOL     OW24682   0.687   3.372   3.736  0.7963 -0.5208  0.3707
 4349SOL    HW124683   0.648   3.344   3.654 -0.8771  0.0001  0.9785
 4349SOL    HW224684   0.758   3.420   3.694  0.1276 -1.6063 -1.9705
 4350SOL     OW24685   0.444   1.940   6.491  0.2227 -0.3479  0.2585
 4350SOL    HW124686   0.490   1.856   6.503 -0.0610 -0.2056  2.3192
 4350SOL    HW224687   0.416   1.955   6.581 -2.2785 -0.4789 -0.4918
 4351SOL     OW24688   0.442   0.851  14.138  0.6590  0.1237 -0.1548
 4351SOL    HW124689   0.498   0.834  14.213  1.4098  0.9847 -0.5216
 4351SOL    HW224690   0.388   0.924  14.169 -2.0715 -2.3219  0.8540
 4352SOL     OW24691   3.192   0.683  15.372 -0.9069  0.4309  0.1467
 4352SOL    HW124692   3.251   0.729  15.312 -0.1718  0.3430  0.8120
 4352SOL    HW224693   3.169   0.759  15.425  0.0884 -0.1986  1.4687
 4353SOL     OW24694   2.396   4.675   6.758 -0.0135 -0.3674  0.2970
 4353SOL    HW124695   2.306   4.642   6.770  0.5085 -1.9417 -0.0455
 4353SOL    HW224696   2.432   4.634   6.837 -0.3614 -0.3290  0.4753
 4354SOL     OW24697   0.807   2.128   6.605 -0.2808  0.2979  0.3427
 4354SOL    HW124698   0.782   2.058   6.544 -1.5691  1.4524 -0.4486
 4354SOL    HW224699   0.850   2.198   6.555 -1.3354 -0.1159 -1.1300
 4355SOL     OW24700   1.514   2.541   6.803 -0.2558  0.7625  0.6827
 4355SOL    HW124701   1.543   2.541   6.894 -0.8786  5.1223  0.8949
 4355SOL    HW224702   1.420   2.546   6.817 -0.6124  2.2711 -2.1053
 4356SOL     OW24703   0.117   1.334   3.468 -0.1253 -0.3847 -0.5524
 4356SOL    HW124704   0.130   1.286   3.549 -2.2203  0.8587  0.5343
 4356SOL    HW224705   0.205   1.326   3.431 -0.0162 -1.7706  0.0318
 4357SOL     OW24706   2.975   3.174   5.235  0.5219 -0.2399 -0.3705
 4357SOL    HW124707   3.069   3.186   5.246  0.6305 -1.4684  0.0499
 4357SOL    HW224708   2.954   3.267   5.227  0.5296 -0.3606 -1.8852
 4358SOL     OW24709   2.721   0.843   6.258  0.1328 -0.3599 -0.8438
 4358SOL    HW124710   2.721   0.938   6.269 -0.4138 -0.4803  0.2327
 4358SOL    HW224711   2.664   0.826   6.334  0.0694  1.1847 -0.5386
 4359SOL     OW24712   4.411   3.120  12.941 -0.3310  0.3023  0.0299
 4359SOL    HW124713   4.417   3.215  12.952 -1.9844  0.5177 -0.9578
 4359SOL    HW224714   4.336   3.124  12.881 -0.2813 -0.7978 -0.0915
 4360SOL     OW24715   2.308   4.158   1.843  0.5565 -0.1783  0.1930
 4360SOL    HW124716   2.346   4.135   1.928  1.7592  0.5635 -0.1587
 4360SOL    HW224717   2.274   4.071   1.821  0.0370 -0.0013  0.2917
 4361SOL     OW24718   3.972   3.340  12.919 -0.1831  0.4589 -0.0919
 4361SOL    HW124719   3.983   3.245  12.914  0.2568  0.4311  1.5786
 4361SOL    HW224720   3.886   3.342  12.959  0.1350  0.7440  0.5763
 4362SOL     OW24721   0.289   4.263   3.702  0.2472 -0.0301  0.1930
 4362SOL    HW124722   0.258   4.351   3.725  3.7327  1.8885 -2.3468
 4362SOL    HW224723   0.282   4.217   3.785  0.5578 -0.3471  0.0415
 4363SOL     OW24724   1.125   3.293   2.686  0.8381 -0.1791 -0.0679
 4363SOL    HW124725   1.100   3.278   2.595 -1.0285 -1.7102  0.6983
 4363SOL    HW224726   1.081   3.378   2.686 -0.0235 -0.6266 -1.0335
 4364SOL     OW24727   2.546   0.752   7.126  0.0441  0.4982  0.8903
 4364SOL    HW124728   2.547   0.830   7.070 -0.0152 -1.7453 -2.2560
 4364SOL    HW224729   2.482   0.778   7.192  1.1430  1.1147  1.7178
 4365SOL     OW24730   3.110   3.213  11.544 -0.2175  0.1910 -0.1649
 4365SOL    HW124731   3.140   3.276  11.479  0.0250  1.4341  1.1653
 4365SOL    HW224732   3.122   3.260  11.626 -2.9046 -0.4874  0.6484
 4366SOL     OW24733   3.477   1.382   6.920  0.3224  0.3450 -0.3349
 4366SOL    HW124734   3.474   1.477   6.913  1.2863  0.1806 -3.3180
 4366SOL    HW224735   3.556   1.366   6.868  0.3556 -2.8480  0.6669
 4367SOL     OW24736   4.239   3.571   7.093 -0.1488  0.3384 -0.2169
 4367SOL    HW124737   4.174   3.626   7.137 -1.0969 -1.9107  1.2147
 4367SOL    HW224738   4.177   3.521   7.040 -1.8778  0.6065  1.5524
 4368SOL     OW24739   2.285   0.920   3.178 -0.5947  0.2845 -0.0315
 4368SOL    HW124740   2.239   0.873   3.108 -1.3686  1.9967 -0.6837
 4368SOL    HW224741   2.377   0.896   3.166 -0.8059 -0.2015 -0.7275
 4369SOL     OW24742   0.508   4.095   3.207  0.1792  0.4246 -0.2974
 4369SOL    HW124743   0.515   4.009   3.247 -0.4820  0.1518 -0.7610
 4369SOL    HW224744   0.430   4.083   3.153  2.1722  1.7823 -3.5040
 4370SOL     OW24745   0.285   3.500  17.128 -0.5122 -0.2377 -0.1724
 4370SOL    HW124746   0.245   3.581  17.094  1.4688  0.5817 -0.5206
 4370SOL    HW224747   0.287   3.448  17.048  0.5496 -0.1879 -0.1733
 4371SOL     OW24748   0.917   2.916   3.833  0.2780 -0.2287 -0.2670
 4371SOL    HW124749   0.859   2.946   3.903  0.1530 -0.2477 -0.3627
 4371SOL    HW224750   0.913   2.992   3.774  0.6215 -1.3376 -1.7161
 4372SOL     OW24751   3.974   4.199  15.406 -0.0330 -0.0515  0.1936
 4372SOL    HW124752   4.065   4.186  15.382 -0.3205 -1.2608 -0.2548
 4372SOL    HW224753   3.931   4.174  15.324 -0.7658 -1.4733  0.9895
 4373SOL     OW24754   2.807   4.250   3.474  0.2143  0.2428 -0.6000
 4373SOL    HW124755   2.828   4.340   3.499 -0.2613  0.1325  0.1611
 4373SOL    HW224756   2.736   4.258   3.411  0.7660  3.3188 -0.8257
 4374SOL     OW24757   2.302   3.505   1.344  0.0220  0.6573 -0.0794
 4374SOL    HW124758   2.362   3.439   1.380  1.1365  0.3084 -2.5951
 4374SOL    HW224759   2.299   3.564   1.419 -1.6513  1.6426 -0.9303
 4375SOL     OW24760   3.951   3.648   0.042 -0.4303  0.4166 -0.2250
 4375SOL    HW124761   3.873   3.677  17.760  0.3783  1.4959 -0.9176
 4375SOL    HW224762   4.003   3.622  17.730  1.6335 -0.4895  1.4716
 4376SOL     OW24763   2.505   3.941   6.101  0.0221 -0.0725 -0.5542
 4376SOL    HW124764   2.415   3.971   6.090 -0.4330 -1.5040 -0.6973
 4376SOL    HW224765   2.529   3.917   6.011 -1.1976  1.0787 -1.1913
 4377SOL     OW24766   4.104   4.615  11.427  0.1089 -0.2750  0.2718
 4377SOL    HW124767   4.091   4.674  11.352 -0.8234 -0.1576  0.5299
 4377SOL    HW224768   4.187   4.650  11.458 -0.7817  1.0668  1.1505
 4378SOL     OW24769   3.210   0.638   5.715 -0.6857 -0.0433 -0.0501
 4378SOL    HW124770   3.272   0.603   5.778  0.6929  1.8095 -0.3928
 4378SOL    HW224771   3.237   0.606   5.628 -0.6910 -2.1921  0.7352
 4379SOL     OW24772   3.196   4.172  11.735 -0.4008 -0.0593 -0.3829
 4379SOL    HW124773   3.173   4.201  11.647 -1.2322  1.2969  0.2939
 4379SOL    HW224774   3.132   4.220  11.787  0.8431 -0.8289  1.8741
 4380SOL     OW24775   1.503   0.161   5.781 -0.7169  0.0819  0.2952
 4380SOL    HW124776   1.453   0.089   5.743 -0.2917 -0.1744  0.2211
 4380SOL    HW224777   1.511   0.139   5.874 -0.3123 -2.5933 -0.3607
 4381SOL     OW24778   4.100   1.026   6.789  0.3439 -0.0047 -0.1315
 4381SOL    HW124779   4.194   1.014   6.800  0.1802 -1.0275  0.2195
 4381SOL    HW224780   4.051   0.955   6.831 -1.8233  0.9785 -1.0039
 4382SOL     OW24781   0.195   3.617   1.689  0.5001  0.5056 -0.3662
 4382SOL    HW124782   0.141   3.576   1.757  0.2776  2.2705  0.5356
 4382SOL    HW224783   0.213   3.701   1.731 -1.6892  0.0170  1.5439
 4383SOL     OW24784   0.329   3.794   3.484 -0.5367  0.0643  0.0083
 4383SOL    HW124785   0.329   3.819   3.576  2.2292 -1.0073  0.2890
 4383SOL    HW224786   0.266   3.855   3.445 -0.0532 -0.1426 -1.0990
 4384SOL     OW24787   3.543   2.544   3.914  0.3928  0.2161  0.0396
 4384SOL    HW124788   3.516   2.558   3.823 -0.3494  0.4782  0.2944
 4384SOL    HW224789   3.557   2.634   3.946 -0.1527  0.3018  0.0417
 4385SOL     OW24790   3.267   3.663  15.282  0.3265  0.2109 -0.4614
 4385SOL    HW124791   3.350   3.637  15.241  0.7090  1.5146 -0.5254
 4385SOL    HW224792   3.211   3.636  15.208  1.0911 -2.1727 -0.1453
 4386SOL     OW24793   4.126   1.895   5.947  0.1006  0.2508 -0.0194
 4386SOL    HW124794   4.152   1.972   5.998  1.5963  1.1494 -2.1170
 4386SOL    HW224795   4.163   1.919   5.862 -1.2035  1.0041 -0.3797
 4387SOL     OW24796   4.359   4.667   7.730 -0.3074  0.3704  0.5945
 4387SOL    HW124797   4.265   4.663   7.751 -0.3136  0.2933  0.5495
 4387SOL    HW224798   4.393   4.578   7.723 -0.5976  0.1800  1.4964
 4388SOL     OW24799   1.439   0.941  15.577  0.3315  0.0965  0.1300
 4388SOL    HW124800   1.368   0.939  15.641  0.0918  1.1959 -0.0978
 4388SOL    HW224801   1.498   0.869  15.601 -2.1546 -1.8903  0.1923
 4389SOL     OW24802   4.259   3.360  12.960  0.2006  0.3614 -0.2694
 4389SOL    HW124803   4.268   3.367  13.055  0.8141 -1.8059 -0.1619
 4389SOL    HW224804   4.165   3.367  12.940 -0.5012 -1.2468  2.3887
 4390SOL     OW24805   2.165   1.775   2.223  0.2458  0.2473 -0.0097
 4390SOL    HW124806   2.203   1.691   2.199 -0.1575 -0.3115  1.2867
 4390SOL    HW224807   2.208   1.789   2.307  0.5340 -0.7268  0.0012
 4391SOL     OW24808   1.904   2.984   9.385  0.2137 -0.4048  0.1699
 4391SOL    HW124809   1.849   2.924   9.334 -0.2416 -0.2859  0.5258
 4391SOL    HW224810   1.971   2.922   9.415 -0.0540 -0.9451 -0.3374
 4392SOL     OW24811   1.232   2.502   5.162  0.3277 -0.4254  0.2320
 4392SOL    HW124812   1.223   2.413   5.197 -0.4652  0.6311  2.7815
 4392SOL    HW224813   1.316   2.530   5.199  0.4923  0.7566 -1.0272
 4393SOL     OW24814   1.602   1.352   7.686  0.4731 -0.1328 -0.5714
 4393SOL    HW124815   1.517   1.325   7.651  0.1867 -0.4319  0.3575
 4393SOL    HW224816   1.660   1.335   7.612  1.0194  2.0742 -0.6453
 4394SOL     OW24817   2.839   1.456  12.802 -0.2747 -0.1077 -0.4356
 4394SOL    HW124818   2.857   1.420  12.889  1.4418  2.4247  0.2237
 4394SOL    HW224819   2.764   1.509  12.829  0.0029  0.5142 -0.9077
 4395SOL     OW24820   4.409   0.236   8.186  0.1059 -0.0356 -0.4615
 4395SOL    HW124821   4.436   0.328   8.193 -1.2753  0.4609 -1.5837
 4395SOL    HW224822   4.426   0.228   8.092  0.0360 -0.5151 -0.4287
 4396SOL     OW24823   2.673   1.388  14.946 -0.2395 -0.6277  0.1057
 4396SOL    HW124824   2.719   1.410  15.028 -0.4395  1.0413 -0.2248
 4396SOL    HW224825   2.739   1.343  14.893  1.1612 -1.1793  2.2977
 4397SOL     OW24826   4.642   2.917   9.011 -0.1491 -0.2585  0.6242
 4397SOL    HW124827   4.608   2.918   9.101  1.4302 -2.4827  1.2514
 4397SOL    HW224828   4.560   2.904   8.963 -1.6067  0.3507  2.9306
 4398SOL     OW24829   1.485   4.523   0.644 -0.4578 -0.4475  0.3679
 4398SOL    HW124830   1.472   4.492   0.554  2.8390  0.2499 -0.3806
 4398SOL    HW224831   1.502   4.615   0.623 -1.0533  0.0450  2.0527
 4399SOL     OW24832   1.495   1.590   5.995  0.2062 -0.2008  0.3063
 4399SOL    HW124833   1.442   1.664   5.965 -0.6822 -1.2804 -0.7680
 4399SOL    HW224834   1.565   1.593   5.929  0.3645  0.3045  0.4933
 4400SOL     OW24835   0.802   1.082   4.116  0.1119  0.2395  0.0134
 4400SOL    HW124836   0.887   1.038   4.122 -0.3533 -1.0665 -2.6278
 4400SOL    HW224837   0.751   1.018   4.165  0.3972  0.5616  0.7217
 4401SOL     OW24838   0.650   1.461   3.419  0.2378  0.6313  0.2348
 4401SOL    HW124839   0.569   1.511   3.406  1.2941  2.0094 -0.9636
 4401SOL    HW224840   0.635   1.416   3.502  0.0289  0.2123 -0.0272
 4402SOL     OW24841   3.364   0.907   3.464  0.0839 -0.1362  0.8435
 4402SOL    HW124842   3.342   0.829   3.413 -0.8214 -0.5761  1.9158
 4402SOL    HW224843   3.388   0.878   3.552 -1.2335  1.2407  1.6668
 4403SOL     OW24844   1.599   3.390   7.810  0.6459  0.0427 -0.4099
 4403SOL    HW124845   1.581   3.317   7.752 -1.1465  0.8506 -0.8824
 4403SOL    HW224846   1.527   3.374   7.872  1.6081 -0.6541  0.5146
 4404SOL     OW24847   2.433   3.448  15.579  0.2040  0.2380 -1.0581
 4404SOL    HW124848   2.497   3.491  15.523  0.4591  1.8860  0.5202
 4404SOL    HW224849   2.432   3.497  15.661 -0.6524 -0.6894 -0.5034
 4405SOL     OW24850   1.605   1.123   6.469  0.4313 -0.3528  0.2180
 4405SOL    HW124851   1.701   1.121   6.461  0.5816 -0.4334  2.1771
 4405SOL    HW224852   1.600   1.085   6.557 -1.6868 -0.3995  0.0836
 4406SOL     OW24853   1.814   0.989   9.374 -0.8443  0.5072 -0.2167
 4406SOL    HW124854   1.810   1.048   9.449 -0.7169 -2.5307  2.1438
 4406SOL    HW224855   1.908   0.971   9.382 -1.3947 -2.0676  0.2248
 4407SOL     OW24856   0.687   3.455   7.347 -0.2103  0.2828 -0.0836
 4407SOL    HW124857   0.599   3.484   7.321 -0.2886  0.5186  0.4498
 4407SOL    HW224858   0.724   3.429   7.262 -0.0978  2.5158 -0.7248
 4408SOL     OW24859   4.516   3.708  14.298 -0.5031 -0.3091 -0.2333
 4408SOL    HW124860   4.580   3.750  14.354  0.5180 -0.0128 -1.6326
 4408SOL    HW224861   4.518   3.616  14.325  0.8257 -0.3239 -0.4006
 4409SOL     OW24862   3.659   0.370   9.422 -0.7589 -0.0158  0.1259
 4409SOL    HW124863   3.700   0.446   9.381 -0.5284 -0.9660 -1.3920
 4409SOL    HW224864   3.572   0.409   9.431 -0.3896  0.8563 -0.0360
 4410SOL     OW24865   2.325   0.924   0.890 -0.3957  0.8156 -0.4200
 4410SOL    HW124866   2.264   0.933   0.817 -0.2640  0.6104 -0.5535
 4410SOL    HW224867   2.405   0.899   0.844 -0.9904 -0.7032 -0.6170
 4411SOL     OW24868   1.031   3.588  14.265 -0.4366  0.1392 -0.2426
 4411SOL    HW124869   0.971   3.582  14.340 -0.7770  0.1528 -0.5133
 4411SOL    HW224870   0.981   3.661  14.229 -0.4974 -0.4843 -1.4300
 4412SOL     OW24871   0.545   4.687   4.029 -0.1727  0.3017 -0.3133
 4412SOL    HW124872   0.491   4.677   4.108  0.0958  0.3837 -0.1195
 4412SOL    HW224873   0.590   4.603   4.040 -1.3263 -0.1825  0.8509
 4413SOL     OW24874   0.094   3.862   2.986 -0.3251 -0.1868 -0.3370
 4413SOL    HW124875   0.056   3.872   3.074  0.7398  2.0986 -0.1375
 4413SOL    HW224876   0.062   3.931   2.929  1.6934 -0.0280 -1.2641
 4414SOL     OW24877   3.023   4.207   5.907  0.0746  0.5761 -0.6255
 4414SOL    HW124878   3.109   4.167   5.921 -1.0517 -1.5972  0.2001
 4414SOL    HW224879   2.985   4.169   5.827  1.1889 -1.3744 -0.2344
 4415SOL     OW24880   1.262   3.761   8.502  0.0605 -0.5934  0.2468
 4415SOL    HW124881   1.267   3.835   8.563  1.0352 -0.9354  0.5840
 4415SOL    HW224882   1.313   3.694   8.548  0.8172  0.3857  0.8265
 4416SOL     OW24883   2.535   3.084   2.152 -0.2663  0.0235 -0.0798
 4416SOL    HW124884   2.486   3.162   2.127  2.1051  1.5227 -0.0404
 4416SOL    HW224885   2.460   3.036   2.189 -0.2100  1.1606  1.5313
 4417SOL     OW24886   0.135   1.050  13.236 -0.2557 -0.7203 -0.1176
 4417SOL    HW124887   0.184   1.121  13.194  3.6436 -2.7354  0.9843
 4417SOL    HW224888   0.121   1.090  13.322 -2.3630 -0.5994 -0.5340
 4418SOL     OW24889   4.473   2.612   0.326 -0.0495 -0.5650  0.2794
 4418SOL    HW124890   4.556   2.640   0.366 -1.6854  2.6325  1.4796
 4418SOL    HW224891   4.505   2.533   0.283 -2.0026 -2.3087  2.0219
 4419SOL     OW24892   4.596   3.494  15.624 -0.5056  0.0689  0.4232
 4419SOL    HW124893   4.592   3.513  15.717 -2.4213 -0.8862  0.5331
 4419SOL    HW224894   4.662   3.425  15.631 -1.2409 -0.7616 -0.8871
 4420SOL     OW24895   1.989   4.270   6.273  0.0272  0.4076  0.3223
 4420SOL    HW124896   1.954   4.302   6.356  0.2966 -0.0694  0.6187
 4420SOL    HW224897   1.916   4.289   6.214 -0.2931  1.8419  1.1814
 4421SOL     OW24898   1.087   1.956   9.360  0.3212 -0.1390  0.7007
 4421SOL    HW124899   1.108   2.003   9.440 -1.4336  0.3762  0.8727
 4421SOL    HW224900   1.020   2.012   9.320 -1.4189 -2.4787  0.3687
 4422SOL     OW24901   3.270   2.601   4.947 -0.8114 -0.2884  0.1776
 4422SOL    HW124902   3.281   2.598   5.042  0.3889  1.4838  0.0878
 4422SOL    HW224903   3.317   2.524   4.916  0.4297  0.6350 -0.2106
 4423SOL     OW24904   4.593   1.323  11.161  0.2216  0.1609  0.4104
 4423SOL    HW124905   4.662   1.336  11.096  1.6150 -0.3451  1.8007
 4423SOL    HW224906   4.641   1.284  11.235  0.3953 -0.6719 -0.1389
 4424SOL     OW24907   4.320   2.087   7.238 -0.2770  0.5889 -0.6209
 4424SOL    HW124908   4.292   2.178   7.235 -1.4913  0.2099 -0.6414
 4424SOL    HW224909   4.262   2.050   7.305 -0.1428  0.2112 -0.7135
 4425SOL     OW24910   2.619   2.299  10.733  0.3215  0.0938  0.5534
 4425SOL    HW124911   2.671   2.355  10.675  0.5566 -1.4462 -0.7306
 4425SOL    HW224912   2.540   2.352  10.744 -1.6778 -2.5937 -0.7394
 4426SOL     OW24913   0.717   0.627  14.002  0.0423  0.0097  0.6547
 4426SOL    HW124914   0.801   0.638  13.957 -1.1301 -0.9479 -1.7897
 4426SOL    HW224915   0.665   0.653  13.926  1.8286  1.5393 -0.0484
 4427SOL     OW24916   2.349   4.369   7.261  0.2344 -0.5257 -0.2149
 4427SOL    HW124917   2.415   4.437   7.267  1.4754 -1.7859  0.4285
 4427SOL    HW224918   2.266   4.417   7.260  0.7580  0.4242  1.8345
 4428SOL     OW24919   2.961   0.434   3.059 -0.0468 -0.3477 -0.0129
 4428SOL    HW124920   2.874   0.468   3.076  0.1423  0.4983 -0.7749
 4428SOL    HW224921   2.957   0.348   3.102 -3.4827 -0.3717 -0.3812
 4429SOL     OW24922   3.633   0.786   4.083 -0.1429 -0.7392  0.0959
 4429SOL    HW124923   3.646   0.783   4.178  1.5687 -0.1125 -0.1230
 4429SOL    HW224924   3.543   0.818   4.087 -0.3060 -1.2658  0.5970
 4430SOL     OW24925   4.128   2.356   8.102  0.0776 -0.5144  0.5433
 4430SOL    HW124926   4.046   2.402   8.121 -0.7472 -1.7575  0.0655
 4430SOL    HW224927   4.150   2.377   8.011 -1.1438  0.8458  0.5700
 4431SOL     OW24928   0.889   4.333   3.056 -0.5653 -0.1808 -0.3566
 4431SOL    HW124929   0.888   4.267   2.987 -3.2739  2.1906 -2.6174
 4431SOL    HW224930   0.956   4.396   3.031  0.5961 -1.5172 -0.6212
 4432SOL     OW24931   1.247   2.995  16.416 -0.3258 -0.3185  0.3317
 4432SOL    HW124932   1.270   2.986  16.324 -0.0998  1.1684  0.2389
 4432SOL    HW224933   1.314   3.061  16.434 -1.8247  1.6496 -1.2593
 4433SOL     OW24934   4.277   0.570   6.754  0.6508  0.2955 -0.3925
 4433SOL    HW124935   4.364   0.606   6.772  0.5610  0.0671  0.4991
 4433SOL    HW224936   4.264   0.526   6.838  2.7402 -1.8902 -1.2059
 4434SOL     OW24937   3.655   4.554   4.973  0.0551 -0.1080  0.1919
 4434SOL    HW124938   3.605   4.541   5.053  2.4817 -1.1262  1.5539
 4434SOL    HW224939   3.612   4.634   4.944  0.5289 -0.1942 -0.7644
 4435SOL     OW24940   2.651   3.869   9.654  0.0445 -0.2546  0.6655
 4435SOL    HW124941   2.561   3.884   9.625  0.9233  2.1934 -0.8411
 4435SOL    HW224942   2.681   3.953   9.689 -1.8427  1.3862 -1.6195
 4436SOL     OW24943   2.467   2.242  14.775  0.4471  0.2093  1.0458
 4436SOL    HW124944   2.424   2.294  14.843  1.5967  2.2671  0.2019
 4436SOL    HW224945   2.509   2.178  14.833 -1.9183 -0.3320  2.1693
 4437SOL     OW24946   0.339   3.787   3.056  0.3905  0.0023  0.2773
 4437SOL    HW124947   0.387   3.795   2.973  2.8734  0.3618  1.7591
 4437SOL    HW224948   0.248   3.805   3.032 -0.1774 -2.3326  0.6797
 4438SOL     OW24949   1.283   0.514   2.255 -0.3532 -0.2952 -0.1033
 4438SOL    HW124950   1.330   0.569   2.192  0.2629 -1.9720 -1.1048
 4438SOL    HW224951   1.241   0.456   2.191 -0.9997  1.0787 -0.9157
 4439SOL     OW24952   2.453   1.252   4.097  0.0725 -0.5533 -0.4007
 4439SOL    HW124953   2.538   1.275   4.059  0.7171 -1.2511  0.6249
 4439SOL    HW224954   2.468   1.196   4.173  2.1461  0.5242 -0.0044
 4440SOL     OW24955   0.329   1.397   5.414 -0.4172  0.4042  0.1136
 4440SOL    HW124956   0.304   1.432   5.329  2.8415 -0.9290 -1.3828
 4440SOL    HW224957   0.396   1.334   5.389 -0.1531  1.0312 -0.7655
 4441SOL     OW24958   3.707   0.621   2.604 -0.0674 -0.1589 -0.3290
 4441SOL    HW124959   3.615   0.598   2.612  0.0834 -1.1496 -1.4992
 4441SOL    HW224960   3.720   0.657   2.517  0.1166  3.5199  1.1890
 4442SOL     OW24961   3.955   3.502   9.010 -0.1292  0.7083 -0.1015
 4442SOL    HW124962   3.960   3.571   8.944 -0.9499  0.5909 -0.2967
 4442SOL    HW224963   3.990   3.426   8.963  0.1479 -0.0411  1.3093
 4443SOL     OW24964   3.944   4.426   6.049 -0.4049 -0.1596  0.0080
 4443SOL    HW124965   4.022   4.379   6.018  0.2545  1.4897 -0.8315
 4443SOL    HW224966   3.990   4.476   6.116  0.0422 -0.2768 -0.2110
 4444SOL     OW24967   3.139   2.285   8.827 -0.2301  0.0908  0.5010
 4444SOL    HW124968   3.050   2.252   8.810 -0.7341  1.7766 -0.0906
 4444SOL    HW224969   3.151   2.243   8.912 -1.4007  1.6627  1.4393
 4445SOL     OW24970   0.199   1.357   8.061  0.5621  0.2965 -0.1198
 4445SOL    HW124971   0.149   1.434   8.033  0.3711 -0.4014 -1.7205
 4445SOL    HW224972   0.141   1.291   8.100 -1.1418  1.5853 -0.4724
 4446SOL     OW24973   2.556   4.311  12.513  0.5317 -0.1182  0.2407
 4446SOL    HW124974   2.562   4.406  12.508  0.2881 -0.0390  1.4610
 4446SOL    HW224975   2.540   4.287  12.422  0.1857 -1.1130  0.5546
 4447SOL     OW24976   4.278   0.611   9.197  0.3979  0.1289  0.9403
 4447SOL    HW124977   4.356   0.662   9.217  0.3753  0.9932 -1.1986
 4447SOL    HW224978   4.279   0.598   9.102  1.7722  0.1806  0.9487
 4448SOL     OW24979   1.165   1.727   3.352 -0.2387  0.1869 -0.1982
 4448SOL    HW124980   1.203   1.639   3.345  0.9825  0.8201 -1.5556
 4448SOL    HW224981   1.094   1.707   3.413 -0.4272 -3.1866 -1.4976
 4449SOL     OW24982   4.585   1.764   3.888 -0.2552 -0.0431 -0.1044
 4449SOL    HW124983   4.512   1.821   3.913  1.0315  1.8454 -0.6709
 4449SOL    HW224984   4.567   1.754   3.795  3.2700  2.8783 -1.0749
 4450SOL     OW24985   1.493   2.031   6.650 -0.0469 -0.1148 -0.1633
 4450SOL    HW124986   1.454   1.944   6.655 -2.3323  0.8741 -0.7641
 4450SOL    HW224987   1.533   2.026   6.737  0.0572 -0.4558 -0.2316
 4451SOL     OW24988   3.309   0.658   3.004 -0.1543  0.0217  0.2230
 4451SOL    HW124989   3.320   0.563   3.004 -2.9767 -0.3058  0.9041
 4451SOL    HW224990   3.333   0.695   3.090 -1.8059  0.2279  0.5841
 4452SOL     OW24991   0.947   3.932   2.725  0.1192 -0.1330  0.6424
 4452SOL    HW124992   0.932   3.896   2.813 -0.2364 -0.4908  0.4328
 4452SOL    HW224993   0.876   3.893   2.674  1.9324 -2.7251  0.1065
 4453SOL     OW24994   1.197   4.030   4.984  0.4221  0.0320  0.3368
 4453SOL    HW124995   1.147   4.040   5.065  0.2289  2.3056 -0.0439
 4453SOL    HW224996   1.173   4.109   4.936 -0.2706 -1.0473 -1.0979
 4454SOL     OW24997   2.192   3.431   8.160 -0.2436 -0.1783  0.7925
 4454SOL    HW124998   2.230   3.513   8.191 -0.3705 -0.3148  1.3087
 4454SOL    HW224999   2.252   3.368   8.200 -0.1673  0.2863  1.4216
 4455SOL     OW25000   1.023   1.607   2.439  0.2686  0.1173  0.4422
 4455SOL    HW125001   1.006   1.517   2.468 -0.4851  0.8246  2.2209
 4455SOL    HW225002   0.937   1.649   2.435  0.5655  0.6481 -0.2503
 4456SOL     OW25003   3.213   2.766  14.171  0.0729  0.2770 -0.1772
 4456SOL    HW125004   3.139   2.800  14.120  1.8155  1.2246 -2.0644
 4456SOL    HW225005   3.203   2.682  14.128 -1.1776 -0.4027  1.4069
 4457SOL     OW25006   2.092   1.980   7.838  0.1385  0.2850  0.4625
 4457SOL    HW125007   2.013   1.939   7.870 -1.3491  1.6848 -1.4184
 4457SOL    HW225008   2.084   1.959   7.745 -1.0159 -0.6509  0.7750
 4458SOL     OW25009   2.539   2.143   3.126 -0.0047 -0.2158  0.3230
 4458SOL    HW125010   2.464   2.087   3.106  1.8128 -2.0848 -1.3454
 4458SOL    HW225011   2.502   2.226   3.096  0.3339  0.2557  1.2305
 4459SOL     OW25012   2.139   0.529  17.688 -0.1194  0.0883 -0.0121
 4459SOL    HW125013   2.170   0.607  17.642 -0.2424 -0.6069 -1.2412
 4459SOL    HW225014   2.203   0.526  17.759 -0.3289 -0.7000  0.1439
 4460SOL     OW25015   0.194   4.076   9.575  0.4396  0.1148  0.4687
 4460SOL    HW125016   0.134   4.076   9.501  0.5299 -1.6885  0.3919
 4460SOL    HW225017   0.221   4.168   9.580 -1.8281  0.7217  1.3921
 4461SOL     OW25018   3.103   1.744   1.616  0.3974 -0.2024 -0.1060
 4461SOL    HW125019   3.185   1.794   1.622 -0.2561  0.8656  0.1009
 4461SOL    HW225020   3.055   1.797   1.681  2.0153  0.8816  0.2034
 4462SOL     OW25021   3.000   2.676   3.096 -0.8893  0.0257 -0.0048
 4462SOL    HW125022   3.076   2.657   3.151 -1.8788  0.7175  1.6218
 4462SOL    HW225023   3.019   2.617   3.023  0.5432 -0.9798  1.1682
 4463SOL     OW25024   4.330   4.630   5.432  0.2660  0.2917 -0.3420
 4463SOL    HW125025   4.394   4.561   5.415 -1.3008 -1.2574  0.0585
 4463SOL    HW225026   4.243   4.591   5.437 -1.0952  3.3078 -0.5576
 4464SOL     OW25027   4.668   1.893  12.987  0.1183  0.3449  0.4409
 4464SOL    HW125028   4.678   1.931  13.075 -1.0981 -2.5889  1.8495
 4464SOL    HW225029   4.674   1.975  12.939  0.3215  0.6286  0.9435
 4465SOL     OW25030   3.642   3.491   2.642 -0.4387  0.3056  0.1481
 4465SOL    HW125031   3.697   3.557   2.599  1.0939 -2.4144 -2.0061
 4465SOL    HW225032   3.564   3.542   2.664  1.2245  2.4054  1.2422
 4466SOL     OW25033   3.655   0.125   5.912 -0.2674  0.4319  0.7132
 4466SOL    HW125034   3.668   0.036   5.945  0.9247 -0.1387 -1.3015
 4466SOL    HW225035   3.741   0.148   5.876 -1.3574  0.2783 -1.9515
 4467SOL     OW25036   3.439   0.646  10.522 -0.2804 -0.2489  0.3357
 4467SOL    HW125037   3.491   0.685  10.592 -0.2096 -2.6161  1.5965
 4467SOL    HW225038   3.373   0.603  10.578 -1.3537  0.0074 -0.7185
 4468SOL     OW25039   0.276   0.383   4.523 -0.5917  0.1578 -0.4336
 4468SOL    HW125040   0.272   0.342   4.609 -0.6524 -0.1111 -0.5658
 4468SOL    HW225041   0.232   0.315   4.473 -1.0388  0.0229  0.1421
 4469SOL     OW25042   1.438   4.382  13.767 -0.7245 -0.3094 -0.0910
 4469SOL    HW125043   1.390   4.326  13.705 -1.5729  1.4669 -1.0263
 4469SOL    HW225044   1.492   4.439  13.713 -3.1725  1.6132 -0.5516
 4470SOL     OW25045   2.559   3.730   3.523 -0.0926 -0.1692  0.0403
 4470SOL    HW125046   2.633   3.789   3.535  1.3936 -1.6172 -1.9732
 4470SOL    HW225047   2.607   3.648   3.509  2.1536  1.3612 -1.2249
 4471SOL     OW25048   1.622   4.371   9.616  0.1491 -0.6776  0.1270
 4471SOL    HW125049   1.563   4.409   9.551  0.3559  0.2197  0.4506
 4471SOL    HW225050   1.646   4.449   9.667 -0.9788 -1.7138  2.2617
 4472SOL     OW25051   3.248   2.322   3.725  0.0699  0.2114 -0.2135
 4472SOL    HW125052   3.305   2.394   3.700 -0.3696  0.1699 -1.3411
 4472SOL    HW225053   3.281   2.256   3.663 -0.2868  0.7480 -0.9748
 4473SOL     OW25054   3.736   3.142   6.158  0.3631 -0.0590  0.3168
 4473SOL    HW125055   3.762   3.178   6.242  0.9215  0.2284  0.0201
 4473SOL    HW225056   3.655   3.193   6.147  0.0069 -0.9767 -1.4417
 4474SOL     OW25057   0.392   4.366   6.070  0.3677 -0.3604  0.1336
 4474SOL    HW125058   0.395   4.344   5.977 -0.9746 -2.0156  0.4864
 4474SOL    HW225059   0.299   4.361   6.093 -0.6410  0.4418 -3.8094
 4475SOL     OW25060   3.847   3.792  17.141  0.4881 -0.3278  0.2905
 4475SOL    HW125061   3.849   3.882  17.176  1.1591 -0.3727  0.3636
 4475SOL    HW225062   3.820   3.807  17.051  1.2104  0.6813  0.2271
 4476SOL     OW25063   4.507   1.493  15.450  0.3660 -0.0379 -0.4827
 4476SOL    HW125064   4.428   1.446  15.476 -0.8140  1.6620 -1.0147
 4476SOL    HW225065   4.578   1.444  15.492  1.2742 -0.6088 -2.6599
 4477SOL     OW25066   1.567   4.316   5.812 -0.0299  0.6011  0.7379
 4477SOL    HW125067   1.572   4.222   5.794  2.2936  1.3977 -2.7472
 4477SOL    HW225068   1.542   4.321   5.904  0.0424 -2.6916  0.9270
 4478SOL     OW25069   1.054   3.297   8.914  0.2199 -0.1778  0.2327
 4478SOL    HW125070   1.149   3.286   8.909  0.2033 -0.0056 -0.5192
 4478SOL    HW225071   1.046   3.392   8.910  2.4210  0.0956  2.7143
 4479SOL     OW25072   1.034   0.951   4.066 -0.7336 -0.0770  0.5280
 4479SOL    HW125073   1.043   0.936   3.972  2.4870  1.8698  0.5238
 4479SOL    HW225074   1.116   0.905   4.086 -0.6768  0.0781  0.6493
 4480SOL     OW25075   1.993   1.715   5.031  0.1882 -0.2794 -0.5834
 4480SOL    HW125076   2.067   1.710   4.971  1.3816 -1.3431  0.9786
 4480SOL    HW225077   1.947   1.633   5.015  2.0459 -0.7436 -3.5278
 4481SOL     OW25078   4.048   1.846   4.903  0.0015  0.4184  0.4095
 4481SOL    HW125079   3.994   1.868   4.827  1.2439  3.2267  0.3532
 4481SOL    HW225080   4.105   1.775   4.873  0.1408  1.6315 -2.1907
 4482SOL     OW25081   4.052   3.249   1.861 -0.3292 -0.2663 -0.7374
 4482SOL    HW125082   3.974   3.293   1.894  0.7111  0.4274  0.7734
 4482SOL    HW225083   4.114   3.254   1.934 -0.9053  0.4558 -0.2913
 4483SOL     OW25084   2.700   4.305   7.019 -0.5847 -0.0920 -0.2369
 4483SOL    HW125085   2.623   4.276   7.068 -0.1316  2.3886  1.9703
 4483SOL    HW225086   2.743   4.222   7.000 -0.3136 -0.1570  0.6648
 4484SOL     OW25087   3.683   3.825   9.287 -0.8428  0.3225 -0.4699
 4484SOL    HW125088   3.594   3.857   9.298 -1.6653 -1.1620 -2.9509
 4484SOL    HW225089   3.702   3.792   9.375 -0.6027 -1.7168 -1.2790
 4485SOL     OW25090   4.546   0.562   1.071  0.9948  0.6967  0.3480
 4485SOL    HW125091   4.591   0.481   1.049 -0.0146  0.0985  0.4585
 4485SOL    HW225092   4.579   0.621   1.003 -0.1205  0.5712 -0.3163
 4486SOL     OW25093   4.199   2.694   7.459 -0.3862  0.2501 -0.5570
 4486SOL    HW125094   4.190   2.697   7.363 -0.9352 -2.4480 -0.5674
 4486SOL    HW225095   4.111   2.694   7.495  0.3369  3.6274  1.2070
 4487SOL     OW25096   4.012   3.758   3.066  0.0654  0.1121  0.3427
 4487SOL    HW125097   4.062   3.817   3.009 -1.2124  1.3734  0.5168
 4487SOL    HW225098   3.991   3.814   3.142 -1.6035 -0.7721  0.5326
 4488SOL     OW25099   4.273   2.507   5.474 -0.9773 -0.0216  0.3386
 4488SOL    HW125100   4.182   2.531   5.459 -1.4063 -1.1602  1.0962
 4488SOL    HW225101   4.309   2.587   5.511 -0.6711 -0.8077  1.7661
 4489SOL     OW25102   2.620   3.710   8.621  0.1206  0.1850 -0.1938
 4489SOL    HW125103   2.666   3.764   8.556  2.7494  0.0365  1.5520
 4489SOL    HW225104   2.538   3.760   8.624  1.4715  2.4227 -0.3966
 4490SOL     OW25105   0.975   3.277  17.267 -0.4441  0.3088  0.1172
 4490SOL    HW125106   1.024   3.210  17.220 -0.2983  1.0830 -0.8330
 4490SOL    HW225107   0.888   3.237  17.262 -0.5907  0.6334  0.1077
 4491SOL     OW25108   2.592   1.665   4.275 -0.2995 -0.5873 -0.2411
 4491SOL    HW125109   2.499   1.655   4.256 -0.3077  0.7306 -0.9050
 4491SOL    HW225110   2.602   1.730   4.344 -1.8190  1.0637 -1.5839
 4492SOL     OW25111   1.307   3.546   8.664 -0.2577 -0.1616  0.4862
 4492SOL    HW125112   1.394   3.518   8.693 -0.6506 -0.3382  1.4815
 4492SOL    HW225113   1.254   3.524   8.741 -1.8981 -0.8533 -0.8547
 4493SOL     OW25114   2.415   0.459   6.910  0.8407  0.5708 -0.1702
 4493SOL    HW125115   2.400   0.439   7.002 -0.4010 -2.1296 -0.9904
 4493SOL    HW225116   2.427   0.554   6.907 -2.8964  1.0082 -0.3519
 4494SOL     OW25117   2.527   3.624  14.705 -0.3618 -0.1548 -0.4913
 4494SOL    HW125118   2.560   3.682  14.773 -0.2308 -0.8616  0.0579
 4494SOL    HW225119   2.435   3.631  14.728 -0.4015  0.6495 -0.9046
 4495SOL     OW25120   0.863   2.626   2.577 -0.3060 -0.2935  0.3883
 4495SOL    HW125121   0.779   2.655   2.612 -0.4758 -1.1596  0.7118
 4495SOL    HW225122   0.916   2.600   2.653  0.6304  1.5994  0.3657
 4496SOL     OW25123   4.222   4.636   8.512 -0.2474 -0.1909 -0.4991
 4496SOL    HW125124   4.309   4.601   8.497 -0.3955 -0.2843 -1.1325
 4496SOL    HW225125   4.236   4.709   8.572  0.1007 -1.2017  0.6505
 4497SOL     OW25126   3.041   2.966   2.054  0.3452 -0.8802  0.6770
 4497SOL    HW125127   3.133   2.992   2.062 -0.6263  1.9747  2.4196
 4497SOL    HW225128   3.048   2.876   2.086  0.1238 -1.0703  0.1848
 4498SOL     OW25129   0.130   3.044   6.944  0.0449  0.3989  0.5540
 4498SOL    HW125130   0.075   3.119   6.922  0.7355  0.5805 -0.5655
 4498SOL    HW225131   0.116   3.022   7.036 -1.7054  1.2485  0.4818
 4499SOL     OW25132   1.412   4.062   1.536 -0.9070 -0.3277  0.1805
 4499SOL    HW125133   1.475   4.126   1.571 -0.6018 -0.7816  0.4525
 4499SOL    HW225134   1.402   4.106   1.452  0.9777  0.6177  0.4457
 4500SOL     OW25135   0.232   2.198   5.711 -0.0202  0.1432 -0.6137
 4500SOL    HW125136   0.158   2.216   5.652 -0.3266 -0.4709 -0.4092
 4500SOL    HW225137   0.244   2.104   5.703  0.0238  0.1215 -0.2928
 4501SOL     OW25138   2.108   2.321   5.716  0.1121  0.0913  0.1688
 4501SOL    HW125139   2.082   2.349   5.628  3.0827 -1.0164 -1.0703
 4501SOL    HW225140   2.053   2.377   5.770  2.3129  2.2478  0.1547
 4502SOL     OW25141   0.326   3.389   1.058  0.1749 -1.0058  0.1388
 4502SOL    HW125142   0.278   3.307   1.050 -1.5506  0.2247 -2.3337
 4502SOL    HW225143   0.418   3.369   1.044 -0.0046 -0.7593 -1.3725
 4503SOL     OW25144   3.232   0.847   2.820 -0.2594  0.1626  0.1033
 4503SOL    HW125145   3.232   0.789   2.896  0.8511 -0.1553 -0.1506
 4503SOL    HW225146   3.285   0.915   2.861 -0.9396  0.5095  0.4042
 4504SOL     OW25147   3.463   0.403  16.496 -0.1228 -0.8153  0.3899
 4504SOL    HW125148   3.502   0.435  16.577  3.5887  0.7163 -2.0255
 4504SOL    HW225149   3.374   0.393  16.530 -0.2930  2.1748  0.8474
 4505SOL     OW25150   4.214   1.207  10.532  0.1895 -0.6421  0.1050
 4505SOL    HW125151   4.123   1.222  10.505 -0.0846 -1.0512  0.7968
 4505SOL    HW225152   4.252   1.192  10.446 -0.7304  0.1911 -0.4582
 4506SOL     OW25153   3.892   2.655   4.180  0.0680  0.4794  0.0318
 4506SOL    HW125154   3.927   2.696   4.100  2.2603 -0.9528  0.2450
 4506SOL    HW225155   3.951   2.580   4.188 -0.2005  0.3109  0.4184
 4507SOL     OW25156   1.460   3.699   1.845 -0.3057 -0.2948 -0.1395
 4507SOL    HW125157   1.448   3.611   1.809  0.3879 -0.5565  0.2758
 4507SOL    HW225158   1.516   3.678   1.919 -1.6285  1.5394  1.3881
 4508SOL     OW25159   2.334   1.855   0.331  0.6904  0.0917 -0.1104
 4508SOL    HW125160   2.310   1.762   0.334  0.7907  0.0411 -0.9573
 4508SOL    HW225161   2.413   1.845   0.385 -1.3607  1.2525  3.1305
 4509SOL     OW25162   2.125   0.516   4.650  0.6090  0.2384 -0.3335
 4509SOL    HW125163   2.097   0.460   4.723  1.4841  2.4263  1.6598
 4509SOL    HW225164   2.090   0.599   4.683  3.2699  0.9539  0.6415
 4510SOL     OW25165   2.600   4.028   1.415  0.4149 -0.4163  0.4273
 4510SOL    HW125166   2.574   4.049   1.326  0.8371 -0.2581  0.3425
 4510SOL    HW225167   2.684   3.986   1.398  0.8981  0.8895 -0.3555
 4511SOL     OW25168   3.331   0.812  13.990 -0.2138  0.6453  0.5044
 4511SOL    HW125169   3.262   0.746  13.978 -0.2137  0.4047  1.8192
 4511SOL    HW225170   3.308   0.843  14.078 -3.0764  1.1700 -0.4307
 4512SOL     OW25171   4.408   0.477   0.599 -0.2231  0.0046 -0.0442
 4512SOL    HW125172   4.332   0.530   0.577 -0.6135  0.6331  2.7431
 4512SOL    HW225173   4.463   0.552   0.621 -1.2192  0.8686 -0.5398
 4513SOL     OW25174   3.831   2.360  13.698  0.3923 -0.1109 -0.3701
 4513SOL    HW125175   3.816   2.417  13.623 -0.9175  1.1087  0.8372
 4513SOL    HW225176   3.916   2.319  13.678 -0.5343 -1.8798 -0.7165
 4514SOL     OW25177   1.382   0.766  13.038  0.2254  0.2408  0.0476
 4514SOL    HW125178   1.457   0.804  13.084  2.2160 -0.9862 -2.2105
 4514SOL    HW225179   1.425   0.736  12.958 -0.1195 -1.5060  0.5115
 4515SOL     OW25180   3.927   4.714   0.320 -0.6543  0.2918 -0.2723
 4515SOL    HW125181   3.955   0.018   0.399 -1.1486  0.3587 -0.1316
 4515SOL    HW225182   4.002   4.721   0.262 -0.0798  0.9094  0.5449
 4516SOL     OW25183   1.944   2.458   5.929 -0.4400 -0.3838 -0.1326
 4516SOL    HW125184   1.913   2.379   5.973 -0.2284 -0.3667  0.0428
 4516SOL    HW225185   1.871   2.516   5.952 -0.6378 -0.5106 -0.4438
 4517SOL     OW25186   1.993   1.444   0.194  0.0691 -0.1147 -0.3329
 4517SOL    HW125187   1.999   1.504   0.119 -1.6485  1.1452  0.5440
 4517SOL    HW225188   1.928   1.390   0.150 -0.9900  0.9534 -0.0640
 4518SOL     OW25189   3.501   1.727   4.493  0.3911  0.5346 -0.1755
 4518SOL    HW125190   3.539   1.639   4.501  0.7938  1.0239  3.2535
 4518SOL    HW225191   3.501   1.759   4.583  1.6498  0.9473 -0.3238
 4519SOL     OW25192   3.720   4.359   1.493 -0.5008 -0.1641 -0.0986
 4519SOL    HW125193   3.749   4.450   1.485 -1.1466  0.1111  0.7082
 4519SOL    HW225194   3.646   4.362   1.553 -0.0723 -0.5269  0.4449
 4520SOL     OW25195   0.483   3.391   4.561 -0.3477 -0.4737 -0.4499
 4520SOL    HW125196   0.435   3.472   4.578  0.5151  0.2323 -1.3849
 4520SOL    HW225197   0.433   3.328   4.613  0.3449 -1.2555 -0.7299
 4521SOL     OW25198   2.436   1.943   6.872 -0.2812  0.1067  0.4625
 4521SOL    HW125199   2.463   1.871   6.930 -1.7384 -1.0958 -0.3744
 4521SOL    HW225200   2.515   1.997   6.879 -1.1823  1.3759  0.7336
 4522SOL     OW25201   4.662   0.403   1.444  0.0753  0.0033  0.1238
 4522SOL    HW125202   4.642   0.479   1.499 -0.0989  0.7231 -0.9409
 4522SOL    HW225203   0.015   0.394   1.454 -0.4044 -1.9441  2.9232
 4523SOL     OW25204   3.754   0.212   3.861 -0.0964  0.1093 -0.1310
 4523SOL    HW125205   3.707   0.270   3.920  0.9297  1.9731 -1.1582
 4523SOL    HW225206   3.844   0.242   3.868  0.1556 -0.9524  1.0668
 4524SOL     OW25207   4.682   3.097  14.724  0.3359  0.0463  0.5140
 4524SOL    HW125208   4.604   3.144  14.695 -0.0983 -0.6368  0.5786
 4524SOL    HW225209   4.649   3.018  14.767 -1.5186 -0.0597 -1.0867
 4525SOL     OW25210   2.242   2.017   9.040  0.1096  0.1905 -0.6862
 4525SOL    HW125211   2.282   1.968   8.968  1.8185  1.6295 -0.7073
 4525SOL    HW225212   2.256   2.109   9.019  1.0328  0.2952  0.4177
 4526SOL     OW25213   3.982   0.946   2.662 -0.0884  0.1278 -0.0643
 4526SOL    HW125214   3.898   0.986   2.640 -0.0460  1.6149  2.4892
 4526SOL    HW225215   3.998   0.899   2.580  1.8239 -1.6706  1.3133
 4527SOL     OW25216   3.522   3.620   6.053  0.5184 -0.1602 -0.1281
 4527SOL    HW125217   3.430   3.628   6.029  0.2504 -0.3852  0.8048
 4527SOL    HW225218   3.562   3.688   6.000 -1.5525  1.4906  0.4271
 4528SOL     OW25219   2.979   3.064   8.302 -0.1476 -0.2314  0.3144
 4528SOL    HW125220   3.064   3.054   8.345  0.0107 -0.0769  0.0399
 4528SOL    HW225221   2.936   3.117   8.369  0.9074  0.7155  0.2391
 4529SOL     OW25222   3.161   2.236  13.173  0.0308  0.2270  0.5362
 4529SOL    HW125223   3.202   2.176  13.110 -0.3062  1.1990 -0.6090
 4529SOL    HW225224   3.201   2.316  13.140  1.1468 -1.5977 -2.5961
 4530SOL     OW25225   1.651   0.209   7.701 -0.4056 -0.3061 -0.1937
 4530SOL    HW125226   1.588   0.166   7.760  0.6158  1.0452  1.8889
 4530SOL    HW225227   1.736   0.172   7.724 -0.2933 -0.5638 -1.0283
 4531SOL     OW25228   3.109   1.919   7.693  0.0949 -0.8491 -0.1259
 4531SOL    HW125229   3.067   1.903   7.609 -0.2668  0.4982 -0.1932
 4531SOL    HW225230   3.165   1.993   7.670  0.3170 -0.9445  0.0969
 4532SOL     OW25231   3.041   0.490   4.339  0.1592 -0.3517  0.3685
 4532SOL    HW125232   2.981   0.446   4.279 -0.6810  0.1820  0.8212
 4532SOL    HW225233   3.038   0.584   4.317  1.7084 -0.5594 -0.7292
 4533SOL     OW25234   2.515   1.517  16.820  0.3913  0.0038  0.0723
 4533SOL    HW125235   2.604   1.519  16.856  0.7360 -0.0624 -0.7776
 4533SOL    HW225236   2.479   1.432  16.846 -2.0421  0.8306 -0.5919
 4534SOL     OW25237   1.670   4.266   5.064  0.1785  0.1096  0.6672
 4534SOL    HW125238   1.663   4.304   5.152  1.1234  0.5994  0.5315
 4534SOL    HW225239   1.693   4.337   5.003 -2.0287  0.0904 -0.1872
 4535SOL     OW25240   4.108   3.999   7.020  0.0703  0.5890  0.4097
 4535SOL    HW125241   4.086   4.089   6.994  0.5271  0.6318  0.1686
 4535SOL    HW225242   4.050   4.000   7.096 -0.3675  1.2080  0.0695
 4536SOL     OW25243   1.207   3.587   8.151 -0.0242  0.3826  0.1972
 4536SOL    HW125244   1.226   3.534   8.229  0.7690 -1.4579 -1.2419
 4536SOL    HW225245   1.112   3.586   8.157 -0.1285 -0.2174 -1.5322
 4537SOL     OW25246   1.436   1.338   8.135  0.3027  0.5011  0.1247
 4537SOL    HW125247   1.493   1.293   8.073 -0.3126  1.5526 -1.2028
 4537SOL    HW225248   1.363   1.359   8.077 -1.0326  0.2655  1.6956
 4538SOL     OW25249   1.265   2.033   2.268 -0.2906  0.4157 -0.4791
 4538SOL    HW125250   1.279   2.057   2.176  1.6324  2.7633  0.4061
 4538SOL    HW225251   1.170   2.041   2.278 -0.4685 -0.7101 -1.2333
 4539SOL     OW25252   4.507   4.366   4.478  0.3324 -0.0693  0.7898
 4539SOL    HW125253   4.539   4.277   4.464  0.7940 -0.1509  2.3097
 4539SOL    HW225254   4.412   4.367   4.488  0.1913  1.2616 -0.6777
 4540SOL     OW25255   2.078   3.283   9.007  0.4608  0.1073  0.0085
 4540SOL    HW125256   2.023   3.293   8.929  1.5765 -0.1959 -0.8050
 4540SOL    HW225257   2.011   3.284   9.075  0.8958 -1.0945  0.4552
 4541SOL     OW25258   3.413   1.065  10.893 -0.9561  0.1562  0.0240
 4541SOL    HW125259   3.397   1.139  10.951  2.1806 -0.1591  1.2872
 4541SOL    HW225260   3.333   1.015  10.910  0.0528 -1.0888  1.0500
 4542SOL     OW25261   1.541   3.707  15.942 -0.0826 -0.0464 -0.4942
 4542SOL    HW125262   1.462   3.715  15.996 -0.1852 -0.7117 -0.5471
 4542SOL    HW225263   1.597   3.766  15.992  0.0342  2.2972 -3.3276
 4543SOL     OW25264   4.112   1.776  10.353  0.8311 -0.4283 -0.2863
 4543SOL    HW125265   4.154   1.700  10.395 -0.0399  1.9682  4.9200
 4543SOL    HW225266   4.083   1.830  10.427  0.9970 -0.6980 -0.0210
 4544SOL     OW25267   2.491   2.217   4.420  0.2840 -0.0352 -0.1016
 4544SOL    HW125268   2.442   2.154   4.367 -1.6231  2.2440 -1.0134
 4544SOL    HW225269   2.437   2.215   4.499 -2.2199 -0.5437 -1.8134
 4545SOL     OW25270   3.937   0.073   7.699  0.2652 -0.3298 -0.1807
 4545SOL    HW125271   3.882   4.737   7.692  0.1567 -0.1184 -1.6395
 4545SOL    HW225272   3.912   0.118   7.780 -0.2227 -0.2965 -0.3487
 4546SOL     OW25273   1.402   2.916  13.915 -0.8049 -0.1901  0.6732
 4546SOL    HW125274   1.329   2.874  13.870 -1.9681  1.1243  1.3337
 4546SOL    HW225275   1.441   2.978  13.854  0.4101 -1.3755  0.2418
 4547SOL     OW25276   1.723   1.791   8.300 -0.1201 -0.2742  0.0591
 4547SOL    HW125277   1.657   1.785   8.230  0.7551 -0.6862 -0.7279
 4547SOL    HW225278   1.736   1.698   8.318  0.6166 -0.1970 -0.0993
 4548SOL     OW25279   3.835   1.086   4.621 -0.5395  0.0352  0.0728
 4548SOL    HW125280   3.810   1.000   4.655 -1.2228  0.6998  1.2283
 4548SOL    HW225281   3.930   1.077   4.627 -0.2504  2.2269 -1.1364
 4549SOL     OW25282   2.702   1.617  10.676 -0.3716  0.5097  0.2019
 4549SOL    HW125283   2.711   1.559  10.752 -0.5806 -0.2599 -0.3588
 4549SOL    HW225284   2.635   1.678  10.706  1.7309  2.8000  0.1599
 4550SOL     OW25285   4.310   3.258   4.756  0.3965  0.4657 -0.1606
 4550SOL    HW125286   4.237   3.197   4.744 -1.1609  1.8557  2.3041
 4550SOL    HW225287   4.358   3.249   4.674  0.6305  1.1745 -0.1050
 4551SOL     OW25288   4.155   3.129   3.162  0.1232  0.5115  0.0297
 4551SOL    HW125289   4.064   3.100   3.154  0.0854  0.5360  0.3736
 4551SOL    HW225290   4.149   3.210   3.213  0.5870 -0.3615  1.4769
 4552SOL     OW25291   3.209   2.187   9.733 -0.4135 -0.2028  0.1535
 4552SOL    HW125292   3.149   2.138   9.677  1.4355 -1.5951 -0.5938
 4552SOL    HW225293   3.278   2.124   9.754 -0.0279  0.1201 -0.1325
 4553SOL     OW25294   0.808   1.896   5.661  0.1861  0.1477 -0.0125
 4553SOL    HW125295   0.843   1.814   5.696  1.7750  1.6053  1.8188
 4553SOL    HW225296   0.842   1.960   5.724 -0.8143 -0.3382  1.0061
 4554SOL     OW25297   0.822   4.710   6.503 -0.2352 -0.3974 -1.0442
 4554SOL    HW125298   0.874   0.016   6.439  1.1435 -1.2090 -0.5497
 4554SOL    HW225299   0.807   4.626   6.460 -0.1882 -0.8173 -0.2578
 4555SOL     OW25300   4.370   2.986   3.276  0.2218  0.0492 -0.0047
 4555SOL    HW125301   4.319   3.067   3.269 -1.0369 -0.7969 -0.6924
 4555SOL    HW225302   4.320   2.946   3.347 -0.1791  1.5957  0.5986
 4556SOL     OW25303   4.353   3.107  13.279  0.1529  0.8681  0.2323
 4556SOL    HW125304   4.410   3.080  13.207 -0.4572  0.3957 -0.0711
 4556SOL    HW225305   4.269   3.095  13.236  0.1276 -3.0219  1.3551
 4557SOL     OW25306   3.604   1.432   3.590  0.1255  0.4955  0.6366
 4557SOL    HW125307   3.595   1.471   3.677  1.3129  1.5218  0.3020
 4557SOL    HW225308   3.631   1.504   3.533 -1.2004 -0.5559 -1.2803
 4558SOL     OW25309   4.393   0.351   4.367 -0.0679  0.1029 -0.2478
 4558SOL    HW125310   4.454   0.279   4.380 -1.1220 -0.5572  0.9820
 4558SOL    HW225311   4.449   0.421   4.333  0.2807  0.8061  1.7781
 4559SOL     OW25312   3.505   2.926  10.722 -0.4952 -0.9421  0.2968
 4559SOL    HW125313   3.425   2.876  10.741 -0.4871 -1.3718 -0.7781
 4559SOL    HW225314   3.489   2.954  10.632 -1.2707 -0.4043  0.5971
 4560SOL     OW25315   2.934   4.346   6.821 -0.0195 -0.2081  0.6305
 4560SOL    HW125316   2.860   4.323   6.765  0.0377 -1.1817  0.9505
 4560SOL    HW225317   2.904   4.430   6.855  0.2535  0.4688 -0.7965
 4561SOL     OW25318   3.834   4.660   2.367  0.1226  0.1984  0.3941
 4561SOL    HW125319   3.849   4.619   2.453 -1.4633  1.5195  1.3024
 4561SOL    HW225320   3.830   4.589   2.304 -0.3722  0.6386 -0.0647
 4562SOL     OW25321   3.649   3.602   4.589 -0.2567 -0.1841 -0.2950
 4562SOL    HW125322   3.591   3.575   4.518  1.5710 -1.9208 -1.1136
 4562SOL    HW225323   3.733   3.583   4.548 -0.3121 -0.3101 -0.3514
 4563SOL     OW25324   1.326   2.125  10.211  0.5613 -0.0511 -0.1678
 4563SOL    HW125325   1.308   2.136  10.304  1.8973  1.8614 -0.1288
 4563SOL    HW225326   1.408   2.076  10.209  0.3731 -0.3956  0.9990
 4564SOL     OW25327   2.647   3.665   8.960 -0.0125  0.1414  0.7457
 4564SOL    HW125328   2.651   3.663   9.055 -0.4087  0.2907  0.7648
 4564SOL    HW225329   2.551   3.662   8.957 -0.0146  0.4507  0.4277
 4565SOL     OW25330   4.570   2.819  14.333 -0.5469 -0.3225 -0.1005
 4565SOL    HW125331   4.638   2.818  14.401 -1.7697 -0.8717  1.1136
 4565SOL    HW225332   4.544   2.910  14.317  0.2509 -0.3122 -1.2889
 4566SOL     OW25333   2.579   1.047   3.767  0.0010  0.1021  0.2315
 4566SOL    HW125334   2.673   1.032   3.781  0.1605  0.5857 -0.2816
 4566SOL    HW225335   2.559   0.956   3.744  0.3205  0.3288 -0.9365
 4567SOL     OW25336   2.527   4.170   7.240 -0.4797  1.1449 -0.5410
 4567SOL    HW125337   2.463   4.098   7.236 -0.2071  0.8057  1.2804
 4567SOL    HW225338   2.472   4.248   7.251 -1.7688  0.1877 -0.1434
 4568SOL     OW25339   3.860   2.502   7.802 -0.0639 -0.0586 -0.1225
 4568SOL    HW125340   3.769   2.495   7.773 -0.1717 -0.0446  0.2061
 4568SOL    HW225341   3.839   2.483   7.894 -1.0413 -0.7202 -0.4717
 4569SOL     OW25342   2.891   3.334   4.603 -0.0660  0.1053  0.1833
 4569SOL    HW125343   2.949   3.262   4.629 -2.3111 -1.2991  1.2805
 4569SOL    HW225344   2.812   3.297   4.643  0.9134 -3.1065 -0.8953
 4570SOL     OW25345   3.514   4.285  10.040 -0.1876  0.2234 -0.3968
 4570SOL    HW125346   3.527   4.371  10.000  0.0312  1.0388  1.4490
 4570SOL    HW225347   3.602   4.250  10.028  0.1363  1.1459 -0.6671
 4571SOL     OW25348   1.342   2.238   9.319  0.1183  0.2621  0.1790
 4571SOL    HW125349   1.283   2.204   9.252  0.5954  4.5654 -2.4199
 4571SOL    HW225350   1.370   2.316   9.271 -1.0747  0.9461  0.5950
 4572SOL     OW25351   1.326   0.250  10.052 -0.0263 -0.8100 -0.2855
 4572SOL    HW125352   1.279   0.172  10.021 -1.1958  0.0183 -0.5865
 4572SOL    HW225353   1.285   0.274  10.135 -0.6572  0.2194 -0.9005
 4573SOL     OW25354   2.771   2.541   8.423 -0.0697  0.0054  0.1410
 4573SOL    HW125355   2.761   2.482   8.498  1.3823  1.7166  1.6602
 4573SOL    HW225356   2.750   2.626   8.462  1.3228  1.0537 -1.3857
 4574SOL     OW25357   1.750   2.357  14.617 -0.6041 -0.2683 -0.5390
 4574SOL    HW125358   1.757   2.285  14.554 -1.2105 -1.2776  0.5380
 4574SOL    HW225359   1.737   2.429  14.555  1.9541  1.0151  0.4042
 4575SOL     OW25360   4.243   0.966   3.274 -0.4372 -0.4084 -0.1732
 4575SOL    HW125361   4.265   1.026   3.345  2.8958 -0.4708 -1.1751
 4575SOL    HW225362   4.185   1.020   3.219  0.9093  0.6517 -0.5405
 4576SOL     OW25363   2.364   2.278   7.085 -0.0145 -0.6654  0.2321
 4576SOL    HW125364   2.444   2.224   7.088  0.0861 -0.5747 -0.6117
 4576SOL    HW225365   2.368   2.313   6.996 -2.1268 -0.2373  0.3118
 4577SOL     OW25366   4.432   2.840   7.451  0.0181  0.6460  0.1145
 4577SOL    HW125367   4.470   2.825   7.365 -1.0475 -1.4827  0.0262
 4577SOL    HW225368   4.352   2.789   7.443 -0.5010  1.2643  1.3302
 4578SOL     OW25369   3.321   0.463   6.473  0.5012 -0.3557  0.2521
 4578SOL    HW125370   3.253   0.527   6.452  0.5406 -0.6175 -0.6561
 4578SOL    HW225371   3.363   0.450   6.388  0.5727 -1.8027  0.5214
 4579SOL     OW25372   2.458   2.647   8.536  0.1243 -0.2221  0.1081
 4579SOL    HW125373   2.436   2.646   8.443 -1.0694 -2.6169  0.4018
 4579SOL    HW225374   2.532   2.707   8.531 -1.7725  2.2490  1.4416
 4580SOL     OW25375   0.216   3.487   6.778  0.4743  0.0926  0.0200
 4580SOL    HW125376   0.243   3.412   6.724 -0.1637 -0.8702  1.0306
 4580SOL    HW225377   0.280   3.552   6.750  0.2555 -0.2851 -1.3737
 4581SOL     OW25378   1.556   2.494   2.929  0.1489  0.0370 -0.5278
 4581SOL    HW125379   1.603   2.451   2.858 -0.7667  0.7078 -1.5479
 4581SOL    HW225380   1.589   2.436   2.998 -3.7263  0.8140  1.9374
 4582SOL     OW25381   0.617   3.408   0.602  0.8108  0.3421  0.1047
 4582SOL    HW125382   0.531   3.376   0.630  1.4794  0.2799  2.1136
 4582SOL    HW225383   0.629   3.345   0.530  1.0424  2.4682 -1.7128
 4583SOL     OW25384   1.662   0.662   8.685  0.4631 -0.1965  0.2539
 4583SOL    HW125385   1.641   0.601   8.755  0.7715 -1.6287 -0.9078
 4583SOL    HW225386   1.630   0.741   8.730  0.2700 -1.2996  2.0488
 4584SOL     OW25387   0.569   1.626  13.583  0.4698 -0.3706  0.0753
 4584SOL    HW125388   0.586   1.592  13.671  0.4950 -1.8895 -0.5174
 4584SOL    HW225389   0.492   1.572  13.566  0.9946 -1.7444  2.0810
 4585SOL     OW25390   2.306   1.562   5.427 -0.3485 -0.1833  0.5510
 4585SOL    HW125391   2.277   1.497   5.363 -0.6695 -0.4229  0.9340
 4585SOL    HW225392   2.352   1.497   5.481 -1.3679 -2.5288 -1.3574
 4586SOL     OW25393   2.078   1.327   4.925 -0.3597  0.1205  0.2364
 4586SOL    HW125394   2.138   1.399   4.906  0.2868 -0.2655  0.8125
 4586SOL    HW225395   2.122   1.282   4.997 -1.5496  1.0753  1.5446
 4587SOL     OW25396   2.704   0.119  11.468  0.1256  0.1576  0.3286
 4587SOL    HW125397   2.756   0.168  11.404 -2.6523  2.1926 -0.3672
 4587SOL    HW225398   2.674   0.197  11.515  1.8425  0.1206  1.5022
 4588SOL     OW25399   0.504   1.323   3.617 -0.3032  0.4031  0.2954
 4588SOL    HW125400   0.546   1.238   3.604 -2.2767 -1.0999  3.7064
 4588SOL    HW225401   0.436   1.327   3.550  0.2241  0.9055 -0.2068
 4589SOL     OW25402   1.495   3.949  12.467 -0.3139  0.3596  0.0349
 4589SOL    HW125403   1.503   4.042  12.489  0.3255  0.6504 -1.4656
 4589SOL    HW225404   1.586   3.926  12.447 -0.5263  0.0053 -0.5097
 4590SOL     OW25405   1.778   3.488  16.975 -0.3245 -0.3405 -0.0263
 4590SOL    HW125406   1.753   3.523  17.060 -0.3069  1.6628 -0.8430
 4590SOL    HW225407   1.781   3.570  16.926 -0.1893 -0.7315 -0.6722
 4591SOL     OW25408   3.091   1.794   9.029 -0.6060  0.0737 -0.1812
 4591SOL    HW125409   3.167   1.739   9.009 -0.9810  0.2559 -2.1922
 4591SOL    HW225410   3.039   1.798   8.948 -2.3970  0.4211  0.9842
 4592SOL     OW25411   0.877   2.858   5.052 -0.0245  0.1100  0.5969
 4592SOL    HW125412   0.950   2.921   5.047  0.4213 -0.5420 -1.1859
 4592SOL    HW225413   0.923   2.787   5.096  0.4255 -1.1432 -1.8412
 4593SOL     OW25414   3.802   4.251   6.632 -0.7124  0.0973 -0.0735
 4593SOL    HW125415   3.796   4.230   6.725 -0.6022  0.9955  0.1450
 4593SOL    HW225416   3.896   4.235   6.623 -1.1998 -3.5167  1.4299
 4594SOL     OW25417   0.667   3.558   4.818  0.3443  0.1819  0.5345
 4594SOL    HW125418   0.738   3.510   4.861 -0.1741 -2.1268 -1.2235
 4594SOL    HW225419   0.601   3.522   4.877  1.0116 -0.2671  1.0185
 4595SOL     OW25420   3.198   0.197   5.939 -0.5452  0.0955  0.0739
 4595SOL    HW125421   3.109   0.164   5.923 -0.5912 -0.0782  0.6684
 4595SOL    HW225422   3.191   0.244   6.023 -0.8615  2.4189 -1.2373
 4596SOL     OW25423   4.122   3.808  16.720  0.3778  0.1375 -0.7390
 4596SOL    HW125424   4.159   3.762  16.645 -1.9578 -0.0505 -1.7571
 4596SOL    HW225425   4.134   3.900  16.696 -1.5283  0.4750 -0.3954
 4597SOL     OW25426   1.198   4.422   8.694  0.2040 -0.1088 -0.1494
 4597SOL    HW125427   1.257   4.424   8.769  1.1760  1.8982 -0.9916
 4597SOL    HW225428   1.264   4.441   8.628 -0.3815  1.0272 -0.4093
 4598SOL     OW25429   3.139   2.800   9.767  0.8790  0.0882 -0.1751
 4598SOL    HW125430   3.224   2.768   9.799  1.7886  0.9502 -1.7140
 4598SOL    HW225431   3.087   2.725   9.795  1.3747  1.0297  3.1796
 4599SOL     OW25432   3.288   1.377  11.527  0.1736  0.3537  0.2199
 4599SOL    HW125433   3.324   1.464  11.540 -1.0520  1.3408 -2.8295
 4599SOL    HW225434   3.233   1.373  11.605 -1.1415 -0.0570 -0.7142
 4600SOL     OW25435   0.764   0.655   6.979  0.2833 -0.2496 -0.4586
 4600SOL    HW125436   0.749   0.659   6.885  2.4327 -0.7114 -0.8027
 4600SOL    HW225437   0.849   0.698   6.986  0.1700  0.1641 -1.6498
 4601SOL     OW25438   1.461   1.842   9.229 -0.2615 -0.0268  0.7641
 4601SOL    HW125439   1.502   1.928   9.221  0.0041 -0.2334 -0.0935
 4601SOL    HW225440   1.516   1.785   9.176  0.9729 -0.4841  2.5375
 4602SOL     OW25441   3.138   3.186   3.977  0.4980 -0.1019  0.0353
 4602SOL    HW125442   3.178   3.135   3.906 -0.6222  2.1123 -2.1406
 4602SOL    HW225443   3.044   3.172   3.964  0.0910  2.3212  0.5049
 4603SOL     OW25444   4.597   0.894  12.187 -0.4137  0.2513  0.0204
 4603SOL    HW125445   4.603   0.990  12.189  1.8761  0.1238 -0.7309
 4603SOL    HW225446   4.605   0.896  12.091  2.7338  2.4202  0.3236
 4604SOL     OW25447   3.899   2.534   5.936 -0.0154 -0.1178  0.3965
 4604SOL    HW125448   3.953   2.534   6.015 -1.3900 -0.8563  1.3219
 4604SOL    HW225449   3.930   2.607   5.882 -0.1967  0.9465  1.7244
 4605SOL     OW25450   1.485   3.284  14.331  0.3895  0.3874  0.3381
 4605SOL    HW125451   1.401   3.309  14.293 -0.3003 -2.0704  0.2439
 4605SOL    HW225452   1.486   3.323  14.419  1.4178 -0.8881  0.8966
 4606SOL     OW25453   4.067   4.562   6.250  0.1739 -0.2431 -0.7461
 4606SOL    HW125454   4.114   4.491   6.294  1.2520  1.3582  0.6820
 4606SOL    HW225455   4.009   4.597   6.317 -0.1816  0.7014 -1.5432
 4607SOL     OW25456   2.233   2.332   0.607 -0.0845 -0.1811  0.7927
 4607SOL    HW125457   2.232   2.236   0.609 -2.1144 -0.1500  1.8898
 4607SOL    HW225458   2.277   2.351   0.524 -4.7256  1.3651 -1.3092
 4608SOL     OW25459   1.287   0.748   9.131  0.2229  0.4137 -0.0072
 4608SOL    HW125460   1.195   0.727   9.120 -0.3408  1.4543  2.5811
 4608SOL    HW225461   1.324   0.670   9.092  1.2735  0.1019  1.6118
 4609SOL     OW25462   3.218   3.169   2.037  0.4606 -0.0260  0.3295
 4609SOL    HW125463   3.284   3.237   2.052  0.8959 -0.9135  2.4400
 4609SOL    HW225464   3.163   3.180   2.115 -0.7215 -1.5497 -0.2879
 4610SOL     OW25465   1.705   2.906   4.055  0.4487  0.6011  0.0059
 4610SOL    HW125466   1.730   2.814   4.039  2.2041  1.2130 -0.7537
 4610SOL    HW225467   1.782   2.943   4.097  0.5925  0.4526 -0.1270
 4611SOL     OW25468   2.211   4.468   8.488  0.1437  0.0469 -0.0484
 4611SOL    HW125469   2.279   4.532   8.466  2.1788 -2.5024 -1.1750
 4611SOL    HW225470   2.250   4.387   8.455 -0.1051 -0.4394  0.8532
 4612SOL     OW25471   2.058   1.651   5.548 -0.1077  0.0382 -0.3281
 4612SOL    HW125472   2.094   1.735   5.575  0.0817 -0.1571  0.0249
 4612SOL    HW225473   2.130   1.605   5.505  1.6620  1.3884  1.2476
 4613SOL     OW25474   0.702   4.392  15.382 -0.3374 -0.2917  0.0787
 4613SOL    HW125475   0.776   4.353  15.335  0.1292 -0.8590  1.2742
 4613SOL    HW225476   0.736   4.411  15.470  1.6304  1.2185 -1.0045
 4614SOL     OW25477   1.486   3.938  13.126  0.4308  0.0868  0.1548
 4614SOL    HW125478   1.468   4.003  13.194 -0.2904  0.2003 -0.1441
 4614SOL    HW225479   1.401   3.914  13.089  1.2587 -2.2232 -0.2065
 4615SOL     OW25480   4.336   0.550   3.713 -0.0010  0.3104 -0.0713
 4615SOL    HW125481   4.384   0.582   3.789  0.7835  0.7400 -0.7457
 4615SOL    HW225482   4.385   0.470   3.692  0.5735  0.8477 -0.8090
 4616SOL     OW25483   2.203   2.025   8.637 -0.5947  0.1309 -0.3917
 4616SOL    HW125484   2.109   2.017   8.654 -0.3235 -0.0493  1.0363
 4616SOL    HW225485   2.235   1.967   8.706 -2.7461 -0.1822  0.3542
 4617SOL     OW25486   2.846   2.430   1.447 -0.1683  0.2102  0.6858
 4617SOL    HW125487   2.762   2.414   1.490 -0.3481 -0.7762 -0.0262
 4617SOL    HW225488   2.840   2.523   1.427 -2.1798 -0.7131 -3.0108
 4618SOL     OW25489   2.730   4.199   0.094 -0.4644  0.0632 -0.3922
 4618SOL    HW125490   2.671   4.144   0.043 -1.2596  1.4032 -0.9097
 4618SOL    HW225491   2.816   4.161   0.072 -0.0032  2.0558 -1.9999
 4619SOL     OW25492   0.509   2.543  16.443 -0.1444 -0.4017 -0.4984
 4619SOL    HW125493   0.446   2.481  16.407 -3.5775  2.3079  0.8705
 4619SOL    HW225494   0.451   2.577  16.511 -1.6146 -0.5916 -1.6613
 4620SOL     OW25495   4.227   1.526  10.464 -0.0811  0.3575  0.0398
 4620SOL    HW125496   4.223   1.459  10.532  0.9181 -0.2977 -0.5314
 4620SOL    HW225497   4.235   1.474  10.384 -0.5202  2.3314 -1.2810
 4621SOL     OW25498   2.628   2.428   6.013  0.1648 -0.4196 -0.1124
 4621SOL    HW125499   2.643   2.520   6.032  0.9850 -0.4392 -0.6585
 4621SOL    HW225500   2.662   2.381   6.090 -1.0638 -2.2013 -0.6750
 4622SOL     OW25501   4.127   1.854   3.760  0.0686 -0.2087  0.2263
 4622SOL    HW125502   4.071   1.863   3.836 -0.4025 -0.8599 -0.0445
 4622SOL    HW225503   4.113   1.761   3.739  1.0650  0.3770 -3.0986
 4623SOL     OW25504   1.486   0.404   6.738  0.4402  0.3629 -0.0157
 4623SOL    HW125505   1.551   0.465   6.772  0.7763  0.5532 -0.9854
 4623SOL    HW225506   1.418   0.403   6.805  0.9842  3.2568  0.5589
 4624SOL     OW25507   0.638   4.705   8.712  0.6809 -0.2039 -0.1733
 4624SOL    HW125508   0.646   4.736   8.622  1.8869 -0.0741 -0.0241
 4624SOL    HW225509   0.722   4.661   8.727  1.2815  0.6675 -0.9576
 4625SOL     OW25510   2.123   4.439   3.797  0.4034  0.3209  0.2639
 4625SOL    HW125511   2.046   4.483   3.833 -0.0026 -0.1763  0.0088
 4625SOL    HW225512   2.124   4.359   3.850 -1.5541 -1.1951 -1.9922
 4626SOL     OW25513   2.510   1.123  12.375 -0.5444  0.5623  0.5182
 4626SOL    HW125514   2.466   1.053  12.326  0.9510  0.8482 -1.2432
 4626SOL    HW225515   2.479   1.111  12.464  0.0909 -0.6736  0.5805
 4627SOL     OW25516   0.970   0.216   7.021 -0.0342 -0.3572 -0.6091
 4627SOL    HW125517   0.877   0.231   7.007  0.3074 -0.3965 -2.8470
 4627SOL    HW225518   1.010   0.289   6.973  1.5181 -0.8300 -0.0632
 4628SOL     OW25519   2.128   2.881   5.662  0.2696  0.1991  0.1269
 4628SOL    HW125520   2.124   2.930   5.744 -0.2672  1.8934 -0.9017
 4628SOL    HW225521   2.212   2.916   5.631  0.7106 -0.5543  0.4775
 4629SOL     OW25522   2.964   0.001   6.584  0.3354 -0.3691 -0.0455
 4629SOL    HW125523   2.875   0.026   6.610 -0.5389 -2.5882 -0.8594
 4629SOL    HW225524   3.010   0.068   6.635  0.2848 -0.4664  0.1297
 4630SOL     OW25525   4.227   1.908   3.391 -0.2281  0.3477 -0.0241
 4630SOL    HW125526   4.237   1.975   3.323 -0.1588 -0.0663 -0.4183
 4630SOL    HW225527   4.211   1.960   3.469  0.9428  2.0174 -0.8948
 4631SOL     OW25528   4.732   4.036   9.775  0.4000  0.2849  0.4527
 4631SOL    HW125529   0.063   4.050   9.716  0.0241 -1.2151 -0.3610
 4631SOL    HW225530   0.036   4.061   9.855 -0.5812  0.6553  0.9028
 4632SOL     OW25531   0.806   1.216   3.356 -0.3842 -0.5933  0.3446
 4632SOL    HW125532   0.834   1.204   3.266 -1.6935 -0.6245 -0.0656
 4632SOL    HW225533   0.735   1.281   3.349  0.1896 -0.0470 -0.3727
 4633SOL     OW25534   0.288   4.052   5.656  0.2489 -0.2509  0.2897
 4633SOL    HW125535   0.368   4.102   5.639 -0.1274 -0.0301 -0.8162
 4633SOL    HW225536   0.232   4.121   5.692  0.8251  0.7780 -0.7753
 4634SOL     OW25537   2.906   4.569  15.482 -0.6051 -0.3326  0.3069
 4634SOL    HW125538   2.953   4.538  15.559 -0.8573 -0.1429  0.5339
 4634SOL    HW225539   2.978   4.615  15.437 -1.4369  1.5966  0.9659
 4635SOL     OW25540   3.639   0.177   8.528  0.4449  0.0209 -0.3002
 4635SOL    HW125541   3.622   0.140   8.615 -0.0726  2.8872  0.8219
 4635SOL    HW225542   3.732   0.197   8.543 -0.1465  0.0531  3.3531
 4636SOL     OW25543   4.688   3.879  16.857  0.4334  0.1178 -0.1234
 4636SOL    HW125544   4.709   3.959  16.808  0.1928 -0.2812 -0.8819
 4636SOL    HW225545   4.693   3.814  16.787  1.0325  1.3029 -1.1952
 4637SOL     OW25546   2.435   2.393   2.984 -0.3219  0.4969 -0.0948
 4637SOL    HW125547   2.487   2.466   2.948  1.1035 -0.8898 -0.8602
 4637SOL    HW225548   2.365   2.390   2.919  0.1870 -1.7187 -0.5406
 4638SOL     OW25549   0.278   3.142   5.455  0.1392  0.0540 -0.0963
 4638SOL    HW125550   0.204   3.199   5.476  1.7363  1.6434  1.1766
 4638SOL    HW225551   0.350   3.204   5.467 -0.2838  0.1029  2.0174
 4639SOL     OW25552   0.088   0.887   2.265  0.0239  0.5464  0.6434
 4639SOL    HW125553   0.092   0.909   2.172  2.0527 -0.7676  0.4267
 4639SOL    HW225554   4.740   0.861   2.282  0.0111  0.2243  0.0626
 4640SOL     OW25555   1.080   1.560  15.470  0.5120 -0.5444 -0.1548
 4640SOL    HW125556   1.105   1.490  15.410 -0.1445 -0.7642 -0.1752
 4640SOL    HW225557   1.154   1.620  15.457 -0.0873  0.8143  2.6601
 4641SOL     OW25558   2.388   0.512   7.895  0.2489  0.7590  0.0609
 4641SOL    HW125559   2.418   0.481   7.980 -0.2110 -1.8163 -0.7217
 4641SOL    HW225560   2.465   0.508   7.838 -0.2879  2.4496 -0.7853
 4642SOL     OW25561   0.654   0.600   3.799  0.4128  0.1270 -0.3811
 4642SOL    HW125562   0.657   0.543   3.723 -1.0965 -2.1471  1.2884
 4642SOL    HW225563   0.656   0.538   3.872  0.9944  2.4855  1.6418
 4643SOL     OW25564   3.278   3.047   1.784 -0.4033  0.5184  0.3562
 4643SOL    HW125565   3.315   3.119   1.734 -0.2273 -0.4541 -0.9119
 4643SOL    HW225566   3.279   3.085   1.872 -0.6259 -0.5498  0.8324
 4644SOL     OW25567   1.190   2.395   8.923 -0.1162 -0.3160 -0.4468
 4644SOL    HW125568   1.222   2.385   8.833 -0.6132 -1.1896 -0.5240
 4644SOL    HW225569   1.116   2.455   8.927  1.5197  1.5141  2.8280
 4645SOL     OW25570   1.420   0.908  11.703 -0.0448  0.3563 -0.2884
 4645SOL    HW125571   1.403   0.985  11.649  1.9396  1.2159  0.3199
 4645SOL    HW225572   1.333   0.868  11.699  0.0267  0.2130 -0.4320
 4646SOL     OW25573   0.871   1.013   9.399  0.7683 -0.1165 -0.4207
 4646SOL    HW125574   0.837   0.924   9.385 -1.6567  0.6211  0.8085
 4646SOL    HW225575   0.808   1.059   9.343 -1.7367 -3.3506 -0.2588
 4647SOL     OW25576   4.189   3.325   3.393  0.0173 -0.2790 -0.3856
 4647SOL    HW125577   4.226   3.277   3.466 -1.6685  0.9504  1.2762
 4647SOL    HW225578   4.267   3.372   3.364  2.8241 -2.1631  4.1980
 4648SOL     OW25579   1.699   3.429   2.789 -0.4942 -0.2685 -0.1361
 4648SOL    HW125580   1.781   3.468   2.819  0.8818 -2.8134 -0.6304
 4648SOL    HW225581   1.695   3.349   2.842  0.1264  1.5271  2.6463
 4649SOL     OW25582   4.620   1.892  10.230  0.6563  0.3711  0.0514
 4649SOL    HW125583   4.606   1.981  10.263 -0.0649  0.7405 -1.2898
 4649SOL    HW225584   4.577   1.835  10.294  0.7198  0.8344  0.5048
 4650SOL     OW25585   4.321   2.356   8.636  0.3129  0.0449  0.0548
 4650SOL    HW125586   4.300   2.351   8.543  2.5673 -0.7574 -0.4231
 4650SOL    HW225587   4.276   2.439   8.653 -0.6406 -0.9144  2.1792
 4651SOL     OW25588   2.601   0.558   3.807  0.1031  0.0481  0.7239
 4651SOL    HW125589   2.692   0.560   3.777  0.1474  0.1959  0.8712
 4651SOL    HW225590   2.586   0.463   3.811  2.0045 -0.2632  0.4526
 4652SOL     OW25591   2.307   2.364   9.711  0.0854  0.1932  0.2695
 4652SOL    HW125592   2.235   2.406   9.758  1.3664  2.1991  0.4248
 4652SOL    HW225593   2.383   2.402   9.757  0.2175 -0.5575  0.6844
 4653SOL     OW25594   1.403   4.195  12.682 -0.4483  0.0729  0.4197
 4653SOL    HW125595   1.373   4.285  12.673  0.2641  0.2148 -0.5754
 4653SOL    HW225596   1.477   4.195  12.620 -0.0415 -2.0192  0.8823
 4654SOL     OW25597   2.433   4.160  13.955 -0.0690 -0.3761  0.3894
 4654SOL    HW125598   2.440   4.142  13.861 -0.3731 -1.7028  0.6224
 4654SOL    HW225599   2.500   4.228  13.957  2.2199 -2.6362 -0.0139
 4655SOL     OW25600   0.336   1.786  15.068 -0.3426  0.8723 -0.1372
 4655SOL    HW125601   0.277   1.857  15.093 -0.0332  0.7214  1.0143
 4655SOL    HW225602   0.408   1.842  15.042  0.0514  0.5527  0.2669
 4656SOL     OW25603   4.427   0.246   5.034 -0.3407 -0.2392 -0.0752
 4656SOL    HW125604   4.503   0.188   5.030 -1.3370 -1.7412  2.3461
 4656SOL    HW225605   4.472   0.329   5.054  2.0579 -1.7404  0.8274
 4657SOL     OW25606   4.640   3.577   9.009 -0.6126  0.3138 -0.1695
 4657SOL    HW125607   4.607   3.618   8.929 -0.6871 -1.0302 -0.8293
 4657SOL    HW225608   4.709   3.638   9.033  1.0518 -2.2841  1.6837
 4658SOL     OW25609   2.294   2.655   3.391 -0.4194 -0.8037 -0.0819
 4658SOL    HW125610   2.301   2.724   3.458 -0.3985 -1.2517  0.3825
 4658SOL    HW225611   2.245   2.700   3.323 -0.3105 -2.5124 -1.2767
 4659SOL     OW25612   1.682   2.005   8.746 -1.0034 -0.5063 -0.2060
 4659SOL    HW125613   1.753   2.008   8.809 -2.6636  0.5074  1.5974
 4659SOL    HW225614   1.725   1.998   8.661 -1.4535  1.2719 -0.5844
 4660SOL     OW25615   1.727   2.868   1.475  0.1483  0.0383 -0.2302
 4660SOL    HW125616   1.717   2.807   1.548 -3.6935  0.0553 -0.7244
 4660SOL    HW225617   1.637   2.887   1.449  0.0559 -0.8149 -0.5249
 4661SOL     OW25618   2.776   1.297   3.599  0.1627 -0.3097  0.0270
 4661SOL    HW125619   2.870   1.296   3.616  0.3378  1.8596 -0.6784
 4661SOL    HW225620   2.734   1.286   3.684 -2.8565 -2.2414 -1.7161
 4662SOL     OW25621   1.191   0.926   4.582  0.4577 -0.4012 -0.2610
 4662SOL    HW125622   1.207   0.858   4.647 -0.4103  0.1895  0.5773
 4662SOL    HW225623   1.202   1.006   4.635  4.5340 -0.5014 -0.9473
 4663SOL     OW25624   3.424   1.419  12.460  0.6764  0.1577 -0.6248
 4663SOL    HW125625   3.453   1.510  12.467  1.7906 -0.0346 -2.7648
 4663SOL    HW225626   3.510   1.380  12.480 -0.0201 -0.0378  1.9507
 4664SOL     OW25627   0.979   2.031   1.732 -0.3624 -0.0456  0.4673
 4664SOL    HW125628   0.973   1.946   1.775  1.2302 -0.0515  0.6728
 4664SOL    HW225629   0.901   2.022   1.677 -0.8964  2.1152  0.8694
 4665SOL     OW25630   0.490   0.487  12.534 -0.3757 -0.0993  0.0563
 4665SOL    HW125631   0.398   0.495  12.557 -0.0256  0.8627  1.1561
 4665SOL    HW225632   0.504   0.417  12.599  0.2906  1.5164  1.6757
 4666SOL     OW25633   3.821   3.656  12.412 -0.4324 -0.0467 -0.0739
 4666SOL    HW125634   3.806   3.591  12.481 -2.4545  0.3815 -0.1227
 4666SOL    HW225635   3.740   3.646  12.363 -1.3069  2.4352  0.8327
 4667SOL     OW25636   0.078   0.909   4.811 -0.0800 -0.1895  0.2787
 4667SOL    HW125637   0.108   0.872   4.894 -1.3602 -0.0385  0.8000
 4667SOL    HW225638   0.041   0.832   4.768 -0.3987 -0.4731  1.0750
 4668SOL     OW25639   4.461   3.507  16.105 -0.4512 -0.7808  0.3351
 4668SOL    HW125640   4.533   3.501  16.042 -1.3668  0.0337 -0.7976
 4668SOL    HW225641   4.397   3.549  16.047  0.1662 -0.3064  0.0011
 4669SOL     OW25642   0.386   0.276   1.711 -0.1632  0.4042 -0.0499
 4669SOL    HW125643   0.389   0.228   1.628 -0.4870  0.1737  0.0718
 4669SOL    HW225644   0.440   0.354   1.704 -1.2303  1.1289 -0.1543
 4670SOL     OW25645   0.352   3.437   3.090  0.1653  0.0054  0.5120
 4670SOL    HW125646   0.358   3.365   3.153  2.9866 -0.5999 -0.4482
 4670SOL    HW225647   0.273   3.476   3.126  0.1872 -1.5769  2.3092
 4671SOL     OW25648   0.734   0.449   6.747  0.4032 -0.0484 -0.0572
 4671SOL    HW125649   0.700   0.538   6.746 -1.0412 -0.6282 -1.7618
 4671SOL    HW225650   0.696   0.411   6.669  1.1792 -0.2611 -0.3336
 4672SOL     OW25651   3.210   0.891   7.303  0.1310  0.2992  0.5953
 4672SOL    HW125652   3.208   0.889   7.208  2.2858  0.1829  0.5541
 4672SOL    HW225653   3.221   0.984   7.323  1.1181 -0.5312  3.9037
 4673SOL     OW25654   2.886   0.141  15.586 -0.5384  0.0426 -0.3967
 4673SOL    HW125655   2.845   0.059  15.615 -0.0604 -0.4977 -1.2574
 4673SOL    HW225656   2.969   0.141  15.634 -2.3049 -0.6316  2.6809
 4674SOL     OW25657   3.147   4.547   6.645  0.0603 -0.0857 -0.4782
 4674SOL    HW125658   3.097   4.626   6.625  1.3639  1.0748  0.7720
 4674SOL    HW225659   3.090   4.496   6.702 -0.3138 -0.2391 -0.9914
 4675SOL     OW25660   1.522   3.239   7.078 -0.6390  0.6245 -0.1925
 4675SOL    HW125661   1.604   3.194   7.058 -0.4547  1.1607 -0.6448
 4675SOL    HW225662   1.479   3.173   7.133  0.3338 -1.0500 -1.4300
 4676SOL     OW25663   2.358   0.643   6.283  0.2556  0.3188 -0.3302
 4676SOL    HW125664   2.307   0.604   6.354 -1.0575  0.7852 -1.0258
 4676SOL    HW225665   2.409   0.566   6.256  1.7958  1.1971  0.0466
 4677SOL     OW25666   0.449   2.821   2.427  0.3237  0.7983 -0.1977
 4677SOL    HW125667   0.524   2.764   2.409 -1.5609 -2.3288  1.8731
 4677SOL    HW225668   0.379   2.764   2.396 -0.0413 -0.0114  2.0659
 4678SOL     OW25669   0.013   3.170   8.069  0.3476  0.4543 -0.2830
 4678SOL    HW125670   0.049   3.083   8.089 -1.8788 -0.9009 -2.1353
 4678SOL    HW225671   4.715   3.192   8.153 -0.9869  0.7806 -0.9986
 4679SOL     OW25672   0.985   1.036   2.367  0.0282 -0.0292  0.1577
 4679SOL    HW125673   1.051   1.018   2.301  0.6252  0.2902  0.6771
 4679SOL    HW225674   0.903   1.005   2.328  0.8519 -1.0938 -0.7411
 4680SOL     OW25675   3.902   4.367   3.194  0.0967 -0.0605  0.3773
 4680SOL    HW125676   3.821   4.414   3.175  0.3348  0.5086  0.7933
 4680SOL    HW225677   3.958   4.422   3.248  0.5916  1.2395 -1.4603
 4681SOL     OW25678   1.197   4.191   2.971 -0.0414 -0.1372 -0.8517
 4681SOL    HW125679   1.129   4.173   2.907  0.0033 -1.1188 -0.6249
 4681SOL    HW225680   1.241   4.269   2.935 -0.1524  0.7843  0.9604
 4682SOL     OW25681   1.785   1.780  13.101 -0.4892  0.6356  0.0132
 4682SOL    HW125682   1.801   1.841  13.172  1.9114  4.0685 -3.4838
 4682SOL    HW225683   1.727   1.721  13.149 -1.6740  0.4424 -1.6363
 4683SOL     OW25684   3.045   4.335  11.950  0.1645 -0.1607  0.3774
 4683SOL    HW125685   2.974   4.361  12.009 -0.6117 -1.0123 -0.1894
 4683SOL    HW225686   3.105   4.410  11.950 -0.4444  0.3214  0.1445
 4684SOL     OW25687   4.047   3.944   5.007  0.1451 -0.2436 -0.6535
 4684SOL    HW125688   4.074   3.857   4.977  1.2479  0.4397 -1.6268
 4684SOL    HW225689   4.020   3.982   4.924 -0.2509 -1.6376 -1.1642
 4685SOL     OW25690   4.479   3.736  17.191 -0.3992 -0.4553 -0.3375
 4685SOL    HW125691   4.506   3.828  17.188  0.8093 -0.8365 -1.2032
 4685SOL    HW225692   4.537   3.705  17.261 -0.7359 -1.0515 -0.3235
 4686SOL     OW25693   3.461   0.196   4.011 -0.2918 -0.6496 -0.0176
 4686SOL    HW125694   3.383   0.212   4.064  0.2233 -1.6214  1.0346
 4686SOL    HW225695   3.472   0.101   4.011 -1.0575 -0.7440 -0.3178
 4687SOL     OW25696   2.855   4.192  12.448  0.6686  0.3435  0.6944
 4687SOL    HW125697   2.917   4.156  12.512  0.4041  0.5807  1.0829
 4687SOL    HW225698   2.888   4.281  12.442 -0.4924  0.7834  0.7766
 4688SOL     OW25699   2.208   3.415   7.863 -0.1175  0.1907  0.1109
 4688SOL    HW125700   2.274   3.369   7.916  1.3333  1.8293 -0.2433
 4688SOL    HW225701   2.147   3.418   7.937  0.9643  1.3346  0.9704
 4689SOL     OW25702   3.474   2.127   6.744 -0.0910 -0.4047  0.5288
 4689SOL    HW125703   3.544   2.061   6.747 -1.9127 -2.3640 -0.5487
 4689SOL    HW225704   3.508   2.190   6.680  0.3792 -3.3253 -2.0962
 4690SOL     OW25705   1.455   1.418  16.537 -0.1086 -0.4990 -0.1782
 4690SOL    HW125706   1.489   1.437  16.450 -1.2151 -0.9190 -0.7037
 4690SOL    HW225707   1.360   1.424  16.525 -0.0314 -0.0601 -0.5648
 4691SOL     OW25708   3.060   4.358   4.216  0.4481 -0.1420 -0.0341
 4691SOL    HW125709   3.040   4.346   4.123  3.5786  3.9603 -1.2270
 4691SOL    HW225710   3.102   4.272   4.223 -0.7984 -0.8140 -0.7582
 4692SOL     OW25711   2.023   0.462   7.529  0.7061 -0.6378  0.2862
 4692SOL    HW125712   1.929   0.444   7.531  0.3066  1.2485 -1.5234
 4692SOL    HW225713   2.021   0.533   7.464  0.7218  0.0212  1.0075
 4693SOL     OW25714   2.082   2.510  14.119 -0.1118 -0.0449  0.4226
 4693SOL    HW125715   2.123   2.441  14.068 -0.1540 -0.2036  0.6004
 4693SOL    HW225716   2.020   2.456  14.168 -0.2027 -0.2649  0.0557
 4694SOL     OW25717   4.142   3.173   6.880 -0.3792 -0.1079 -0.0543
 4694SOL    HW125718   4.126   3.111   6.809 -1.4751  2.3162 -1.9515
 4694SOL    HW225719   4.060   3.166   6.929 -1.2288 -2.0754 -1.7700
 4695SOL     OW25720   1.782   2.216   4.130  0.2221  0.3325  0.0223
 4695SOL    HW125721   1.809   2.265   4.053  0.1000  1.1435  0.4937
 4695SOL    HW225722   1.829   2.135   4.109  2.5867  2.0608 -1.3523
 4696SOL     OW25723   4.237   3.854   1.931 -0.1063  0.1301  0.0849
 4696SOL    HW125724   4.165   3.795   1.955 -0.2122  0.2288  0.0105
 4696SOL    HW225725   4.238   3.864   1.836  2.0305  0.8635  0.1876
 4697SOL     OW25726   1.060   4.342  16.675 -0.4110  0.4623  0.1691
 4697SOL    HW125727   0.970   4.362  16.700 -0.8814 -1.8840  0.3566
 4697SOL    HW225728   1.097   4.358  16.762  1.9326 -0.9362 -0.5488
 4698SOL     OW25729   2.624   2.999  17.326  0.3792 -0.5532  0.5556
 4698SOL    HW125730   2.630   3.031  17.416  2.1597 -0.2767  0.3489
 4698SOL    HW225731   2.586   2.912  17.335  2.2103 -1.3587  0.4576
 4699SOL     OW25732   3.810   2.494   1.895  0.8061  0.4330 -0.5605
 4699SOL    HW125733   3.719   2.473   1.914  0.3535  2.1531 -0.8456
 4699SOL    HW225734   3.862   2.444   1.958 -0.3071 -1.0312 -0.7781
 4700SOL     OW25735   4.457   2.857  12.953  0.1204 -0.0478  0.0353
 4700SOL    HW125736   4.435   2.948  12.973 -0.4973  0.3877 -2.5674
 4700SOL    HW225737   4.394   2.833  12.885  0.1999 -0.6698  0.1785
 4701SOL     OW25738   1.049   2.880  10.050  0.5800 -0.4665  0.4146
 4701SOL    HW125739   1.093   2.950  10.002  1.6330  0.1962  2.3070
 4701SOL    HW225740   1.127   2.825  10.060  0.7697  0.0039  1.5834
 4702SOL     OW25741   3.344   3.160   7.689 -0.0047  0.2762  0.6278
 4702SOL    HW125742   3.413   3.095   7.700  0.1381  0.5713  1.5277
 4702SOL    HW225743   3.378   3.239   7.730  0.6555  0.1093  0.3946
 4703SOL     OW25744   4.407   1.828   9.279 -0.0119  0.4478 -0.1460
 4703SOL    HW125745   4.407   1.922   9.299 -1.6383  0.3829  0.1518
 4703SOL    HW225746   4.501   1.823   9.262 -0.0611 -0.6227 -0.1004
 4704SOL     OW25747   0.905   2.391   4.715 -0.0986 -0.6918 -0.0041
 4704SOL    HW125748   0.896   2.486   4.715  1.0612 -0.5772 -1.3700
 4704SOL    HW225749   0.980   2.391   4.775  0.4245  1.2493 -0.6553
 4705SOL     OW25750   2.622   3.793  14.955  0.6356  0.2394 -0.0525
 4705SOL    HW125751   2.562   3.862  14.927  0.5500  0.1148 -0.1821
 4705SOL    HW225752   2.561   3.742  15.008  2.5997 -2.2729 -0.1612
 4706SOL     OW25753   4.319   0.660   5.979 -0.0959  0.2575 -0.0961
 4706SOL    HW125754   4.291   0.642   5.890  0.3922 -0.8877 -0.0113
 4706SOL    HW225755   4.414   0.675   5.971 -0.1252  0.7223  0.3450
 4707SOL     OW25756   3.218   2.126   6.857  0.2438 -0.5259 -0.3562
 4707SOL    HW125757   3.183   2.037   6.862 -0.3880 -0.1742  1.4150
 4707SOL    HW225758   3.314   2.118   6.855  0.0247 -3.2206  0.3467
 4708SOL     OW25759   1.417   2.273  16.615  0.2292 -0.0990  0.2060
 4708SOL    HW125760   1.322   2.267  16.617  0.0502  2.5403  0.2351
 4708SOL    HW225761   1.428   2.343  16.679  1.8938  0.4798 -0.7063
 4709SOL     OW25762   1.945   2.293   1.561  1.0668 -0.4018  0.3603
 4709SOL    HW125763   1.858   2.284   1.601  1.1588 -0.7484  0.4777
 4709SOL    HW225764   2.011   2.307   1.629  0.6207 -1.0988  0.9311
 4710SOL     OW25765   3.019   4.648  12.968 -0.3982 -0.0755  0.2981
 4710SOL    HW125766   3.083   4.582  12.943 -1.0664 -0.6602  0.1410
 4710SOL    HW225767   2.938   4.598  12.970  0.2284 -1.1286 -0.4728
 4711SOL     OW25768   4.190   2.450   7.868  0.3482 -0.4255  0.2575
 4711SOL    HW125769   4.124   2.389   7.834 -0.1386 -0.4087  1.1521
 4711SOL    HW225770   4.219   2.505   7.795  0.6662  0.2175  0.8663
 4712SOL     OW25771   0.010   2.827  11.272 -0.6147  0.2749  0.1608
 4712SOL    HW125772   0.033   2.848  11.363  1.0350  1.8222 -0.6361
 4712SOL    HW225773   4.658   2.846  11.283 -0.7038 -1.1548  1.9334
 4713SOL     OW25774   0.384   0.941  10.959 -0.8744 -0.0569  0.2811
 4713SOL    HW125775   0.456   0.883  10.935 -1.2790 -1.3629  2.2592
 4713SOL    HW225776   0.320   0.876  10.987  1.6645 -2.2623  0.9211
 4714SOL     OW25777   4.498   0.855   5.686 -0.1107  0.1195 -0.1287
 4714SOL    HW125778   4.563   0.806   5.736 -2.2218 -2.2107  0.3329
 4714SOL    HW225779   4.482   0.930   5.743  0.3288  0.7947 -0.9017
 4715SOL     OW25780   0.258   2.227  11.974 -0.5076 -0.0195  0.3132
 4715SOL    HW125781   0.176   2.184  11.950 -0.6742 -0.1358  1.0772
 4715SOL    HW225782   0.271   2.267  11.888  3.0005  0.6615  1.1593
 4716SOL     OW25783   1.360   3.336   8.032  0.7215  0.0733  0.7846
 4716SOL    HW125784   1.286   3.373   7.985  2.4722  0.8462 -1.4090
 4716SOL    HW225785   1.350   3.251   7.990 -1.4858  1.1127 -0.7784
 4717SOL     OW25786   0.745   3.005  14.721 -0.0006 -0.0810  0.1045
 4717SOL    HW125787   0.649   3.000  14.728 -0.0821  0.4105 -0.7039
 4717SOL    HW225788   0.777   2.996  14.811  0.0096 -0.2213  0.0864
 4718SOL     OW25789   4.727   0.828   8.101 -0.6372  0.2667  0.0138
 4718SOL    HW125790   0.074   0.815   8.070 -1.1989  1.0045 -1.9229
 4718SOL    HW225791   4.711   0.920   8.081  2.7926  0.6833 -0.8321
 4719SOL     OW25792   3.865   4.293   9.773  1.1908 -0.3605 -0.5317
 4719SOL    HW125793   3.951   4.322   9.742  0.5207  0.9654 -1.1738
 4719SOL    HW225794   3.812   4.370   9.751  1.6141 -0.6508 -2.4959
 4720SOL     OW25795   4.434   3.443  14.357  0.2180 -0.1213 -0.5829
 4720SOL    HW125796   4.487   3.376  14.399 -0.0996 -0.6306 -0.9863
 4720SOL    HW225797   4.418   3.401  14.272  2.1985  1.2872 -1.6583
 4721SOL     OW25798   3.548   2.368   8.970 -0.2394 -0.3517 -0.3197
 4721SOL    HW125799   3.513   2.280   8.960 -1.0874  0.0434 -0.8157
 4721SOL    HW225800   3.609   2.364   8.897 -1.9805 -1.4715 -1.6991
 4722SOL     OW25801   1.332   3.703   2.549  0.2856  0.4899 -0.0887
 4722SOL    HW125802   1.411   3.722   2.499 -0.0595 -2.3512 -1.7443
 4722SOL    HW225803   1.282   3.784   2.539 -0.3006  0.1905  0.3833
 4723SOL     OW25804   1.139   0.769   3.505  0.4426 -0.0974  0.4118
 4723SOL    HW125805   1.209   0.706   3.520 -0.7741 -1.6737 -0.4780
 4723SOL    HW225806   1.069   0.745   3.566  0.7578 -1.1192  0.3669
 4724SOL     OW25807   3.658   3.898   7.777 -0.0746  0.1747 -0.4798
 4724SOL    HW125808   3.753   3.892   7.780 -0.0727 -1.1182 -3.3056
 4724SOL    HW225809   3.634   3.936   7.861 -1.9669  0.6510 -1.2303
 4725SOL     OW25810   2.205   2.203   8.425  0.1058 -0.6183  0.4707
 4725SOL    HW125811   2.186   2.128   8.482 -1.8698 -0.9605 -0.6409
 4725SOL    HW225812   2.298   2.190   8.407 -0.5565 -1.5937 -2.1338
 4726SOL     OW25813   3.553   2.567   0.674  0.3455 -0.0831  0.2412
 4726SOL    HW125814   3.473   2.614   0.651  0.7943  0.7787  0.4384
 4726SOL    HW225815   3.527   2.478   0.650 -0.5421  0.2347  0.0542
 4727SOL     OW25816   0.362   4.360   3.130 -0.0348  0.3370 -0.0207
 4727SOL    HW125817   0.361   4.272   3.094  2.3908  0.1516  0.3361
 4727SOL    HW225818   0.454   4.386   3.119 -0.3828  1.8734  0.5864
 4728SOL     OW25819   3.806   4.023   2.848 -0.0910  0.2757 -0.2218
 4728SOL    HW125820   3.898   4.039   2.865  0.1264  1.0093 -2.1206
 4728SOL    HW225821   3.769   4.017   2.936  2.6049  2.3104  1.0373
 4729SOL     OW25822   2.529   4.569   4.760  0.4116  0.0725  0.0432
 4729SOL    HW125823   2.565   4.630   4.695 -1.2230  0.5697 -0.3810
 4729SOL    HW225824   2.550   4.483   4.724 -1.3073  0.2304 -1.3445
 4730SOL     OW25825   0.322   3.094   3.077 -0.4055 -0.0910  0.0346
 4730SOL    HW125826   0.260   3.021   3.076 -0.9001  0.3363 -0.4159
 4730SOL    HW225827   0.285   3.141   3.003  1.4058  0.7603 -0.3422
 4731SOL     OW25828   3.192   1.831   1.300 -0.3711  0.5894 -0.6136
 4731SOL    HW125829   3.169   1.866   1.214  0.4785 -0.2946 -1.1950
 4731SOL    HW225830   3.121   1.769   1.316 -0.8728  1.0312 -1.1051
 4732SOL     OW25831   2.334   4.674   7.314 -0.1757  0.4248  0.1507
 4732SOL    HW125832   2.410   4.731   7.327  0.7176 -0.7427  0.0732
 4732SOL    HW225833   2.290   4.687   7.398 -0.7210 -1.6062  0.1762
 4733SOL     OW25834   3.100   3.603   8.827 -0.7856  0.1581  0.1050
 4733SOL    HW125835   3.180   3.644   8.858  0.3496  0.2662 -2.8888
 4733SOL    HW225836   3.139   3.520   8.799  1.5359  0.8847  1.2017
 4734SOL     OW25837   3.463   3.093   8.888 -0.4498  0.2499  0.3648
 4734SOL    HW125838   3.387   3.119   8.940 -0.1145  3.5182 -0.8171
 4734SOL    HW225839   3.441   3.000   8.887 -1.3134  0.4521  0.2393
 4735SOL     OW25840   4.180   4.168  14.660 -0.7114  0.1827 -0.2788
 4735SOL    HW125841   4.264   4.198  14.625  0.5978 -0.9237  1.9023
 4735SOL    HW225842   4.190   4.073  14.655 -1.3153  0.0303  1.7640
 4736SOL     OW25843   3.776   2.516   7.349 -0.2501  0.0539  0.4121
 4736SOL    HW125844   3.704   2.473   7.396  0.3999  0.8062  2.1142
 4736SOL    HW225845   3.853   2.467   7.379  0.3789  1.2263  0.7240
 4737SOL     OW25846   1.757   2.231   1.779  0.2259  0.0949  0.6491
 4737SOL    HW125847   1.737   2.324   1.793 -1.4385 -0.2982  0.8426
 4737SOL    HW225848   1.673   2.194   1.752  0.8417  0.5916 -1.8921
 4738SOL     OW25849   0.223   2.901   9.350  0.3659  0.1505  0.2803
 4738SOL    HW125850   0.247   2.937   9.264  1.6777  0.7332  0.8868
 4738SOL    HW225851   0.171   2.972   9.389 -0.4206 -0.2653 -0.0291
 4739SOL     OW25852   1.055   3.690   6.301 -0.0588  0.1617  0.1599
 4739SOL    HW125853   1.027   3.775   6.269  0.3782  0.4737  0.6024
 4739SOL    HW225854   0.981   3.631   6.319  1.1019 -0.3825  3.1045
 4740SOL     OW25855   0.941   2.670   3.113  0.0223 -0.8093 -0.3250
 4740SOL    HW125856   1.016   2.668   3.173  0.3317 -2.7423 -0.7785
 4740SOL    HW225857   0.877   2.612   3.155 -0.7057 -1.4059 -2.2517
 4741SOL     OW25858   1.634   4.217  12.540 -0.4637 -0.0616 -0.1017
 4741SOL    HW125859   1.725   4.186  12.543 -0.8092 -1.1031 -0.5590
 4741SOL    HW225860   1.644   4.291  12.601  0.1516 -0.2680  0.0460
 4742SOL     OW25861   0.051   1.593   7.611  1.0955 -0.1531 -0.3269
 4742SOL    HW125862   0.096   1.644   7.543  1.3562 -0.6562 -0.5368
 4742SOL    HW225863   0.110   1.589   7.686 -0.9214 -1.2277  1.1954
 4743SOL     OW25864   0.794   1.191  16.417  0.6334  0.2105 -0.2758
 4743SOL    HW125865   0.877   1.201  16.464  0.4165 -4.0801  0.9525
 4743SOL    HW225866   0.822   1.247  16.344  2.8828 -1.0829 -0.3925
 4744SOL     OW25867   4.011   0.767   6.897 -0.2597  0.1926  0.0284
 4744SOL    HW125868   3.993   0.681   6.936  0.8608 -0.5181 -1.0340
 4744SOL    HW225869   3.934   0.815   6.927 -0.9705 -1.5771  1.0467
 4745SOL     OW25870   3.107   1.886   6.888  0.7048 -0.3909  0.1725
 4745SOL    HW125871   3.098   1.829   6.811  1.2258 -0.1759 -0.0465
 4745SOL    HW225872   3.168   1.854   6.954  0.7518 -1.9336 -0.6103
 4746SOL     OW25873   2.646   4.319   4.715 -0.1961  0.1515  0.2311
 4746SOL    HW125874   2.626   4.331   4.808  2.4890  0.5396  0.7780
 4746SOL    HW225875   2.675   4.228   4.727 -1.0026 -0.2789 -1.1579
 4747SOL     OW25876   0.177   3.154   1.055 -0.2977  0.1648 -0.6489
 4747SOL    HW125877   0.149   3.086   0.994 -1.6294  0.0911  0.0489
 4747SOL    HW225878   0.169   3.101   1.135 -1.0655 -0.1873 -0.9575
 4748SOL     OW25879   0.169   2.235   2.641  0.5777 -0.0480  0.3364
 4748SOL    HW125880   0.153   2.242   2.735 -0.3313 -1.4523  0.2971
 4748SOL    HW225881   0.238   2.300   2.632 -0.3499  0.6806 -1.5643
 4749SOL     OW25882   0.003   1.512  13.426 -0.1129  0.4677 -0.8026
 4749SOL    HW125883   4.722   1.459  13.502 -0.7575 -0.4202 -1.6239
 4749SOL    HW225884   4.660   1.511  13.383 -0.5931 -2.0935  0.1843
 4750SOL     OW25885   0.237   1.844   8.559  0.0931 -0.4458 -0.1061
 4750SOL    HW125886   0.242   1.927   8.512  3.8372 -0.0838  0.9384
 4750SOL    HW225887   0.144   1.856   8.579 -0.1322 -2.4172 -0.0086
 4751SOL     OW25888   0.292   1.811   6.308 -0.1937  0.4923  0.0867
 4751SOL    HW125889   0.336   1.847   6.385  0.2176 -0.8126  0.4458
 4751SOL    HW225890   0.360   1.841   6.247  0.8980  2.4621  2.2521
 4752SOL     OW25891   0.155   3.717  17.024  0.2754  0.1594 -0.3591
 4752SOL    HW125892   0.067   3.729  16.989 -0.0712  0.8609  0.7424
 4752SOL    HW225893   0.163   3.790  17.086  0.2705 -0.9119  0.9114
 4753SOL     OW25894   3.327   3.549  15.816 -0.5214  0.4097  0.1727
 4753SOL    HW125895   3.264   3.488  15.778 -1.5878  1.6536 -0.0689
 4753SOL    HW225896   3.272   3.624  15.839 -1.7675 -0.4302 -0.0412
 4754SOL     OW25897   1.952   0.193   4.991 -0.1619  0.0071 -0.6254
 4754SOL    HW125898   1.975   0.256   5.059  1.5993  0.2766 -1.4941
 4754SOL    HW225899   2.021   0.128   5.003 -1.7185 -1.5665 -0.2351
 4755SOL     OW25900   0.762   0.444   6.245  0.2943 -0.2498  0.1385
 4755SOL    HW125901   0.766   0.429   6.151  1.5209  0.3640  0.0950
 4755SOL    HW225902   0.784   0.536   6.257 -0.5374 -0.3545  2.5605
 4756SOL     OW25903   3.872   0.526   5.852  0.0109 -0.4426  0.2811
 4756SOL    HW125904   3.910   0.483   5.928  0.9035 -0.0702  0.0381
 4756SOL    HW225905   3.952   0.523   5.800  0.6823  1.1066  1.2538
 4757SOL     OW25906   0.466   1.514   8.320  0.1208  0.0140 -0.0579
 4757SOL    HW125907   0.402   1.443   8.314  0.7444 -0.5783  0.3002
 4757SOL    HW225908   0.439   1.550   8.404  1.6067 -1.3667  1.0004
 4758SOL     OW25909   3.523   4.703  10.366 -0.5049 -0.0582  0.3488
 4758SOL    HW125910   3.579   4.725  10.292 -1.2655  0.1827 -0.1563
 4758SOL    HW225911   3.504   0.052  10.389 -1.2996  0.7640 -3.6230
 4759SOL     OW25912   3.715   2.857   6.130 -0.1199 -0.4086 -0.4514
 4759SOL    HW125913   3.743   2.949   6.133  0.8017 -0.7196  0.5435
 4759SOL    HW225914   3.629   2.868   6.170  0.3298 -1.8037  0.8788
 4760SOL     OW25915   2.376   0.351   2.143 -0.0701  0.0347  0.1925
 4760SOL    HW125916   2.334   0.377   2.061 -1.8832  2.9979  2.0742
 4760SOL    HW225917   2.359   0.257   2.148  1.3556 -0.1498  1.5180
 4761SOL     OW25918   3.770   2.735   4.767 -0.0177  1.2263 -0.0201
 4761SOL    HW125919   3.693   2.790   4.750 -1.0800 -0.0276  0.7516
 4761SOL    HW225920   3.825   2.799   4.811  0.3450  0.9316 -0.0434
 4762SOL     OW25921   2.572   3.341  15.349  0.1067  0.3175 -0.1250
 4762SOL    HW125922   2.620   3.375  15.274  0.4281 -1.6884 -0.8197
 4762SOL    HW225923   2.643   3.348  15.413  0.6213  0.1412 -0.6790
 4763SOL     OW25924   1.865   1.713  14.379 -0.3095 -0.1925  0.2653
 4763SOL    HW125925   1.951   1.740  14.410  0.3516  0.5593 -2.2009
 4763SOL    HW225926   1.829   1.690  14.464 -0.3666 -0.4787  0.1620
 4764SOL     OW25927   4.240   1.904   8.776 -0.0223  0.1674  0.1550
 4764SOL    HW125928   4.321   1.882   8.729  1.4171 -0.3641  2.8924
 4764SOL    HW225929   4.274   1.941   8.857  1.9453  1.1931 -1.1439
 4765SOL     OW25930   3.238   0.236   3.155 -0.0906  0.1229 -1.0780
 4765SOL    HW125931   3.321   0.201   3.188 -0.1729  0.1048 -0.8862
 4765SOL    HW225932   3.217   0.297   3.226 -1.1870 -0.5929 -0.7736
 4766SOL     OW25933   1.529   1.611   6.835  0.3402  0.0992  0.0530
 4766SOL    HW125934   1.472   1.662   6.778 -0.0813  0.7601  1.0689
 4766SOL    HW225935   1.561   1.548   6.770 -0.9182  0.4057 -0.8510
 4767SOL     OW25936   2.502   2.397  10.164  0.1145  0.2091 -0.1350
 4767SOL    HW125937   2.468   2.480  10.197 -1.3870 -0.0436 -1.0691
 4767SOL    HW225938   2.594   2.397  10.192 -0.0056  1.1343  0.2786
 4768SOL     OW25939   4.382   3.257  15.570 -0.0585 -0.2470  0.0469
 4768SOL    HW125940   4.354   3.209  15.492  0.5514 -0.6462  0.0743
 4768SOL    HW225941   4.473   3.227  15.566  0.0891 -0.1261  2.1038
 4769SOL     OW25942   1.919   1.598   6.038 -0.1997 -0.5478  0.1985
 4769SOL    HW125943   1.945   1.680   5.995 -2.4930 -0.0685 -0.2705
 4769SOL    HW225944   1.875   1.617   6.121  1.7430 -1.2582  1.3751
 4770SOL     OW25945   2.829   0.203  17.273 -0.2060  0.4058  0.2910
 4770SOL    HW125946   2.753   0.152  17.243  0.8230 -1.2737  0.5480
 4770SOL    HW225947   2.876   0.226  17.193  0.4021  1.2304  0.8805
 4771SOL     OW25948   0.391   1.169   8.674 -0.4989  0.6964  0.1644
 4771SOL    HW125949   0.471   1.221   8.685 -1.0903  1.6928 -0.2583
 4771SOL    HW225950   0.328   1.241   8.673 -1.1392  0.1516  2.0736
 4772SOL     OW25951   4.676   3.934  16.056  0.0212 -0.3634  0.1007
 4772SOL    HW125952   4.656   3.925  15.963  0.8447 -2.7278  0.1616
 4772SOL    HW225953   4.614   4.006  16.066 -2.0909 -1.7141 -3.2537
 4773SOL     OW25954   2.869   1.871   2.234 -0.4146 -0.3359 -0.0187
 4773SOL    HW125955   2.927   1.810   2.280 -1.2032 -0.9232  0.2004
 4773SOL    HW225956   2.919   1.874   2.153 -1.1676 -3.0479 -0.5829
 4774SOL     OW25957   0.777   4.199   4.285  0.2370  0.0565 -0.3523
 4774SOL    HW125958   0.846   4.173   4.225 -2.1393  1.3766 -3.6632
 4774SOL    HW225959   0.769   4.123   4.342  1.5459  0.4824  0.4002
 4775SOL     OW25960   4.655   0.940   4.031 -0.3397 -1.0914 -0.4759
 4775SOL    HW125961   4.686   0.952   3.941 -0.2414 -2.3959 -0.6237
 4775SOL    HW225962   4.563   0.966   4.024  0.6571  2.0956 -1.8422
 4776SOL     OW25963   1.129   4.398   2.668  0.6405 -0.0145  0.3662
 4776SOL    HW125964   1.216   4.433   2.685  0.3626  1.6718 -1.6865
 4776SOL    HW225965   1.157   4.331   2.605 -1.0977 -0.8555  0.4909
 4777SOL     OW25966   1.952   3.684   3.994  0.1429  1.0831 -0.3538
 4777SOL    HW125967   1.922   3.694   3.903 -1.5165  1.1627  0.2082
 4777SOL    HW225968   1.953   3.589   4.003  0.0980  1.0381 -0.7942
 4778SOL     OW25969   3.193   0.959   6.291 -0.0633  0.3339  0.4567
 4778SOL    HW125970   3.147   1.018   6.231 -0.1282 -1.1944 -0.9726
 4778SOL    HW225971   3.279   0.988   6.262 -0.3737  0.7310 -0.0803
 4779SOL     OW25972   2.499   2.545   4.658  0.1924 -0.0174  0.2292
 4779SOL    HW125973   2.541   2.514   4.577  0.2326 -0.0016  0.2438
 4779SOL    HW225974   2.568   2.590   4.707 -0.8327 -1.3152  2.9081
 4780SOL     OW25975   0.915   1.690   4.698  0.1892 -0.1923 -0.4321
 4780SOL    HW125976   0.926   1.784   4.684  1.1440 -0.0608  1.1781
 4780SOL    HW225977   0.887   1.664   4.610  2.5467 -0.2574 -1.1472
 4781SOL     OW25978   2.541   3.320   1.853  0.3565  0.3878 -0.0135
 4781SOL    HW125979   2.635   3.316   1.872  0.2049 -0.8222  0.4801
 4781SOL    HW225980   2.516   3.392   1.910  2.5125  0.2020  1.1751
 4782SOL     OW25981   3.004   3.010   3.574  0.1952  0.1319 -0.1009
 4782SOL    HW125982   3.060   2.977   3.504  0.8061 -1.3864  1.0908
 4782SOL    HW225983   2.920   3.013   3.527  0.8849 -0.3220 -1.3495
 4783SOL     OW25984   4.368   4.022   2.867 -0.2508  0.0484  0.4004
 4783SOL    HW125985   4.415   3.938   2.873 -4.1714 -2.0838  0.9499
 4783SOL    HW225986   4.385   4.041   2.775 -1.7965  2.9322  0.7454
 4784SOL     OW25987   1.005   3.504   3.827 -0.0173 -0.4811  0.0475
 4784SOL    HW125988   0.965   3.532   3.910 -1.4444 -2.6136  0.0732
 4784SOL    HW225989   0.943   3.534   3.761  1.0195  0.9101 -0.2879
 4785SOL     OW25990   1.528   3.285   4.605 -0.3149 -0.0881 -0.0134
 4785SOL    HW125991   1.609   3.260   4.649  0.1832  2.6915  0.6210
 4785SOL    HW225992   1.526   3.380   4.610  0.5610  0.0039 -1.4394
 4786SOL     OW25993   0.114   2.997  17.403 -0.1143  0.1840 -0.4207
 4786SOL    HW125994   0.173   3.025  17.473  1.9740  0.3094 -2.2093
 4786SOL    HW225995   0.046   2.945  17.445 -0.8414 -0.7179 -2.7242
 4787SOL     OW25996   2.164   0.307  14.283 -0.0853  0.0257 -0.2569
 4787SOL    HW125997   2.151   0.392  14.324 -2.5829 -0.0128 -0.9247
 4787SOL    HW225998   2.258   0.312  14.268 -0.1791  0.0159 -0.8370
 4788SOL     OW25999   4.241   4.268   3.782 -0.7886 -0.2657 -0.3986
 4788SOL    HW126000   4.187   4.190   3.791  1.2545 -1.6237  0.2068
 4788SOL    HW226001   4.204   4.315   3.857 -0.2687 -0.1478 -0.2173
 4789SOL     OW26002   2.910   3.819  17.657 -0.2024 -0.0195 -0.1600
 4789SOL    HW126003   2.871   3.783  17.577  0.3887  1.0620 -0.9361
 4789SOL    HW226004   2.899   3.748  17.720  2.1099 -0.1436  0.1280
 4790SOL     OW26005   4.193   4.046   9.214  0.2691 -0.5193 -0.0624
 4790SOL    HW126006   4.252   4.122   9.213 -0.8084  0.2953 -4.3407
 4790SOL    HW226007   4.110   4.081   9.182 -0.0384 -0.0632  1.2630
 4791SOL     OW26008   2.910   1.061  12.951  0.0097 -0.5096  0.2026
 4791SOL    HW126009   2.922   1.013  13.033  2.0054  0.8953  0.7420
 4791SOL    HW226010   2.971   1.134  12.965  0.5712 -0.4301 -2.6682
 4792SOL     OW26011   1.724   0.443   3.883  0.0845 -0.0677 -0.3162
 4792SOL    HW126012   1.644   0.465   3.835  0.8163  0.4621 -1.2922
 4792SOL    HW226013   1.724   0.348   3.872 -1.0562 -0.1102  0.0134
 4793SOL     OW26014   4.019   4.019  17.013  0.1046 -0.0929  0.0897
 4793SOL    HW126015   4.081   3.953  16.983  1.9934  2.2917 -1.2791
 4793SOL    HW226016   3.954   4.022  16.942 -0.0602 -1.2647  0.1878
 4794SOL     OW26017   3.702   1.169   7.945  0.4773  0.1490  0.6565
 4794SOL    HW126018   3.630   1.187   7.886  0.3157  1.1211  1.1482
 4794SOL    HW226019   3.759   1.133   7.877  1.0178  1.5107  0.3824
 4795SOL     OW26020   1.319   3.400   3.683  1.1252 -0.1071 -0.7033
 4795SOL    HW126021   1.375   3.407   3.605  0.9887  2.6999 -0.5301
 4795SOL    HW226022   1.306   3.491   3.708  1.5110  0.1821 -1.5282
 4796SOL     OW26023   3.082   2.549   9.093 -0.6565 -0.4085  0.0893
 4796SOL    HW126024   3.090   2.478   9.156 -0.1654  0.2412  0.7536
 4796SOL    HW226025   3.018   2.512   9.033  2.3517  0.7890 -3.9264
 4797SOL     OW26026   2.475   4.343  12.762  0.5248  0.0707  0.4652
 4797SOL    HW126027   2.491   4.295  12.680 -3.7525 -1.3496  0.4614
 4797SOL    HW226028   2.510   4.428  12.734  2.0541 -1.2962 -1.7658
 4798SOL     OW26029   0.061   2.253   2.905  0.3248 -0.0026 -0.4641
 4798SOL    HW126030   4.712   2.223   2.904  0.4370 -0.3981  1.2683
 4798SOL    HW226031   0.091   2.244   2.995  1.1738  1.2656 -0.6294
 4799SOL     OW26032   3.616   1.108   9.195 -0.4711  0.0064 -0.5892
 4799SOL    HW126033   3.644   1.086   9.284 -2.4320  1.9786  0.5461
 4799SOL    HW226034   3.683   1.057   9.150 -1.3243 -0.9428 -0.7789
 4800SOL     OW26035   1.982   4.048   3.320  0.1648  0.2147 -0.2977
 4800SOL    HW126036   1.984   3.970   3.376 -0.9014  0.1105 -0.4054
 4800SOL    HW226037   2.075   4.051   3.299 -0.3122  1.9418 -2.1492
 4801SOL     OW26038   2.695   2.494  17.344  0.1144  0.1974  0.2616
 4801SOL    HW126039   2.760   2.472  17.277  1.6653 -0.8932  2.1397
 4801SOL    HW226040   2.747   2.562  17.386 -1.7796  0.5688  1.9826
 4802SOL     OW26041   2.327   3.704   6.732 -0.0811 -0.1041  0.0204
 4802SOL    HW126042   2.340   3.717   6.638  0.4706 -0.2952  0.0670
 4802SOL    HW226043   2.395   3.765   6.761  1.0116 -0.8548 -0.9736
 4803SOL     OW26044   2.921   2.647  15.658  0.0539 -0.3436  0.2283
 4803SOL    HW126045   2.938   2.734  15.622  1.5208 -0.4787  0.6088
 4803SOL    HW226046   2.845   2.652  15.716  0.2956  1.1578  0.4197
 4804SOL     OW26047   0.276   3.561  11.959 -0.6366 -0.1569  0.1825
 4804SOL    HW126048   0.370   3.576  11.952 -0.6033  0.6804  2.2299
 4804SOL    HW226049   0.266   3.526  12.048  0.6649 -1.1335 -0.0636
 4805SOL     OW26050   1.998   3.309  12.192 -0.2068  0.2320  0.5226
 4805SOL    HW126051   1.974   3.364  12.118  0.9003  0.7011  0.5120
 4805SOL    HW226052   2.085   3.344  12.210  0.1211  0.4102 -1.4553
 4806SOL     OW26053   3.059   1.498  15.782 -0.2262 -0.1500 -1.4778
 4806SOL    HW126054   3.078   1.572  15.841 -0.3604 -1.2520 -0.0678
 4806SOL    HW226055   3.083   1.423  15.835 -0.6285  2.6582  2.7171
 4807SOL     OW26056   4.373   3.315   1.473  0.0754 -0.3818 -0.5010
 4807SOL    HW126057   4.448   3.278   1.520  0.2585  2.6917  1.6077
 4807SOL    HW226058   4.306   3.299   1.540 -0.2051 -1.7871 -1.1156
 4808SOL     OW26059   1.091   1.373  12.942 -0.0487  1.2364 -0.0793
 4808SOL    HW126060   1.031   1.301  12.923  3.0306 -1.4968  0.3950
 4808SOL    HW226061   1.115   1.327  13.023 -1.5275  0.4184 -0.1120
 4809SOL     OW26062   2.997   2.369   6.721 -0.5215 -0.5549  0.2165
 4809SOL    HW126063   3.017   2.278   6.696  1.1926 -0.1861  0.2525
 4809SOL    HW226064   3.043   2.423   6.657  0.0121 -2.1211 -0.7467
 4810SOL     OW26065   1.458   0.216   3.079 -0.1809 -0.0466 -0.1542
 4810SOL    HW126066   1.444   0.287   3.015 -2.7745  0.7783  1.3206
 4810SOL    HW226067   1.451   0.267   3.160  0.9140  0.6388 -0.4882
 4811SOL     OW26068   0.452   1.663   1.544 -0.1168 -0.8081 -0.1641
 4811SOL    HW126069   0.524   1.633   1.489  0.2436 -1.7251  0.8159
 4811SOL    HW226070   0.498   1.693   1.622 -2.4265  1.1614  0.4508
 4812SOL     OW26071   3.953   1.481  16.350 -0.4708 -0.2879  0.4368
 4812SOL    HW126072   3.966   1.396  16.309 -1.4993  0.1597 -0.8185
 4812SOL    HW226073   3.864   1.461  16.382 -0.2258  1.2474  2.0864
 4813SOL     OW26074   0.473   1.077   9.493 -0.0888 -0.0887  0.2094
 4813SOL    HW126075   0.552   1.075   9.547 -0.9943  2.3031  1.6021
 4813SOL    HW226076   0.403   1.094   9.555  0.7689 -0.8805  1.4130
 4814SOL     OW26077   2.476   2.013   4.798  0.2271  0.1937 -0.0773
 4814SOL    HW126078   2.406   2.026   4.862 -0.8138 -0.6370 -1.0628
 4814SOL    HW226079   2.448   2.069   4.726 -3.1152  1.9960  2.6380
 4815SOL     OW26080   2.946   4.033  12.754  0.0358 -0.2923  0.2499
 4815SOL    HW126081   2.889   3.960  12.778 -0.4468 -0.4652 -1.4084
 4815SOL    HW226082   3.002   4.042  12.832 -1.3024  3.6022  0.7901
 4816SOL     OW26083   2.931   3.268  11.221  0.2015  0.9561 -0.3385
 4816SOL    HW126084   2.954   3.298  11.133  0.2018  1.8178 -0.0527
 4816SOL    HW226085   2.903   3.352  11.258 -2.3772 -1.3397  2.9656
 4817SOL     OW26086   3.033   1.984   2.940  0.6730  0.0489 -0.6912
 4817SOL    HW126087   3.076   1.996   3.024  1.5499  1.0897 -1.2941
 4817SOL    HW226088   3.100   1.953   2.878  1.0932  0.5802 -0.4958
 4818SOL     OW26089   3.272   2.821  15.187  0.4322  0.5507  0.3190
 4818SOL    HW126090   3.211   2.776  15.245 -0.2720  1.1178  0.0234
 4818SOL    HW226091   3.234   2.803  15.101 -0.0940  1.3162  0.3908
 4819SOL     OW26092   0.915   2.124   8.604  0.3557  0.2358 -0.3960
 4819SOL    HW126093   0.988   2.082   8.649 -0.9169 -0.1285  1.3104
 4819SOL    HW226094   0.844   2.118   8.667  0.7178  1.6565  0.1580
 4820SOL     OW26095   0.560   0.803   3.024  0.3831  0.4611  0.5404
 4820SOL    HW126096   0.569   0.869   3.093  0.3311  2.3043 -1.2250
 4820SOL    HW226097   0.554   0.722   3.075  0.4094  1.2410  1.7837
 4821SOL     OW26098   4.544   1.983  11.162  0.0791  0.2045  0.2460
 4821SOL    HW126099   4.483   2.046  11.203 -0.4802  0.9330 -1.7087
 4821SOL    HW226100   4.487   1.948  11.094  0.1974 -0.9006  0.7165
 4822SOL     OW26101   0.361   0.669   4.805  0.4661 -0.0212 -0.0589
 4822SOL    HW126102   0.411   0.749   4.817  0.8323 -0.3979  0.9450
 4822SOL    HW226103   0.427   0.599   4.809  0.1618 -0.2920  0.2941
 4823SOL     OW26104   3.898   3.135   2.150  0.4776 -0.2267 -0.4806
 4823SOL    HW126105   3.896   3.218   2.102  0.4549 -0.3363 -0.6668
 4823SOL    HW226106   3.968   3.084   2.110 -1.0532 -1.7477 -1.2466
 4824SOL     OW26107   4.580   3.835  12.610  0.8377 -0.4598  0.3812
 4824SOL    HW126108   4.671   3.859  12.593  0.6688 -1.3088 -1.6611
 4824SOL    HW226109   4.538   3.888  12.543 -1.3738 -0.2303  1.9428
 4825SOL     OW26110   4.681   1.037  10.125 -0.4858  0.9590 -0.1745
 4825SOL    HW126111   4.643   1.001  10.206 -0.5150  0.3156 -0.4720
 4825SOL    HW226112   0.023   1.069  10.157 -1.4120  4.0712 -0.8642
 4826SOL     OW26113   3.960   0.376   9.721  0.3357  0.1280 -0.3796
 4826SOL    HW126114   3.937   0.351   9.811 -2.8119 -2.1565 -1.8238
 4826SOL    HW226115   4.000   0.462   9.730 -0.7534  0.6406 -0.3990
 4827SOL     OW26116   3.585   3.853   4.707 -0.3193 -0.1020  0.2105
 4827SOL    HW126117   3.664   3.893   4.744  1.3450 -2.3323 -0.9322
 4827SOL    HW226118   3.620   3.769   4.677 -1.4658 -0.1557 -0.9845
 4828SOL     OW26119   4.625   4.184   6.351  0.2203 -0.3308 -0.2364
 4828SOL    HW126120   4.677   4.108   6.323  0.3096 -0.6445  0.7800
 4828SOL    HW226121   4.679   4.257   6.322  1.3836 -1.2158 -0.2754
 4829SOL     OW26122   1.209   0.083   3.130 -0.3118 -0.7017 -0.3352
 4829SOL    HW126123   1.238   4.735   3.114  1.6585 -0.3207  1.2793
 4829SOL    HW226124   1.293   0.127   3.139 -0.8729  0.5235 -1.0861
 4830SOL     OW26125   3.619   3.058   9.712 -0.4442 -0.1518  0.4140
 4830SOL    HW126126   3.653   2.998   9.779  0.7817  1.1327  0.9438
 4830SOL    HW226127   3.547   3.099   9.761  1.4470 -0.8728  3.7658
 4831SOL     OW26128   4.383   0.856  10.191 -1.0020 -0.0324 -0.1901
 4831SOL    HW126129   4.301   0.875  10.145 -0.0976  3.1769 -0.4651
 4831SOL    HW226130   4.376   0.763  10.214 -6.5359 -0.2774 -2.7274
 4832SOL     OW26131   2.749   0.057   2.936  0.3874  0.3231  0.0697
 4832SOL    HW126132   2.756   4.724   2.994 -2.6564  1.2354  1.6666
 4832SOL    HW226133   2.834   0.095   2.955  0.6290  0.7301 -1.8595
 4833SOL     OW26134   1.702   2.510   7.397 -0.1106  0.1162  0.0427
 4833SOL    HW126135   1.672   2.597   7.423  2.2305  1.0218 -0.3334
 4833SOL    HW226136   1.797   2.518   7.403  0.0499 -0.8372 -1.1244
 4834SOL     OW26137   0.422   3.100   0.786  0.0543 -0.1989  0.4178
 4834SOL    HW126138   0.451   3.100   0.695 -2.1757  1.3279 -0.2809
 4834SOL    HW226139   0.353   3.166   0.791  1.5073  1.5399 -2.3877
 4835SOL     OW26140   1.869   1.932  12.162  0.1066  0.1475 -0.1043
 4835SOL    HW126141   1.805   1.872  12.199  0.2430  0.6643  0.9696
 4835SOL    HW226142   1.916   1.972  12.235 -1.3480  1.3430  0.1941
 4836SOL     OW26143   4.543   3.538  14.627  0.4075 -0.0710 -0.1479
 4836SOL    HW126144   4.625   3.544  14.579 -0.7304  0.5321 -2.0233
 4836SOL    HW226145   4.542   3.447  14.657 -2.3188 -0.4150 -1.2113
 4837SOL     OW26146   0.960   4.581   2.756  0.6669  0.3235  0.4934
 4837SOL    HW126147   0.961   4.638   2.678  1.5304 -0.1440  0.1606
 4837SOL    HW226148   1.003   4.505   2.718  0.6778  1.0520 -0.9693
 4838SOL     OW26149   2.981   2.580   2.830  0.1952 -0.5561  0.0057
 4838SOL    HW126150   2.910   2.518   2.842 -0.1814 -0.1070  0.0995
 4838SOL    HW226151   2.936   2.633   2.765  1.3182 -1.2323 -1.3176
 4839SOL     OW26152   2.617   0.624   0.740 -0.0081 -0.0646  0.0362
 4839SOL    HW126153   2.591   0.716   0.732  0.5061 -0.0022 -0.9509
 4839SOL    HW226154   2.538   0.593   0.783 -0.3406 -1.4099 -1.5362
 4840SOL     OW26155   2.651   4.487   7.231 -0.7739 -0.1148 -0.5153
 4840SOL    HW126156   2.672   4.430   7.156 -1.0019  0.2303 -0.8414
 4840SOL    HW226157   2.701   4.567   7.216 -0.5886 -0.2490 -0.6183
 4841SOL     OW26158   0.364   0.385   6.518 -0.3473 -0.2398 -0.3824
 4841SOL    HW126159   0.295   0.384   6.585 -1.8579 -3.1058 -1.9703
 4841SOL    HW226160   0.412   0.312   6.555 -0.5266 -0.6475 -0.9618
 4842SOL     OW26161   2.548   2.293   4.987 -0.1341 -0.0865 -0.0328
 4842SOL    HW126162   2.600   2.367   5.020  0.4174  0.1361 -1.3558
 4842SOL    HW226163   2.462   2.333   4.997 -0.9888 -1.7342 -0.8215
 4843SOL     OW26164   0.023   4.010  14.670 -0.1525 -0.2934 -0.2739
 4843SOL    HW126165   0.056   4.041  14.755 -0.9576 -1.8740  0.6076
 4843SOL    HW226166   4.713   4.086  14.646  2.3039  1.6672  0.5908
 4844SOL     OW26167   2.519   2.877   1.897 -0.2276 -0.1714  0.1121
 4844SOL    HW126168   2.512   2.857   1.804 -2.3118 -0.2010  0.2591
 4844SOL    HW226169   2.589   2.942   1.900 -1.3216  0.9565  1.5777
 4845SOL     OW26170   2.506   3.804   7.690  0.5975 -0.0197  0.5919
 4845SOL    HW126171   2.590   3.758   7.685  0.1155 -0.6064 -2.2485
 4845SOL    HW226172   2.535   3.889   7.659 -0.8985 -0.1555 -1.2117
 4846SOL     OW26173   3.589   4.258   8.669 -0.4660 -0.0593 -0.0691
 4846SOL    HW126174   3.599   4.281   8.577  2.5768 -1.2165 -0.0314
 4846SOL    HW226175   3.584   4.347   8.706  0.4223 -0.7017  1.6418
 4847SOL     OW26176   3.292   4.501   8.021 -0.0195 -0.5643  0.1753
 4847SOL    HW126177   3.315   4.592   8.002  0.2926 -0.8351 -0.7543
 4847SOL    HW226178   3.379   4.467   8.041  0.0226 -0.8851 -0.5459
 4848SOL     OW26179   0.380   1.913   4.210 -0.1049 -0.4311  0.0254
 4848SOL    HW126180   0.314   1.981   4.223 -0.0509 -0.5876  1.1151
 4848SOL    HW226181   0.396   1.915   4.115 -0.6258 -0.6744 -0.0683
 4849SOL     OW26182   1.295   3.124   3.291  0.7640  0.3171 -0.3633
 4849SOL    HW126183   1.365   3.059   3.288  1.7862  1.4712 -1.3849
 4849SOL    HW226184   1.232   3.094   3.225  1.3253 -1.5245 -0.0798
 4850SOL     OW26185   2.686   0.569   8.444 -0.1722 -0.4914 -0.1080
 4850SOL    HW126186   2.597   0.535   8.452  0.9286 -3.1192  0.8559
 4850SOL    HW226187   2.699   0.555   8.350  0.0640 -0.1242 -0.1328
 4851SOL     OW26188   0.386   4.094   8.583  0.6631  0.2816 -0.0488
 4851SOL    HW126189   0.480   4.080   8.595  1.1333  1.8877 -1.9688
 4851SOL    HW226190   0.371   4.111   8.490 -0.9224 -1.1315 -0.0521
 4852SOL     OW26191   4.625   0.560   3.802  0.5377 -0.9486 -0.1446
 4852SOL    HW126192   4.615   0.488   3.740  0.7813 -0.3637 -0.8638
 4852SOL    HW226193   4.682   0.611   3.745 -3.6749  1.9579 -1.6743
 4853SOL     OW26194   3.759   4.291   6.917 -0.3638  0.5403  0.6595
 4853SOL    HW126195   3.817   4.331   6.981  1.8961  0.7731 -1.5427
 4853SOL    HW226196   3.681   4.346   6.924 -0.4511  0.2274  2.1688
 4854SOL     OW26197   2.049   3.082   6.127  0.6962  0.4263  0.0830
 4854SOL    HW126198   2.116   3.049   6.186  0.8734 -0.6195 -0.7119
 4854SOL    HW226199   2.049   3.028   6.048 -1.4029 -0.6975  0.8390
 4855SOL     OW26200   3.634   0.001   8.108 -0.7216 -0.3741  0.2039
 4855SOL    HW126201   3.629   4.719   8.200  0.6481 -0.0721  0.3542
 4855SOL    HW226202   3.637   4.654   8.074 -0.3711 -0.5436  0.6768
 4856SOL     OW26203   4.642   3.266   8.795 -0.9260  0.3242 -0.4016
 4856SOL    HW126204   4.700   3.299   8.726  1.2919 -1.2369  0.7065
 4856SOL    HW226205   4.574   3.213   8.755 -1.0292 -0.5831  0.9977
 4857SOL     OW26206   0.474   3.214   6.972  0.2776 -0.0779  0.9478
 4857SOL    HW126207   0.387   3.240   7.001 -0.2460 -1.5918  0.7182
 4857SOL    HW226208   0.444   3.199   6.882 -0.9692  0.0718  1.3376
 4858SOL     OW26209   0.702   0.899   4.303  0.0768 -0.2814 -0.0535
 4858SOL    HW126210   0.777   0.916   4.360  1.1726 -0.7839 -1.3595
 4858SOL    HW226211   0.628   0.894   4.364  0.7809  1.2073  0.9252
 4859SOL     OW26212   1.658   4.034   3.996 -0.4738  0.4230 -0.2267
 4859SOL    HW126213   1.640   3.968   3.929  0.3757 -1.1278  1.0650
 4859SOL    HW226214   1.724   4.091   3.956 -0.0199 -0.4028 -0.6660
 4860SOL     OW26215   3.656   1.694   8.462 -0.4481 -0.0167  0.1939
 4860SOL    HW126216   3.639   1.608   8.424  0.5055 -0.6934  1.2875
 4860SOL    HW226217   3.742   1.723   8.433  0.4091 -3.2527 -0.4799
 4861SOL     OW26218   0.500   4.210   5.567 -0.1912  0.2840 -0.2705
 4861SOL    HW126219   0.566   4.164   5.620 -1.0273 -0.7285 -0.1113
 4861SOL    HW226220   0.555   4.280   5.533  0.2758 -1.0492 -2.2323
 4862SOL     OW26221   2.596   3.161   0.507 -0.0469  0.1086 -0.6068
 4862SOL    HW126222   2.537   3.123   0.572  0.5818  1.7190  0.9259
 4862SOL    HW226223   2.639   3.082   0.476  1.2045  1.3342 -1.9813
 4863SOL     OW26224   1.669   3.627   3.599 -0.1798 -0.4361  0.0577
 4863SOL    HW126225   1.684   3.615   3.505 -3.8790 -1.7462 -0.3547
 4863SOL    HW226226   1.607   3.556   3.614  0.1621 -0.7203  0.1434
 4864SOL     OW26227   2.332   3.542   2.370  0.2543  0.3040  0.0687
 4864SOL    HW126228   2.332   3.559   2.276 -1.4106 -0.6986 -0.1258
 4864SOL    HW226229   2.245   3.501   2.375  0.9790 -1.0893  1.4572
 4865SOL     OW26230   1.042   0.771  12.875  0.3354 -0.3185  0.8759
 4865SOL    HW126231   0.952   0.801  12.888 -0.5471 -3.0119  0.9721
 4865SOL    HW226232   1.038   0.684  12.836 -0.0347  0.7278 -1.4251
 4866SOL     OW26233   2.970   0.278  15.339  0.3942 -0.0610  0.4179
 4866SOL    HW126234   3.006   0.196  15.306  1.6813  0.7862 -0.2832
 4866SOL    HW226235   2.943   0.242  15.423 -0.8487  0.6524  0.3261
 4867SOL     OW26236   0.189   3.612  11.695 -0.3110  0.8096  0.1841
 4867SOL    HW126237   0.218   3.626  11.785 -1.6786 -1.1755  0.9425
 4867SOL    HW226238   0.187   3.703  11.665 -2.3296 -0.0939 -2.5573
 4868SOL     OW26239   4.480   1.023  11.785 -0.0893 -0.5537  0.1557
 4868SOL    HW126240   4.565   1.006  11.827  0.4579  0.3380 -0.5859
 4868SOL    HW226241   4.468   0.941  11.737  0.5999  0.4738 -1.7675
 4869SOL     OW26242   2.642   1.920   2.388 -0.0376  0.0953 -0.0037
 4869SOL    HW126243   2.713   1.884   2.334 -0.1662 -1.3289  0.7811
 4869SOL    HW226244   2.601   1.843   2.427  0.5117  0.8897  2.1301
 4870SOL     OW26245   1.953   3.166   5.097 -0.1564 -0.3923 -0.0653
 4870SOL    HW126246   2.004   3.137   5.022 -4.3188  0.6664 -3.3309
 4870SOL    HW226247   1.861   3.174   5.071 -0.0739 -0.7789 -0.4856
 4871SOL     OW26248   3.351   1.902   1.616 -0.1178  0.4245  0.0974
 4871SOL    HW126249   3.388   1.898   1.528 -2.7452  0.7806 -1.0285
 4871SOL    HW226250   3.431   1.925   1.663  0.9672 -0.6546 -1.1972
 4872SOL     OW26251   2.621   2.233   5.378 -0.0190  0.4958  0.0498
 4872SOL    HW126252   2.595   2.206   5.467  0.2493 -1.9241 -0.5941
 4872SOL    HW226253   2.565   2.311   5.376 -0.7572 -0.0046  1.0225
 4873SOL     OW26254   3.327   2.630   2.025 -0.3670  0.0132  0.0986
 4873SOL    HW126255   3.357   2.697   1.964  1.7351 -1.8752 -0.9407
 4873SOL    HW226256   3.243   2.670   2.044  0.4643  0.9449  1.8622
 4874SOL     OW26257   3.377   1.301   8.031  0.5876 -0.6435  0.1926
 4874SOL    HW126258   3.289   1.337   8.027  0.7748  0.0261  2.5912
 4874SOL    HW226259   3.381   1.269   8.121 -0.9937  3.6662  1.8073
 4875SOL     OW26260   4.186   1.437  11.894  0.3367 -0.0128  0.1884
 4875SOL    HW126261   4.239   1.358  11.904 -0.8404 -0.8877 -0.5095
 4875SOL    HW226262   4.256   1.486  11.851  1.9327 -2.0739  0.4305
 4876SOL     OW26263   1.668   2.547   8.715 -0.7073  0.4142 -0.0189
 4876SOL    HW126264   1.655   2.463   8.673  4.1981 -0.5760  0.5051
 4876SOL    HW226265   1.683   2.599   8.636  0.1782  0.2107  0.0196
 4877SOL     OW26266   4.204   1.593   0.001  0.1421  0.1618 -0.6690
 4877SOL    HW126267   4.125   1.541  17.751 -0.2981  0.5446  0.3305
 4877SOL    HW226268   4.163   1.674   0.033  1.4017  0.7820 -0.6268
 4878SOL     OW26269   0.124   0.809   6.807  0.1196  0.0439  0.0020
 4878SOL    HW126270   0.048   0.815   6.865 -0.1902  0.2892 -0.4294
 4878SOL    HW226271   0.128   0.713   6.816  0.3890  0.1737  1.3042
 4879SOL     OW26272   1.359   0.630   8.423 -0.2301 -0.3318  0.8063
 4879SOL    HW126273   1.275   0.597   8.455 -0.4126  0.3451  1.0243
 4879SOL    HW226274   1.387   0.558   8.367 -1.0771  0.3434 -0.4786
 4880SOL     OW26275   3.351   2.999   6.051 -0.2575 -0.4443 -0.0951
 4880SOL    HW126276   3.339   3.071   6.113 -0.1968 -0.8079  0.3341
 4880SOL    HW226277   3.417   2.953   6.102  0.6645  0.3874 -0.5344
 4881SOL     OW26278   4.517   0.944   3.368 -0.1413 -0.2448 -0.3879
 4881SOL    HW126279   4.489   0.854   3.388  1.1332 -0.3888  0.7281
 4881SOL    HW226280   4.444   0.976   3.315 -0.5133  2.0045  1.4873
 4882SOL     OW26281   0.591   1.860   5.997 -0.0259 -0.5557  0.0832
 4882SOL    HW126282   0.676   1.902   6.011 -0.1222 -0.1801 -0.5021
 4882SOL    HW226283   0.608   1.766   5.989  3.2788 -0.1687  2.1940
 4883SOL     OW26284   1.346   2.695   4.585  0.2104 -0.0399 -0.2091
 4883SOL    HW126285   1.334   2.601   4.601  0.1237 -0.0170 -0.1405
 4883SOL    HW226286   1.297   2.695   4.503  1.6616  3.0977 -1.0826
 4884SOL     OW26287   3.981   4.100   3.070  0.5489  0.0013 -0.0119
 4884SOL    HW126288   3.990   4.185   3.115  0.1312  0.3125 -0.5061
 4884SOL    HW226289   3.919   4.051   3.124 -0.0487  0.6812 -0.0671
 4885SOL     OW26290   4.645   0.419   4.973  0.9269  0.1423  0.1916
 4885SOL    HW126291   4.687   0.408   4.888  0.6695 -0.1979  0.1108
 4885SOL    HW226292   4.570   0.473   4.947  1.2806  0.0559 -0.9847
 4886SOL     OW26293   4.336   2.086   8.529 -0.5507  0.3951 -0.2742
 4886SOL    HW126294   4.403   2.131   8.582  0.3559  1.2692 -2.1721
 4886SOL    HW226295   4.354   2.129   8.445  0.4200  0.3569 -0.0837
 4887SOL     OW26296   2.157   1.302  11.513 -0.5872  0.2880  0.5840
 4887SOL    HW126297   2.088   1.236  11.525  0.1830 -0.8779 -1.3880
 4887SOL    HW226298   2.236   1.258  11.544 -0.7392 -0.0998  0.4246
 4888SOL     OW26299   1.608   1.605   5.006 -0.0470  0.0576 -0.3035
 4888SOL    HW126300   1.602   1.571   5.095  1.0428  1.0396  0.1408
 4888SOL    HW226301   1.673   1.545   4.971  0.0793  0.1825 -0.2849
 4889SOL     OW26302   1.096   0.791  15.887  0.2797  0.5279  0.5350
 4889SOL    HW126303   1.005   0.821  15.888  0.5412  1.3306  0.1425
 4889SOL    HW226304   1.091   0.718  15.948 -0.0607  0.6267  0.6234
 4890SOL     OW26305   0.368   2.844   3.402 -0.2457  1.0203 -0.9947
 4890SOL    HW126306   0.400   2.798   3.479 -0.4959  1.5202 -0.5914
 4890SOL    HW226307   0.313   2.772   3.371  1.7522 -0.5399 -0.9358
 4891SOL     OW26308   1.860   2.665   4.783 -0.0299 -0.0927 -0.1698
 4891SOL    HW126309   1.851   2.629   4.695  0.3458  0.8931 -0.6037
 4891SOL    HW226310   1.833   2.592   4.839  1.1681 -1.3565 -1.2394
 4892SOL     OW26311   2.633   4.380   5.582  0.4574  0.1557  0.2173
 4892SOL    HW126312   2.689   4.429   5.521 -0.2154  1.4399  0.6441
 4892SOL    HW226313   2.689   4.387   5.660  1.2889 -2.0657 -0.1754
 4893SOL     OW26314   0.483   3.164  11.350  0.1143 -0.3318 -0.0487
 4893SOL    HW126315   0.509   3.073  11.366  0.3348 -0.8111 -3.1529
 4893SOL    HW226316   0.570   3.202  11.342  0.8651 -1.8392  0.8389
 4894SOL     OW26317   2.645   2.331   6.764 -0.1394  0.4206 -0.4887
 4894SOL    HW126318   2.584   2.271   6.721  0.8935 -0.3889 -0.8064
 4894SOL    HW226319   2.702   2.262   6.795 -0.7708 -0.0596 -0.3967
 4895SOL     OW26320   3.794   0.963  14.401 -0.1027  0.4894 -0.4538
 4895SOL    HW126321   3.725   0.970  14.466  1.0789  0.6641  0.7796
 4895SOL    HW226322   3.782   0.871  14.378 -1.0529  0.3072  0.7992
 4896SOL     OW26323   1.704   0.546   3.471 -0.2383  0.0497 -0.3567
 4896SOL    HW126324   1.720   0.545   3.377  0.2885  1.1106 -0.2877
 4896SOL    HW226325   1.669   0.635   3.477 -1.6952 -0.4628 -1.3169
 4897SOL     OW26326   1.633   2.028  10.105 -0.2349  0.7583 -0.0422
 4897SOL    HW126327   1.687   2.013  10.027  0.2369  0.1896  0.3954
 4897SOL    HW226328   1.586   1.944  10.109  0.0904  0.6707  1.8043
 4898SOL     OW26329   2.626   4.282   4.998  0.5271  0.3929  0.3481
 4898SOL    HW126330   2.652   4.274   5.090  1.3180  0.5657  0.1438
 4898SOL    HW226331   2.546   4.230   4.992  0.1381  1.1633 -1.1135
 4899SOL     OW26332   3.535   1.859   3.242 -0.3856  0.4428 -0.7795
 4899SOL    HW126333   3.446   1.848   3.211  0.2487 -4.9932 -0.6761
 4899SOL    HW226334   3.559   1.767   3.252 -0.3354  0.5244 -0.1316
 4900SOL     OW26335   1.157   2.093  15.040 -0.0687 -0.4315 -0.0905
 4900SOL    HW126336   1.196   2.018  15.086 -0.4100 -0.5639 -0.0219
 4900SOL    HW226337   1.217   2.162  15.068 -0.5390 -0.8024  1.8223
 4901SOL     OW26338   2.579   4.093   6.562  0.0851 -0.0433  0.1802
 4901SOL    HW126339   2.660   4.135   6.593  0.5555 -0.3460 -0.6314
 4901SOL    HW226340   2.595   4.097   6.467  2.3361  1.5175  0.6070
 4902SOL     OW26341   1.776   2.417   4.910  0.1957  0.6451 -0.1494
 4902SOL    HW126342   1.834   2.359   4.959  1.0569  0.1330 -1.7944
 4902SOL    HW226343   1.704   2.357   4.887 -2.8244  3.9180  0.8028
 4903SOL     OW26344   3.569   0.085   7.441 -0.6253  1.1026  0.2467
 4903SOL    HW126345   3.591   0.125   7.526 -0.0270  1.5196 -0.1072
 4903SOL    HW226346   3.473   0.090   7.440 -0.7706 -1.7573 -0.1495
 4904SOL     OW26347   2.793   4.062   6.984 -0.9333  0.3662  0.3102
 4904SOL    HW126348   2.805   4.007   6.907 -1.7479  0.5563  0.0424
 4904SOL    HW226349   2.759   3.999   7.047  1.2974 -2.2584 -1.1403
 4905SOL     OW26350   0.631   2.215   5.495 -0.6086 -0.3850  0.3562
 4905SOL    HW126351   0.645   2.181   5.407  2.1164 -1.9783  1.4343
 4905SOL    HW226352   0.591   2.141   5.540 -0.7338 -1.1740 -1.0761
 4906SOL     OW26353   0.614   2.585   7.952  0.2487 -0.2717  0.3740
 4906SOL    HW126354   0.708   2.568   7.947  0.7795  2.5580  0.5225
 4906SOL    HW226355   0.583   2.551   7.868 -2.1500  1.4744  0.5632
 4907SOL     OW26356   0.520   3.562   0.102  0.6152 -0.1735  0.4635
 4907SOL    HW126357   0.501   3.540   0.011  1.8700 -1.6306  0.5461
 4907SOL    HW226358   0.433   3.575   0.140  0.1841  0.3160 -0.6780
 4908SOL     OW26359   2.662   2.286   1.110 -0.0963 -0.0341  0.5857
 4908SOL    HW126360   2.656   2.240   1.026 -0.1463 -1.0211  1.1291
 4908SOL    HW226361   2.569   2.309   1.121  0.0149  2.1964 -3.1436
 4909SOL     OW26362   0.072   3.555  14.505  0.0696  0.1520 -0.6584
 4909SOL    HW126363   0.108   3.643  14.508  1.4300 -0.3953 -0.6568
 4909SOL    HW226364   0.083   3.535  14.412  1.3550  1.3247 -0.7528
 4910SOL     OW26365   3.050   1.957  10.553 -0.0519 -0.0546 -0.0437
 4910SOL    HW126366   3.132   1.950  10.602 -0.0334  1.5852  0.1571
 4910SOL    HW226367   2.992   1.992  10.621  2.6063  0.3756  1.9485
 4911SOL     OW26368   3.520   0.394   7.344 -0.0226  0.1018 -0.2648
 4911SOL    HW126369   3.582   0.322   7.341 -3.0765 -2.6401  2.6664
 4911SOL    HW226370   3.567   0.447   7.408 -1.9236  1.8020 -0.2457
 4912SOL     OW26371   3.684   1.268   7.405 -0.1816  0.3391  0.0485
 4912SOL    HW126372   3.631   1.266   7.325  0.1492 -0.0729 -0.1626
 4912SOL    HW226373   3.678   1.362   7.419 -0.5607  0.6794 -2.4077
 4913SOL     OW26374   2.291   3.821   3.522 -0.0073 -0.3761  0.6561
 4913SOL    HW126375   2.384   3.800   3.525 -0.0658 -0.8244 -0.4735
 4913SOL    HW226376   2.248   3.743   3.557 -1.4453  0.9341  1.7994
 4914SOL     OW26377   2.201   1.681   8.596  0.2822  0.3591 -0.2152
 4914SOL    HW126378   2.292   1.659   8.576  0.3523 -0.8014  1.3955
 4914SOL    HW226379   2.169   1.726   8.518  1.1138 -0.6240 -1.1155
 4915SOL     OW26380   4.301   2.454  12.364  0.4072 -0.5494 -0.2494
 4915SOL    HW126381   4.250   2.527  12.330 -1.0686 -1.2259  0.4955
 4915SOL    HW226382   4.355   2.428  12.289  3.1957  0.9299  1.2505
 4916SOL     OW26383   4.706   3.156  11.509  0.5641  0.5219 -0.0225
 4916SOL    HW126384   4.691   3.171  11.603 -2.2773  3.1856 -0.8832
 4916SOL    HW226385   4.667   3.073  11.484  1.1587 -0.1486  1.2508
 4917SOL     OW26386   4.614   2.790   7.151 -0.0489 -0.1424 -0.3234
 4917SOL    HW126387   4.672   2.761   7.221 -1.8479  0.8470  1.5620
 4917SOL    HW226388   4.685   2.813   7.091  0.2647  0.6033  0.3385
 4918SOL     OW26389   2.344   1.652   4.158  0.1918 -0.2585 -0.1623
 4918SOL    HW126390   2.335   1.602   4.076  0.3086  1.2240 -1.0880
 4918SOL    HW226391   2.278   1.719   4.140  0.7998  0.7729  1.4779
 4919SOL     OW26392   4.385   1.334  11.016  0.2669 -0.3804 -0.1123
 4919SOL    HW126393   4.342   1.416  11.041 -0.1131 -0.4207 -0.6336
 4919SOL    HW226394   4.462   1.338  11.074 -0.1889  2.1461  0.3473
 4920SOL     OW26395   0.736   4.698  11.498 -0.3306 -0.3083 -0.2313
 4920SOL    HW126396   0.751   4.668  11.588  0.3791 -2.2350 -1.0019
 4920SOL    HW226397   0.732   4.613  11.454 -0.6689  1.0160 -2.7463
 4921SOL     OW26398   4.230   0.292   9.563  0.0960  0.3293  0.4285
 4921SOL    HW126399   4.160   0.326   9.507 -0.2223  0.3348  0.8335
 4921SOL    HW226400   4.278   0.372   9.582  0.5537  0.1433  0.0705
 4922SOL     OW26401   2.768   0.717  10.087 -0.3399 -0.0072 -0.7749
 4922SOL    HW126402   2.853   0.674  10.077 -1.3982 -1.9219 -1.5398
 4922SOL    HW226403   2.714   0.655  10.136 -0.7398  1.0661  0.1370
 4923SOL     OW26404   1.081   3.264   2.426 -0.1681  0.2860  0.2301
 4923SOL    HW126405   1.057   3.232   2.339 -0.7306  0.0310  0.4785
 4923SOL    HW226406   1.151   3.324   2.400 -0.5768 -0.3839 -2.5048
 4924SOL     OW26407   4.496   0.831  13.076  0.2009 -0.4117  0.1671
 4924SOL    HW126408   4.511   0.738  13.059 -4.6730 -0.8811 -1.8683
 4924SOL    HW226409   4.429   0.854  13.011 -0.2527  0.9543  1.1219
 4925SOL     OW26410   0.255   4.578   9.064  0.0028  0.4019 -0.0093
 4925SOL    HW126411   0.348   4.557   9.071 -0.7240 -3.0983 -0.9186
 4925SOL    HW226412   0.223   4.513   9.127  1.2601 -3.2165 -3.1154
 4926SOL     OW26413   4.571   4.295   6.593  1.2300 -0.4195  0.2660
 4926SOL    HW126414   4.480   4.319   6.575  1.3199  0.1482  0.5995
 4926SOL    HW226415   4.593   4.250   6.511 -0.4170 -0.5979 -0.0887
 4927SOL     OW26416   0.251   4.399   0.984  1.0075 -0.4154 -0.4706
 4927SOL    HW126417   0.321   4.341   0.954  1.5922  0.2055 -0.3231
 4927SOL    HW226418   0.274   4.468   0.922 -0.8977  0.6345  0.0016
 4928SOL     OW26419   4.511   0.352   1.934 -0.1507 -0.7032 -0.4494
 4928SOL    HW126420   4.478   0.322   2.019  0.5687  0.9646  0.4112
 4928SOL    HW226421   4.429   0.339   1.886  0.0147  1.1056 -1.2318
 4929SOL     OW26422   1.966   1.405   2.797  0.0670 -0.1406 -0.1213
 4929SOL    HW126423   1.874   1.382   2.782  0.5905 -2.1146 -0.3670
 4929SOL    HW226424   1.962   1.402   2.892 -0.7295 -1.3040 -0.1888
 4930SOL     OW26425   4.139   2.271   2.737  0.0306  0.2231  0.2652
 4930SOL    HW126426   4.215   2.328   2.742  0.3049 -0.0793 -0.5633
 4930SOL    HW226427   4.118   2.250   2.646  0.7119 -0.2566  0.2196
 4931SOL     OW26428   2.262   3.781  12.042  0.0657  0.3595 -0.3625
 4931SOL    HW126429   2.201   3.755  12.110  0.8684 -1.0685 -0.1969
 4931SOL    HW226430   2.202   3.789  11.967 -0.9964 -3.8530  0.0413
 4932SOL     OW26431   1.561   3.766   5.819  0.0295 -0.6354  0.4509
 4932SOL    HW126432   1.507   3.687   5.825  0.4436 -0.7892  2.4082
 4932SOL    HW226433   1.593   3.773   5.909  0.9312 -1.3649  0.1843
 4933SOL     OW26434   0.411   0.846   9.365 -0.2290  0.2078 -0.4136
 4933SOL    HW126435   0.320   0.871   9.351 -1.0528 -2.3829  0.1880
 4933SOL    HW226436   0.444   0.935   9.371 -1.3903  0.5293  1.0389
 4934SOL     OW26437   1.452   3.003   8.581  0.5567 -0.1927 -0.0399
 4934SOL    HW126438   1.546   3.015   8.567  0.8255 -1.3904  0.7454
 4934SOL    HW226439   1.458   2.909   8.594 -3.2806 -0.3680  0.4387
 4935SOL     OW26440   3.696   3.176   8.912 -0.7077 -0.0568 -0.0326
 4935SOL    HW126441   3.606   3.159   8.884 -0.9295  0.4783  0.3564
 4935SOL    HW226442   3.685   3.256   8.963  1.2074 -0.7489  1.4531
 4936SOL     OW26443   4.088   4.493   3.364  0.3595  0.0762 -0.2077
 4936SOL    HW126444   4.168   4.467   3.319  1.0040  0.9401  0.4514
 4936SOL    HW226445   4.119   4.523   3.449  0.0814 -1.9133  0.5992
 4937SOL     OW26446   0.151   2.002  15.709  0.0360 -0.1132 -0.7633
 4937SOL    HW126447   0.178   2.059  15.637 -0.2382  0.9554 -0.0231
 4937SOL    HW226448   0.177   2.055  15.785  0.1959 -0.4242 -0.6014
 4938SOL     OW26449   3.811   3.100   4.479  0.2273 -0.1714 -0.0955
 4938SOL    HW126450   3.844   3.155   4.409 -2.1778  0.6186 -0.6229
 4938SOL    HW226451   3.751   3.039   4.435  1.8034 -0.4500 -1.8366
 4939SOL     OW26452   1.866   1.948   8.522 -0.3882 -0.0195  0.1346
 4939SOL    HW126453   1.896   2.037   8.506 -0.0322 -0.3428 -0.9987
 4939SOL    HW226454   1.825   1.920   8.440  0.5830 -0.6085 -0.1526
 4940SOL     OW26455   0.228   0.678   3.906  0.1965 -0.0252  0.0861
 4940SOL    HW126456   0.191   0.608   3.960 -1.8812  0.5587 -0.6004
 4940SOL    HW226457   0.158   0.743   3.904 -1.2360 -1.6141 -1.4712
 4941SOL     OW26458   0.041   4.052   1.514  0.0098 -0.2606 -0.1719
 4941SOL    HW126459   0.093   4.009   1.446  1.1767 -0.9733  1.1626
 4941SOL    HW226460   0.105   4.060   1.585 -0.2009 -1.2763  0.1315
 4942SOL     OW26461   1.542   4.592  10.165 -0.3237  0.2812  0.3231
 4942SOL    HW126462   1.474   4.604  10.232 -0.1330 -0.1884  0.5978
 4942SOL    HW226463   1.563   4.500  10.181  1.0381  0.5844  0.2139
 4943SOL     OW26464   4.048   4.117   5.541  0.4733 -0.1253  0.3426
 4943SOL    HW126465   4.084   4.142   5.456  0.0261  1.9120  0.7486
 4943SOL    HW226466   3.987   4.187   5.566  1.5228  1.4594 -1.4961
 4944SOL     OW26467   1.264   3.076   8.347 -0.5798 -0.2621 -0.4948
 4944SOL    HW126468   1.318   3.065   8.269  0.0869  0.3143 -0.1129
 4944SOL    HW226469   1.323   3.039   8.412  1.8955  0.1470 -2.5180
 4945SOL     OW26470   4.316   2.756  16.113 -0.1900  0.2727  0.2061
 4945SOL    HW126471   4.221   2.749  16.122  0.0465 -0.8360  1.9905
 4945SOL    HW226472   4.335   2.682  16.172  0.6628 -0.2759 -0.7604
 4946SOL     OW26473   0.315   1.864   3.351 -0.3921  0.0085  0.0793
 4946SOL    HW126474   0.349   1.924   3.285  0.0127  2.3233  2.3720
 4946SOL    HW226475   0.228   1.844   3.319 -0.2676 -1.4728  0.6940
 4947SOL     OW26476   2.198   0.151   6.781  0.1333 -0.1821  0.3292
 4947SOL    HW126477   2.148   0.076   6.750  1.9728 -1.6259  0.9038
 4947SOL    HW226478   2.256   0.105   6.841 -0.3864  0.9712  1.7216
 4948SOL     OW26479   4.404   3.000  13.907 -0.0191 -0.1855  0.2545
 4948SOL    HW126480   4.474   2.990  13.841  0.0019 -2.7342  0.6596
 4948SOL    HW226481   4.358   2.916  13.901  0.0788 -0.0864 -1.8584
 4949SOL     OW26482   2.011   3.009   2.692 -0.0094  0.1756  0.4650
 4949SOL    HW126483   1.979   2.977   2.608  1.5200  0.6905 -0.3074
 4949SOL    HW226484   2.102   2.980   2.687 -1.5926 -3.9958 -4.2379
 4950SOL     OW26485   1.160   0.370   0.901  0.1915 -0.3407  0.5757
 4950SOL    HW126486   1.073   0.369   0.862  1.7934  1.3034 -3.0673
 4950SOL    HW226487   1.143   0.313   0.976 -0.4848  1.6195  1.9299
 4951SOL     OW26488   4.499   2.514   4.301 -0.0575 -0.2145  0.4563
 4951SOL    HW126489   4.427   2.495   4.361 -0.8098  1.2273  0.0035
 4951SOL    HW226490   4.560   2.544   4.369  0.4196 -0.4457  0.1299
 4952SOL     OW26491   0.819   3.025   6.491 -0.3350  0.3818  0.2149
 4952SOL    HW126492   0.758   3.064   6.428  0.5455  0.0050 -0.8768
 4952SOL    HW226493   0.899   3.060   6.453 -0.5411  0.7256  0.1047
 4953SOL     OW26494   3.342   2.821  14.404 -0.3036  0.0622  0.0380
 4953SOL    HW126495   3.252   2.828  14.435 -0.7158  0.3078 -1.2317
 4953SOL    HW226496   3.309   2.814  14.315  1.0795  0.9122 -0.5354
 4954SOL     OW26497   1.677   0.363  13.797 -0.1045  0.2013 -0.3487
 4954SOL    HW126498   1.691   0.301  13.868 -0.4620  1.2170  0.6080
 4954SOL    HW226499   1.649   0.318  13.717  0.0917  1.8033 -1.3275
 4955SOL     OW26500   2.984   1.833   7.936  0.2150  0.0867  0.2521
 4955SOL    HW126501   3.020   1.849   7.849 -1.7122  0.6940 -0.4357
 4955SOL    HW226502   2.939   1.750   7.920  0.1168  0.3671 -0.8869
 4956SOL     OW26503   1.085   3.386  11.554 -0.3354  0.1932  0.0922
 4956SOL    HW126504   1.038   3.328  11.494 -1.8223  0.6041  0.8577
 4956SOL    HW226505   1.166   3.392  11.505  0.2920  1.1135  1.2467
 4957SOL     OW26506   1.258   3.575   5.438 -0.1749  0.7753  0.4526
 4957SOL    HW126507   1.303   3.509   5.491 -0.3784  0.5969  0.4053
 4957SOL    HW226508   1.239   3.655   5.487 -0.4262  0.7589  0.3855
 4958SOL     OW26509   1.182   0.105   0.592  0.0840 -0.2409  0.0532
 4958SOL    HW126510   1.118   0.169   0.563 -0.0409 -0.7906 -0.8766
 4958SOL    HW226511   1.259   0.162   0.597  0.1513 -0.3868  0.6587
 4959SOL     OW26512   2.685   0.216   5.965  0.4186 -0.2164 -0.3023
 4959SOL    HW126513   2.667   0.228   6.058  1.0528 -1.9374  0.0582
 4959SOL    HW226514   2.675   0.304   5.930 -0.9196  0.0142  0.6547
 4960SOL     OW26515   0.548   2.568   9.572  0.2348  0.2628 -0.0529
 4960SOL    HW126516   0.513   2.622   9.500 -2.0899  1.0732  1.7143
 4960SOL    HW226517   0.481   2.593   9.634  1.7476 -0.0415  1.7048
 4961SOL     OW26518   1.162   3.900  16.671  0.2721  0.0324  1.0241
 4961SOL    HW126519   1.192   3.963  16.606 -0.9985  1.0349  1.4076
 4961SOL    HW226520   1.066   3.901  16.662  0.5980 -0.5709 -2.4719
 4962SOL     OW26521   3.858   1.393  11.466 -0.6054  0.5415  0.0708
 4962SOL    HW126522   3.842   1.301  11.443  1.0084  0.4090 -0.5515
 4962SOL    HW226523   3.913   1.392  11.544 -0.0711  1.3319 -0.3005
 4963SOL     OW26524   1.666   1.830  16.330  0.3063  0.0243 -0.2020
 4963SOL    HW126525   1.716   1.758  16.367 -0.8498 -1.4056 -1.3839
 4963SOL    HW226526   1.586   1.828  16.383  0.7313  0.9300  0.4771
 4964SOL     OW26527   1.739   1.391   6.134 -0.1810 -0.0953 -0.7640
 4964SOL    HW126528   1.832   1.410   6.141 -0.4874  0.6690  1.1130
 4964SOL    HW226529   1.704   1.453   6.070 -0.3194 -0.2497 -0.8390
 4965SOL     OW26530   0.754   4.246   6.513 -0.0414  0.1769  0.2553
 4965SOL    HW126531   0.721   4.285   6.594 -0.4295  0.7522 -0.1701
 4965SOL    HW226532   0.683   4.190   6.481  0.5846 -0.7727  0.5566
 4966SOL     OW26533   1.278   0.099   3.970 -0.4364 -0.7594  0.1974
 4966SOL    HW126534   1.208   0.145   4.015  0.2965  1.7526 -1.2043
 4966SOL    HW226535   1.229   0.080   3.890  0.2131  0.7107 -0.5564
 4967SOL     OW26536   4.228   0.897   7.079 -1.1861 -0.3121  0.0520
 4967SOL    HW126537   4.145   0.938   7.054 -0.1054  0.6805 -1.8471
 4967SOL    HW226538   4.275   0.909   6.997  1.9486  2.6466  2.2926
 4968SOL     OW26539   1.255   4.033  10.864 -0.2197 -0.1519 -0.5834
 4968SOL    HW126540   1.189   4.082  10.816 -0.7961 -1.1344 -0.7847
 4968SOL    HW226541   1.324   4.099  10.872 -0.2484 -0.2678  0.6183
 4969SOL     OW26542   4.203   4.219   6.827  0.6104 -0.3568  0.3980
 4969SOL    HW126543   4.213   4.296   6.883 -1.4814  1.6094 -1.9227
 4969SOL    HW226544   4.134   4.254   6.771  0.6609 -1.0201 -0.0772
 4970SOL     OW26545   3.625   1.166   1.352  0.7084 -0.1990 -0.2287
 4970SOL    HW126546   3.682   1.152   1.428 -1.7585 -0.6557  1.5551
 4970SOL    HW226547   3.629   1.260   1.333  0.0760 -0.1462 -0.1035
 4971SOL     OW26548   2.223   2.311   8.670 -0.1509 -0.2375 -0.4913
 4971SOL    HW126549   2.180   2.228   8.692 -2.7099  1.6710  1.6622
 4971SOL    HW226550   2.225   2.309   8.574 -1.2084  4.0065 -0.5669
 4972SOL     OW26551   0.123   2.086   8.511  0.3062  0.5765 -0.0457
 4972SOL    HW126552   0.062   2.094   8.585  0.4134 -2.1606  0.3276
 4972SOL    HW226553   0.176   2.163   8.531  1.2265 -0.1811  0.3912
 4973SOL     OW26554   4.336   0.589  10.269 -0.7962 -0.2856 -0.1420
 4973SOL    HW126555   4.384   0.541  10.201  0.5190 -0.4239  0.8796
 4973SOL    HW226556   4.271   0.522  10.288 -0.8269 -0.3650 -0.5244
 4974SOL     OW26557   4.500   1.660   7.272  0.0324  0.2190  0.5054
 4974SOL    HW126558   4.475   1.620   7.189  0.2421  0.3559  0.3760
 4974SOL    HW226559   4.519   1.584   7.328  2.6784  0.2010 -0.3999
 4975SOL     OW26560   3.972   1.214  15.053 -0.2154 -0.0753  0.1864
 4975SOL    HW126561   3.908   1.151  15.088  0.7409  0.3761  2.8058
 4975SOL    HW226562   4.052   1.166  15.078 -1.9894 -3.1484  0.0339
 4976SOL     OW26563   4.601   2.866   4.625  0.1637 -0.0460 -0.0867
 4976SOL    HW126564   4.590   2.910   4.709 -0.4246 -0.0044 -0.1921
 4976SOL    HW226565   4.540   2.910   4.566 -0.9817 -0.2956  0.9182
 4977SOL     OW26566   3.436   2.790   4.488 -0.6245 -0.0244  0.1741
 4977SOL    HW126567   3.491   2.770   4.412 -1.2748 -0.0563 -0.2904
 4977SOL    HW226568   3.358   2.806   4.435  0.5622  1.4165 -1.1484
 4978SOL     OW26569   1.173   2.157   9.526 -0.5202  0.0284  0.0161
 4978SOL    HW126570   1.222   2.187   9.449 -0.6247 -0.5654 -0.2783
 4978SOL    HW226571   1.109   2.227   9.533 -1.6425 -0.9870 -0.1457
 4979SOL     OW26572   4.483   0.372   9.773  0.3418 -0.3192  0.4197
 4979SOL    HW126573   4.440   0.292   9.743 -0.2723  0.2815 -0.2814
 4979SOL    HW226574   4.418   0.439   9.754  0.5777 -0.4433 -0.8165
 4980SOL     OW26575   0.607   3.454   5.309 -0.2169  0.2227  0.1012
 4980SOL    HW126576   0.687   3.407   5.284 -0.5621  0.2631 -1.0776
 4980SOL    HW226577   0.637   3.545   5.300 -0.8613  0.2925 -1.2711
 4981SOL     OW26578   3.037   1.119   8.241 -0.3217 -0.1265 -0.1876
 4981SOL    HW126579   3.080   1.093   8.159  0.7478 -0.3291  0.4406
 4981SOL    HW226580   2.994   1.198   8.209 -0.3066 -1.0163 -2.4401
 4982SOL     OW26581   4.532   0.676   5.499  0.2600 -0.6338  0.0524
 4982SOL    HW126582   4.509   0.733   5.573 -1.0963  0.6744 -1.3721
 4982SOL    HW226583   4.515   0.594   5.544  0.6179  0.0392  1.4298
 4983SOL     OW26584   0.966   3.860   9.288  0.2367  0.2447  0.1792
 4983SOL    HW126585   0.978   3.878   9.381  1.6949 -1.8686  0.4145
 4983SOL    HW226586   1.049   3.812   9.277  0.4571  0.8322 -0.7315
 4984SOL     OW26587   4.501   1.790   6.905  0.0290 -0.6970  0.0122
 4984SOL    HW126588   4.445   1.866   6.920  1.4437  0.0774  1.3440
 4984SOL    HW226589   4.564   1.809   6.974  0.4636 -1.6225 -0.1278
 4985SOL     OW26590   2.342   1.449   4.881  0.2642  0.3451  0.4153
 4985SOL    HW126591   2.368   1.395   4.955  0.8951  0.8433  0.5628
 4985SOL    HW226592   2.413   1.427   4.820 -2.5236  0.4998 -2.8996
 4986SOL     OW26593   0.451   4.448   8.126  0.3165 -0.4714 -0.1736
 4986SOL    HW126594   0.379   4.407   8.079 -0.1953  1.4926 -1.0910
 4986SOL    HW226595   0.519   4.447   8.058  1.2199 -1.3104  0.7333
 4987SOL     OW26596   3.878   2.717  12.187  0.1169 -0.5802  0.0127
 4987SOL    HW126597   3.793   2.729  12.231  0.0782  0.9579 -0.4702
 4987SOL    HW226598   3.910   2.807  12.176 -3.5568  0.6024 -1.0854
 4988SOL     OW26599   0.113   3.504  11.250 -0.9017 -0.3183  0.0062
 4988SOL    HW126600   0.079   3.414  11.245 -0.3267 -0.6627  2.0458
 4988SOL    HW226601   0.206   3.490  11.267 -0.7156 -0.5662 -1.1938
 4989SOL     OW26602   2.845   3.224   7.418 -0.2215 -0.2156 -0.1378
 4989SOL    HW126603   2.812   3.208   7.506 -0.8289  1.1223 -0.1226
 4989SOL    HW226604   2.804   3.301   7.378  1.7678  1.5036  1.1279
 4990SOL     OW26605   1.006   1.741   3.123  0.3472 -0.2510 -0.3120
 4990SOL    HW126606   1.057   1.737   3.204 -0.9837  0.7518  0.5815
 4990SOL    HW226607   1.052   1.811   3.076 -0.0128 -0.7167 -1.3576
 4991SOL     OW26608   3.224   0.816   9.111  0.4704  0.6185 -0.6009
 4991SOL    HW126609   3.129   0.827   9.101  0.1760 -1.7409 -0.3546
 4991SOL    HW226610   3.247   0.753   9.044  3.6320 -0.2261  1.2780
 4992SOL     OW26611   2.926   2.682   8.157  0.1966 -0.1522  0.5298
 4992SOL    HW126612   2.951   2.615   8.093 -1.8663  0.5741 -1.0258
 4992SOL    HW226613   3.010   2.701   8.200 -1.4029  1.2092  3.0334
 4993SOL     OW26614   2.035   3.101  13.211 -0.5292 -0.0094  0.1348
 4993SOL    HW126615   1.971   3.031  13.221  0.7229 -1.2001 -0.2808
 4993SOL    HW226616   2.117   3.060  13.239 -1.9314 -3.5331 -1.0010
 4994SOL     OW26617   4.196   2.131   4.533 -0.0162 -0.0243  0.0710
 4994SOL    HW126618   4.245   2.170   4.460 -0.1558 -0.5216 -0.2872
 4994SOL    HW226619   4.133   2.201   4.548 -0.2079 -0.2244  0.1983
 4995SOL     OW26620   0.331   1.542  12.965 -0.2959 -0.0755  0.1149
 4995SOL    HW126621   0.349   1.602  12.892 -1.6570 -1.0200 -0.9994
 4995SOL    HW226622   0.261   1.600  12.996 -0.0597 -0.1198  0.7292
 4996SOL     OW26623   3.613   0.317   6.115  0.2309  0.0271  0.3561
 4996SOL    HW126624   3.623   0.245   6.052 -0.6020 -1.2952  1.7367
 4996SOL    HW226625   3.538   0.290   6.168 -0.5714  0.5046 -0.5382
 4997SOL     OW26626   4.338   1.949  11.748  0.0864  0.7095  0.1308
 4997SOL    HW126627   4.428   1.956  11.778 -0.1115 -0.7034  1.0467
 4997SOL    HW226628   4.329   2.003  11.669 -0.1933  0.1635 -0.2119
 4998SOL     OW26629   3.354   2.001   2.409  0.7619 -0.1391 -0.7045
 4998SOL    HW126630   3.401   1.919   2.394  0.7279 -0.1199 -0.9235
 4998SOL    HW226631   3.382   2.041   2.326 -1.3498  0.3529 -1.1698
 4999SOL     OW26632   2.356   1.431  12.301 -0.0808 -0.4031  0.2422
 4999SOL    HW126633   2.323   1.518  12.281 -0.5401 -0.7650 -0.6112
 4999SOL    HW226634   2.285   1.375  12.269  0.1444 -0.1901 -0.6505
 5000SOL     OW26635   0.489   0.209  14.909 -0.1874 -0.6803  0.2713
 5000SOL    HW126636   0.483   0.143  14.978 -1.4032 -2.6025 -1.6743
 5000SOL    HW226637   0.510   0.160  14.830  1.5107 -2.4928  1.8640
 5001SOL     OW26638   2.711   2.471   1.833 -0.4779  0.0655 -0.1936
 5001SOL    HW126639   2.658   2.391   1.833 -2.2213  1.2204 -0.0560
 5001SOL    HW226640   2.661   2.521   1.769  0.6673  1.7068  0.2007
 5002SOL     OW26641   1.124   4.207   2.466 -0.3811  0.3964 -0.1612
 5002SOL    HW126642   1.031   4.190   2.450 -0.5799  1.4978 -0.1422
 5002SOL    HW226643   1.146   4.228   2.376  2.0504  1.7773  0.7785
 5003SOL     OW26644   2.437   0.393  15.297 -0.4233  0.2178  0.1681
 5003SOL    HW126645   2.475   0.481  15.293 -1.5323  0.7435  1.2697
 5003SOL    HW226646   2.397   0.404  15.383 -1.9386  3.6590 -0.9903
 5004SOL     OW26647   3.524   0.087   2.482  0.0432  0.1111  0.0578
 5004SOL    HW126648   3.538   0.047   2.396  0.3016  0.2989  0.0160
 5004SOL    HW226649   3.480   0.163   2.445  1.0889  1.1901  1.0603
 5005SOL     OW26650   3.130   1.810   6.269 -0.1764  0.1328 -0.5068
 5005SOL    HW126651   3.085   1.833   6.350  0.3500  2.2068 -0.7872
 5005SOL    HW226652   3.085   1.874   6.214 -1.3148 -0.1872  0.0659
 5006SOL     OW26653   3.411   0.580   1.839 -0.2782 -0.1954 -0.4545
 5006SOL    HW126654   3.339   0.517   1.837 -1.4382  1.1091  0.3635
 5006SOL    HW226655   3.423   0.590   1.745 -1.7430  3.8844 -0.1736
 5007SOL     OW26656   0.572   1.144   5.099 -0.4139 -0.0811 -0.1393
 5007SOL    HW126657   0.559   1.117   5.190 -1.5885 -2.1466 -0.9085
 5007SOL    HW226658   0.666   1.159   5.095 -0.1118 -1.9933 -0.2263
 5008SOL     OW26659   2.948   1.228   9.163 -0.0961 -0.2646  0.2373
 5008SOL    HW126660   2.997   1.305   9.192 -0.7199  0.3836 -0.4203
 5008SOL    HW226661   3.019   1.181   9.119 -0.0740 -0.5874  0.6200
 5009SOL     OW26662   2.979   2.266   4.748 -0.2995  0.1337 -0.0157
 5009SOL    HW126663   3.010   2.219   4.825  0.6255  0.6111 -0.1034
 5009SOL    HW226664   2.891   2.227   4.739 -0.6218  0.6514  0.9428
 5010SOL     OW26665   3.211   3.067   2.835  0.0355 -0.1751 -0.0346
 5010SOL    HW126666   3.271   2.993   2.843 -1.0019 -0.8294  1.6436
 5010SOL    HW226667   3.255   3.143   2.797 -0.3020  0.1233  0.1673
 5011SOL     OW26668   0.527   0.305   4.370  0.1252 -0.4929  0.3672
 5011SOL    HW126669   0.571   0.357   4.304  1.3299 -2.1151 -0.1084
 5011SOL    HW226670   0.445   0.347   4.396  1.4135  0.8227  2.3503
 5012SOL     OW26671   0.197   0.141   4.117 -0.2310 -0.3921  0.1130
 5012SOL    HW126672   0.250   0.212   4.080  0.2129 -0.5563  0.4388
 5012SOL    HW226673   0.266   0.079   4.141 -1.7175 -2.1753 -0.1763
 5013SOL     OW26674   1.832   1.361   2.442  0.3761  0.2732  0.7080
 5013SOL    HW126675   1.915   1.314   2.431  0.6152  0.9324 -0.3142
 5013SOL    HW226676   1.797   1.349   2.354  2.0271  0.6933 -0.0098
 5014SOL     OW26677   1.272   1.492   3.327  0.3413  0.0550 -0.0794
 5014SOL    HW126678   1.209   1.423   3.306  1.8460 -1.4559  0.3481
 5014SOL    HW226679   1.343   1.434   3.354 -0.0194 -0.1780  0.3672
 5015SOL     OW26680   4.500   0.230   9.198 -0.4742 -0.0758  0.4537
 5015SOL    HW126681   4.590   0.237   9.165 -0.2307  1.3976  1.4410
 5015SOL    HW226682   4.523   0.208   9.288  2.9382 -0.1975 -0.4247
 5016SOL     OW26683   2.254   1.856   7.295 -0.3387 -0.9640 -0.4020
 5016SOL    HW126684   2.270   1.923   7.229 -0.0287 -1.0161 -0.3767
 5016SOL    HW226685   2.169   1.820   7.267 -0.6635 -1.3827  1.0891
 5017SOL     OW26686   2.866   0.268   4.564  0.0207 -0.0086 -0.0548
 5017SOL    HW126687   2.797   0.264   4.630  0.2810 -0.5764  0.1803
 5017SOL    HW226688   2.924   0.197   4.590 -0.6762 -0.6238 -0.1611
 5018SOL     OW26689   1.017   1.998   2.386  0.2770  0.0814  0.0255
 5018SOL    HW126690   1.100   1.957   2.410  1.1368  0.7730 -1.7325
 5018SOL    HW226691   1.029   2.084   2.426 -0.9540 -0.7210  2.1055
 5019SOL     OW26692   0.842   3.370   4.907  0.4421 -0.1241  0.3295
 5019SOL    HW126693   0.918   3.419   4.876 -2.9639  4.2518 -1.0618
 5019SOL    HW226694   0.840   3.304   4.838  1.3303 -0.1233  0.3072
 5020SOL     OW26695   1.394   0.776   3.739  0.2197 -0.0520  0.7117
 5020SOL    HW126696   1.333   0.775   3.812 -0.8502 -1.6846 -0.2208
 5020SOL    HW226697   1.474   0.797   3.789  0.5451  3.3886 -1.2415
 5021SOL     OW26698   0.536   0.422   8.609  0.5483 -0.9591  0.4730
 5021SOL    HW126699   0.521   0.380   8.524  3.5077 -0.3642 -0.3558
 5021SOL    HW226700   0.480   0.374   8.669  0.6460  0.5764  1.8039
 5022SOL     OW26701   3.439   4.018   9.722 -1.3167  0.1104 -0.3723
 5022SOL    HW126702   3.479   4.105   9.719 -1.1338  0.0201 -0.5605
 5022SOL    HW226703   3.369   4.043   9.782 -0.8000  0.6902 -0.0201
 5023SOL     OW26704   3.124   1.090  16.652  0.8875  0.5867 -0.5578
 5023SOL    HW126705   3.183   1.164  16.639  2.1080 -0.7480 -2.6017
 5023SOL    HW226706   3.042   1.112  16.608 -0.4136 -0.8380  1.1299
 5024SOL     OW26707   0.116   1.886   1.320 -0.0622 -0.1588  0.1896
 5024SOL    HW126708   0.068   1.810   1.288 -0.0852 -1.3948  3.1849
 5024SOL    HW226709   0.163   1.857   1.398  1.0082 -0.5094 -0.5913
 5025SOL     OW26710   4.500   0.468  14.561 -0.0628  0.2139  0.0461
 5025SOL    HW126711   4.573   0.470  14.622 -0.9104 -0.3339  1.0856
 5025SOL    HW226712   4.540   0.514  14.487 -0.6482  1.9675  0.7956
 5026SOL     OW26713   0.668   4.084   9.081 -0.6161 -0.2292  0.2891
 5026SOL    HW126714   0.615   4.141   9.026  1.6766  1.1209 -0.5393
 5026SOL    HW226715   0.607   4.076   9.154 -0.1870  0.4951  0.7265
 5027SOL     OW26716   3.022   1.380   7.582  0.6014  0.5022  0.4600
 5027SOL    HW126717   2.959   1.420   7.522 -0.7197  0.9273  2.1293
 5027SOL    HW226718   3.097   1.438   7.587  1.6380 -0.8334  0.5225
 5028SOL     OW26719   3.657   4.714   2.726 -0.0891 -0.2578  0.3701
 5028SOL    HW126720   3.617   4.727   2.640  2.2246 -0.3109 -0.7125
 5028SOL    HW226721   3.737   0.018   2.700  0.6921 -2.3241 -0.9030
 5029SOL     OW26722   4.240   4.374   4.662 -0.3312  0.2380 -0.1798
 5029SOL    HW126723   4.177   4.349   4.729 -0.8413  0.9868 -0.3844
 5029SOL    HW226724   4.208   4.463   4.651 -0.6732 -0.1413 -2.1900
 5030SOL     OW26725   0.841   1.399  16.907  0.2428 -0.1387  0.0540
 5030SOL    HW126726   0.793   1.477  16.933  1.7036  1.0519 -0.8078
 5030SOL    HW226727   0.771   1.334  16.917 -2.3582  2.1681 -3.1789
 5031SOL     OW26728   3.672   4.188   3.344 -0.2547 -0.3402 -0.5571
 5031SOL    HW126729   3.681   4.269   3.394 -0.3523 -1.1093  0.7093
 5031SOL    HW226730   3.632   4.222   3.264  0.9921 -1.1844 -1.5289
 5032SOL     OW26731   2.630   0.283   6.877 -0.6554  0.3449  0.5742
 5032SOL    HW126732   2.560   0.347   6.869 -1.2274 -0.2864  0.5785
 5032SOL    HW226733   2.597   0.242   6.957 -0.2832  2.0279  1.5948
 5033SOL     OW26734   0.143   4.591   1.606 -0.7688  0.1864  0.7626
 5033SOL    HW126735   0.109   4.638   1.682  0.3893 -0.1674  1.4898
 5033SOL    HW226736   0.177   4.655   1.544  0.0559 -0.7652  0.2355
 5034SOL     OW26737   3.239   3.657   0.699 -0.0688 -0.4735  1.0832
 5034SOL    HW126738   3.268   3.729   0.756 -0.1381 -0.4746  1.1195
 5034SOL    HW226739   3.327   3.623   0.684 -0.2116 -0.4567  0.1954
 5035SOL     OW26740   1.712   2.000  16.107 -0.1819 -0.4358  0.3132
 5035SOL    HW126741   1.688   1.926  16.163 -2.0893  0.8872  1.2301
 5035SOL    HW226742   1.650   1.972  16.040 -0.4306  0.8016  0.0216
 5036SOL     OW26743   0.757   3.574   4.249  0.0515  0.0978 -0.4260
 5036SOL    HW126744   0.791   3.537   4.330  1.4171  1.6033 -0.3228
 5036SOL    HW226745   0.670   3.597   4.280  0.4487  1.2175 -0.1379
 5037SOL     OW26746   2.010   2.871  11.655 -0.1215  0.1942  0.4212
 5037SOL    HW126747   2.004   2.786  11.611  1.1672 -0.4459  1.4571
 5037SOL    HW226748   1.922   2.908  11.662 -1.3285 -2.5517 -0.2365
 5038SOL     OW26749   2.339   3.584   4.985  0.1834 -0.5899  0.1384
 5038SOL    HW126750   2.383   3.500   4.972  0.1168 -0.6442  0.2654
 5038SOL    HW226751   2.330   3.597   5.080  1.0768 -0.4079  0.1904
 5039SOL     OW26752   0.599   1.426  15.147  0.3112 -0.3312  0.5633
 5039SOL    HW126753   0.570   1.398  15.234 -1.6188 -1.3107 -0.3835
 5039SOL    HW226754   0.513   1.460  15.121  1.5771  1.4928 -1.2091
 5040SOL     OW26755   3.610   1.027  12.578 -0.0160  0.1647 -0.2807
 5040SOL    HW126756   3.646   0.938  12.578 -0.1043  0.1319  0.2384
 5040SOL    HW226757   3.688   1.081  12.589  1.3715 -2.4846  2.7034
 5041SOL     OW26758   2.708   3.267   4.161 -0.3893  0.0073 -0.4743
 5041SOL    HW126759   2.693   3.285   4.254 -2.3789  2.9366 -1.3541
 5041SOL    HW226760   2.625   3.225   4.137 -0.2615 -0.9359  0.7356
 5042SOL     OW26761   1.735   0.500  10.696  0.4546  0.2444 -0.4953
 5042SOL    HW126762   1.699   0.567  10.754  1.3000  0.0818  0.2153
 5042SOL    HW226763   1.787   0.557  10.639  0.5231 -0.9359 -1.6142
 5043SOL     OW26764   3.173   4.620   3.396  0.1815  0.5292 -0.2447
 5043SOL    HW126765   3.097   4.639   3.342  0.6942  0.6492 -0.9251
 5043SOL    HW226766   3.244   4.673   3.359 -0.4141  3.3711  2.6467
 5044SOL     OW26767   1.793   1.995   5.851 -0.0290  0.8714  0.1528
 5044SOL    HW126768   1.738   1.965   5.923  0.4562  2.6181  1.2425
 5044SOL    HW226769   1.814   2.083   5.880  0.1308  0.1075  2.3358
 5045SOL     OW26770   2.879   4.709   0.152  0.0504  0.4608 -0.1957
 5045SOL    HW126771   2.853   0.058   0.136 -0.1370  0.0169 -2.5194
 5045SOL    HW226772   2.969   4.705   0.185 -0.1207 -0.0579  0.1955
 5046SOL     OW26773   4.129   3.520   1.090 -0.0784 -0.1374  0.4552
 5046SOL    HW126774   4.086   3.436   1.106  0.1604 -0.6676 -1.7900
 5046SOL    HW226775   4.190   3.520   1.165  0.8842 -0.5312 -0.3214
 5047SOL     OW26776   0.863   2.627  16.959  0.2873 -0.3279  0.0021
 5047SOL    HW126777   0.905   2.563  17.017  0.7435  2.3094  2.5796
 5047SOL    HW226778   0.894   2.589  16.877 -1.4507 -1.8147  0.0250
 5048SOL     OW26779   3.926   1.298   8.059 -0.2323  0.2986 -0.5707
 5048SOL    HW126780   3.845   1.248   8.051 -0.2174 -0.2447  2.4143
 5048SOL    HW226781   3.931   1.334   7.971  2.9841  0.0988 -0.4886
 5049SOL     OW26782   4.672   3.932   5.340 -0.0238 -0.0511  0.3302
 5049SOL    HW126783   4.611   3.869   5.379  0.5241 -1.0838 -0.4812
 5049SOL    HW226784   4.741   3.921   5.405 -1.8712  3.2547  2.8695
 5050SOL     OW26785   3.028   0.019  11.841  0.0039  0.0541 -0.1261
 5050SOL    HW126786   3.005   0.050  11.754  0.6509  1.7224  0.2993
 5050SOL    HW226787   3.040   0.100  11.890 -2.4460  0.4844 -0.2283
 5051SOL     OW26788   0.162   0.586  15.956  0.1121 -0.4382 -0.2787
 5051SOL    HW126789   0.091   0.588  15.891  0.5217  2.8173 -0.6153
 5051SOL    HW226790   0.128   0.519  16.016  0.1344 -1.6578 -1.6220
 5052SOL     OW26791   1.373   1.957   5.066  0.1515  0.5772 -0.5480
 5052SOL    HW126792   1.461   1.962   5.102  0.2400 -0.4735 -0.6173
 5052SOL    HW226793   1.347   1.869   5.094  3.6853 -0.6962 -1.3618
 5053SOL     OW26794   1.206   2.328   8.423 -0.1587  0.4102  0.3045
 5053SOL    HW126795   1.182   2.240   8.393  1.8942 -0.0120 -0.0937
 5053SOL    HW226796   1.247   2.359   8.342 -0.8758 -0.7122 -0.4765
 5054SOL     OW26797   3.450   2.843   6.256  0.4513 -0.3323  0.0636
 5054SOL    HW126798   3.391   2.852   6.330  1.7926  0.5895  1.0220
 5054SOL    HW226799   3.510   2.786   6.305 -0.0488  0.5366  1.6702
 5055SOL     OW26800   2.738   2.374  14.467 -0.2423  0.0009 -0.1165
 5055SOL    HW126801   2.747   2.334  14.381 -0.4869 -0.2763 -0.0146
 5055SOL    HW226802   2.732   2.295  14.521  2.8314 -1.2729 -1.7042
 5056SOL     OW26803   1.607   3.409  11.223  0.0437 -0.2330 -0.2345
 5056SOL    HW126804   1.538   3.359  11.178 -0.6141  1.0099 -0.5961
 5056SOL    HW226805   1.578   3.500  11.214  1.2530  0.3115  1.4368
 5057SOL     OW26806   3.938   3.077  14.978  0.1390 -0.1744  0.2599
 5057SOL    HW126807   3.945   3.082  14.883  0.9461 -1.5805  0.2475
 5057SOL    HW226808   3.947   3.167  15.009 -1.3264 -0.5153  1.6318
 5058SOL     OW26809   4.341   2.704   9.174 -0.3582 -0.0431 -0.2047
 5058SOL    HW126810   4.294   2.781   9.207 -0.9422 -0.1653 -0.7377
 5058SOL    HW226811   4.356   2.730   9.083 -0.7137  0.6708 -0.0557
 5059SOL     OW26812   0.440   3.451   5.886  0.1953  0.4755  0.5550
 5059SOL    HW126813   0.469   3.375   5.936 -1.3168 -0.2252  0.3606
 5059SOL    HW226814   0.480   3.425   5.804  2.6075  0.6836  1.6723
 5060SOL     OW26815   0.912   0.799  11.610  0.2389 -0.4755 -0.3355
 5060SOL    HW126816   0.828   0.817  11.654  1.7777 -1.1936  2.9064
 5060SOL    HW226817   0.901   0.860  11.537 -2.9590 -1.1189 -0.4273
 5061SOL     OW26818   4.388   4.237   6.253  0.1913 -0.7141 -0.3568
 5061SOL    HW126819   4.454   4.206   6.316 -1.1572  0.7370  1.7857
 5061SOL    HW226820   4.429   4.211   6.171  1.5462  2.7741 -0.7570
 5062SOL     OW26821   3.122   2.251  11.697 -0.0155 -0.4483 -0.3365
 5062SOL    HW126822   3.125   2.233  11.791  2.0690 -0.0063 -0.3154
 5062SOL    HW226823   3.150   2.343  11.693 -0.3211 -0.2567  1.9210
 5063SOL     OW26824   2.015   4.553  14.074 -0.2199  0.3397  0.0304
 5063SOL    HW126825   1.936   4.520  14.032  0.5197 -1.0268 -0.2934
 5063SOL    HW226826   1.974   4.559  14.161  0.3234  0.4341  0.2823
 5064SOL     OW26827   3.774   3.531  12.638 -0.1531 -0.2531  0.1189
 5064SOL    HW126828   3.706   3.582  12.682  3.1566  2.9634  1.5184
 5064SOL    HW226829   3.745   3.441  12.653 -1.0671 -0.0101 -0.2413
 5065SOL     OW26830   3.124   2.970   4.584 -0.3702  0.0016 -0.2272
 5065SOL    HW126831   3.045   3.008   4.547 -0.0561 -1.2769 -2.1792
 5065SOL    HW226832   3.124   3.010   4.671 -1.5379  0.1186 -0.2854
 5066SOL     OW26833   4.537   4.247   1.436 -0.4407 -0.2724  0.3474
 5066SOL    HW126834   4.590   4.200   1.371 -0.4240  0.9967 -0.5799
 5066SOL    HW226835   4.532   4.182   1.506 -2.0099 -1.1496 -0.5832
 5067SOL     OW26836   0.024   1.581   8.684 -0.1782 -0.5239  0.4263
 5067SOL    HW126837   4.681   1.543   8.661  0.3984  0.2334 -2.8584
 5067SOL    HW226838   0.079   1.529   8.626 -0.2880 -0.7718  0.5449
 5068SOL     OW26839   3.173   3.842   5.423  0.0175 -0.0423  0.1695
 5068SOL    HW126840   3.223   3.804   5.351  0.8461  3.2401 -1.0010
 5068SOL    HW226841   3.238   3.826   5.492  0.2560 -0.4801 -0.1595
 5069SOL     OW26842   3.995   0.867   6.257  0.3547  0.0099  0.2156
 5069SOL    HW126843   3.934   0.793   6.258  0.2523  0.0999  0.9695
 5069SOL    HW226844   4.010   0.891   6.349 -1.0305 -0.6984  0.6205
 5070SOL     OW26845   4.733   2.381   7.866  0.2224 -0.4763  0.2507
 5070SOL    HW126846   0.035   2.314   7.815 -0.1177 -0.1954 -0.4185
 5070SOL    HW226847   0.063   2.398   7.927  0.2771  2.0412 -0.5079
 5071SOL     OW26848   2.774   3.813  12.750 -0.3292 -0.2568 -0.3046
 5071SOL    HW126849   2.720   3.889  12.727 -0.9160 -0.5166  0.2000
 5071SOL    HW226850   2.803   3.788  12.663  2.1343 -0.6219  0.6399
 5072SOL     OW26851   4.127   0.840   7.328 -0.5485 -0.5622 -0.5048
 5072SOL    HW126852   4.152   0.930   7.348  0.1280 -0.9557  0.4239
 5072SOL    HW226853   4.145   0.834   7.234  2.2857 -0.1457  0.0314
 5073SOL     OW26854   3.171   2.451   4.289  0.5397 -0.3808  0.5989
 5073SOL    HW126855   3.185   2.421   4.379  2.3935 -0.5221  0.2557
 5073SOL    HW226856   3.083   2.419   4.271  0.7518 -1.6615  1.8610
 5074SOL     OW26857   4.348   4.444   9.962 -0.3582 -0.0695  0.9391
 5074SOL    HW126858   4.309   4.433  10.049 -2.1898 -1.4346 -0.0588
 5074SOL    HW226859   4.416   4.509   9.980  0.9876 -0.9845 -0.8122
 5075SOL     OW26860   2.122   3.468   6.735 -0.3132  0.3231 -0.0459
 5075SOL    HW126861   2.195   3.503   6.786  1.0557  1.5779 -2.8199
 5075SOL    HW226862   2.143   3.489   6.644  2.0711  1.5126  0.7787
 5076SOL     OW26863   0.114   0.168   8.568  0.3334  0.3439  0.0748
 5076SOL    HW126864   0.128   0.247   8.516  1.1953 -0.9713 -1.7156
 5076SOL    HW226865   0.152   0.100   8.513  1.1543 -0.4625  1.6431
 5077SOL     OW26866   0.216   4.411  17.106  0.5116 -0.5928  0.0703
 5077SOL    HW126867   0.187   4.503  17.102  1.0863 -0.3838  0.8062
 5077SOL    HW226868   0.216   4.386  17.013  2.5456  1.5364 -0.5163
 5078SOL     OW26869   2.279   1.740   2.453 -0.3788 -0.6973 -0.2494
 5078SOL    HW126870   2.261   1.646   2.453 -0.6824 -0.6411  0.0918
 5078SOL    HW226871   2.277   1.767   2.545  1.6847  0.9323 -0.6666
 5079SOL     OW26872   1.213   0.610   4.698  0.4318 -0.4392  0.4021
 5079SOL    HW126873   1.225   0.686   4.754  1.4567  1.7615 -2.7955
 5079SOL    HW226874   1.299   0.570   4.712  0.0976 -0.1767  3.2471
 5080SOL     OW26875   2.307   0.289   7.669  0.3614 -0.5556  0.1273
 5080SOL    HW126876   2.387   0.327   7.632 -1.1415  2.4321 -0.0147
 5080SOL    HW226877   2.337   0.263   7.756  2.0382 -1.9676 -0.8784
 5081SOL     OW26878   3.388   4.335   6.261 -0.4627  0.0868 -0.0530
 5081SOL    HW126879   3.338   4.330   6.343 -1.8993 -0.7432 -0.9822
 5081SOL    HW226880   3.462   4.275   6.269 -0.6246 -0.3295 -1.6336
 5082SOL     OW26881   1.039   2.354   7.298  0.4374  0.0522  0.5744
 5082SOL    HW126882   1.096   2.397   7.234  1.9085 -0.6648  1.3978
 5082SOL    HW226883   1.048   2.259   7.288  0.4593  0.0212  0.8875
 5083SOL     OW26884   0.174   4.167   2.503  0.6325 -0.5304  0.5143
 5083SOL    HW126885   0.261   4.128   2.502  0.4555 -0.9723  1.7299
 5083SOL    HW226886   0.147   4.178   2.412  1.2289 -0.3512  0.3641
 5084SOL     OW26887   3.359   2.023   9.876  0.2904  0.7601 -0.4429
 5084SOL    HW126888   3.451   2.046   9.867  0.2842  0.0448 -2.2807
 5084SOL    HW226889   3.345   2.032   9.970 -1.1987 -2.2242 -0.3968
 5085SOL     OW26890   0.704   1.063   3.060  0.1664 -0.0473 -0.2809
 5085SOL    HW126891   0.682   1.050   2.968  0.2844  0.8462 -0.4363
 5085SOL    HW226892   0.657   1.142   3.087  0.2522 -0.0899 -0.0035
 5086SOL     OW26893   2.093   1.719   3.410 -0.2943  0.0130 -0.1189
 5086SOL    HW126894   2.165   1.714   3.348 -2.1063  0.7316 -2.2592
 5086SOL    HW226895   2.119   1.645   3.466  0.8993 -0.2416 -1.0277
 5087SOL     OW26896   0.667   1.120  11.051  0.1093  0.5638 -0.0658
 5087SOL    HW126897   0.663   1.216  11.054 -0.7370  0.4882  1.1678
 5087SOL    HW226898   0.589   1.088  11.096 -1.5461  1.0727 -2.5371
 5088SOL     OW26899   4.625   0.820   6.556 -0.3353 -0.1846 -0.2274
 5088SOL    HW126900   4.595   0.781   6.638 -1.0768 -0.9062 -0.8395
 5088SOL    HW226901   4.688   0.754   6.527  0.5578  1.1427 -1.3643
 5089SOL     OW26902   4.384   2.372   8.989  0.2515 -0.1060 -0.4749
 5089SOL    HW126903   4.434   2.294   9.014 -1.3642 -1.3863 -1.2570
 5089SOL    HW226904   4.305   2.364   9.044  0.5114  1.8684  0.1802
 5090SOL     OW26905   4.106   4.727   8.277 -0.0016  0.2336  0.2887
 5090SOL    HW126906   4.048   0.058   8.297  1.5521  2.0449 -2.0001
 5090SOL    HW226907   4.106   4.678   8.360  1.5336 -0.4514 -0.1187
 5091SOL     OW26908   0.757   0.538   3.295  0.5346  0.2226  0.2895
 5091SOL    HW126909   0.800   0.624   3.299 -0.0244  0.4286  1.8930
 5091SOL    HW226910   0.818   0.481   3.249  2.4081  1.5408  1.1240
 5092SOL     OW26911   2.873   4.205  16.260  0.3010  0.1901 -0.3999
 5092SOL    HW126912   2.842   4.196  16.170  1.1746 -1.7020 -0.5118
 5092SOL    HW226913   2.819   4.281  16.282 -1.3647 -1.2289  0.3779
 5093SOL     OW26914   4.102   2.176  12.282  0.1006 -0.0488 -0.2503
 5093SOL    HW126915   4.120   2.212  12.369 -3.1572 -3.0254  1.6551
 5093SOL    HW226916   4.022   2.222  12.260  0.6932  1.5291  0.9220
 5094SOL     OW26917   1.889   1.868   4.683  0.1550  0.0413 -0.3686
 5094SOL    HW126918   1.952   1.827   4.623  0.1466  0.6660 -0.8110
 5094SOL    HW226919   1.832   1.797   4.709 -1.3157  2.2720  2.4572
 5095SOL     OW26920   0.644   1.033   8.189  0.0212  0.0022 -0.7673
 5095SOL    HW126921   0.707   1.097   8.155 -0.1965  0.0638 -1.0549
 5095SOL    HW226922   0.561   1.078   8.174  0.1829  1.0646  1.5381
 5096SOL     OW26923   0.761   4.099   1.713  0.0121  0.2050  0.0912
 5096SOL    HW126924   0.753   4.182   1.758 -3.3774 -0.6500  1.0286
 5096SOL    HW226925   0.845   4.120   1.671  0.0228  0.1442  0.0819
 5097SOL     OW26926   0.320   1.075  14.235 -0.7444 -0.0956  0.1918
 5097SOL    HW126927   0.245   1.080  14.295 -0.0447 -0.0754  1.0649
 5097SOL    HW226928   0.387   1.092  14.301 -0.2627 -1.0429 -0.0667
 5098SOL     OW26929   1.827   0.219   8.192 -0.1904 -0.3804  0.2849
 5098SOL    HW126930   1.779   0.145   8.154  0.2680  0.0960 -1.2018
 5098SOL    HW226931   1.867   0.176   8.268 -0.4271 -0.2072  0.5080
 5099SOL     OW26932   2.640   0.828  14.689 -0.1908 -0.1129 -0.0546
 5099SOL    HW126933   2.638   0.806  14.782 -0.4007 -0.1965 -0.0776
 5099SOL    HW226934   2.638   0.924  14.686 -2.4622 -0.1492  0.6718
 5100SOL     OW26935   3.109   2.226  14.093  0.0890  0.1004 -0.5279
 5100SOL    HW126936   3.016   2.248  14.099 -0.2897 -0.6341 -3.6542
 5100SOL    HW226937   3.132   2.253  14.181  0.9474  0.0929 -0.7453
 5101SOL     OW26938   0.880   4.046  15.360  0.1974 -0.0054  0.0288
 5101SOL    HW126939   0.898   4.056  15.266 -1.1506 -2.7554 -0.5008
 5101SOL    HW226940   0.969   4.063  15.392  0.3184  1.4131 -1.0576
 5102SOL     OW26941   3.394   0.733  17.739 -0.3052  0.0016  0.0114
 5102SOL    HW126942   3.313   0.784  17.729 -1.3026 -1.6581 -0.4699
 5102SOL    HW226943   3.438   0.802   0.024 -0.7009  0.6185 -0.4785
 5103SOL     OW26944   1.515   0.751   5.349  0.1999 -0.2517  0.9076
 5103SOL    HW126945   1.457   0.828   5.348  0.4631 -0.0904 -1.7994
 5103SOL    HW226946   1.556   0.773   5.266  0.9379 -0.3376  1.2472
 5104SOL     OW26947   0.038   3.516   8.659  0.6204  0.5998  0.3534
 5104SOL    HW126948   4.739   3.596   8.692 -0.0116  0.2980  0.3059
 5104SOL    HW226949   0.088   3.491   8.736  1.4434  0.2280 -0.3077
 5105SOL     OW26950   1.461   3.197   1.754 -0.0386  0.3869 -0.4012
 5105SOL    HW126951   1.461   3.102   1.764 -0.4920  0.5388  1.0311
 5105SOL    HW226952   1.471   3.203   1.659  0.6721 -0.2550 -0.3636
 5106SOL     OW26953   2.807   1.296   8.542  0.5918 -0.2416  0.2090
 5106SOL    HW126954   2.719   1.322   8.513  0.2489 -1.3972  0.2043
 5106SOL    HW226955   2.818   1.211   8.501 -1.4136  1.1316 -3.1914
 5107SOL     OW26956   2.133   1.214   8.367  0.1426 -0.2942  0.7547
 5107SOL    HW126957   2.138   1.203   8.272 -1.9391  3.4056  0.2161
 5107SOL    HW226958   2.163   1.305   8.374 -0.8362  0.0523  0.3100
 5108SOL     OW26959   4.258   1.171   9.704 -0.3915  0.0452  0.6261
 5108SOL    HW126960   4.298   1.195   9.621  0.5307 -0.8597  0.8150
 5108SOL    HW226961   4.166   1.198   9.703 -0.9872 -2.0212 -0.5030
 5109SOL     OW26962   0.652   0.817  11.701  0.1923 -0.5669  0.4355
 5109SOL    HW126963   0.610   0.801  11.617 -1.1356  2.1687  0.5788
 5109SOL    HW226964   0.597   0.878  11.750  0.1184  2.1470 -3.0159
 5110SOL     OW26965   4.234   3.479   8.789  0.4658  0.1414  0.2016
 5110SOL    HW126966   4.272   3.523   8.866  0.0948 -0.5305  0.7725
 5110SOL    HW226967   4.260   3.537   8.718 -1.8942  1.6010  0.5307
 5111SOL     OW26968   0.143   3.784  15.883 -0.2598 -0.0117  0.3643
 5111SOL    HW126969   0.091   3.839  15.942  2.0287  1.6207  0.8845
 5111SOL    HW226970   0.227   3.831  15.879 -0.5419  0.5063  0.4539
 5112SOL     OW26971   2.514   3.178   8.070 -0.5265  0.1597 -0.5855
 5112SOL    HW126972   2.430   3.164   8.025 -0.5687  1.7131 -1.0016
 5112SOL    HW226973   2.564   3.099   8.048 -0.1109  1.1591 -3.2897
 5113SOL     OW26974   2.701   2.084  10.464 -0.3240  0.3200  0.1620
 5113SOL    HW126975   2.747   2.158  10.423  0.9993 -1.2187 -1.1253
 5113SOL    HW226976   2.611   2.114  10.479 -0.1389  0.3721  1.1878
 5114SOL     OW26977   2.820   2.612  17.609  0.0077  0.5177 -0.2862
 5114SOL    HW126978   2.824   2.652  17.696 -1.6263 -3.8488  1.8159
 5114SOL    HW226979   2.825   2.693  17.558 -3.3837  1.8567  1.5032
 5115SOL     OW26980   4.727   3.614   2.077 -0.3941 -0.3960 -0.0634
 5115SOL    HW126981   4.734   3.519   2.085  1.0101 -0.3368 -0.7484
 5115SOL    HW226982   4.707   3.640   2.167  0.2678 -0.2041  0.0256
 5116SOL     OW26983   2.808   1.228   9.737 -0.0045  0.3277  0.4676
 5116SOL    HW126984   2.864   1.266   9.806 -0.6060 -0.8130  1.5796
 5116SOL    HW226985   2.861   1.212   9.659  2.0124  2.0962  1.4685
 5117SOL     OW26986   4.229   0.117   2.105  0.1437 -0.4960  0.1998
 5117SOL    HW126987   4.193   0.130   2.192  0.8808  0.7853  0.3107
 5117SOL    HW226988   4.314   0.160   2.119  0.2566 -0.4285 -0.6870
 5118SOL     OW26989   0.977   4.559   1.676  0.0328 -0.4551  0.3220
 5118SOL    HW126990   0.892   4.515   1.677 -2.0298  3.5172  0.4785
 5118SOL    HW226991   1.034   4.484   1.692 -1.4452 -1.6830 -0.2381
 5119SOL     OW26992   0.879   2.291  16.069  0.1473  0.2126 -1.1618
 5119SOL    HW126993   0.842   2.369  16.028  0.0863 -0.0410 -1.5801
 5119SOL    HW226994   0.919   2.239  15.999 -0.4355 -1.0738 -0.5525
 5120SOL     OW26995   3.960   4.023   7.241 -0.1388  0.0574  0.1977
 5120SOL    HW126996   3.970   4.073   7.322  0.0454 -1.1504  0.9100
 5120SOL    HW226997   3.876   4.055   7.208 -0.5294  0.4615  1.6044
 5121SOL     OW26998   2.645   0.051   7.618 -0.0573 -0.1179 -0.3748
 5121SOL    HW126999   2.700   4.721   7.648 -0.3727 -0.6509 -1.0687
 5121SOL    HW227000   2.679   0.120   7.674 -0.5493 -0.4280  0.3052
 5122SOL     OW27001   1.688   4.604   4.004 -0.1567 -0.3857  0.9248
 5122SOL    HW127002   1.647   4.542   3.944  0.8177  0.6512 -0.7911
 5122SOL    HW227003   1.779   4.600   3.974 -0.7948  0.0794 -1.0305
 5123SOL     OW27004   2.268   0.442   6.464  0.4064  0.3956  0.8693
 5123SOL    HW127005   2.320   0.372   6.504  1.5628  0.5287 -0.3992
 5123SOL    HW227006   2.189   0.393   6.440 -0.3413  0.3301  3.4388
 5124SOL     OW27007   2.741   0.361   0.754  0.4069  1.3306 -0.0060
 5124SOL    HW127008   2.727   0.455   0.772 -0.1626  1.2506 -0.0194
 5124SOL    HW227009   2.697   0.352   0.670  1.7162  1.2204 -0.6734
 5125SOL     OW27010   3.566   3.487   2.993  0.2576  0.3550  0.0773
 5125SOL    HW127011   3.504   3.552   3.027 -1.2336 -0.5639 -0.9222
 5125SOL    HW227012   3.646   3.534   2.968  0.1330 -0.5803 -2.0273
 5126SOL     OW27013   1.084   1.827   4.898  0.4565  0.0779 -0.1695
 5126SOL    HW127014   1.022   1.885   4.853 -0.7447 -2.9752 -2.4539
 5126SOL    HW227015   1.136   1.803   4.822  0.7279  1.7208 -0.5082
 5127SOL     OW27016   4.453   3.605   3.549  0.3616 -0.0514 -0.5473
 5127SOL    HW127017   4.471   3.511   3.553 -0.2119 -0.0873  1.2286
 5127SOL    HW227018   4.450   3.618   3.454  1.4237  1.0666 -0.4272
 5128SOL     OW27019   2.881   1.178  16.594  0.3023 -0.1349 -0.2972
 5128SOL    HW127020   2.819   1.251  16.597  0.0551 -0.2417 -3.1506
 5128SOL    HW227021   2.846   1.132  16.517 -0.0214  0.9859 -0.8206
 5129SOL     OW27022   0.864   3.654   4.022  0.3254 -0.3158 -0.8558
 5129SOL    HW127023   0.769   3.643   4.027  0.2012  1.3666  0.6297
 5129SOL    HW227024   0.886   3.603   4.100  2.2825  1.5605 -0.1648
 5130SOL     OW27025   1.846   3.667   7.458 -0.1180 -0.3324  0.4917
 5130SOL    HW127026   1.941   3.670   7.469  0.0151  0.2811 -0.8802
 5130SOL    HW227027   1.814   3.757   7.449  2.9376  0.8745  1.7296
 5131SOL     OW27028   3.775   1.487   2.743  0.1598  0.2641  0.3138
 5131SOL    HW127029   3.730   1.440   2.814 -1.9699 -0.3135 -1.4193
 5131SOL    HW227030   3.805   1.569   2.781 -1.4515  0.4607  1.1887
 5132SOL     OW27031   2.683   0.004   3.778 -0.1114 -0.4684 -0.5853
 5132SOL    HW127032   2.688   4.654   3.755 -0.3256 -0.2692 -1.4037
 5132SOL    HW227033   2.639   0.046   3.705 -3.9271 -4.6636 -0.6985
 5133SOL     OW27034   4.246   1.069   2.174  0.2832 -0.2891 -0.3974
 5133SOL    HW127035   4.248   1.070   2.270 -1.7901 -0.5514 -0.3508
 5133SOL    HW227036   4.163   1.117   2.167 -0.1482 -0.9158  0.4095
 5134SOL     OW27037   0.566   0.978   0.425  0.4169  0.5159 -0.4519
 5134SOL    HW127038   0.527   0.975   0.338  0.7899 -0.4960 -0.5832
 5134SOL    HW227039   0.567   1.072   0.442  0.2187  0.2780  0.9055
 5135SOL     OW27040   4.301   1.081   7.558 -0.4513 -0.2452 -0.7755
 5135SOL    HW127041   4.364   1.031   7.609  0.0246 -0.6318 -1.7477
 5135SOL    HW227042   4.317   1.169   7.593  2.5640 -0.7067 -1.0037
 5136SOL     OW27043   3.301   0.532   5.225 -0.0963  0.2265  0.4223
 5136SOL    HW127044   3.280   0.445   5.260 -1.0850  0.8517  1.3870
 5136SOL    HW227045   3.212   0.560   5.206 -1.1386 -4.3283 -1.3156
 5137SOL     OW27046   4.603   3.846  14.064 -0.1724 -0.0604  0.3173
 5137SOL    HW127047   4.699   3.841  14.067 -0.1495 -0.0345 -0.4400
 5137SOL    HW227048   4.589   3.812  14.152  1.0121 -3.6281 -0.8821
 5138SOL     OW27049   0.761   0.357   5.994  0.2828 -0.2690 -0.3194
 5138SOL    HW127050   0.779   0.265   6.010 -1.0194 -0.6336 -0.9101
 5138SOL    HW227051   0.708   0.354   5.915 -0.1360 -0.0195 -0.0524
 5139SOL     OW27052   4.635   0.587  14.371  0.1079  0.2396  0.7243
 5139SOL    HW127053   4.723   0.609  14.403 -0.3574  2.4591  0.4855
 5139SOL    HW227054   4.624   0.655  14.305 -0.9352 -1.7046 -1.1169
 5140SOL     OW27055   4.164   0.255   5.062 -0.4492 -0.4189 -0.2566
 5140SOL    HW127056   4.255   0.260   5.030 -0.6533 -4.3277 -1.3836
 5140SOL    HW227057   4.186   0.190   5.129 -0.4358  2.1327  2.2292
 5141SOL     OW27058   4.627   1.544   3.349 -0.4321  0.0437 -0.2747
 5141SOL    HW127059   4.697   1.581   3.403  1.0585 -1.1677 -1.3759
 5141SOL    HW227060   4.672   1.546   3.265  1.3352  0.3165  0.6686
 5142SOL     OW27061   4.555   2.143  14.939 -1.0644  0.1913 -0.2107
 5142SOL    HW127062   4.515   2.078  14.997  0.4768 -0.3758  0.2222
 5142SOL    HW227063   4.492   2.190  14.884  1.9837  1.6128 -2.4977
 5143SOL     OW27064   0.144   2.893   7.841  0.0530  0.0713 -0.3078
 5143SOL    HW127065   0.224   2.942   7.821  1.0493 -1.7233 -0.7254
 5143SOL    HW227066   0.171   2.834   7.911 -2.2766 -0.0353  0.4907
 5144SOL     OW27067   4.224   3.167   2.267  0.1031 -0.0072 -0.0376
 5144SOL    HW127068   4.269   3.240   2.310  0.6404  1.3596 -2.9031
 5144SOL    HW227069   4.278   3.152   2.189 -0.2434 -0.4628 -0.1884
 5145SOL     OW27070   2.502   1.002   0.190 -0.2789 -0.2628 -0.7862
 5145SOL    HW127071   2.519   0.951   0.270 -1.2592 -1.5616 -1.4077
 5145SOL    HW227072   2.425   1.054   0.213  0.8928  1.6572 -1.1957
 5146SOL     OW27073   0.068   0.213   7.984 -0.1320  0.1717  0.2642
 5146SOL    HW127074   0.065   0.131   7.936 -0.3159  0.1287  0.3500
 5146SOL    HW227075   0.088   0.287   7.925  1.9962 -1.1573 -0.6904
 5147SOL     OW27076   0.775   3.990  11.568  0.3392  0.2790 -0.2813
 5147SOL    HW127077   0.729   3.938  11.503 -0.9274 -0.2622  1.0494
 5147SOL    HW227078   0.729   4.074  11.554  0.2344 -0.5997 -5.1833
 5148SOL     OW27079   3.141   0.158  17.083 -0.2088  0.3098  0.2691
 5148SOL    HW127080   3.193   0.214  17.140 -1.4322  1.7611 -0.0418
 5148SOL    HW227081   3.209   0.095  17.061 -0.7271 -0.5618  1.0872
 5149SOL     OW27082   1.387   2.682   8.082 -0.2849  0.0235  0.0342
 5149SOL    HW127083   1.347   2.760   8.044 -1.7180 -0.3225  0.8489
 5149SOL    HW227084   1.417   2.653   7.996  0.6094  0.6613  0.1299
 5150SOL     OW27085   4.697   4.030  11.278  0.5607  0.3708 -0.7109
 5150SOL    HW127086   4.695   3.980  11.359 -0.4875 -1.9789 -2.1878
 5150SOL    HW227087   4.720   4.114  11.317 -0.3865  0.4137 -0.2589
 5151SOL     OW27088   1.397   1.239   3.011 -0.2955 -0.0592 -0.0447
 5151SOL    HW127089   1.405   1.173   3.080  1.5727  0.0732 -0.1411
 5151SOL    HW227090   1.329   1.202   2.955 -1.4733  0.7177  0.8819
 5152SOL     OW27091   3.670   1.639  10.948  0.6268  0.1622 -0.7178
 5152SOL    HW127092   3.679   1.708  11.014  0.6605  0.6329 -1.2148
 5152SOL    HW227093   3.736   1.575  10.972  0.3170 -0.1162 -0.6061
 5153SOL     OW27094   2.318   3.668   1.564  0.4313 -0.4848  0.4492
 5153SOL    HW127095   2.385   3.709   1.619 -1.2030  3.5782 -0.6081
 5153SOL    HW227096   2.270   3.747   1.541 -0.4837 -1.1264  0.1509
 5154SOL     OW27097   4.410   2.294   1.320 -0.5815 -0.3208 -0.1222
 5154SOL    HW127098   4.372   2.221   1.369  0.8182  0.0604  1.4931
 5154SOL    HW227099   4.443   2.247   1.243  2.7320 -2.1199  2.4102
 5155SOL     OW27100   0.439   4.513   5.194  0.4456 -0.2585 -0.0194
 5155SOL    HW127101   0.473   4.588   5.242 -2.9097  1.1592  0.1348
 5155SOL    HW227102   0.514   4.508   5.135  1.5257 -1.0267  1.4346
 5156SOL     OW27103   3.018   4.104   4.968 -0.2337  1.1819  0.2144
 5156SOL    HW127104   2.927   4.081   4.983  0.0438 -1.0646 -1.5721
 5156SOL    HW227105   3.049   4.157   5.041  0.5086 -1.1504  1.5928
 5157SOL     OW27106   2.107   0.397   2.650  0.2264 -0.3372 -0.0983
 5157SOL    HW127107   2.012   0.391   2.634  0.2057 -0.0271 -0.0905
 5157SOL    HW227108   2.138   0.364   2.565  1.9094 -0.9985  0.7743
 5158SOL     OW27109   3.040   1.108   6.130  0.3795  0.2869 -0.6273
 5158SOL    HW127110   3.071   1.198   6.122 -0.1963  0.3555 -2.0420
 5158SOL    HW227111   2.962   1.107   6.075 -0.5738  0.3147  0.7251
 5159SOL     OW27112   4.594   3.371   9.603 -0.5023  0.3492  0.5260
 5159SOL    HW127113   4.596   3.276   9.614 -1.9484  0.5121  2.3612
 5159SOL    HW227114   4.608   3.374   9.509  0.8420 -0.6046  0.7035
 5160SOL     OW27115   1.168   3.638   1.967  0.4892  0.3212 -0.2223
 5160SOL    HW127116   1.253   3.645   2.011  1.9897  0.5156 -3.1833
 5160SOL    HW227117   1.113   3.618   2.043  1.5193  0.7044  0.6261
 5161SOL     OW27118   4.142   2.101   4.195  0.0342  0.0214 -0.3674
 5161SOL    HW127119   4.231   2.106   4.230 -0.1484 -0.6735  0.1943
 5161SOL    HW227120   4.133   2.011   4.227 -0.0476 -0.1138 -0.7645
 5162SOL     OW27121   0.376   1.352   5.115 -0.0196 -0.4429  0.3661
 5162SOL    HW127122   0.407   1.426   5.063 -2.1419  1.2754  1.4988
 5162SOL    HW227123   0.452   1.294   5.115  1.1276  1.0375  3.1244
 5163SOL     OW27124   0.409   1.214   9.268  0.2692  0.0957 -0.1731
 5163SOL    HW127125   0.364   1.174   9.343 -1.3103  1.1293 -0.5611
 5163SOL    HW227126   0.344   1.273   9.229 -1.1832 -1.7551 -0.5573
 5164SOL     OW27127   4.265   4.048   2.602 -0.5317 -0.1331  0.4294
 5164SOL    HW127128   4.174   4.064   2.577  0.5952  1.5251 -2.5785
 5164SOL    HW227129   4.307   4.120   2.555  0.7174  0.6398  2.7324
 5165SOL     OW27130   3.702   1.337   1.705  0.1034 -0.3119 -0.5503
 5165SOL    HW127131   3.739   1.261   1.660  0.7495  0.7769 -1.8594
 5165SOL    HW227132   3.661   1.376   1.627  1.4394 -0.6343 -1.4031
 5166SOL     OW27133   4.232   3.617  17.173  0.2712 -0.2858  0.3736
 5166SOL    HW127134   4.325   3.639  17.175  0.8645 -2.6814 -0.9754
 5166SOL    HW227135   4.203   3.697  17.218  0.0600 -0.1291 -0.0447
 5167SOL     OW27136   2.822   0.682   1.757 -0.5342  0.0661 -0.1103
 5167SOL    HW127137   2.790   0.654   1.671  0.8433 -0.9747 -0.2812
 5167SOL    HW227138   2.795   0.773   1.767 -2.0632 -0.2700 -1.1414
 5168SOL     OW27139   3.133   2.624   6.045  0.1461  0.0653 -0.3167
 5168SOL    HW127140   3.226   2.613   6.068  0.4301  1.4298 -0.7939
 5168SOL    HW227141   3.111   2.677   6.122  1.7933  0.6850 -0.2532
 5169SOL     OW27142   1.344   2.716   5.906 -0.1240  0.0677 -0.2823
 5169SOL    HW127143   1.360   2.775   5.979 -3.5480  1.8708 -1.0343
 5169SOL    HW227144   1.412   2.738   5.842  1.4922  1.8741  2.0835
 5170SOL     OW27145   3.805   0.219   5.493 -0.2327  0.0595  0.0375
 5170SOL    HW127146   3.815   0.191   5.402  1.4858  0.8843 -0.0214
 5170SOL    HW227147   3.786   0.135   5.533 -1.4293 -1.1205 -2.9817
 5171SOL     OW27148   4.417   3.208   6.898 -0.3941  0.0913  0.2398
 5171SOL    HW127149   4.441   3.269   6.968  1.2223  0.8739 -0.9768
 5171SOL    HW227150   4.322   3.202   6.908 -0.1831  0.1922  2.2106
 5172SOL     OW27151   3.244   0.307  12.775 -0.6569 -0.9083 -0.0190
 5172SOL    HW127152   3.301   0.344  12.842  0.1055 -0.8418 -0.6965
 5172SOL    HW227153   3.297   0.306  12.695  0.4653 -2.3766  0.7576
 5173SOL     OW27154   1.210   0.792   5.342 -0.7215 -0.3591 -0.0743
 5173SOL    HW127155   1.214   0.873   5.292  1.6379 -0.4835 -0.1191
 5173SOL    HW227156   1.149   0.747   5.284 -0.4537 -2.6756  1.4269
 5174SOL     OW27157   0.939   1.977   4.664 -0.7192 -0.3904 -0.4300
 5174SOL    HW127158   0.894   2.054   4.630  2.1430  1.4048 -0.1864
 5174SOL    HW227159   0.986   1.941   4.589 -0.4043 -0.3098 -0.2729
 5175SOL     OW27160   3.406   0.494  12.948 -0.8856  0.3412  0.3111
 5175SOL    HW127161   3.444   0.581  12.954 -1.8537  0.6734  1.7723
 5175SOL    HW227162   3.442   0.439  13.018 -0.4056  1.4297  0.9241
 5176SOL     OW27163   3.905   4.496   9.367  0.0152 -0.0621  0.2372
 5176SOL    HW127164   3.978   4.516   9.425  0.3806  0.1498 -0.2939
 5176SOL    HW227165   3.911   4.576   9.315  1.9066  0.9243  1.9733
 5177SOL     OW27166   2.532   2.622   9.127 -0.7286 -0.3575 -0.0737
 5177SOL    HW127167   2.515   2.535   9.164  0.9358 -1.0646 -0.9409
 5177SOL    HW227168   2.442   2.644   9.103  0.4341  0.3974 -3.6900
 5178SOL     OW27169   4.489   3.673  16.931 -0.4266  0.7309  0.1290
 5178SOL    HW127170   4.557   3.733  16.900 -0.2516  0.4870  0.0421
 5178SOL    HW227171   4.494   3.668  17.027  0.9144 -1.8441 -0.0754
 5179SOL     OW27172   1.679   2.106   9.680 -0.1391 -0.0874  0.1072
 5179SOL    HW127173   1.648   2.147   9.599 -2.3773  0.6498  1.3347
 5179SOL    HW227174   1.626   2.154   9.744  2.6501 -1.0375  3.0969
 5180SOL     OW27175   2.153   2.468   1.130 -0.0243 -0.5527 -0.1264
 5180SOL    HW127176   2.160   2.389   1.183 -0.6484 -0.9127 -0.5786
 5180SOL    HW227177   2.195   2.438   1.049 -1.0597  0.2441 -0.9607
 5181SOL     OW27178   3.189   3.375   2.943 -0.4381 -0.1602 -0.2505
 5181SOL    HW127179   3.183   3.421   3.027  1.1162  1.1497 -0.8542
 5181SOL    HW227180   3.107   3.330   2.923 -0.0516 -2.2886  2.9229
 5182SOL     OW27181   1.392   4.583   4.957 -0.1053 -0.1262  0.0601
 5182SOL    HW127182   1.386   4.649   5.025 -0.9869  1.1750 -1.2877
 5182SOL    HW227183   1.335   4.615   4.887  1.5059 -0.0301 -1.2236
 5183SOL     OW27184   2.514   4.245  12.213  0.3287  0.4110 -0.1164
 5183SOL    HW127185   2.596   4.283  12.181 -0.9053  1.5962 -1.8069
 5183SOL    HW227186   2.557   4.171  12.257 -0.5711 -0.6807 -1.0571
 5184SOL     OW27187   2.073   0.238  16.989  0.4951  0.2810  0.3011
 5184SOL    HW127188   2.100   0.207  17.076 -1.6074  0.3133  0.9601
 5184SOL    HW227189   2.032   0.318  17.022 -1.1013 -0.4880  0.1395
 5185SOL     OW27190   2.802   2.350  10.228 -0.0935 -0.0408 -0.7495
 5185SOL    HW127191   2.879   2.303  10.261 -0.3669 -0.1626 -0.2784
 5185SOL    HW227192   2.834   2.364  10.139 -2.1683 -0.2914 -1.5382
 5186SOL     OW27193   1.256   3.591   2.793 -0.0903 -0.3794 -0.2525
 5186SOL    HW127194   1.169   3.582   2.755  0.1309 -0.7854 -0.6561
 5186SOL    HW227195   1.297   3.644   2.724  0.3834  0.2499  0.5027
 5187SOL     OW27196   2.313   1.340   9.452 -0.1503  0.1503 -0.3502
 5187SOL    HW127197   2.322   1.413   9.513  1.9962 -0.6593  0.3118
 5187SOL    HW227198   2.397   1.293   9.458  0.5302  1.4023 -0.1814
 5188SOL     OW27199   4.051   0.434   4.222 -0.0981 -0.3046 -0.1152
 5188SOL    HW127200   4.116   0.479   4.167  0.4556  0.4506  1.1633
 5188SOL    HW227201   4.069   0.477   4.306  2.3007  2.9293 -2.2630
 5189SOL     OW27202   4.438   1.239   4.984 -0.0522  0.1401  0.4474
 5189SOL    HW127203   4.424   1.233   5.078 -0.5324 -0.3798  0.3463
 5189SOL    HW227204   4.370   1.181   4.948  0.9359  0.0494 -1.2746
 5190SOL     OW27205   4.520   4.626   4.569 -0.3803  0.2825  0.0774
 5190SOL    HW127206   4.547   4.536   4.551  0.3768  0.3843  0.6578
 5190SOL    HW227207   4.577   4.642   4.644  0.2520  0.0646 -0.3549
 5191SOL     OW27208   4.580   0.886   1.021  0.1736  0.2975 -0.0608
 5191SOL    HW127209   4.496   0.904   0.980 -0.7147  1.3331  2.1775
 5191SOL    HW227210   4.643   0.900   0.950  0.4220  0.1737  0.1317
 5192SOL     OW27211   4.571   0.309   7.742 -0.1846  0.5016  0.3369
 5192SOL    HW127212   4.574   0.387   7.798  0.8200  0.3695  0.4705
 5192SOL    HW227213   4.627   0.336   7.669 -1.9379 -3.5149 -2.4577
 5193SOL     OW27214   1.462   0.716   8.923 -0.0105  0.1426  1.0561
 5193SOL    HW127215   1.464   0.798   8.873  0.3890  0.7456  2.0501
 5193SOL    HW227216   1.531   0.742   8.985  0.8426 -0.3996  0.3268
 5194SOL     OW27217   0.667   3.158   4.985  0.0174 -0.2252 -0.1438
 5194SOL    HW127218   0.725   3.234   4.975 -1.6306  1.0604  0.0054
 5194SOL    HW227219   0.605   3.198   5.046  1.1041  1.1554  0.0652
 5195SOL     OW27220   0.065   3.265   5.500  0.4384 -0.2331 -0.8635
 5195SOL    HW127221   0.002   3.336   5.486  1.8549  1.2570  0.3474
 5195SOL    HW227222   0.018   3.188   5.533 -0.0566 -0.1281 -1.3205
 5196SOL     OW27223   3.314   2.927   7.364 -0.0052  0.3749  0.3050
 5196SOL    HW127224   3.232   2.977   7.369 -0.2077 -0.0242  0.9833
 5196SOL    HW227225   3.306   2.856   7.428  1.2902  1.8059  2.0397
 5197SOL     OW27226   3.946   3.916   3.313  0.0994  0.1308  0.3382
 5197SOL    HW127227   3.969   3.994   3.363 -0.6523 -0.3943  1.5002
 5197SOL    HW227228   3.856   3.900   3.344 -0.5307  1.9388 -0.5765
 5198SOL     OW27229   2.713   2.528   7.718  0.2009 -0.2636 -0.4514
 5198SOL    HW127230   2.765   2.450   7.738  1.8453  1.3289  1.4825
 5198SOL    HW227231   2.668   2.540   7.802  1.0501 -0.5224  0.0372
 5199SOL     OW27232   1.683   1.012   3.290  0.2831 -0.4676  0.1202
 5199SOL    HW127233   1.725   1.048   3.211  0.1319 -0.5501  0.0025
 5199SOL    HW227234   1.594   1.045   3.279  0.8149  0.8904 -0.0740
 5200SOL     OW27235   2.606   1.768   4.738 -0.1139 -0.1083 -0.1585
 5200SOL    HW127236   2.681   1.797   4.789 -1.4755 -0.1016  1.8194
 5200SOL    HW227237   2.545   1.837   4.764  0.6734  0.8782 -0.9228
 5201SOL     OW27238   3.763   1.203  16.104  0.2017 -0.5138  0.3319
 5201SOL    HW127239   3.712   1.136  16.059  0.9208 -0.2816 -0.8464
 5201SOL    HW227240   3.697   1.248  16.156  1.8562  1.7432  0.4705
 5202SOL     OW27241   0.774   0.273   1.970  0.0702 -0.0761  0.2868
 5202SOL    HW127242   0.813   0.271   2.057 -0.4123  2.6206  0.5722
 5202SOL    HW227243   0.844   0.326   1.931  0.6617  0.4411  2.0591
 5203SOL     OW27244   0.738   3.241  11.304  0.2441  0.2287  0.3565
 5203SOL    HW127245   0.758   3.323  11.349  2.0341 -0.1708  0.2722
 5203SOL    HW227246   0.828   3.211  11.292 -0.1261 -0.7438 -0.0764
 5204SOL     OW27247   2.580   2.269   8.891  0.4243  0.2483  0.6299
 5204SOL    HW127248   2.508   2.301   8.945  0.7599 -0.0142  1.2397
 5204SOL    HW227249   2.564   2.332   8.821 -0.7594 -0.3248  0.3820
 5205SOL     OW27250   0.501   3.685   4.323 -0.5376  0.1185 -0.1348
 5205SOL    HW127251   0.442   3.688   4.247  0.2114 -1.0723 -0.7509
 5205SOL    HW227252   0.454   3.742   4.384  2.6915  0.8732  1.6292
 5206SOL     OW27253   1.832   4.382   6.079 -0.0135  0.1252  0.0082
 5206SOL    HW127254   1.799   4.401   5.991  0.1503  2.4729  0.4622
 5206SOL    HW227255   1.911   4.436   6.077  0.4774 -0.6229 -1.2438
 5207SOL     OW27256   4.502   3.823  11.724  0.2508 -0.0762  0.6272
 5207SOL    HW127257   4.454   3.740  11.720 -0.5592  0.4470 -0.3615
 5207SOL    HW227258   4.494   3.847  11.816 -1.6847 -0.9193  0.6707
 5208SOL     OW27259   3.216   3.476  12.659  0.0790 -0.2759  0.6638
 5208SOL    HW127260   3.220   3.528  12.739 -1.3833 -0.0937  0.6177
 5208SOL    HW227261   3.181   3.391  12.684  1.3930 -0.3603  2.1937
 5209SOL     OW27262   2.571   4.076   3.733  0.7843  0.2651  0.5700
 5209SOL    HW127263   2.632   4.033   3.674 -1.2936 -1.1654 -0.5451
 5209SOL    HW227264   2.498   4.079   3.671  0.8526  0.7907  0.5124
 5210SOL     OW27265   3.966   4.182   3.398  0.1008 -0.1465  0.3913
 5210SOL    HW127266   3.981   4.262   3.450 -0.0506 -1.0576  1.8371
 5210SOL    HW227267   3.879   4.204   3.367  0.8580  1.3349 -0.7090
 5211SOL     OW27268   0.530   0.716  12.905  0.2675  0.4171  0.3933
 5211SOL    HW127269   0.505   0.656  12.975 -2.2452  1.3142  0.2923
 5211SOL    HW227270   0.459   0.703  12.842 -0.4840 -3.2297  2.0345
 5212SOL     OW27271   2.657   3.669   9.219  0.2717 -0.3068  0.5545
 5212SOL    HW127272   2.718   3.680   9.291  1.3529  0.5100 -0.4857
 5212SOL    HW227273   2.580   3.710   9.258 -0.4296 -2.2344  1.2046
 5213SOL     OW27274   4.537   3.867   8.907  0.0572  1.0758  0.0470
 5213SOL    HW127275   4.553   3.928   8.978 -0.8899  0.0904  1.1056
 5213SOL    HW227276   4.552   3.916   8.826 -1.9771  0.2404 -0.8509
 5214SOL     OW27277   0.538   2.181   4.354  0.4396 -0.2026 -0.4709
 5214SOL    HW127278   0.479   2.131   4.410  0.7110  0.9997  0.8763
 5214SOL    HW227279   0.547   2.260   4.406 -1.2190 -0.8006  0.7287
 5215SOL     OW27280   2.545   2.589  13.325 -0.3301  0.2858  0.6024
 5215SOL    HW127281   2.527   2.579  13.232  0.0929  0.1957  0.5281
 5215SOL    HW227282   2.598   2.510  13.341 -2.1352 -1.4232 -1.8871
 5216SOL     OW27283   3.985   1.547  12.607 -0.0032  0.2898  0.1892
 5216SOL    HW127284   3.947   1.557  12.695  1.3824  2.6451  0.5470
 5216SOL    HW227285   4.073   1.512  12.624 -0.3925 -0.4962  0.5640
 5217SOL     OW27286   4.657   1.455   5.149 -0.3725 -0.0082 -0.8188
 5217SOL    HW127287   4.699   1.455   5.235 -0.5587 -1.3267 -0.7199
 5217SOL    HW227288   4.719   1.404   5.095  0.6522  1.0001 -0.5980
 5218SOL     OW27289   0.698   1.791  13.305  0.4941 -1.2911 -0.4257
 5218SOL    HW127290   0.742   1.876  13.309  0.2458 -1.2445  1.5146
 5218SOL    HW227291   0.658   1.791  13.218  1.8941  0.1015 -1.0735
 5219SOL     OW27292   0.745   4.601   1.353 -0.2864  0.1325  0.2957
 5219SOL    HW127293   0.768   4.585   1.445 -0.7925  0.4382  0.4735
 5219SOL    HW227294   0.711   4.514   1.334 -1.0786  0.2187  1.2900
 5220SOL     OW27295   0.777   1.682  15.278 -0.2825 -0.8238 -0.8274
 5220SOL    HW127296   0.839   1.670  15.206  2.3466 -0.8572  1.4372
 5220SOL    HW227297   0.710   1.615  15.262  0.3923 -1.6435 -0.2462
 5221SOL     OW27298   2.844   2.805  17.411  0.1271  0.0710  0.4520
 5221SOL    HW127299   2.818   2.872  17.348 -2.7494 -1.7015 -0.2320
 5221SOL    HW227300   2.934   2.787  17.384 -0.0965  0.4849 -0.5874
 5222SOL     OW27301   3.983   2.315   4.588 -0.2605  0.4390  0.0126
 5222SOL    HW127302   3.906   2.262   4.609 -2.5876  3.7867 -0.0409
 5222SOL    HW227303   3.939   2.400   4.585  0.1228  0.6404  0.0847
 5223SOL     OW27304   0.859   3.930  11.841 -0.2621  0.5742 -0.3474
 5223SOL    HW127305   0.824   3.971  11.761 -1.2182  0.0823 -0.1875
 5223SOL    HW227306   0.946   3.970  11.838  0.4359 -0.8010  1.8897
 5224SOL     OW27307   4.102   4.465   7.512 -0.4531 -0.1544  0.5280
 5224SOL    HW127308   4.185   4.444   7.469 -0.6401 -0.0805  0.1282
 5224SOL    HW227309   4.124   4.540   7.568 -0.3423  0.6000 -0.5180
 5225SOL     OW27310   0.126   0.793   7.345  0.0062 -0.7824 -0.5167
 5225SOL    HW127311   0.151   0.736   7.418  1.1000 -0.5185 -0.6824
 5225SOL    HW227312   0.188   0.773   7.275 -0.0566 -0.1656 -0.7529
 5226SOL     OW27313   3.452   1.083   6.229 -0.1592 -0.3388 -0.1117
 5226SOL    HW127314   3.484   1.169   6.201 -3.2676  0.4585 -1.2104
 5226SOL    HW227315   3.519   1.032   6.184  1.5235 -0.4143  2.4500
 5227SOL     OW27316   3.355   0.704   6.290 -0.1460  0.2379 -0.2530
 5227SOL    HW127317   3.427   0.716   6.227 -0.2759 -0.7540 -0.6007
 5227SOL    HW227318   3.283   0.667   6.240 -2.2396  1.6632  1.7398
 5228SOL     OW27319   1.228   3.584   9.015  0.2597  0.3511  0.6293
 5228SOL    HW127320   1.194   3.637   9.086 -1.4164  0.3181 -0.1500
 5228SOL    HW227321   1.153   3.587   8.955 -0.0682 -0.8330  0.9806
 5229SOL     OW27322   1.449   1.644  13.496 -0.0456 -0.2595 -0.1278
 5229SOL    HW127323   1.483   1.695  13.570  1.3219  0.7718 -1.4669
 5229SOL    HW227324   1.483   1.558  13.518 -2.5136 -0.4535  3.0088
 5230SOL     OW27325   2.884   0.064   6.187  0.3024  0.1149 -0.0442
 5230SOL    HW127326   2.910   0.059   6.095 -0.4220 -1.8017 -0.1492
 5230SOL    HW227327   2.902   0.157   6.198 -1.0273  0.1920  1.5714
 5231SOL     OW27328   3.133   0.866   6.525 -0.2404 -0.3680 -0.5164
 5231SOL    HW127329   3.171   0.907   6.447  4.1487  0.0529  1.8479
 5231SOL    HW227330   3.100   0.784   6.488 -0.7195 -0.6684  0.5973
 5232SOL     OW27331   1.595   1.584   7.304  0.1860  0.3689 -0.3002
 5232SOL    HW127332   1.634   1.517   7.359 -3.5927 -1.3173  0.2933
 5232SOL    HW227333   1.658   1.651   7.277  0.0909  1.2119  1.5374
 5233SOL     OW27334   4.674   4.223   7.993 -0.9493 -0.3840 -0.1598
 5233SOL    HW127335   4.722   4.306   8.002 -0.9653 -0.5589  1.6029
 5233SOL    HW227336   4.740   4.167   7.953  0.8791  1.1129  0.7175
 5234SOL     OW27337   2.963   0.495  16.895 -0.3775 -0.6241  0.1317
 5234SOL    HW127338   2.977   0.543  16.813  0.5693 -1.0240  0.0570
 5234SOL    HW227339   3.000   0.555  16.960  3.7133 -0.3809 -2.4067
 5235SOL     OW27340   3.393   2.273   8.596 -0.0932  0.4991 -0.6170
 5235SOL    HW127341   3.450   2.285   8.672 -0.2199  1.6217 -0.6929
 5235SOL    HW227342   3.311   2.268   8.645  0.6322  1.4783  0.6930
 5236SOL     OW27343   2.838   3.845   6.301 -0.5688  0.1502  0.0624
 5236SOL    HW127344   2.840   3.898   6.222  0.1098  0.1697  0.0903
 5236SOL    HW227345   2.869   3.912   6.361 -1.9840  0.0825  0.8818
 5237SOL     OW27346   3.933   0.333   7.196 -0.7204  0.6262 -0.0070
 5237SOL    HW127347   3.974   0.256   7.158 -0.9088  0.0122  1.0457
 5237SOL    HW227348   3.946   0.316   7.289  0.7699 -0.2199 -0.3781
 5238SOL     OW27349   3.268   1.119   7.749 -0.6051 -0.1644 -0.3704
 5238SOL    HW127350   3.327   1.043   7.747 -0.7527 -0.2743 -0.5709
 5238SOL    HW227351   3.184   1.075   7.744 -0.0957 -1.0489 -1.2386
 5239SOL     OW27352   2.761   0.255   7.742  0.3286  0.5429  0.3536
 5239SOL    HW127353   2.704   0.331   7.732 -0.0956  0.2586  0.5747
 5239SOL    HW227354   2.848   0.284   7.717  0.1371  1.3154  0.5839
 5240SOL     OW27355   4.691   0.842   5.322 -0.3954  0.6500 -0.2296
 5240SOL    HW127356   4.654   0.764   5.364  1.2109  0.4640  0.8530
 5240SOL    HW227357   4.656   0.912   5.377 -4.0208 -1.5873  0.3297
 5241SOL     OW27358   0.037   4.451   2.380  0.2951  0.2233 -0.2386
 5241SOL    HW127359   0.102   4.418   2.444  0.4518  0.8974 -0.0548
 5241SOL    HW227360   0.091   4.504   2.322  3.1964 -1.4727  0.8800
 5242SOL     OW27361   4.356   3.092   2.008 -0.3532  0.5159  0.5509
 5242SOL    HW127362   4.377   3.037   2.084 -0.4678 -1.4588 -0.8566
 5242SOL    HW227363   4.268   3.067   1.982 -0.2983 -0.1289  0.9782
 5243SOL     OW27364   1.143   3.795  10.913 -0.1899 -0.0418 -0.1090
 5243SOL    HW127365   1.110   3.823  10.998 -2.0483 -0.7576 -0.5962
 5243SOL    HW227366   1.186   3.879  10.894 -1.3536  0.5744 -0.0400
 5244SOL     OW27367   3.594   2.587   6.858  0.0860 -0.4316 -0.2421
 5244SOL    HW127368   3.583   2.538   6.940  3.4378 -2.0355 -0.7639
 5244SOL    HW227369   3.522   2.648   6.872  0.0709 -0.9908  2.1425
 5245SOL     OW27370   1.426   0.149   7.214 -0.0980  0.8683  0.4567
 5245SOL    HW127371   1.399   0.124   7.126 -0.1536  1.1561  0.3898
 5245SOL    HW227372   1.387   0.080   7.267 -0.0973 -0.2311 -0.9992
 5246SOL     OW27373   3.095   1.855   5.816 -0.0301 -0.0156  0.6834
 5246SOL    HW127374   3.034   1.782   5.821  1.9970 -1.6491  1.3078
 5246SOL    HW227375   3.166   1.819   5.764  0.6129 -1.6772  2.7267
 5247SOL     OW27376   0.079   2.701   9.029  0.0985  0.1278  0.1749
 5247SOL    HW127377   0.030   2.781   9.009 -0.2667  0.1853  1.2696
 5247SOL    HW227378   0.009   2.636   9.035 -2.2176  2.4555 -1.6367
 5248SOL     OW27379   1.341   3.204   6.670 -0.2854  0.4940  0.0754
 5248SOL    HW127380   1.264   3.203   6.614 -0.0058  0.7735 -0.3214
 5248SOL    HW227381   1.376   3.293   6.671 -2.6613  1.4353 -1.1850
 5249SOL     OW27382   4.203   2.914   4.996 -0.0729 -0.1423 -0.2218
 5249SOL    HW127383   4.245   2.833   5.026 -2.1450 -0.8096  0.8225
 5249SOL    HW227384   4.222   2.968   5.073 -0.4441 -1.3262  0.7073
 5250SOL     OW27385   0.473   3.195  16.613 -0.3642 -0.0088  0.2878
 5250SOL    HW127386   0.485   3.103  16.636  1.6583 -0.2136 -1.6761
 5250SOL    HW227387   0.430   3.178  16.529  2.5297 -1.9599 -0.7801
 5251SOL     OW27388   0.040   0.217   5.735 -0.2066 -0.1078 -1.0091
 5251SOL    HW127389   0.062   0.125   5.749 -2.3491 -0.7111 -1.5640
 5251SOL    HW227390   0.066   0.230   5.644  0.7645 -1.1944 -0.8867
 5252SOL     OW27391   2.385   2.377   5.639 -0.2447  0.0238  0.0907
 5252SOL    HW127392   2.351   2.460   5.672  1.4124  0.6716  0.1432
 5252SOL    HW227393   2.304   2.326   5.639 -0.4118  0.2896  1.7761
 5253SOL     OW27394   2.431   1.405   6.626  0.0185  0.1152  0.2789
 5253SOL    HW127395   2.443   1.450   6.543 -1.5184 -0.5296 -0.2911
 5253SOL    HW227396   2.392   1.332   6.578 -2.3189  0.2107  2.0366
 5254SOL     OW27397   1.541   2.043  17.189  0.0176 -0.1405  0.2259
 5254SOL    HW127398   1.535   2.103  17.115  0.7732 -1.7550 -1.1317
 5254SOL    HW227399   1.545   1.959  17.144 -1.5151 -0.0351 -0.1215
 5255SOL     OW27400   3.674   1.658  10.437 -0.3208 -0.0256  0.4094
 5255SOL    HW127401   3.583   1.670  10.464  0.0581 -0.2057  1.7592
 5255SOL    HW227402   3.697   1.590  10.500  4.2279  0.4309 -0.7419
 5256SOL     OW27403   3.994   1.452  17.604 -0.0163 -0.2536 -0.4455
 5256SOL    HW127404   4.005   1.359  17.588 -0.0417 -0.7078  2.2707
 5256SOL    HW227405   3.903   1.454  17.633  0.0857  0.0641 -0.1392
 5257SOL     OW27406   2.169   2.972   1.944 -0.7830 -0.0624  0.1446
 5257SOL    HW127407   2.095   2.984   1.885  1.3662  0.1869 -2.5392
 5257SOL    HW227408   2.208   2.895   1.902 -2.1640 -1.2222  1.0162
 5258SOL     OW27409   4.374   3.167   3.917  0.2769  0.3604  0.0684
 5258SOL    HW127410   4.371   3.076   3.944  0.0319 -0.2680 -2.0591
 5258SOL    HW227411   4.294   3.198   3.960  0.6062  0.0137  0.9239
 5259SOL     OW27412   3.004   1.646   5.611  0.0008  0.1460 -0.6687
 5259SOL    HW127413   2.932   1.588   5.584 -0.1559 -0.1371  0.3549
 5259SOL    HW227414   2.973   1.718   5.556 -0.0298  0.1330 -0.6687
 5260SOL     OW27415   2.572   1.646   2.248 -0.4260  0.1812 -0.4143
 5260SOL    HW127416   2.506   1.577   2.245 -1.4431  1.1654 -0.9608
 5260SOL    HW227417   2.658   1.608   2.264 -1.0931 -1.9948 -2.0607
 5261SOL     OW27418   4.396   1.647   8.419 -0.4240  0.1504  0.7507
 5261SOL    HW127419   4.452   1.576   8.450  0.1243  0.5701  0.7196
 5261SOL    HW227420   4.329   1.587   8.386 -0.4113  1.2684 -1.3125
 5262SOL     OW27421   2.224   1.144   7.677 -0.0277  0.9700  0.3221
 5262SOL    HW127422   2.176   1.074   7.720 -3.6031  3.8547  1.0704
 5262SOL    HW227423   2.312   1.127   7.712 -0.8148 -0.2782  1.6639
 5263SOL     OW27424   1.580   2.397   5.873 -0.3084 -0.1276  0.0187
 5263SOL    HW127425   1.532   2.354   5.944 -0.6760 -0.6211 -0.5293
 5263SOL    HW227426   1.564   2.329   5.808 -0.0862  0.7807 -0.9717
 5264SOL     OW27427   2.157   4.307   6.072  0.0395  0.4638  0.3734
 5264SOL    HW127428   2.105   4.282   6.148  0.3294 -1.9689 -0.2318
 5264SOL    HW227429   2.187   4.393   6.102 -3.0253  1.8827 -0.6320
 5265SOL     OW27430   2.969   0.013   3.294  0.0846 -0.5302  0.7485
 5265SOL    HW127431   2.923   0.081   3.343  0.6528  0.4032 -0.0185
 5265SOL    HW227432   2.974   0.053   3.208  1.4109  1.1789  1.6048
 5266SOL     OW27433   4.587   0.772   2.368 -0.6389 -0.0581 -0.4642
 5266SOL    HW127434   4.515   0.761   2.430  0.1735  1.4170  0.7723
 5266SOL    HW227435   4.659   0.747   2.426  0.7202  2.6318 -0.9479
 5267SOL     OW27436   3.460   2.740   2.370 -0.4131 -0.4248 -0.3407
 5267SOL    HW127437   3.426   2.795   2.299 -1.9188 -2.0639 -0.9041
 5267SOL    HW227438   3.397   2.766   2.437  0.0161  0.0505 -0.1225
 5268SOL     OW27439   1.610   1.435  11.363 -0.2083 -0.1460  0.4849
 5268SOL    HW127440   1.562   1.508  11.401  1.7272  0.7579  1.2181
 5268SOL    HW227441   1.695   1.470  11.391 -0.8862  0.2887  2.0358
 5269SOL     OW27442   4.415   3.621   2.030  0.3706  0.2791  0.6297
 5269SOL    HW127443   4.395   3.710   2.003 -2.0316  0.4936  3.0666
 5269SOL    HW227444   4.484   3.637   2.095  0.4560  0.5593  0.4703
 5270SOL     OW27445   4.622   0.830   6.943  0.3825 -0.1428  0.0230
 5270SOL    HW127446   4.569   0.908   6.962  1.3890  0.6394 -0.3483
 5270SOL    HW227447   4.598   0.777   7.019  0.7436  1.7615  1.4772
 5271SOL     OW27448   1.694   0.620  16.543  0.0696  0.5758 -0.3676
 5271SOL    HW127449   1.612   0.573  16.556  0.6732  0.0060  1.4005
 5271SOL    HW227450   1.749   0.580  16.612 -1.8630  0.8291  1.3191
 5272SOL     OW27451   0.179   4.642  13.695 -0.1250 -0.1946  0.1491
 5272SOL    HW127452   0.249   4.620  13.756  1.4433 -1.0230 -1.9812
 5272SOL    HW227453   0.171   4.565  13.640  0.8559 -1.4078  1.6902
 5273SOL     OW27454   2.662   2.347   9.516  0.3004  0.3698 -0.1967
 5273SOL    HW127455   2.638   2.254   9.510 -1.4875  0.9950 -2.9266
 5273SOL    HW227456   2.733   2.338   9.579  0.2725 -0.9770 -0.3430
 5274SOL     OW27457   2.977   3.723   2.104 -0.1589 -0.5619  0.5487
 5274SOL    HW127458   3.006   3.685   2.187 -0.9241 -0.1783  1.0001
 5274SOL    HW227459   3.039   3.794   2.090 -1.8798  0.6806 -0.7991
 5275SOL     OW27460   4.664   3.473   8.400  0.0309  0.0994 -0.1646
 5275SOL    HW127461   4.716   3.494   8.478  1.1903  1.0540 -1.2049
 5275SOL    HW227462   4.713   3.525   8.337  0.6104  0.1103  0.3001
 5276SOL     OW27463   4.494   3.230   5.950  0.2448  0.2397 -0.7829
 5276SOL    HW127464   4.406   3.205   5.920 -1.0691  2.9319  0.8091
 5276SOL    HW227465   4.469   3.262   6.036  0.3173  1.6027 -1.2722
 5277SOL     OW27466   1.117   3.699  13.644 -0.4588  0.3548 -0.8381
 5277SOL    HW127467   1.175   3.772  13.661 -1.2375  0.2035  2.4165
 5277SOL    HW227468   1.136   3.649  13.723 -1.2546  0.2628 -0.7070
 5278SOL     OW27469   2.857   3.921   1.539 -0.8597 -0.1880 -0.2621
 5278SOL    HW127470   2.843   3.943   1.631 -1.3758 -0.8753 -0.1832
 5278SOL    HW227471   2.904   3.838   1.539  0.2329  0.4266 -0.2364
 5279SOL     OW27472   1.374   1.029   9.160  0.5279  0.5514  0.3591
 5279SOL    HW127473   1.281   1.050   9.148  0.1574 -1.8268 -0.8951
 5279SOL    HW227474   1.366   0.936   9.137  1.5302 -0.0239  2.3170
 5280SOL     OW27475   3.268   1.249   5.752  0.3933  0.0451  0.5764
 5280SOL    HW127476   3.271   1.329   5.700  1.7137 -0.4848 -0.1584
 5280SOL    HW227477   3.174   1.229   5.746  0.3966 -0.3087  1.6252
 5281SOL     OW27478   0.633   0.681   4.550 -0.4016  0.3698  0.6625
 5281SOL    HW127479   0.602   0.591   4.566 -1.8637  0.8145  0.3547
 5281SOL    HW227480   0.562   0.695   4.487  0.5145 -1.9382 -0.8949
 5282SOL     OW27481   3.597   4.421   8.950  0.3544 -0.5719  0.2149
 5282SOL    HW127482   3.665   4.403   9.015 -2.7324  1.1897  3.9033
 5282SOL    HW227483   3.660   4.446   8.882  0.1968 -0.0807  0.2492
 5283SOL     OW27484   3.994   2.293   1.730 -0.5391 -0.0891 -0.0438
 5283SOL    HW127485   3.926   2.337   1.678  1.8830 -0.0681 -3.2173
 5283SOL    HW227486   3.984   2.338   1.814  2.3358 -0.3519  0.4352
 5284SOL     OW27487   0.340   4.265   7.614 -0.0936 -0.0031  0.5654
 5284SOL    HW127488   0.323   4.358   7.631 -0.1443 -0.2002  1.6244
 5284SOL    HW227489   0.389   4.268   7.532 -0.8149 -0.7595  0.1002
 5285SOL     OW27490   1.658   3.650   6.665  0.0110 -0.0563 -0.0909
 5285SOL    HW127491   1.606   3.570   6.672  3.5292 -2.5043 -2.4065
 5285SOL    HW227492   1.686   3.650   6.574 -0.2256  2.2784 -0.1715
 5286SOL     OW27493   2.938   3.337   3.755  0.5908 -0.1323 -0.2587
 5286SOL    HW127494   3.011   3.305   3.702  0.6726 -1.0987  0.4428
 5286SOL    HW227495   2.882   3.370   3.685  2.2372  2.0887 -0.5391
 5287SOL     OW27496   3.516   3.652   3.351  0.5414  0.2437  0.2738
 5287SOL    HW127497   3.568   3.703   3.413  2.7694  0.6722 -1.9257
 5287SOL    HW227498   3.463   3.719   3.309  1.1048 -0.6457 -1.8825
 5288SOL     OW27499   3.485   3.552   0.735 -0.1659  0.3270  0.1599
 5288SOL    HW127500   3.557   3.616   0.735 -0.2994  0.4823 -1.7777
 5288SOL    HW227501   3.519   3.465   0.714  0.3987  0.6127 -0.1049
 5289SOL     OW27502   2.748   0.473  13.216 -0.0063  0.3571 -0.5101
 5289SOL    HW127503   2.673   0.418  13.195  0.1015 -0.6234  1.6848
 5289SOL    HW227504   2.781   0.428  13.294 -2.7460 -1.1619 -0.2248
 5290SOL     OW27505   3.968   1.089   9.667 -0.2717 -0.3584  0.4911
 5290SOL    HW127506   4.013   1.018   9.622 -1.5999 -0.2192 -1.0677
 5290SOL    HW227507   3.882   1.088   9.625 -0.7154 -0.0786  1.3888
 5291SOL     OW27508   1.411   2.074   2.889 -0.4452  0.2328  0.2876
 5291SOL    HW127509   1.437   1.983   2.900 -0.7832  0.1041  0.0377
 5291SOL    HW227510   1.462   2.085   2.809  2.0630 -0.8591  1.7698
 5292SOL     OW27511   3.342   1.964  12.755 -0.1120 -0.0836  1.0673
 5292SOL    HW127512   3.298   1.890  12.713 -0.7763  0.0382  1.5483
 5292SOL    HW227513   3.389   2.001  12.680 -0.7511 -1.0660  0.1851
 5293SOL     OW27514   1.263   0.949  12.316 -0.2202  0.2387  0.3812
 5293SOL    HW127515   1.243   1.043  12.322 -0.9703  0.1614 -0.8219
 5293SOL    HW227516   1.208   0.935  12.238 -1.0016  2.1215  0.5797
 5294SOL     OW27517   1.621   4.232   1.626 -0.0479 -0.3641  0.6196
 5294SOL    HW127518   1.675   4.174   1.572 -1.0951 -0.1960 -0.5926
 5294SOL    HW227519   1.694   4.292   1.641 -1.7801  2.4240 -2.1293
 5295SOL     OW27520   2.065   4.380   6.987  0.4125 -0.0151 -0.2528
 5295SOL    HW127521   2.125   4.307   6.976  2.1838  1.7659 -2.4246
 5295SOL    HW227522   1.998   4.340   7.042  0.2282 -0.0175 -0.4783
 5296SOL     OW27523   1.910   3.454  15.104  0.1615 -0.3625 -0.7565
 5296SOL    HW127524   1.923   3.489  15.193  0.0454 -0.0543 -0.8585
 5296SOL    HW227525   1.967   3.378  15.110  0.9157  0.2705  0.2560
 5297SOL     OW27526   4.733   1.868   8.718  0.0470  1.1080 -0.3406
 5297SOL    HW127527   4.637   1.860   8.713 -0.1853  2.2670  1.8368
 5297SOL    HW227528   0.021   1.778   8.724 -2.5850  0.2964  1.1050
 5298SOL     OW27529   1.180   4.149  16.504  0.1210  0.6448 -0.3053
 5298SOL    HW127530   1.271   4.176  16.492 -0.3912  1.2437 -2.7251
 5298SOL    HW227531   1.142   4.224  16.550  1.0376  0.4877  0.7177
 5299SOL     OW27532   2.876   1.907   8.790 -0.4659  0.2182 -0.6449
 5299SOL    HW127533   2.962   1.881   8.756  0.8498  1.8283  1.4290
 5299SOL    HW227534   2.821   1.849   8.738 -1.0476  0.5572 -0.4000
 5300SOL     OW27535   2.833   2.623   7.480  0.2121  0.4291  0.3685
 5300SOL    HW127536   2.915   2.612   7.528  1.3157  1.5759 -1.2366
 5300SOL    HW227537   2.770   2.592   7.545  0.7013 -0.1859  0.5400
 5301SOL     OW27538   0.493   0.905   4.896  0.4979 -0.9903  0.0989
 5301SOL    HW127539   0.546   0.874   4.970  1.4222 -2.0822 -1.0178
 5301SOL    HW227540   0.543   0.983   4.871 -0.0099  0.0344  2.2814
 5302SOL     OW27541   3.267   0.089   4.491  0.3257 -0.4942  0.2385
 5302SOL    HW127542   3.342   0.047   4.533  1.2064  0.7830 -0.0229
 5302SOL    HW227543   3.277   0.178   4.526 -2.3356  1.1000 -3.0224
 5303SOL     OW27544   1.245   2.304   7.613  0.2418 -0.3331  0.3892
 5303SOL    HW127545   1.283   2.320   7.527 -1.1745 -2.1081 -0.5457
 5303SOL    HW227546   1.176   2.243   7.589  0.0739 -0.3037  0.7889
 5304SOL     OW27547   1.301   4.338  10.346 -0.4189 -0.1057 -0.7103
 5304SOL    HW127548   1.269   4.262  10.393 -0.1633 -0.2797 -0.8191
 5304SOL    HW227549   1.278   4.410  10.405 -0.9945 -2.8635  2.3798
 5305SOL     OW27550   1.964   0.685   7.367 -0.0938 -0.4000 -0.1246
 5305SOL    HW127551   1.897   0.712   7.431  0.1818  0.9698 -0.4091
 5305SOL    HW227552   1.982   0.771   7.328 -0.8025 -0.8444 -1.4367
 5306SOL     OW27553   4.420   0.276   1.342 -0.2563  0.6657 -0.1476
 5306SOL    HW127554   4.507   0.315   1.346 -0.6389  1.3324  2.1457
 5306SOL    HW227555   4.387   0.358   1.306 -1.6461 -0.4688 -1.4570
 5307SOL     OW27556   0.713   1.008   7.622 -0.2826  0.3545  0.0181
 5307SOL    HW127557   0.621   0.989   7.635  0.0138 -0.7933  0.4661
 5307SOL    HW227558   0.757   0.932   7.661  2.0324  0.0203 -3.2207
 5308SOL     OW27559   3.969   1.416  10.135 -0.2468 -0.1153  0.1772
 5308SOL    HW127560   3.997   1.432  10.045 -1.5880  1.4822  0.0483
 5308SOL    HW227561   3.933   1.499  10.168 -0.2625  0.4978 -1.3912
 5309SOL     OW27562   0.184   1.496   2.336  0.1398 -0.2380  0.6781
 5309SOL    HW127563   0.170   1.420   2.393 -1.6754 -1.8450 -1.8973
 5309SOL    HW227564   0.103   1.543   2.356  1.1343  1.7597  0.0086
 5310SOL     OW27565   4.723   1.447  13.707  0.2613  0.0205  0.2472
 5310SOL    HW127566   0.033   1.524  13.686 -4.5975  3.1327 -0.5729
 5310SOL    HW227567   0.007   1.428  13.797  1.1662  0.5959  0.0994
 5311SOL     OW27568   4.604   1.256   2.946  0.2887 -0.2737 -0.0528
 5311SOL    HW127569   4.590   1.351   2.945 -0.9189 -0.4734 -1.5141
 5311SOL    HW227570   4.674   1.242   2.883 -0.6981 -1.0897 -0.9627
 5312SOL     OW27571   0.024   4.425   9.636 -0.9814 -0.1616 -0.1617
 5312SOL    HW127572   0.029   4.442   9.542 -0.8624  1.0237  0.0505
 5312SOL    HW227573   0.119   4.414   9.650 -0.9476 -2.2635 -2.1286
 5313SOL     OW27574   2.023   3.039  17.466 -0.4104 -0.5605  0.3004
 5313SOL    HW127575   2.036   3.000  17.553 -3.0560 -1.1443  0.4500
 5313SOL    HW227576   2.095   2.994  17.421 -0.0833 -0.4198  0.6794
 5314SOL     OW27577   4.380   4.039   9.903 -0.2247 -0.6726 -0.3517
 5314SOL    HW127578   4.425   4.123   9.897  0.2388 -0.8374  0.7064
 5314SOL    HW227579   4.454   3.980   9.911  0.1426 -0.0680  0.7075
 5315SOL     OW27580   0.161   1.161  10.190 -0.3751 -0.2629 -0.2731
 5315SOL    HW127581   0.178   1.211  10.269  2.2366  1.2967 -1.8176
 5315SOL    HW227582   0.250   1.154  10.155  0.5037  1.2896  1.6792
 5316SOL     OW27583   1.534   2.218   5.675  0.0328 -0.2331  0.2286
 5316SOL    HW127584   1.606   2.233   5.614 -1.6429  0.5223 -1.5564
 5316SOL    HW227585   1.557   2.127   5.696 -1.5792 -0.7069 -0.0480
 5317SOL     OW27586   3.686   4.432   9.531 -0.4597  0.3629 -0.1398
 5317SOL    HW127587   3.668   4.526   9.541 -1.7083 -0.0770  1.7578
 5317SOL    HW227588   3.763   4.439   9.474 -0.5870  2.7261 -0.0436
 5318SOL     OW27589   2.029   3.421   1.485  0.1373 -0.0393  0.5444
 5318SOL    HW127590   2.012   3.365   1.409 -0.3236  1.5033 -0.4980
 5318SOL    HW227591   2.053   3.356   1.551  1.4501  0.5495  0.6277
 5319SOL     OW27592   1.914   3.986  10.192 -0.2101  0.0977  0.4874
 5319SOL    HW127593   1.913   4.079  10.213 -0.1700  0.4235 -0.9285
 5319SOL    HW227594   1.993   3.984  10.137  0.2255 -0.8369  1.1529
 5320SOL     OW27595   1.871   2.620   3.068 -0.1545 -0.0055  0.4416
 5320SOL    HW127596   1.850   2.591   3.156  1.6514 -0.8028  0.6179
 5320SOL    HW227597   1.841   2.711   3.065 -0.0930 -0.0176 -0.7390
 5321SOL     OW27598   0.651   3.363   6.730 -0.1454 -0.0420  0.3995
 5321SOL    HW127599   0.582   3.296   6.739 -2.4434  2.4315  1.0294
 5321SOL    HW227600   0.595   3.437   6.708 -0.7937 -0.6505  0.0145
 5322SOL     OW27601   4.614   0.752  10.576 -0.3139 -0.3862  0.2701
 5322SOL    HW127602   4.583   0.839  10.599  1.1134  0.6944 -1.9695
 5322SOL    HW227603   4.689   0.736  10.634 -0.6696 -1.7787  0.3674
 5323SOL     OW27604   2.639   3.028   2.588 -0.4340 -0.3979  0.2587
 5323SOL    HW127605   2.689   3.049   2.509 -1.0533  3.0456  0.7816
 5323SOL    HW227606   2.575   2.980   2.535 -1.7520 -1.0649  2.4316
 5324SOL     OW27607   3.127   0.649   7.415 -0.8594 -0.0381 -0.3106
 5324SOL    HW127608   3.165   0.722   7.367  0.2426  0.9537  2.0705
 5324SOL    HW227609   3.077   0.598   7.351 -2.0178  1.6780 -0.7665
 5325SOL     OW27610   0.659   1.330   7.767  0.3113 -0.3831  0.0917
 5325SOL    HW127611   0.744   1.287   7.767  1.4115  1.8151  2.1121
 5325SOL    HW227612   0.607   1.282   7.702  1.8238  0.5044 -1.7462
 5326SOL     OW27613   3.726   3.467   4.125 -0.0573  0.0974 -0.0176
 5326SOL    HW127614   3.678   3.550   4.136  0.3058  0.4755 -1.2261
 5326SOL    HW227615   3.713   3.425   4.209  1.1787 -0.8182 -0.2869
 5327SOL     OW27616   3.400   1.546   7.601 -0.0604 -0.7212 -1.0493
 5327SOL    HW127617   3.431   1.507   7.682 -0.4833  0.3003 -0.3946
 5327SOL    HW227618   3.384   1.469   7.546  0.5581 -0.1069 -2.0824
 5328SOL     OW27619   1.076   0.230   4.102  0.2886  0.1231  0.1056
 5328SOL    HW127620   1.054   0.288   4.028 -4.2002 -1.7143  0.0070
 5328SOL    HW227621   1.099   0.295   4.168  0.3000  1.0971 -0.8599
 5329SOL     OW27622   1.119   4.593   0.622 -0.2176 -1.1139  0.5382
 5329SOL    HW127623   1.213   4.576   0.612  0.0512  0.1162  1.0693
 5329SOL    HW227624   1.112   4.683   0.590 -1.0798 -1.3142  0.1554
 5330SOL     OW27625   2.763   4.219   8.766  0.2864 -0.1199 -0.6531
 5330SOL    HW127626   2.818   4.190   8.839  0.4223 -0.1540 -0.7681
 5330SOL    HW227627   2.682   4.210   8.816 -0.5228 -0.7067 -2.0987
 5331SOL     OW27628   0.217   3.705   8.488 -0.3063  0.0624  0.1713
 5331SOL    HW127629   0.285   3.684   8.552 -1.1711  0.1717  1.1241
 5331SOL    HW227630   0.162   3.774   8.525  0.9566  1.2513 -0.1677
 5332SOL     OW27631   2.919   2.552   9.656  0.1460 -0.5882  0.3251
 5332SOL    HW127632   2.898   2.604   9.578 -2.0463 -2.2297 -0.1928
 5332SOL    HW227633   2.857   2.583   9.722  0.2947  3.7879 -1.5822
 5333SOL     OW27634   1.333   0.600  16.497  0.4121 -0.5432  0.1762
 5333SOL    HW127635   1.344   0.505  16.490 -2.5291 -0.8048 -0.9177
 5333SOL    HW227636   1.273   0.611  16.571 -1.3051  2.0040 -1.6198
 5334SOL     OW27637   2.661   4.158   1.879 -0.3359  0.0829  0.3316
 5334SOL    HW127638   2.607   4.189   1.807  0.2072  0.7580  0.2128
 5334SOL    HW227639   2.600   4.122   1.943 -1.4743  2.1384  0.4013
 5335SOL     OW27640   3.191   1.143  13.396 -0.1405  0.1705 -0.3945
 5335SOL    HW127641   3.240   1.141  13.479 -2.0091  0.5842  0.7158
 5335SOL    HW227642   3.168   1.050  13.400  0.5471  0.1032  2.3938
 5336SOL     OW27643   3.165   2.600   3.727 -0.2782 -0.3446  0.3905
 5336SOL    HW127644   3.160   2.511   3.761 -2.1371  0.5447  2.4263
 5336SOL    HW227645   3.092   2.595   3.665 -0.7753  1.0943  0.8633
 5337SOL     OW27646   0.620   1.577   7.660  0.3883  0.2826 -0.4416
 5337SOL    HW127647   0.647   1.489   7.687 -0.3938  0.0186 -0.5115
 5337SOL    HW227648   0.680   1.580   7.586  0.3275  0.8956 -0.4636
 5338SOL     OW27649   1.236   2.601   4.904  0.1219  0.2716  0.1300
 5338SOL    HW127650   1.203   2.512   4.889 -1.2490  1.1309 -1.8868
 5338SOL    HW227651   1.226   2.599   4.999  0.5958 -0.0048  0.1744
 5339SOL     OW27652   0.365   1.037   4.196 -0.1715 -0.3814 -0.0814
 5339SOL    HW127653   0.283   1.002   4.232 -0.1170 -1.9622 -1.5236
 5339SOL    HW227654   0.387   0.962   4.141  2.3277 -0.3033  0.8071
 5340SOL     OW27655   2.055   3.692   1.429  0.1317  0.3524  0.0087
 5340SOL    HW127656   1.986   3.656   1.373 -2.1713  1.7833  1.9618
 5340SOL    HW227657   2.094   3.608   1.454  0.8294  1.6280  3.2210
 5341SOL     OW27658   4.463   1.808   8.641  0.0181 -0.0240  0.0413
 5341SOL    HW127659   4.451   1.728   8.589 -3.0675 -0.5238  1.5031
 5341SOL    HW227660   4.443   1.875   8.576  1.1350 -0.8410 -1.1463
 5342SOL     OW27661   3.363   1.265   9.447 -0.0717 -0.4405  0.0013
 5342SOL    HW127662   3.359   1.201   9.519 -1.5771 -0.0667  0.2395
 5342SOL    HW227663   3.341   1.208   9.373  1.1430 -1.6243  0.5338
 5343SOL     OW27664   2.221   0.830   6.732  0.5110 -0.6542 -0.1026
 5343SOL    HW127665   2.164   0.760   6.701  0.3282 -0.2506 -0.6697
 5343SOL    HW227666   2.248   0.783   6.811  2.2889  0.0684 -0.2763
 5344SOL     OW27667   3.042   4.137   6.931 -0.3405 -0.4703  0.4677
 5344SOL    HW127668   2.954   4.112   6.959 -0.2441 -1.0833  0.2299
 5344SOL    HW227669   3.030   4.221   6.886 -1.8511 -0.6602  0.5139
 5345SOL     OW27670   1.662   0.973   2.592  0.1567 -0.2098  0.0183
 5345SOL    HW127671   1.595   0.905   2.592 -1.2691  1.2120 -0.6482
 5345SOL    HW227672   1.634   1.027   2.666  4.0885 -1.7864  2.6480
 5346SOL     OW27673   2.030   0.695   5.003 -0.2264  0.7408 -0.1178
 5346SOL    HW127674   2.094   0.632   4.971  0.1754  1.1986 -0.2121
 5346SOL    HW227675   1.990   0.722   4.921 -1.4914  1.2898  0.6784
 5347SOL     OW27676   3.551   4.658  15.236  0.2680 -0.3536  0.2402
 5347SOL    HW127677   3.531   4.632  15.145  2.9959  0.0725 -0.4666
 5347SOL    HW227678   3.644   4.639  15.231  0.3934 -0.0853  1.8588
 5348SOL     OW27679   1.062   3.129   1.764 -0.0031 -1.0677 -0.1886
 5348SOL    HW127680   0.992   3.140   1.828  0.8844  1.8374  0.2951
 5348SOL    HW227681   1.128   3.183   1.808 -0.0419  0.0834 -1.5413
 5349SOL     OW27682   3.288   2.089   8.412  0.4088  0.2009  0.9649
 5349SOL    HW127683   3.345   2.012   8.417 -0.4853 -0.4709  0.7302
 5349SOL    HW227684   3.340   2.152   8.462  2.7376 -1.1995  0.3194
 5350SOL     OW27685   0.769   0.305   8.630  0.7858  0.0349 -0.0799
 5350SOL    HW127686   0.710   0.379   8.644  0.9118 -0.0002  0.6092
 5350SOL    HW227687   0.820   0.326   8.708 -0.1639 -0.2133  0.6111
 5351SOL     OW27688   1.483   2.238   0.287  0.8089 -0.0879  0.1376
 5351SOL    HW127689   1.443   2.222   0.201  0.6580 -1.7624  0.5137
 5351SOL    HW227690   1.418   2.302   0.313 -0.3945 -1.6756  1.0472
 5352SOL     OW27691   1.895   2.532   2.497 -0.0421  0.4347  0.0535
 5352SOL    HW127692   1.901   2.451   2.547  1.2159 -1.3176 -2.9422
 5352SOL    HW227693   1.836   2.514   2.423 -0.1772  0.9821  0.0299
 5353SOL     OW27694   1.861   1.993   2.598  0.3628 -0.3509  0.0839
 5353SOL    HW127695   1.782   2.045   2.616  0.7595 -0.3000  1.6271
 5353SOL    HW227696   1.884   2.019   2.508  1.7554  2.4965  1.2525
 5354SOL     OW27697   0.461   3.760   5.381 -0.5831 -0.1902 -0.1860
 5354SOL    HW127698   0.557   3.763   5.383 -0.6883  1.0256  3.9317
 5354SOL    HW227699   0.444   3.852   5.362 -0.7892 -0.2954 -0.5112
 5355SOL     OW27700   3.555   4.014   8.003 -0.1490  0.0307  0.1517
 5355SOL    HW127701   3.627   4.027   8.065  0.5357  0.6874 -0.7917
 5355SOL    HW227702   3.504   3.941   8.039 -0.0572 -0.5354 -0.8610
 5356SOL     OW27703   3.090   0.308  14.473 -0.1685  0.4154 -0.5122
 5356SOL    HW127704   3.024   0.376  14.488  0.3025  0.9473 -0.8505
 5356SOL    HW227705   3.042   0.225  14.472  0.2618  0.1858 -1.8989
 5357SOL     OW27706   1.720   3.199   1.904 -0.7127  0.1044 -0.4074
 5357SOL    HW127707   1.804   3.245   1.902 -1.1688  0.9574 -0.2447
 5357SOL    HW227708   1.690   3.193   1.813  0.1641  2.4684 -0.8436
 5358SOL     OW27709   3.368   3.434   2.098  0.0875 -0.5718 -0.0245
 5358SOL    HW127710   3.445   3.440   2.155  1.0442  0.2742 -1.4040
 5358SOL    HW227711   3.400   3.480   2.021 -2.4077 -1.4162 -1.5720
 5359SOL     OW27712   0.849   1.996   6.051  0.7409 -0.0133  0.3708
 5359SOL    HW127713   0.896   2.013   5.969  2.2779  0.1214  1.2810
 5359SOL    HW227714   0.829   2.081   6.090 -1.1448 -0.2064 -0.1808
 5360SOL     OW27715   3.304   4.262   8.580  0.3998  0.1916 -0.5111
 5360SOL    HW127716   3.390   4.240   8.617 -0.3454  0.0986  1.1529
 5360SOL    HW227717   3.242   4.196   8.609  1.6065 -0.6432  0.1977
 5361SOL     OW27718   4.112   0.199   5.713  0.3283 -0.5794  0.5003
 5361SOL    HW127719   4.195   0.202   5.667 -0.1041 -2.7763 -0.4231
 5361SOL    HW227720   4.060   0.162   5.642  0.0420 -0.5701  0.7033
 5362SOL     OW27721   3.063   2.676   3.974 -0.6182  0.0772 -0.0937
 5362SOL    HW127722   2.997   2.741   3.952 -1.6455 -1.3620 -1.2619
 5362SOL    HW227723   3.112   2.678   3.892 -1.5703  0.3362 -0.6552
 5363SOL     OW27724   4.297   4.622   2.469 -0.4025 -0.3904  0.1984
 5363SOL    HW127725   4.282   4.550   2.532  0.1700 -1.2206 -0.6209
 5363SOL    HW227726   4.307   4.583   2.382 -1.7700 -2.7274  1.0703
 5364SOL     OW27727   0.436   2.354   6.492 -0.0176  0.3921  0.1043
 5364SOL    HW127728   0.422   2.283   6.428  0.3270  1.7147 -1.4405
 5364SOL    HW227729   0.528   2.370   6.470 -0.3672  0.6468 -1.2115
 5365SOL     OW27730   1.240   3.578   4.167 -0.2182 -0.2767 -0.2620
 5365SOL    HW127731   1.243   3.602   4.075  0.7136 -1.1824 -0.4614
 5365SOL    HW227732   1.330   3.601   4.190 -1.5459  3.8710  0.8648
 5366SOL     OW27733   3.242   4.663   5.856 -0.1986 -0.5197 -0.2157
 5366SOL    HW127734   3.187   4.727   5.902  0.0216 -0.1305 -0.4892
 5366SOL    HW227735   3.179   4.595   5.832 -0.3102 -0.0980 -1.1285
 5367SOL     OW27736   2.624   2.577   5.749 -0.3842 -0.4964  0.3850
 5367SOL    HW127737   2.590   2.491   5.725 -1.4105  0.2264 -0.7291
 5367SOL    HW227738   2.621   2.625   5.667  1.3037 -0.6318  0.2424
 5368SOL     OW27739   1.803   4.231   3.257 -0.3102  0.4493 -1.1416
 5368SOL    HW127740   1.716   4.193   3.270 -0.7579  1.0577 -2.3226
 5368SOL    HW227741   1.858   4.165   3.298 -1.9321 -0.5845 -0.6226
 5369SOL     OW27742   2.067   3.455   2.331 -0.6542 -0.2700  0.3629
 5369SOL    HW127743   2.016   3.403   2.269  0.7694 -0.5274 -0.6033
 5369SOL    HW227744   1.994   3.455   2.393 -0.2786  0.4812  0.7990
 5370SOL     OW27745   0.122   3.996  11.895 -0.2284 -0.5323 -0.0967
 5370SOL    HW127746   0.054   3.979  11.959 -0.9863 -1.8169 -1.2402
 5370SOL    HW227747   0.066   4.049  11.838  3.0491  2.8952 -0.1187
 5371SOL     OW27748   2.218   3.209   3.699  0.1864  0.2273  1.0462
 5371SOL    HW127749   2.231   3.304   3.701  2.3619 -0.0535  0.5924
 5371SOL    HW227750   2.215   3.178   3.609 -2.7785 -0.4823  1.3894
 5372SOL     OW27751   1.523   1.926  11.230  0.0162  0.0053 -0.4719
 5372SOL    HW127752   1.556   1.996  11.174 -2.2789  1.2890 -0.2370
 5372SOL    HW227753   1.606   1.880  11.242  0.3485  1.2472  2.0125
 5373SOL     OW27754   0.790   0.002   2.241  0.0455 -0.4151  0.8610
 5373SOL    HW127755   0.848   4.734   2.166 -0.0850 -2.6363  1.0630
 5373SOL    HW227756   0.703   4.725   2.204  0.7505  3.8637 -2.9756
 5374SOL     OW27757   4.639   0.240   6.607  0.9078  0.1244 -0.3221
 5374SOL    HW127758   4.556   0.281   6.630 -1.7254 -5.1253 -0.5323
 5374SOL    HW227759   4.603   0.163   6.564  0.3591 -1.2254  2.5302
 5375SOL     OW27760   4.050   3.580   3.396  0.5757  0.0182 -0.2019
 5375SOL    HW127761   4.053   3.493   3.357  1.1095  0.4419 -1.1112
 5375SOL    HW227762   4.125   3.623   3.356  0.1704 -1.1537 -2.2200
 5376SOL     OW27763   4.645   2.135   9.632  0.3940  0.1337 -0.1982
 5376SOL    HW127764   4.679   2.192   9.700  2.1724 -2.2272  0.9019
 5376SOL    HW227765   4.550   2.136   9.646  0.6707 -0.1870  1.6833
 5377SOL     OW27766   4.649   1.218   3.753 -0.0615 -0.1656  0.3921
 5377SOL    HW127767   4.668   1.184   3.665  0.7980 -3.1835  1.7577
 5377SOL    HW227768   4.682   1.308   3.752 -0.9439  0.1440 -0.9962
 5378SOL     OW27769   1.372   2.577   8.826  0.4845 -0.1252  0.0416
 5378SOL    HW127770   1.444   2.562   8.888 -0.5676 -3.0175  0.6162
 5378SOL    HW227771   1.363   2.497   8.774  1.7957 -0.1473 -0.1455
 5379SOL     OW27772   1.689   0.090   6.698  0.4804 -0.0447  0.3306
 5379SOL    HW127773   1.728   0.159   6.751  1.9105 -2.7261  2.7534
 5379SOL    HW227774   1.727   0.012   6.738 -1.6704 -0.7626  0.9522
 5380SOL     OW27775   3.047   2.979   1.640  0.0789 -0.6815  0.3533
 5380SOL    HW127776   3.053   3.013   1.551 -1.1981 -1.7452 -0.1582
 5380SOL    HW227777   3.116   3.034   1.676  0.5815  0.0641 -1.7288
 5381SOL     OW27778   2.007   2.413   2.952 -0.2404  0.2365  0.4013
 5381SOL    HW127779   1.979   2.498   2.986 -0.3857 -0.0794  1.0541
 5381SOL    HW227780   1.927   2.364   2.967 -0.6446  0.9759  0.6279
 5382SOL     OW27781   3.053   3.806   8.172 -0.3115  0.0914  0.0581
 5382SOL    HW127782   3.142   3.790   8.141 -0.5590  0.2313 -0.7113
 5382SOL    HW227783   3.075   3.889   8.215 -1.8067  0.5246 -0.0109
 5383SOL     OW27784   3.426   4.665   4.085 -0.4416 -0.0852 -0.1095
 5383SOL    HW127785   3.474   4.660   4.167 -0.8853 -1.3039  0.0692
 5383SOL    HW227786   3.352   4.723   4.107  0.6468  1.4753 -0.5488
 5384SOL     OW27787   1.197   3.021   2.096 -0.1759  0.7949 -0.8551
 5384SOL    HW127788   1.284   2.982   2.103 -0.5781 -0.2723 -1.7638
 5384SOL    HW227789   1.220   3.114   2.096  0.6669  0.5870 -0.2539
 5385SOL     OW27790   0.660   4.036   5.681  0.0847  0.0907 -0.7575
 5385SOL    HW127791   0.660   3.940   5.676 -1.5443  0.0238  0.7595
 5385SOL    HW227792   0.749   4.051   5.647  0.6398 -0.7851  0.3102
 5386SOL     OW27793   2.923   2.751  14.312 -0.1515 -0.0233  0.2716
 5386SOL    HW127794   2.937   2.786  14.225  0.2073 -1.0454 -0.0809
 5386SOL    HW227795   2.929   2.659  14.288  2.3820 -0.2687  1.8741
 5387SOL     OW27796   3.465   0.771  12.963 -0.3818 -0.3299  0.7241
 5387SOL    HW127797   3.502   0.856  12.941  2.0470 -1.6637 -0.3854
 5387SOL    HW227798   3.379   0.798  12.995 -0.4194  0.0058  0.3370
 5388SOL     OW27799   0.903   4.111   2.035 -0.1104  0.5341 -0.7118
 5388SOL    HW127800   0.870   4.033   2.080 -1.3664  2.2074  1.2511
 5388SOL    HW227801   0.818   4.156   2.038 -0.3951 -0.0556  0.4642
 5389SOL     OW27802   1.730   1.888   4.315 -0.8078  0.0887  0.2764
 5389SOL    HW127803   1.813   1.921   4.350 -1.2946  0.7697  0.7989
 5389SOL    HW227804   1.699   1.861   4.401 -0.4767  0.5032  0.5315
 5390SOL     OW27805   0.158   0.962   9.836 -0.1477 -0.7917 -0.1674
 5390SOL    HW127806   0.238   0.939   9.788 -0.1727 -4.4364  1.5531
 5390SOL    HW227807   0.086   0.946   9.776 -0.4153  0.0598 -0.0781
 5391SOL     OW27808   4.185   0.737   3.426  0.0695  0.1481 -0.3728
 5391SOL    HW127809   4.264   0.755   3.477 -0.8353  0.4374  0.9214
 5391SOL    HW227810   4.202   0.792   3.350  0.4881 -2.5372 -2.2090
 5392SOL     OW27811   1.447   4.038  14.589  0.4429  0.0893  0.0378
 5392SOL    HW127812   1.393   3.974  14.542 -0.3118  1.0368 -0.3846
 5392SOL    HW227813   1.524   4.038  14.532 -0.0863  1.5972 -0.6677
 5393SOL     OW27814   4.648   1.476   9.689 -0.0064 -0.3054  0.2291
 5393SOL    HW127815   4.573   1.459   9.746  0.7339 -1.5594  0.8411
 5393SOL    HW227816   4.602   1.484   9.606  0.0886 -0.5236  0.1556
 5394SOL     OW27817   4.549   1.425   8.528 -0.0164  0.0219  0.6284
 5394SOL    HW127818   4.591   1.366   8.465 -0.4438  0.3117  0.0661
 5394SOL    HW227819   4.494   1.355   8.564  0.3186 -0.1340  0.8304
 5395SOL     OW27820   0.535   3.186   5.966  0.5609  0.0354 -0.5178
 5395SOL    HW127821   0.522   3.119   5.898  2.9472  0.4420 -1.3554
 5395SOL    HW227822   0.454   3.177   6.017  0.2248  1.0540 -0.8725
 5396SOL     OW27823   3.419   1.554   1.151  0.0553 -0.2076 -0.6219
 5396SOL    HW127824   3.366   1.490   1.103  0.5510 -0.7795 -0.4202
 5396SOL    HW227825   3.406   1.640   1.112  0.4559 -0.0695 -0.4563
 5397SOL     OW27826   4.736   2.485   8.470  0.9195  0.2034 -0.5140
 5397SOL    HW127827   4.660   2.453   8.518  1.1107 -0.4533 -0.6449
 5397SOL    HW227828   0.026   2.553   8.528  0.5667  0.1396 -0.2455
 5398SOL     OW27829   1.013   3.588  11.721 -0.2166 -0.3046 -0.2698
 5398SOL    HW127830   1.054   3.532  11.656 -2.1795 -0.4426 -1.3953
 5398SOL    HW227831   0.944   3.611  11.658  0.5847 -0.1182 -1.0785
 5399SOL     OW27832   1.649   1.222  15.222  0.3105  0.3651 -0.2183
 5399SOL    HW127833   1.630   1.159  15.292 -0.2563  1.5416  0.6973
 5399SOL    HW227834   1.683   1.299  15.269 -0.4450  0.3757  0.3286
 5400SOL     OW27835   1.431   3.159   5.311  0.3695  0.6074 -0.0590
 5400SOL    HW127836   1.341   3.144   5.281  0.3190 -0.1536  0.4633
 5400SOL    HW227837   1.474   3.087   5.265 -0.5519  0.5144 -0.7696
 5401SOL     OW27838   4.220   2.394   7.260  0.4231 -0.0461  0.2122
 5401SOL    HW127839   4.178   2.432   7.183  3.2727 -1.5445 -2.0794
 5401SOL    HW227840   4.306   2.431   7.241  2.1817 -3.1015  2.2169
 5402SOL     OW27841   0.416   2.132  15.345  0.0915 -0.0920  0.4438
 5402SOL    HW127842   0.505   2.118  15.314 -0.4410  1.4668 -1.7870
 5402SOL    HW227843   0.418   2.221  15.380  2.0087 -1.3307  3.4464
 5403SOL     OW27844   0.911   1.590   7.167 -0.2052 -0.4991 -0.0957
 5403SOL    HW127845   0.952   1.605   7.252 -1.4694  1.3382  0.2115
 5403SOL    HW227846   0.989   1.555   7.125  1.2589  0.2367  2.0321
 5404SOL     OW27847   2.459   1.621   9.882 -0.1787  0.1693  0.3114
 5404SOL    HW127848   2.371   1.611   9.918 -0.3461 -1.0341 -0.4269
 5404SOL    HW227849   2.504   1.659   9.957  0.3253  1.1309 -0.4723
 5405SOL     OW27850   2.767   4.231   3.844  0.5636 -0.2988 -0.3184
 5405SOL    HW127851   2.717   4.173   3.787 -2.4587 -0.2495  2.3087
 5405SOL    HW227852   2.788   4.175   3.919 -0.4506  0.1745  0.3064
 5406SOL     OW27853   4.679   2.245   6.926  0.3895 -0.2078 -0.0259
 5406SOL    HW127854   4.682   2.202   7.011 -2.0260 -1.3611 -0.5613
 5406SOL    HW227855   4.597   2.294   6.931 -0.0635 -1.1421  1.7182
 5407SOL     OW27856   0.164   2.078   4.188 -0.0286 -0.2072  0.3016
 5407SOL    HW127857   0.142   2.077   4.281 -1.1519 -1.3790  0.0100
 5407SOL    HW227858   0.084   2.047   4.145  1.0525 -1.0050 -1.1218
 5408SOL     OW27859   1.753   1.547   8.344 -0.4889 -0.0824 -0.2231
 5408SOL    HW127860   1.697   1.471   8.358  1.0334 -1.1807 -0.0792
 5408SOL    HW227861   1.822   1.515   8.285  2.9072  0.3752  3.5304
 5409SOL     OW27862   4.615   3.777  12.928  0.3055 -0.0024 -0.3727
 5409SOL    HW127863   4.679   3.710  12.903  1.1025 -0.0186  1.6566
 5409SOL    HW227864   4.650   3.859  12.893 -0.9968  1.1292  0.9958
 5410SOL     OW27865   4.651   3.990   3.583  0.6546  0.1189  0.1447
 5410SOL    HW127866   4.661   3.903   3.620 -1.6181 -0.2066 -0.0322
 5410SOL    HW227867   4.588   3.974   3.512 -0.6733  1.6237  1.0080
 5411SOL     OW27868   3.365   2.377  13.035  0.3099  0.2156  0.2593
 5411SOL    HW127869   3.399   2.466  13.041  2.5470 -0.4678 -2.0791
 5411SOL    HW227870   3.442   2.321  13.023  0.5685  0.8609 -1.1170
 5412SOL     OW27871   1.739   3.073   8.535 -0.3799 -0.0164 -0.3335
 5412SOL    HW127872   1.805   3.140   8.516 -0.3346 -0.1421 -0.6288
 5412SOL    HW227873   1.795   2.998   8.554 -1.6402 -0.7860  0.3347
 5413SOL     OW27874   1.329   3.799   6.644  1.1702 -0.1560  0.2229
 5413SOL    HW127875   1.377   3.873   6.681  0.2265 -0.1761  1.4922
 5413SOL    HW227876   1.361   3.722   6.690  0.0866 -0.6257  0.1951
 5414SOL     OW27877   2.666   0.521  16.920  0.3813  0.1098  0.1250
 5414SOL    HW127878   2.734   0.473  16.872  0.7680 -0.1696  0.9393
 5414SOL    HW227879   2.713   0.559  16.995  1.4518 -2.3900  0.7075
 5415SOL     OW27880   3.131   3.218   7.031  0.0501  0.1135 -0.1961
 5415SOL    HW127881   3.208   3.262   6.994 -0.2595  0.9941  0.1943
 5415SOL    HW227882   3.161   3.135   7.068 -0.5602  0.2516  0.6079
 5416SOL     OW27883   4.399   2.276   9.549 -0.1544 -0.3766  0.0010
 5416SOL    HW127884   4.351   2.310   9.625  0.7878 -0.4260  0.6250
 5416SOL    HW227885   4.377   2.357   9.504 -0.0024 -0.0586  0.4985
 5417SOL     OW27886   2.096   2.515   8.059 -0.2179  0.6808  0.4102
 5417SOL    HW127887   2.031   2.489   7.994 -0.0744 -0.0401  0.5562
 5417SOL    HW227888   2.084   2.444   8.123 -0.9218 -1.2564 -1.8884
 5418SOL     OW27889   3.851   0.536   5.040  0.0783  0.5826 -0.1147
 5418SOL    HW127890   3.783   0.522   5.106  1.9072  1.5756  1.9689
 5418SOL    HW227891   3.932   0.523   5.088  1.1254  2.5207 -1.4004
 5419SOL     OW27892   0.356   1.283   6.384 -0.1713  0.5020 -0.0383
 5419SOL    HW127893   0.281   1.224   6.383 -0.3929  0.7878 -0.3084
 5419SOL    HW227894   0.419   1.211   6.376 -0.2227  0.3223  1.2751
 5420SOL     OW27895   3.194   3.143   3.708  0.0220 -0.8677 -0.8124
 5420SOL    HW127896   3.261   3.075   3.719  2.3583  1.3617 -1.4304
 5420SOL    HW227897   3.124   3.093   3.665  0.0282 -1.1221 -0.5254
 5421SOL     OW27898   2.517   0.660  15.243 -0.0455 -0.0669 -0.0194
 5421SOL    HW127899   2.539   0.688  15.154 -0.4511 -3.4743 -1.2052
 5421SOL    HW227900   2.431   0.701  15.257 -1.0025 -2.2024  0.4114
 5422SOL     OW27901   0.197   3.871  11.633 -0.3494  0.0741 -0.5965
 5422SOL    HW127902   0.197   3.914  11.719 -0.4866  1.5254 -1.3073
 5422SOL    HW227903   0.280   3.911  11.604 -0.8273 -0.0137 -2.0982
 5423SOL     OW27904   2.413   1.672   2.782 -0.6948 -0.0640 -0.1829
 5423SOL    HW127905   2.391   1.579   2.778  0.5879 -0.4638  1.9084
 5423SOL    HW227906   2.427   1.693   2.875  0.0454 -0.2575 -0.2503
 5424SOL     OW27907   1.010   3.846   7.316 -0.2261  0.0867  0.0190
 5424SOL    HW127908   1.036   3.791   7.242 -0.8827  2.6793 -2.1631
 5424SOL    HW227909   0.963   3.781   7.369 -1.1066  2.1732  1.8099
 5425SOL     OW27910   0.136   0.106   2.208 -0.1191 -0.2633  0.0200
 5425SOL    HW127911   0.078   0.153   2.268  1.1248 -0.8400  1.6830
 5425SOL    HW227912   0.107   0.140   2.123  1.0924  0.6931  0.0008
 5426SOL     OW27913   3.291   4.252   0.700  0.2876 -0.3840 -0.1102
 5426SOL    HW127914   3.376   4.208   0.697 -0.1201 -1.1107 -0.9946
 5426SOL    HW227915   3.228   4.182   0.722  0.5146  0.5379  3.3480
 5427SOL     OW27916   2.162   4.461   9.137  0.3524 -0.0387 -0.5679
 5427SOL    HW127917   2.091   4.398   9.146 -1.6808  2.3591  0.1032
 5427SOL    HW227918   2.157   4.524   9.209  0.2626  1.0583 -1.5279
 5428SOL     OW27919   3.684   3.237   3.730 -0.0899 -0.3110 -0.0108
 5428SOL    HW127920   3.744   3.184   3.678  0.3798 -1.5506  1.7805
 5428SOL    HW227921   3.733   3.227   3.812 -0.5066  0.9895  0.3910
 5429SOL     OW27922   1.775   1.802  11.276  0.2129 -0.1910  0.7800
 5429SOL    HW127923   1.835   1.840  11.341  1.5003 -0.8607 -0.0097
 5429SOL    HW227924   1.826   1.730  11.239  0.1289  0.5518 -0.7760
 5430SOL     OW27925   2.436   4.243   8.769  0.2281 -0.3533 -0.8351
 5430SOL    HW127926   2.349   4.263   8.804  0.3225 -0.6617 -0.4232
 5430SOL    HW227927   2.489   4.291   8.833 -0.5164 -0.5560 -0.0689
 5431SOL     OW27928   1.014   1.680   7.402  0.2527 -0.6416  0.2334
 5431SOL    HW127929   1.011   1.770   7.370 -2.3028 -1.1245 -0.8249
 5431SOL    HW227930   1.100   1.685   7.443  0.7854 -1.4241 -0.7727
 5432SOL     OW27931   0.094   1.528   4.067  0.0016  0.2717  0.7066
 5432SOL    HW127932   0.115   1.442   4.103  1.0915  0.9885  1.8051
 5432SOL    HW227933   0.137   1.588   4.128  0.3340 -0.0600  0.7997
 5433SOL     OW27934   4.043   2.734   9.218 -0.3418 -0.1388  0.0707
 5433SOL    HW127935   3.995   2.767   9.142 -0.9589 -1.7757 -0.2599
 5433SOL    HW227936   4.078   2.809   9.265 -2.7591  0.7756  0.3968
 5434SOL     OW27937   1.887   3.716   7.167  0.3378  0.2963 -0.0246
 5434SOL    HW127938   1.845   3.650   7.112 -2.2863 -0.0092  2.3472
 5434SOL    HW227939   1.892   3.662   7.246 -0.1159  0.3301  0.0287
 5435SOL     OW27940   0.081   1.131   9.141 -0.1963 -0.1635 -0.4435
 5435SOL    HW127941   0.048   1.066   9.204 -1.2116  2.2205  1.5113
 5435SOL    HW227942   0.088   1.213   9.190 -2.1091 -0.2705  0.0279
 5436SOL     OW27943   0.466   2.067   8.989  0.2616  0.1146 -0.8932
 5436SOL    HW127944   0.443   2.113   9.070 -0.8843  0.9393 -1.6785
 5436SOL    HW227945   0.547   2.028   9.022 -0.7259 -1.5663 -0.4319
 5437SOL     OW27946   0.093   0.967   1.996 -0.6494  0.3758 -0.1715
 5437SOL    HW127947   0.139   1.019   1.931  3.3131  0.2953  2.5724
 5437SOL    HW227948   0.095   0.879   1.960  0.1639  0.8900 -1.3840
 5438SOL     OW27949   2.150   2.128   7.437  0.2990 -0.1719 -0.1814
 5438SOL    HW127950   2.072   2.182   7.451 -0.2865 -1.7390  2.7014
 5438SOL    HW227951   2.116   2.041   7.459  1.0578 -0.2322  0.7478
 5439SOL     OW27952   2.426   4.291   5.472  0.0162 -0.3200 -0.2972
 5439SOL    HW127953   2.496   4.334   5.523 -1.0284 -1.2745  1.9427
 5439SOL    HW227954   2.413   4.367   5.416 -0.6040 -1.2080 -1.3433
 5440SOL     OW27955   3.075   3.614   3.096 -0.5473 -0.3193  0.1994
 5440SOL    HW127956   3.031   3.611   3.181  1.8263  1.3674  1.4903
 5440SOL    HW227957   3.077   3.708   3.075 -1.1501 -0.3225  0.1202
 5441SOL     OW27958   4.633   0.310   9.471 -0.5250 -0.3363 -0.4502
 5441SOL    HW127959   4.591   0.380   9.522  0.5002 -0.5016  0.6106
 5441SOL    HW227960   4.660   0.347   9.387  2.0218  1.2123  1.0475
 5442SOL     OW27961   3.460   1.597   5.402 -0.1261  0.0846 -0.2023
 5442SOL    HW127962   3.504   1.673   5.365 -2.3624  2.5002  2.0395
 5442SOL    HW227963   3.464   1.532   5.331 -0.9577  1.4825 -1.5209
 5443SOL     OW27964   3.235   0.090   2.380  0.1954  0.7524  0.2946
 5443SOL    HW127965   3.180   0.089   2.301 -0.5040 -1.1391  0.8074
 5443SOL    HW227966   3.306   0.150   2.355 -1.1617  1.3367 -2.1977
 5444SOL     OW27967   3.341   0.998   4.402 -0.3038  0.5059 -0.0353
 5444SOL    HW127968   3.326   1.080   4.449 -0.7803  2.8588 -4.3040
 5444SOL    HW227969   3.346   0.930   4.469  1.7822  1.9112  1.2183
 5445SOL     OW27970   0.272   1.769   7.584  0.2501 -0.2716 -0.2145
 5445SOL    HW127971   0.256   1.857   7.618  1.0896 -0.3821  0.4725
 5445SOL    HW227972   0.264   1.707   7.657 -1.7259 -0.3517 -0.5032
 5446SOL     OW27973   0.607   3.727   5.663 -0.8551 -0.3414 -0.2860
 5446SOL    HW127974   0.702   3.734   5.672 -0.9121 -0.8415  0.6380
 5446SOL    HW227975   0.611   3.669   5.588  0.6892  1.8227 -1.8877
 5447SOL     OW27976   2.413   4.042  13.714  0.1834 -0.0850 -0.0110
 5447SOL    HW127977   2.490   4.049  13.657 -0.9757 -0.2899 -1.5893
 5447SOL    HW227978   2.347   4.014  13.651 -0.5130 -0.4843  0.9004
 5448SOL     OW27979   2.910   0.692  14.999  0.0918 -0.3884 -0.0856
 5448SOL    HW127980   2.907   0.622  14.934  0.3342  0.2096 -0.7404
 5448SOL    HW227981   2.818   0.718  15.006 -0.1921 -1.5370  0.4383
 5449SOL     OW27982   0.801   3.080   8.255  0.5570  0.1662  0.3221
 5449SOL    HW127983   0.867   3.147   8.235  0.8607  0.1071  1.1407
 5449SOL    HW227984   0.860   3.013   8.290 -0.8662 -1.7333 -0.9272
 5450SOL     OW27985   2.001   3.481  15.371  0.7411 -0.2624  0.0580
 5450SOL    HW127986   1.939   3.536  15.419  1.3881  2.6604 -2.4024
 5450SOL    HW227987   2.077   3.529  15.405  0.6764 -1.0005  1.2052
 5451SOL     OW27988   3.099   3.770   3.889 -0.4086  0.8067  0.1240
 5451SOL    HW127989   3.126   3.742   3.802  1.4452  2.8312  0.0297
 5451SOL    HW227990   3.154   3.711   3.940 -0.1842  0.7335 -0.2036
 5452SOL     OW27991   1.115   4.336   1.754  0.1202  0.6977  0.0433
 5452SOL    HW127992   1.210   4.339   1.741  0.2441  0.9820  1.0526
 5452SOL    HW227993   1.098   4.254   1.709 -0.4596  0.0987  1.3603
 5453SOL     OW27994   0.001   2.432   4.699 -0.2332 -0.4318  0.2236
 5453SOL    HW127995   4.685   2.499   4.664  0.1886 -0.7321 -1.0526
 5453SOL    HW227996   4.740   2.455   4.792 -0.9029  4.2871 -0.9704
 5454SOL     OW27997   3.877   2.116   4.156 -0.2983 -0.1297  0.9045
 5454SOL    HW127998   3.820   2.082   4.226 -0.4315  0.5046  1.1074
 5454SOL    HW227999   3.961   2.126   4.200 -0.9335 -0.0667  2.1183
 5455SOL     OW28000   3.391   4.495   4.772 -0.0424 -0.0350 -0.3263
 5455SOL    HW128001   3.482   4.521   4.783  0.0969 -0.5929 -0.1829
 5455SOL    HW228002   3.375   4.427   4.836 -2.2110 -0.8156 -1.6969
 5456SOL     OW28003   2.183   3.891  17.606  0.0748 -0.2759 -0.0863
 5456SOL    HW128004   2.165   3.964  17.665 -1.0238 -0.9592  0.4283
 5456SOL    HW228005   2.110   3.835  17.633 -0.7973  0.8446 -0.1228
 5457SOL     OW28006   4.247   0.605   4.077 -0.7153  0.1069  0.1154
 5457SOL    HW128007   4.336   0.583   4.050 -0.0041  0.2887  2.3005
 5457SOL    HW228008   4.224   0.675   4.017 -1.2087  0.7118  1.0207
 5458SOL     OW28009   2.697   0.527   8.769  0.1628  0.0883  0.2310
 5458SOL    HW128010   2.661   0.531   8.680 -0.7421  0.9140  0.6356
 5458SOL    HW228011   2.625   0.483   8.815  0.0217  0.2096  0.1278
 5459SOL     OW28012   0.162   0.280  11.360 -0.2337 -0.2220 -0.1762
 5459SOL    HW128013   0.254   0.262  11.342  0.2069  1.2878  0.5785
 5459SOL    HW228014   0.152   0.248  11.450 -1.9817  0.4194 -0.1487
 5460SOL     OW28015   2.552   4.318  14.790 -0.4405  0.0664  0.0921
 5460SOL    HW128016   2.544   4.347  14.881  0.3491  0.9142 -0.1021
 5460SOL    HW228017   2.588   4.230  14.794 -0.1937  0.0141 -3.2066
 5461SOL     OW28018   2.395   3.932  16.948  0.5239 -0.1950  0.6992
 5461SOL    HW128019   2.482   3.925  16.987  1.5533 -0.1640 -1.5858
 5461SOL    HW228020   2.374   4.022  16.972  1.1452  0.2723 -0.5099
 5462SOL     OW28021   1.571   1.805   8.077  0.1881  0.4555  0.1854
 5462SOL    HW128022   1.564   1.733   8.013 -0.0368  0.1903  0.5115
 5462SOL    HW228023   1.540   1.874   8.019 -0.5803  0.2560  0.3656
 5463SOL     OW28024   2.713   0.744   5.355  0.2784  0.0342 -0.0249
 5463SOL    HW128025   2.704   0.701   5.270  1.6616  0.4113 -0.3687
 5463SOL    HW228026   2.764   0.822   5.331  1.4983 -0.5708  0.5727
 5464SOL     OW28027   0.158   2.477   1.476 -0.1980  0.0090  0.4860
 5464SOL    HW128028   0.154   2.468   1.571  1.8823 -0.9466  0.4900
 5464SOL    HW228029   0.239   2.427   1.466  0.3287  0.7425  1.1448
 5465SOL     OW28030   3.543   2.315   2.561 -0.1658  0.3895  0.3043
 5465SOL    HW128031   3.451   2.336   2.543  0.2920  0.0882 -2.4976
 5465SOL    HW228032   3.539   2.220   2.570 -1.6796  0.5069  0.8108
 5466SOL     OW28033   0.780   1.362   4.395 -0.4021  0.0456 -0.0772
 5466SOL    HW128034   0.861   1.323   4.361 -0.4999 -0.6418  0.4812
 5466SOL    HW228035   0.709   1.344   4.333  0.0552  2.9891 -1.4718
 5467SOL     OW28036   1.978   0.760   2.008 -0.7772  0.2026  0.4461
 5467SOL    HW128037   2.030   0.836   2.032 -2.0102  1.0316  0.4680
 5467SOL    HW228038   1.951   0.793   1.923 -0.2341  1.5618  0.8132
 5468SOL     OW28039   2.901   0.842   1.029 -0.0094 -0.3961 -0.0907
 5468SOL    HW128040   2.901   0.755   1.069 -0.0698 -1.1199 -1.6771
 5468SOL    HW228041   2.985   0.839   0.983 -0.8764 -1.6778 -1.5623
 5469SOL     OW28042   3.365   4.655   6.423 -0.0030 -0.3164  0.0764
 5469SOL    HW128043   3.270   4.657   6.409  0.1175 -0.4005 -0.7272
 5469SOL    HW228044   3.382   4.572   6.467 -3.1853 -0.2132  1.4944
 5470SOL     OW28045   1.671   4.542   5.070 -0.0107  0.3192  0.2274
 5470SOL    HW128046   1.640   4.543   5.160 -3.1660  1.3171 -0.8782
 5470SOL    HW228047   1.588   4.558   5.024  1.5659  0.9270 -2.3875
 5471SOL     OW28048   3.391   2.537   6.111 -0.0263 -0.3098 -0.1917
 5471SOL    HW128049   3.459   2.558   6.047 -1.7173 -2.1245 -2.5767
 5471SOL    HW228050   3.435   2.557   6.194 -2.0342  1.5578  0.4264
 5472SOL     OW28051   3.744   3.368   0.652 -0.6136 -0.1271  0.1828
 5472SOL    HW128052   3.756   3.432   0.582 -1.0694  0.4154  0.6057
 5472SOL    HW228053   3.761   3.426   0.726 -1.4749  2.1197 -1.3840
 5473SOL     OW28054   3.731   0.691   8.407  0.6737  0.3878 -0.4210
 5473SOL    HW128055   3.722   0.786   8.416  2.7719  0.4444  1.1872
 5473SOL    HW228056   3.650   0.676   8.359  0.8653 -0.1255 -0.5888
 5474SOL     OW28057   4.293   3.987  15.195 -0.1332 -0.9848  0.4014
 5474SOL    HW128058   4.321   3.958  15.108 -0.2768  1.8702 -0.5841
 5474SOL    HW228059   4.275   3.900  15.231 -1.4825 -0.2092  1.5691
 5475SOL     OW28060   2.812   4.290   6.583  0.2788  0.2365 -0.4437
 5475SOL    HW128061   2.733   4.339   6.558 -1.7950 -2.6248  0.4728
 5475SOL    HW228062   2.856   4.312   6.501  1.3474 -0.3780 -0.0214
 5476SOL     OW28063   3.289   2.348   2.510 -0.5185  0.1810  0.3709
 5476SOL    HW128064   3.226   2.397   2.564 -0.0758 -0.0721  1.1189
 5476SOL    HW228065   3.244   2.336   2.427  0.4013  0.9508 -0.2299
 5477SOL     OW28066   3.431   4.241   7.898 -0.4826 -0.0075  0.1028
 5477SOL    HW128067   3.476   4.164   7.934 -1.4926 -0.8479 -0.4066
 5477SOL    HW228068   3.340   4.223   7.921 -0.6694  1.5270  0.5584
 5478SOL     OW28069   2.680   2.570   6.922  0.0255  0.0916 -0.4382
 5478SOL    HW128070   2.686   2.475   6.913  1.2634  0.0722  0.4626
 5478SOL    HW228071   2.651   2.590   7.010 -2.5993  0.5678 -1.4265
 5479SOL     OW28072   2.376   4.433   1.700 -0.2222 -0.3305 -0.4813
 5479SOL    HW128073   2.427   4.353   1.706 -0.1826 -0.2515  0.1967
 5479SOL    HW228074   2.324   4.404   1.625  2.1860  0.3547 -2.4377
 5480SOL     OW28075   4.166   2.649   5.057  0.2116  0.0183  0.1252
 5480SOL    HW128076   4.106   2.589   5.101 -0.0235  0.2124  0.0688
 5480SOL    HW228077   4.242   2.650   5.116  0.3237  0.5998 -0.0344
 5481SOL     OW28078   2.661   2.258   7.342  0.2745 -0.5324 -0.1472
 5481SOL    HW128079   2.734   2.313   7.314  0.8268 -0.3800  1.6217
 5481SOL    HW228080   2.624   2.321   7.403  0.7072  0.4668 -0.9214
 5482SOL     OW28081   0.010   3.726  16.255 -0.0748  0.1322 -0.1870
 5482SOL    HW128082   4.702   3.779  16.193  0.4604  1.4928  0.5678
 5482SOL    HW228083   4.687   3.664  16.289 -2.1263  2.0331 -0.6801
 5483SOL     OW28084   1.097   3.862   7.010 -0.2564  0.0941  0.6449
 5483SOL    HW128085   1.142   3.937   6.972 -0.7050 -0.5117 -1.0868
 5483SOL    HW228086   1.055   3.885   7.093 -2.6184  1.5828 -0.9754
 5484SOL     OW28087   1.573   0.379  14.155  0.5104 -0.4897  0.0320
 5484SOL    HW128088   1.641   0.414  14.213  0.6221 -1.8648  0.7250
 5484SOL    HW228089   1.616   0.308  14.108  0.8966 -0.9820  1.1369
 5485SOL     OW28090   1.092   4.491   3.979  0.1035  0.2243  0.1044
 5485SOL    HW128091   1.167   4.498   4.038 -0.7190  0.3877  1.1161
 5485SOL    HW228092   1.017   4.504   4.037  0.6119 -1.7846  1.2075
 5486SOL     OW28093   4.525   4.563   5.197 -0.2188 -0.3444 -0.4727
 5486SOL    HW128094   4.511   4.504   5.271 -0.8062  0.3802 -0.0107
 5486SOL    HW228095   4.592   4.525   5.140  1.2669  2.2320 -0.3901
 5487SOL     OW28096   2.181   3.243   0.763  0.2647 -0.7042 -0.3482
 5487SOL    HW128097   2.201   3.214   0.852  1.0870  1.7249  0.2719
 5487SOL    HW228098   2.085   3.239   0.767  0.2104  0.5196 -0.2543
 5488SOL     OW28099   2.141   3.256  15.438  0.1796 -0.0303  0.0778
 5488SOL    HW128100   2.067   3.316  15.435  1.6645  1.8019 -0.5247
 5488SOL    HW228101   2.123   3.207  15.518 -1.1398 -2.6634 -1.8579
 5489SOL     OW28102   3.886   0.645  16.520 -0.4420  0.2520 -0.4448
 5489SOL    HW128103   3.882   0.583  16.448 -2.1103 -0.4784  0.2830
 5489SOL    HW228104   3.926   0.721  16.478 -1.0735  0.5682 -0.4735
 5490SOL     OW28105   4.126   0.161   8.008  0.3203 -0.1260 -0.4938
 5490SOL    HW128106   4.058   0.214   8.049 -0.0451  1.3627 -3.0355
 5490SOL    HW228107   4.160   0.107   8.080 -1.1044  0.9708  1.0193
 5491SOL     OW28108   2.436   0.400   8.138 -0.3332  0.1678 -0.1957
 5491SOL    HW128109   2.386   0.358   8.209 -1.9612  2.6954  0.1403
 5491SOL    HW228110   2.499   0.451   8.188 -1.7623 -0.1022  1.9151
 5492SOL     OW28111   4.729   3.265  12.618  0.2122  0.4915  0.1617
 5492SOL    HW128112   4.729   3.312  12.702  1.9926  1.7358 -0.5523
 5492SOL    HW228113   4.691   3.184  12.654 -0.4604  0.7913  0.1349
 5493SOL     OW28114   3.454   4.265  16.027  0.4815  0.3050 -0.8091
 5493SOL    HW128115   3.413   4.347  15.999  2.3875  2.0687  1.5222
 5493SOL    HW228116   3.427   4.209  15.954  0.7721  1.8779 -2.1194
 5494SOL     OW28117   4.002   2.053   3.600  0.2172  0.4380 -0.5314
 5494SOL    HW128118   4.050   2.131   3.628 -0.8096  0.2887  1.6168
 5494SOL    HW228119   4.028   1.997   3.673 -0.1432  0.8782 -0.0688
 5495SOL     OW28120   1.678   1.719   2.264 -0.6369  0.6568 -0.1189
 5495SOL    HW128121   1.691   1.804   2.222 -0.5392  0.5128 -0.3849
 5495SOL    HW228122   1.586   1.735   2.286 -1.5684 -1.0781 -2.6970
 5496SOL     OW28123   4.635   3.794   9.281  0.7562  0.6216 -0.3361
 5496SOL    HW128124   4.701   3.812   9.213  0.9553 -1.4133 -0.6731
 5496SOL    HW228125   4.655   3.866   9.341 -0.1116  1.9647 -1.6300
 5497SOL     OW28126   2.998   1.036  14.563 -0.1594  0.4079  0.4500
 5497SOL    HW128127   2.935   1.107  14.550  0.3712  0.7586 -0.2197
 5497SOL    HW228128   3.060   1.079  14.622  1.6767 -2.1535  0.3678
 5498SOL     OW28129   4.376   0.575   4.827 -0.6505  0.0566 -0.5222
 5498SOL    HW128130   4.290   0.547   4.795 -1.1969  1.4382 -0.2606
 5498SOL    HW228131   4.399   0.628   4.751 -0.8409 -0.6092 -1.0490
 5499SOL     OW28132   1.270   3.700   0.725  0.4296 -0.2322  0.1375
 5499SOL    HW128133   1.350   3.649   0.719  0.9705  0.4222  1.7140
 5499SOL    HW228134   1.299   3.775   0.674  1.9951  0.7206  2.4257
 5500SOL     OW28135   2.369   3.146   6.152 -0.1010  0.1708 -0.3202
 5500SOL    HW128136   2.373   3.145   6.056  1.4414  0.4406 -0.2653
 5500SOL    HW228137   2.425   3.222   6.169 -2.6145  1.4310  2.2359
 5501SOL     OW28138   0.053   4.622   6.481 -0.1542  0.1732 -0.1733
 5501SOL    HW128139   4.712   4.666   6.500  0.7236  0.6153  2.7395
 5501SOL    HW228140   0.105   4.628   6.562 -1.1438 -1.1611  0.5756
 5502SOL     OW28141   2.976   0.554  10.014  0.0270  0.0596 -0.0205
 5502SOL    HW128142   3.024   0.512  10.086 -0.4632 -1.1806 -0.4047
 5502SOL    HW228143   3.037   0.537   9.943 -0.5377  1.3769 -0.8032
 5503SOL     OW28144   2.842   4.609  15.125 -0.0297 -0.9195  0.2924
 5503SOL    HW128145   2.757   4.580  15.093 -1.7565  3.2873  0.9650
 5503SOL    HW228146   2.887   4.635  15.045 -2.3761  1.2647 -0.3366
 5504SOL     OW28147   3.611   2.304   6.597  0.3560 -0.0422 -0.4128
 5504SOL    HW128148   3.670   2.379   6.609 -0.8902  1.0164 -0.9958
 5504SOL    HW228149   3.621   2.291   6.503 -0.3631  0.5987 -0.5737
 5505SOL     OW28150   3.860   2.991   1.830 -0.4199  0.4730  0.1692
 5505SOL    HW128151   3.930   3.054   1.850 -0.9257  0.2836  2.4784
 5505SOL    HW228152   3.914   2.916   1.806 -1.2832  0.0337 -0.3540
 5506SOL     OW28153   4.229   3.271   7.720  0.3285 -0.3724 -0.5797
 5506SOL    HW128154   4.171   3.269   7.643 -2.3864 -1.3443  1.4779
 5506SOL    HW228155   4.163   3.310   7.778 -1.0347 -1.1788 -1.5763
 5507SOL     OW28156   1.977   2.840   1.151 -0.3530  0.6273  0.1226
 5507SOL    HW128157   1.940   2.814   1.067 -0.5945  2.7182 -0.4040
 5507SOL    HW228158   2.070   2.855   1.135 -0.4583 -0.4931 -1.4775
 5508SOL     OW28159   1.484   3.752   3.258  0.6926 -0.4351  0.3199
 5508SOL    HW128160   1.544   3.813   3.215  0.6971  0.0890  1.0758
 5508SOL    HW228161   1.512   3.676   3.207  0.5536 -2.4568  3.2855
 5509SOL     OW28162   2.092   1.801   4.018  0.4609  0.0848 -0.0358
 5509SOL    HW128163   2.061   1.762   4.100  0.8797 -0.6705 -0.2395
 5509SOL    HW228164   2.022   1.866   4.009  0.1220  0.0655  2.4111
 5510SOL     OW28165   2.770   0.272  12.664 -0.4728  0.0397  0.2035
 5510SOL    HW128166   2.714   0.271  12.742  0.1171 -0.4681  0.6214
 5510SOL    HW228167   2.802   0.362  12.666  1.1953 -0.5204 -1.1011
 5511SOL     OW28168   0.411   0.164   6.691  0.2845  0.1853 -0.8502
 5511SOL    HW128169   0.362   0.102   6.637 -1.7481  0.8113  0.2505
 5511SOL    HW228170   0.497   0.123   6.694 -0.2094 -0.6961  1.6332
 5512SOL     OW28171   3.003   1.217   7.261 -0.7587  0.6426  0.2170
 5512SOL    HW128172   3.044   1.222   7.174 -1.2925 -2.3551 -0.2038
 5512SOL    HW228173   2.965   1.302   7.282  0.8849  0.9422  1.8848
 5513SOL     OW28174   0.505   3.096   3.816 -0.0307 -0.7423 -0.2445
 5513SOL    HW128175   0.566   3.078   3.745 -1.6753 -3.1896 -1.0256
 5513SOL    HW228176   0.512   3.006   3.847 -2.2843 -1.4529 -1.7902
 5514SOL     OW28177   3.986   0.391  17.415 -0.0595 -0.2156  0.3634
 5514SOL    HW128178   3.996   0.483  17.391 -1.3195 -0.0237  0.5496
 5514SOL    HW228179   3.891   0.391  17.405 -0.1458 -1.0626  1.1575
 5515SOL     OW28180   3.325   0.392   2.929  0.1951  0.2788  0.0028
 5515SOL    HW128181   3.368   0.341   2.861 -1.5332 -0.3447 -0.6209
 5515SOL    HW228182   3.294   0.330   2.994  1.9390  0.1851  0.7534
 5516SOL     OW28183   2.839   1.402  15.515 -0.1493 -0.1497  0.2000
 5516SOL    HW128184   2.889   1.422  15.594  1.2029  2.8255 -1.4209
 5516SOL    HW228185   2.749   1.421  15.543 -0.0246 -0.5725  0.8997
 5517SOL     OW28186   2.509   4.653   1.151  0.6751  0.3713  0.0982
 5517SOL    HW128187   2.538   4.736   1.190 -1.0624  1.4139 -0.8307
 5517SOL    HW228188   2.578   4.650   1.084  0.0154 -1.9687 -0.5021
 5518SOL     OW28189   4.416   4.064  11.576 -0.1640 -0.6731 -0.0067
 5518SOL    HW128190   4.431   4.030  11.487 -0.0314  0.6337 -0.4888
 5518SOL    HW228191   4.502   4.041  11.610 -0.5646  1.1029  2.1666
 5519SOL     OW28192   0.922   4.322  13.971 -0.2333 -0.2869  0.1736
 5519SOL    HW128193   0.939   4.403  14.019 -1.7688 -0.3457  0.8333
 5519SOL    HW228194   0.834   4.338  13.937  0.8804  0.4817 -2.3730
 5520SOL     OW28195   3.137   0.892   1.612 -0.3685  0.1167  0.4891
 5520SOL    HW128196   3.102   0.973   1.649 -1.1395  0.5732 -1.2921
 5520SOL    HW228197   3.128   0.837   1.691 -2.9429 -1.9274 -1.2239
 5521SOL     OW28198   0.805   1.206   3.888  0.2921 -0.1618  0.0360
 5521SOL    HW128199   0.796   1.169   3.975 -1.4136  1.0490  0.3865
 5521SOL    HW228200   0.877   1.268   3.900  0.2171 -0.2937  1.1584
 5522SOL     OW28201   2.223   3.435  15.898  0.0507 -0.1779  0.0096
 5522SOL    HW128202   2.178   3.380  15.834  1.1649  0.5322 -1.4065
 5522SOL    HW228203   2.198   3.391  15.979  0.6484  0.2503  0.4227
 5523SOL     OW28204   2.202   2.947   8.099  0.0781  0.2740  0.0077
 5523SOL    HW128205   2.148   3.012   8.145  0.9809  0.7769  0.3751
 5523SOL    HW228206   2.257   3.003   8.043 -0.4712  0.2478 -0.5536
 5524SOL     OW28207   2.656   1.707   8.950 -0.5023  0.2560  0.2407
 5524SOL    HW128208   2.578   1.713   9.006 -0.8033 -0.5779 -0.1030
 5524SOL    HW228209   2.710   1.647   9.001  0.6982  0.9692 -0.1911
 5525SOL     OW28210   3.206   0.361  16.625  0.3823 -0.1421  0.2022
 5525SOL    HW128211   3.145   0.400  16.562 -1.5951 -2.1391  0.8865
 5525SOL    HW228212   3.226   0.437  16.679 -1.6304  0.1161  0.5583
 5526SOL     OW28213   2.678   4.670   5.950  0.0073  0.1212 -0.0128
 5526SOL    HW128214   2.638   4.671   5.863 -0.3969 -0.3537  0.1704
 5526SOL    HW228215   2.678   0.021   5.973  1.4749 -0.4533  2.3319
 5527SOL     OW28216   2.490   2.525  14.888  0.4543 -0.0134  0.4472
 5527SOL    HW128217   2.523   2.480  14.966  0.3459 -1.5942 -0.4130
 5527SOL    HW228218   2.568   2.563  14.849 -1.0374  1.9267 -0.6544
 5528SOL     OW28219   2.566   4.472  15.639  0.3346 -0.0542  0.1409
 5528SOL    HW128220   2.528   4.543  15.587 -0.1446  1.1729  2.2039
 5528SOL    HW228221   2.636   4.449  15.578  0.6477  0.1429  0.4272
 5529SOL     OW28222   0.312   1.877   5.996  0.1866 -0.1035 -0.0128
 5529SOL    HW128223   0.328   1.784   5.984  2.0979  0.0950  0.9264
 5529SOL    HW228224   0.398   1.903   5.962  0.5898 -1.5089 -0.0653
 5530SOL     OW28225   1.959   2.916   6.641 -0.0316  0.3052  0.5217
 5530SOL    HW128226   1.978   2.823   6.627 -1.3503 -0.0931  1.3217
 5530SOL    HW228227   1.996   2.964   6.568 -1.0566 -0.5015 -0.5239
 5531SOL     OW28228   4.370   0.660   2.129 -0.3125 -0.0856 -0.1968
 5531SOL    HW128229   4.397   0.673   2.039 -0.7300 -0.5917 -0.4012
 5531SOL    HW228230   4.441   0.701   2.178 -0.8887  0.6236  0.0356
 5532SOL     OW28231   3.319   1.395   6.619  0.5038  0.0057  0.0640
 5532SOL    HW128232   3.253   1.364   6.680  0.8584  1.3446  1.1376
 5532SOL    HW228233   3.277   1.387   6.533 -1.6444  1.2456  1.0035
 5533SOL     OW28234   3.305   3.801  16.346 -0.7916 -0.2264  0.1587
 5533SOL    HW128235   3.304   3.747  16.267 -0.8637  1.3175 -0.9089
 5533SOL    HW228236   3.299   3.892  16.316  1.7321 -0.5589 -1.3190
 5534SOL     OW28237   2.636   3.793  11.726 -0.3695  0.4322  0.4806
 5534SOL    HW128238   2.731   3.804  11.719 -0.3910 -0.0597 -0.6481
 5534SOL    HW228239   2.616   3.818  11.816 -2.3900 -0.0467  0.1615
 5535SOL     OW28240   3.489   1.910   8.494  0.1469 -0.2101 -0.5940
 5535SOL    HW128241   3.542   1.831   8.488 -3.2197 -2.5877  0.7583
 5535SOL    HW228242   3.483   1.923   8.589  0.1926 -1.8854 -0.3735
 5536SOL     OW28243   2.425   3.906   0.870  0.6242  0.3372  0.4728
 5536SOL    HW128244   2.495   3.847   0.844  1.8906  1.2063  1.8905
 5536SOL    HW228245   2.394   3.947   0.789 -0.7113  1.1315  1.3885
 5537SOL     OW28246   2.169   4.730   4.020 -0.0774 -0.0289  0.1061
 5537SOL    HW128247   2.209   0.073   4.035 -0.2883 -0.3169  2.2389
 5537SOL    HW228248   2.084   0.012   3.982  0.4876  0.9865 -0.5035
 5538SOL     OW28249   3.406   1.041  11.358 -0.0493  0.3739  0.1318
 5538SOL    HW128250   3.428   1.133  11.343  0.5330  0.0566 -0.9965
 5538SOL    HW228251   3.326   1.045  11.410 -2.4178 -1.3962 -3.3378
 5539SOL     OW28252   2.796   0.487   1.467 -0.7386  0.0376  0.0715
 5539SOL    HW128253   2.811   0.531   1.384 -1.5206  2.4233  1.2076
 5539SOL    HW228254   2.863   0.418   1.462 -0.9135 -0.0375 -1.2679
 5540SOL     OW28255   4.538   0.752   0.097  0.4120  0.3809 -0.9106
 5540SOL    HW128256   4.541   0.686   0.028 -0.3984  1.0673 -1.5962
 5540SOL    HW228257   4.443   0.743   0.106  0.6547  0.1819  1.4787
 5541SOL     OW28258   2.812   3.854   8.467 -0.2595  0.2775  0.2781
 5541SOL    HW128259   2.881   3.820   8.523 -0.9371  0.9646  1.5279
 5541SOL    HW228260   2.834   3.947   8.473  0.2350  0.0551  1.9683
 5542SOL     OW28261   1.437   0.542   4.022  0.4843  0.8455  0.1566
 5542SOL    HW128262   1.365   0.540   3.960  0.3832 -0.5506  0.3235
 5542SOL    HW228263   1.449   0.447   4.027 -1.7509  0.5422 -0.6920
 5543SOL     OW28264   3.804   4.169   2.414 -0.0330  0.4927 -0.4401
 5543SOL    HW128265   3.710   4.186   2.415  0.1516  1.4912  0.4451
 5543SOL    HW228266   3.828   4.216   2.334  0.0934 -0.2540 -0.8362
 5544SOL     OW28267   1.493   3.271   8.520  0.5859 -0.0553  0.0706
 5544SOL    HW128268   1.576   3.279   8.472 -1.4847  0.9570 -3.3429
 5544SOL    HW228269   1.491   3.178   8.541 -0.3316 -0.1119 -0.2899
 5545SOL     OW28270   1.577   3.964   3.128  0.7406  0.2519  0.4438
 5545SOL    HW128271   1.510   3.960   3.059  0.4761 -0.2209  0.7281
 5545SOL    HW228272   1.534   4.002   3.204  1.6031  1.1403  0.4906
 5546SOL     OW28273   1.750   2.859   1.971  0.3274 -0.3872 -0.5799
 5546SOL    HW128274   1.696   2.780   1.976  2.2131 -1.5834  0.8605
 5546SOL    HW228275   1.820   2.821   2.023 -0.8177 -0.4810  0.9172
 5547SOL     OW28276   2.794   2.653   6.063  0.2391  0.0960  0.1111
 5547SOL    HW128277   2.822   2.623   6.149  2.2929  0.3185 -0.4802
 5547SOL    HW228278   2.838   2.738   6.063  1.9035 -0.7729  1.6107
 5548SOL     OW28279   4.623   3.196   8.294  0.1462  0.2815 -0.2461
 5548SOL    HW128280   4.540   3.191   8.247  0.2694  0.6414 -0.5092
 5548SOL    HW228281   4.620   3.286   8.328 -2.0069 -0.4014  1.3536
 5549SOL     OW28282   2.792   4.117   8.521 -0.7262 -0.2966 -0.1732
 5549SOL    HW128283   2.775   4.152   8.608  1.7916  0.6635 -0.0605
 5549SOL    HW228284   2.852   4.180   8.481 -0.2126 -0.4604  0.3470
 5550SOL     OW28285   0.140   1.889  11.613 -0.0439 -0.0764 -0.0154
 5550SOL    HW128286   0.220   1.899  11.560 -1.2291 -1.1371 -1.9992
 5550SOL    HW228287   0.107   1.807  11.576  2.3266 -0.6628 -0.8574
 5551SOL     OW28288   2.996   1.344   0.849  0.1850 -0.1694 -0.1532
 5551SOL    HW128289   3.039   1.259   0.857  0.3759  0.3433  4.4554
 5551SOL    HW228290   2.905   1.314   0.842  0.2124 -0.1233 -0.7081
 5552SOL     OW28291   1.703   1.132   5.076  0.1968 -0.0898  0.2376
 5552SOL    HW128292   1.748   1.099   5.154 -0.4826 -2.5748 -0.4304
 5552SOL    HW228293   1.770   1.114   5.010  1.3707  3.9159  0.3249
 5553SOL     OW28294   3.846   3.691   5.615 -0.4392 -0.1296  0.1421
 5553SOL    HW128295   3.871   3.716   5.526  0.3210  0.6867  0.5806
 5553SOL    HW228296   3.930   3.678   5.658 -1.0004 -2.4953  0.4984
 5554SOL     OW28297   3.085   4.579   9.256  0.0452 -0.1520  1.1716
 5554SOL    HW128298   3.091   4.545   9.167  2.0652  2.4910  0.2885
 5554SOL    HW228299   3.109   4.670   9.240 -3.6471  0.6360  0.1774
 5555SOL     OW28300   1.464   0.278   4.015  0.3915 -0.0854 -0.5743
 5555SOL    HW128301   1.530   0.257   3.949  0.3796  1.4309 -1.0704
 5555SOL    HW228302   1.399   0.209   4.002 -1.6162  1.9425 -1.3615
 5556SOL     OW28303   1.277   3.519   5.887 -0.0115 -0.0328 -0.3871
 5556SOL    HW128304   1.362   3.562   5.892  1.1246 -2.1564 -1.7588
 5556SOL    HW228305   1.242   3.513   5.976 -2.1760  0.0568 -1.2225
 5557SOL     OW28306   0.391   2.640   5.927 -0.1778 -0.5891  0.3469
 5557SOL    HW128307   0.478   2.640   5.888 -0.0306  2.7652  0.7341
 5557SOL    HW228308   0.366   2.552   5.898  0.3061 -0.4120 -0.6204
 5558SOL     OW28309   2.221   3.005  15.234 -0.5789 -0.2863 -0.4387
 5558SOL    HW128310   2.167   3.074  15.196  0.5137  0.8612  0.0874
 5558SOL    HW228311   2.194   3.018  15.325  1.8055  1.7589 -0.0141
 5559SOL     OW28312   3.623   1.081   9.659  0.3342  0.3178  0.0270
 5559SOL    HW128313   3.582   1.161   9.691 -0.6287 -0.5707  1.0364
 5559SOL    HW228314   3.632   1.038   9.744 -2.3953 -0.9320 -0.2921
 5560SOL     OW28315   0.657   2.590   5.849  0.3524  0.2656  0.4114
 5560SOL    HW128316   0.652   2.535   5.771 -1.7092 -0.2386  0.8944
 5560SOL    HW228317   0.735   2.638   5.821 -0.0206  0.5817 -0.0736
 5561SOL     OW28318   3.454   0.603  10.241  0.4282 -0.3672 -0.0212
 5561SOL    HW128319   3.359   0.608  10.237  0.5093  1.5718  0.4011
 5561SOL    HW228320   3.468   0.625  10.334 -3.2651  2.2051 -0.0957
 5562SOL     OW28321   1.917   1.086   5.528 -0.0928  0.3220  0.1056
 5562SOL    HW128322   1.900   1.156   5.591 -0.9486 -0.7852  1.1239
 5562SOL    HW228323   2.012   1.085   5.520 -0.2597 -1.7730 -1.6761
 5563SOL     OW28324   1.143   3.575   1.711 -0.4663 -0.3604 -0.3698
 5563SOL    HW128325   1.083   3.504   1.687  0.7901 -0.8447 -2.1349
 5563SOL    HW228326   1.132   3.574   1.806 -3.6177  0.5471 -0.7233
 5564SOL     OW28327   3.670   0.053  12.910  0.0895 -0.5691  0.3841
 5564SOL    HW128328   3.741   0.045  12.974  1.9102 -0.1837 -1.5980
 5564SOL    HW228329   3.600   0.075  12.972  0.7545 -0.7599  1.2059
 5565SOL     OW28330   3.021   2.545  11.860  0.2644  0.5610  0.0827
 5565SOL    HW128331   2.976   2.624  11.829  0.5579  0.5192 -0.4431
 5565SOL    HW228332   3.106   2.551  11.816  0.0278 -0.1739 -0.4716
 5566SOL     OW28333   0.185   1.743  10.715  0.5559  0.0931  0.5819
 5566SOL    HW128334   0.190   1.717  10.807  1.4428 -2.3797 -0.1782
 5566SOL    HW228335   0.277   1.747  10.687  0.3758  1.2038  0.1424
 5567SOL     OW28336   3.363   4.217  10.529  0.8559 -0.0275  0.0450
 5567SOL    HW128337   3.420   4.293  10.520  1.2979 -0.5281 -1.4216
 5567SOL    HW228338   3.300   4.221  10.457  0.2809 -0.2946  0.5333
 5568SOL     OW28339   2.293   0.023   7.563  0.0450  0.4258 -0.2920
 5568SOL    HW128340   2.283   0.014   7.657  0.2924 -1.8934 -0.4795
 5568SOL    HW228341   2.298   0.118   7.566  0.0994  0.3890  0.6124
 5569SOL     OW28342   4.463   3.101  14.277  0.0034  0.3886 -0.1458
 5569SOL    HW128343   4.376   3.079  14.313  0.4920  0.0280  0.8147
 5569SOL    HW228344   4.451   3.100  14.182 -2.1554 -1.2615  0.1418
 5570SOL     OW28345   0.629   0.678   8.719  0.1269 -0.5874  0.0146
 5570SOL    HW128346   0.609   0.602   8.665  1.0079  0.2569 -1.4871
 5570SOL    HW228347   0.540   0.714   8.729 -0.2129 -1.1241 -1.1540
 5571SOL     OW28348   1.246   4.552  10.958  0.7522 -0.5355  0.5170
 5571SOL    HW128349   1.225   4.635  10.915  3.5353  0.5304  1.1796
 5571SOL    HW228350   1.289   4.513  10.881 -0.9001 -0.3919 -0.4688
 5572SOL     OW28351   1.500   4.207   4.402  0.0849 -0.0681  0.9106
 5572SOL    HW128352   1.417   4.181   4.444 -1.4234 -0.0691 -2.0926
 5572SOL    HW228353   1.519   4.137   4.340  0.2604 -0.6811  1.6582
 5573SOL     OW28354   0.592   0.716  11.453  0.3143 -0.1349  0.0991
 5573SOL    HW128355   0.670   0.669  11.423  0.7564  1.0062 -0.5283
 5573SOL    HW228356   0.552   0.737  11.369  0.8388  1.2903  0.2049
 5574SOL     OW28357   0.186   2.898   5.358 -0.0356  0.6384  0.6599
 5574SOL    HW128358   0.251   2.836   5.390  0.2467  1.1045  0.9944
 5574SOL    HW228359   0.217   2.977   5.403  0.8767  0.0439  1.0645
 5575SOL     OW28360   0.656   0.898   5.349 -0.0873 -0.3408 -0.2385
 5575SOL    HW128361   0.642   0.967   5.414 -0.0751 -0.7425  0.1848
 5575SOL    HW228362   0.614   0.826   5.394 -1.0732 -0.2303 -0.9781
 5576SOL     OW28363   0.296   0.435  10.149 -0.2643  0.2215 -0.5486
 5576SOL    HW128364   0.245   0.508  10.115 -0.0147  0.3694 -0.6047
 5576SOL    HW228365   0.358   0.422  10.078  0.0468  0.8535 -0.3868
 5577SOL     OW28366   4.278   3.684   3.787  0.4314 -0.5178 -0.3712
 5577SOL    HW128367   4.335   3.663   3.713 -0.4078 -0.3251 -1.0834
 5577SOL    HW228368   4.204   3.707   3.731  0.1663 -0.4839 -0.0045
 5578SOL     OW28369   3.733   1.692   6.543  0.4321  0.3845  0.0928
 5578SOL    HW128370   3.682   1.666   6.466 -0.1026  3.7766 -0.7149
 5578SOL    HW228371   3.821   1.657   6.528 -1.0908 -3.5386  0.5405
 5579SOL     OW28372   0.462   1.980   7.690 -0.1150 -0.6620  0.1548
 5579SOL    HW128373   0.513   1.933   7.755  0.7997  0.0597 -0.0524
 5579SOL    HW228374   0.485   2.067   7.721 -0.8551  0.4307 -2.3843
 5580SOL     OW28375   0.165   4.657   8.410  0.4938 -0.5973 -0.2382
 5580SOL    HW128376   0.229   4.590   8.433  0.9640  0.3098  1.0504
 5580SOL    HW228377   0.195   4.667   8.319 -1.1835  0.6560 -0.6478
 5581SOL     OW28378   4.054   4.206   6.545 -0.4030 -0.1670 -0.5087
 5581SOL    HW128379   4.092   4.126   6.509 -0.8245 -0.6144  0.0534
 5581SOL    HW228380   4.096   4.276   6.494 -2.5753  0.4437 -1.4576
 5582SOL     OW28381   4.317   3.720   5.842  0.1173 -0.4333  0.2959
 5582SOL    HW128382   4.359   3.802   5.815  1.8979 -1.5789 -0.3745
 5582SOL    HW228383   4.341   3.711   5.935  1.5742 -1.6522 -0.1938
 5583SOL     OW28384   2.440   4.488   2.725  0.8685  0.1314 -0.0644
 5583SOL    HW128385   2.348   4.491   2.697  1.6019 -2.2195 -2.6623
 5583SOL    HW228386   2.448   4.538   2.806  0.8653  0.5844 -0.3464
 5584SOL     OW28387   0.642   4.127   1.987  0.0494  0.0447  0.1344
 5584SOL    HW128388   0.548   4.133   1.968 -0.4415 -1.6994  2.0202
 5584SOL    HW228389   0.643   4.032   2.000  0.8458  0.3609  2.3272
 5585SOL     OW28390   2.629   0.853   2.378 -0.0647 -0.2917 -0.8284
 5585SOL    HW128391   2.686   0.777   2.372 -0.9334 -1.0227  0.1387
 5585SOL    HW228392   2.540   0.822   2.363 -0.2498 -1.1690  2.0325
 5586SOL     OW28393   2.240   3.440   3.854  0.1152  0.3269 -0.8458
 5586SOL    HW128394   2.243   3.368   3.917  1.1916  0.9312 -0.2198
 5586SOL    HW228395   2.310   3.493   3.892  0.5962 -1.0742  0.2012
 5587SOL     OW28396   2.199   2.151  15.299  0.0007 -0.1500  0.3056
 5587SOL    HW128397   2.172   2.242  15.303 -1.3525 -0.5104 -0.5639
 5587SOL    HW228398   2.115   2.106  15.290 -0.3901  0.5697  0.4042
 5588SOL     OW28399   3.846   0.914   3.254 -0.5849 -0.2999 -0.4125
 5588SOL    HW128400   3.777   0.847   3.254 -2.6321  1.7886 -3.3511
 5588SOL    HW228401   3.881   0.903   3.342 -0.3489 -2.4996 -0.7925
 5589SOL     OW28402   0.265   4.240   4.671 -0.0036 -0.1302 -0.5702
 5589SOL    HW128403   0.282   4.155   4.631  0.7887 -0.0552 -0.3824
 5589SOL    HW228404   0.179   4.226   4.710  0.2600 -2.5197 -0.8564
 5590SOL     OW28405   0.240   1.276   1.407  0.2997  0.5182 -0.0809
 5590SOL    HW128406   0.295   1.199   1.424 -1.1315 -1.1223 -3.0414
 5590SOL    HW228407   0.296   1.353   1.419  0.7882  0.2409 -0.6079
 5591SOL     OW28408   0.101   1.040   5.941 -0.4921 -0.2379 -0.4241
 5591SOL    HW128409   0.147   0.997   5.869 -1.4620  1.1156 -1.8601
 5591SOL    HW228410   0.071   1.117   5.893  1.4650  1.0418  0.4083
 5592SOL     OW28411   4.099   4.186   8.309  0.3454  0.4989  0.0134
 5592SOL    HW128412   4.158   4.143   8.247  1.1503 -0.2224  1.2716
 5592SOL    HW228413   4.154   4.246   8.358  0.7030  1.1344 -1.1659
 5593SOL     OW28414   0.218   3.456   7.709 -0.7553 -0.6189  0.2854
 5593SOL    HW128415   0.218   3.400   7.786  0.7915 -1.6259 -0.4311
 5593SOL    HW228416   0.156   3.414   7.649 -0.4361 -0.1603 -0.3637
 5594SOL     OW28417   0.948   0.152   4.487  0.2387 -0.2295  0.4368
 5594SOL    HW128418   0.920   0.060   4.492  1.8313 -0.6312  2.2776
 5594SOL    HW228419   0.923   0.174   4.397 -1.8269 -1.9761  0.5611
 5595SOL     OW28420   0.071   0.372   6.252  0.3008  0.1426 -0.1231
 5595SOL    HW128421   0.048   0.296   6.200 -0.8668  1.1492 -1.0859
 5595SOL    HW228422   0.161   0.385   6.222  1.2202  1.1538  3.0516
 5596SOL     OW28423   2.996   1.181   5.658 -0.9196 -0.5093 -0.3376
 5596SOL    HW128424   3.045   1.105   5.629 -1.6367 -0.7089 -1.0069
 5596SOL    HW228425   3.006   1.253   5.595  1.6292 -0.8079 -0.2957
 5597SOL     OW28426   4.161   1.624  14.517 -0.3318  0.1926  0.7191
 5597SOL    HW128427   4.088   1.647  14.460  0.4350 -0.8832 -0.7126
 5597SOL    HW228428   4.139   1.532  14.531 -1.4706  0.4026  0.2904
 5598SOL     OW28429   0.512   3.319  15.056 -0.8901 -0.1202  0.0372
 5598SOL    HW128430   0.588   3.352  15.104 -0.0489 -1.5278 -0.3302
 5598SOL    HW228431   0.450   3.379  15.096 -0.9651 -0.6058  0.6524
 5599SOL     OW28432   2.800   2.447  11.745 -0.0006 -0.7353 -0.2350
 5599SOL    HW128433   2.878   2.427  11.797  0.4685  0.8610 -0.3368
 5599SOL    HW228434   2.754   2.499  11.811  3.1171  0.7858  0.7774
 5600SOL     OW28435   2.652   4.554   8.555 -0.3554 -0.4430  0.0477
 5600SOL    HW128436   2.596   4.480   8.532 -1.0923 -0.0054  0.4385
 5600SOL    HW228437   2.667   4.607   8.476  0.4196 -0.8484 -0.0771
 5601SOL     OW28438   3.137   3.983  17.105  0.2777 -0.1878 -0.2848
 5601SOL    HW128439   3.163   4.074  17.119 -0.4153 -0.0668  0.2371
 5601SOL    HW228440   3.221   3.938  17.097  0.9072  0.7712  0.9163
 5602SOL     OW28441   1.015   1.965  11.398 -0.2587  0.1952 -0.7186
 5602SOL    HW128442   1.091   1.985  11.451 -0.3971 -0.2864 -0.3402
 5602SOL    HW228443   1.055   1.969  11.311  0.2267  3.2489 -0.3558
 5603SOL     OW28444   1.215   1.282   8.369  0.5211 -0.3445 -0.3142
 5603SOL    HW128445   1.210   1.276   8.274  1.6590  1.0470 -0.4688
 5603SOL    HW228446   1.305   1.309   8.389  1.5903 -3.4179 -0.9899
 5604SOL     OW28447   1.279   3.925   5.266  0.2634  0.1903 -0.2321
 5604SOL    HW128448   1.339   3.934   5.191  2.6938  1.1924  1.8373
 5604SOL    HW228449   1.341   3.917   5.338 -0.5511  1.5866  0.6077
 5605SOL     OW28450   2.542   2.318  11.989 -0.2719 -0.1803  0.1743
 5605SOL    HW128451   2.590   2.255  11.936 -0.5545 -0.3768  0.1491
 5605SOL    HW228452   2.613   2.380  12.003 -1.3320  1.0425  0.1310
 5606SOL     OW28453   3.933   4.497   2.570 -0.1913  0.4890 -0.1544
 5606SOL    HW128454   3.889   4.425   2.616  2.3270 -1.6175 -0.9958
 5606SOL    HW228455   4.023   4.472   2.595 -0.6829  0.9000  1.9968
 5607SOL     OW28456   0.754   3.335   7.937  0.5758 -0.8791 -0.2005
 5607SOL    HW128457   0.784   3.421   7.967 -0.4892 -0.6504  0.2342
 5607SOL    HW228458   0.702   3.358   7.860 -2.2464 -2.2220  1.3176
 5608SOL     OW28459   1.656   2.522  16.042  0.1345  0.0567  0.4031
 5608SOL    HW128460   1.725   2.549  16.103  1.4546 -2.0830 -0.1322
 5608SOL    HW228461   1.687   2.435  16.017  0.5119  0.6487 -1.2162
 5609SOL     OW28462   3.746   3.359   5.737  0.0905 -0.1433 -0.3568
 5609SOL    HW128463   3.657   3.351   5.772  0.0478  3.9237  0.4284
 5609SOL    HW228464   3.781   3.428   5.794 -2.9248  0.9670  0.1561
 5610SOL     OW28465   1.783   2.173  16.318  0.1197 -0.3306 -0.2558
 5610SOL    HW128466   1.752   2.101  16.263 -0.9678  1.6735 -2.2859
 5610SOL    HW228467   1.703   2.224  16.325  0.4961  0.4766 -1.7061
 5611SOL     OW28468   3.010   3.826   0.839  0.0005 -0.4699 -0.1827
 5611SOL    HW128469   3.047   3.740   0.860  1.0498 -0.3134 -1.3626
 5611SOL    HW228470   2.919   3.799   0.832  0.2122 -0.0549 -4.3797
 5612SOL     OW28471   2.575   1.265   7.969 -0.0365  0.2629 -0.4844
 5612SOL    HW128472   2.508   1.259   8.036  1.2274 -0.7117  0.7017
 5612SOL    HW228473   2.609   1.352   7.987 -1.4364  0.6034  0.4790
 5613SOL     OW28474   0.457   2.559   3.220  0.4206 -0.0199 -0.0129
 5613SOL    HW128475   0.506   2.528   3.144  1.0199 -0.7441  0.6672
 5613SOL    HW228476   0.526   2.617   3.252 -0.5793  0.5209  1.1610
 5614SOL     OW28477   1.656   4.468   1.948 -0.4186 -0.6890  0.1644
 5614SOL    HW128478   1.744   4.458   1.984 -1.1845 -3.9774  1.1153
 5614SOL    HW228479   1.637   4.376   1.930 -0.4788 -0.7544  0.5689
 5615SOL     OW28480   0.510   0.907   8.907  0.1863 -0.1439 -0.3037
 5615SOL    HW128481   0.437   0.845   8.905 -0.9667  1.1911 -0.6562
 5615SOL    HW228482   0.469   0.987   8.942 -0.1419 -1.6164  2.6405
 5616SOL     OW28483   2.853   1.410   0.205  0.0163 -0.0981 -0.4418
 5616SOL    HW128484   2.898   1.325   0.207  0.2490  0.0150 -0.7646
 5616SOL    HW228485   2.886   1.440   0.120  2.0212 -0.2109  0.2838
 5617SOL     OW28486   1.075   2.859  11.123 -0.3462  0.4605 -0.2061
 5617SOL    HW128487   0.983   2.844  11.146 -0.0187 -3.8742 -1.6149
 5617SOL    HW228488   1.074   2.942  11.075  0.0553  1.4682  1.5449
 5618SOL     OW28489   4.655   0.655   9.025  0.4405  0.5700 -0.1509
 5618SOL    HW128490   4.654   0.571   8.978 -1.9422  0.7887 -0.5390
 5618SOL    HW228491   4.660   0.721   8.955 -2.6755  0.4573 -0.4819
 5619SOL     OW28492   2.040   4.356   5.652 -0.1436 -0.1418  0.1609
 5619SOL    HW128493   2.084   4.433   5.688 -0.2673 -0.4424  0.9528
 5619SOL    HW228494   2.103   4.284   5.657 -2.3694 -2.2202 -1.8239
 5620SOL     OW28495   0.368   1.249   2.202  0.3829  0.2906 -0.2529
 5620SOL    HW128496   0.420   1.328   2.185  1.7994 -1.0401 -2.0337
 5620SOL    HW228497   0.300   1.266   2.266  0.1541 -0.4786 -0.2960
 5621SOL     OW28498   2.081   4.631  11.926 -0.0531 -0.2464 -0.2498
 5621SOL    HW128499   1.993   4.650  11.892  0.4200  1.2154 -0.6586
 5621SOL    HW228500   2.065   4.607  12.017  0.1513 -2.3637 -0.7662
 5622SOL     OW28501   0.181   4.037   3.518 -0.5041  0.4853  0.5431
 5622SOL    HW128502   0.201   4.114   3.572 -1.1878  2.0551 -1.4259
 5622SOL    HW228503   0.101   4.013   3.565 -0.7785 -1.3605 -0.8949
 5623SOL     OW28504   1.963   1.943   7.580 -0.5650  0.3683 -0.6377
 5623SOL    HW128505   1.929   2.023   7.618  0.2424 -0.0480  0.9809
 5623SOL    HW228506   1.937   1.966   7.491  1.5367 -0.6713 -1.5308
 5624SOL     OW28507   3.108   4.022   1.778  0.0137 -0.0650 -0.3945
 5624SOL    HW128508   3.029   4.003   1.829 -0.1214  1.0550 -0.1877
 5624SOL    HW228509   3.158   3.962   1.834 -0.1591 -0.4126 -0.6078
 5625SOL     OW28510   1.354   2.623   5.544  0.3847  0.1640 -0.1519
 5625SOL    HW128511   1.401   2.633   5.462 -1.7972  2.7745 -1.0834
 5625SOL    HW228512   1.406   2.677   5.603  1.3278  1.3703 -2.1366
 5626SOL     OW28513   4.689   0.569   7.782 -0.0021 -0.3531 -0.3311
 5626SOL    HW128514   4.634   0.624   7.839  0.4420 -1.5379  1.2560
 5626SOL    HW228515   4.662   0.594   7.694  2.0425 -0.2554 -0.9291
 5627SOL     OW28516   2.093   2.785   9.358 -0.1338 -0.1429  0.8500
 5627SOL    HW128517   2.146   2.734   9.419  0.7376 -0.0472  0.1792
 5627SOL    HW228518   2.134   2.757   9.276  2.3032 -0.9615  2.3591
 5628SOL     OW28519   1.058   0.437   7.896 -0.4099 -0.1339 -0.3399
 5628SOL    HW128520   1.013   0.411   7.977 -0.0500  0.3785  0.0278
 5628SOL    HW228521   1.128   0.371   7.900  0.1629  0.5272  0.6403
 5629SOL     OW28522   0.145   3.227  16.677  0.1017 -0.1612 -0.4635
 5629SOL    HW128523   0.152   3.220  16.773  2.1929  2.6253 -0.4169
 5629SOL    HW228524   0.133   3.137  16.649 -2.6133  0.3352 -0.8929
 5630SOL     OW28525   4.340   0.023   9.074 -0.0190  0.0167  0.4654
 5630SOL    HW128526   4.400   0.087   9.112 -0.4028  1.9304 -2.1279
 5630SOL    HW228527   4.261   0.077   9.070 -0.8857 -1.2459  0.6233
 5631SOL     OW28528   0.047   2.755  15.592 -0.3092 -0.0194  0.3678
 5631SOL    HW128529   4.699   2.757  15.559 -0.0494  2.3048 -0.2225
 5631SOL    HW228530   0.032   2.812  15.668 -0.4693 -0.1815  0.4568
 5632SOL     OW28531   0.685   3.600   7.896  0.6686  0.1542 -0.1292
 5632SOL    HW128532   0.595   3.628   7.911  0.8338  0.1242  0.9065
 5632SOL    HW228533   0.696   3.617   7.802  1.2065 -2.0400 -0.4735
 5633SOL     OW28534   4.665   4.543   3.292 -0.9320  0.0679 -0.2779
 5633SOL    HW128535   4.610   4.474   3.331  0.2488  0.9745  3.0389
 5633SOL    HW228536   4.697   4.495   3.216 -3.4641 -0.4794 -0.9972
 5634SOL     OW28537   2.580   0.022   9.029 -0.4679  0.4426 -0.1920
 5634SOL    HW128538   2.557   4.731   8.942 -2.0773 -0.1067  0.4296
 5634SOL    HW228539   2.520   4.722   9.092  0.6870 -0.1285  0.5269
 5635SOL     OW28540   3.449   3.494  12.519 -0.2126  0.5204 -0.0591
 5635SOL    HW128541   3.470   3.586  12.502  2.4571 -0.8101 -3.8416
 5635SOL    HW228542   3.376   3.510  12.580 -0.9050 -1.0353 -0.4734
 5636SOL     OW28543   4.730   2.624   5.097  0.3473 -0.0659 -0.2094
 5636SOL    HW128544   0.043   2.702   5.087 -0.7985  1.1169  2.4939
 5636SOL    HW228545   4.704   2.638   5.188 -2.4404  2.5926 -1.4125
 5637SOL     OW28546   4.270   2.410   2.486 -0.3796 -0.0034  0.2349
 5637SOL    HW128547   4.175   2.414   2.476 -0.3244  0.8329  0.0890
 5637SOL    HW228548   4.281   2.345   2.417  0.0976  2.5655 -2.1100
 5638SOL     OW28549   1.887   3.318   8.767  0.3502  0.0744  0.0425
 5638SOL    HW128550   1.802   3.278   8.786  0.8341 -0.5262  0.8981
 5638SOL    HW228551   1.880   3.338   8.673 -1.2641 -4.0297 -0.7229
 5639SOL     OW28552   4.358   1.219   8.327  0.4767  0.1179  0.1318
 5639SOL    HW128553   4.301   1.194   8.254 -1.1385 -0.1850  1.4971
 5639SOL    HW228554   4.296   1.275   8.373 -0.6990  0.1069 -1.4597
 5640SOL     OW28555   0.683   1.464   6.301  0.1315 -0.3130  0.3470
 5640SOL    HW128556   0.600   1.493   6.263  0.0465  0.1310  0.8781
 5640SOL    HW228557   0.739   1.468   6.223 -2.8662  1.5908 -1.7470
 5641SOL     OW28558   0.957   2.770   9.001  0.4510  0.2951  0.2092
 5641SOL    HW128559   0.977   2.781   9.094 -1.9969  1.3745  0.5978
 5641SOL    HW228560   0.982   2.855   8.964  1.3696  0.9427  2.3045
 5642SOL     OW28561   4.565   0.156   6.202  0.1319  0.0670  0.3237
 5642SOL    HW128562   4.499   0.224   6.217  0.0701 -1.1329  5.4252
 5642SOL    HW228563   4.515   0.081   6.236 -1.3784  0.2156 -1.5753
 5643SOL     OW28564   0.149   0.228  11.616  0.2497 -0.1296  0.0587
 5643SOL    HW128565   0.206   0.285  11.668  3.2763 -3.8574  0.8329
 5643SOL    HW228566   0.060   0.250  11.643 -0.1665 -1.0097 -0.5960
 5644SOL     OW28567   3.514   2.934   1.107  0.0310  0.5519 -0.4271
 5644SOL    HW128568   3.525   2.880   1.185 -0.5709  1.5811  0.3755
 5644SOL    HW228569   3.596   2.966   1.069 -0.6151  2.4015 -0.2514
 5645SOL     OW28570   0.070   4.149   7.610  0.0556  0.0561  0.0570
 5645SOL    HW128571   0.154   4.192   7.591 -0.5346  1.6691  1.0595
 5645SOL    HW228572   0.017   4.229   7.600  0.7957  0.6463  0.8250
 5646SOL     OW28573   0.880   2.193   3.723 -0.0284 -0.0164  0.8094
 5646SOL    HW128574   0.900   2.195   3.817 -2.1746 -2.1865  1.3136
 5646SOL    HW228575   0.786   2.209   3.736 -0.1644  0.5311 -0.8477
 5647SOL     OW28576   2.489   2.630   2.512 -0.5011  0.2051 -0.4863
 5647SOL    HW128577   2.417   2.569   2.499 -0.3598 -0.1583  0.4340
 5647SOL    HW228578   2.570   2.580   2.498 -1.2031 -1.7983  2.4693
 5648SOL     OW28579   1.151   2.333   6.760 -0.3959 -0.2903  0.1866
 5648SOL    HW128580   1.156   2.428   6.747  0.5507 -0.5888 -1.6319
 5648SOL    HW228581   1.072   2.323   6.814 -1.0855  2.1455 -0.3640
 5649SOL     OW28582   2.362   0.956   6.505  0.5847 -0.0468 -0.8475
 5649SOL    HW128583   2.316   0.938   6.587  2.0099  0.9844  0.1697
 5649SOL    HW228584   2.453   0.930   6.517  0.8315  0.6969 -1.1019
 5650SOL     OW28585   2.323   3.828   2.482  0.0068  0.7490  0.2283
 5650SOL    HW128586   2.279   3.826   2.567 -1.0861  0.0138 -0.3650
 5650SOL    HW228587   2.346   3.737   2.466 -1.8665  0.4850 -0.9490
 5651SOL     OW28588   1.651   4.655  14.340  0.6774 -0.2469  0.4303
 5651SOL    HW128589   1.597   4.576  14.342 -1.0679  0.9381  1.8684
 5651SOL    HW228590   1.600   4.715  14.396 -2.6094 -2.1929 -0.4627
 5652SOL     OW28591   3.563   3.415  14.878 -0.8579  0.2725  0.1905
 5652SOL    HW128592   3.538   3.461  14.958 -2.0180  1.3035 -0.7589
 5652SOL    HW228593   3.657   3.402  14.886 -1.2333 -3.4586 -1.1864
 5653SOL     OW28594   4.127   3.699   4.876 -0.2503 -0.0913 -0.1072
 5653SOL    HW128595   4.068   3.652   4.818 -0.3748 -0.2936  0.1846
 5653SOL    HW228596   4.208   3.707   4.825  0.5988  0.6562  1.3765
 5654SOL     OW28597   2.117   0.061   2.281  0.4187 -0.0449  0.2495
 5654SOL    HW128598   2.095   0.154   2.286  0.6074  0.0695 -0.9818
 5654SOL    HW228599   2.191   0.064   2.220 -0.9955  0.3976 -1.4717
 5655SOL     OW28600   3.417   2.665  11.125 -0.0590 -0.3228 -0.5797
 5655SOL    HW128601   3.333   2.706  11.144 -0.2455 -2.7233  3.7076
 5655SOL    HW228602   3.424   2.679  11.031 -2.4374 -2.1641 -1.0342
 5656SOL     OW28603   0.985   1.539   4.900 -0.1789  0.3165  0.3344
 5656SOL    HW128604   0.972   1.594   4.823 -1.7274 -0.4879  0.0203
 5656SOL    HW228605   1.043   1.599   4.947 -0.9312  2.3263 -1.2968
 5657SOL     OW28606   3.744   1.596   9.908  0.6871 -0.0252  0.0505
 5657SOL    HW128607   3.738   1.581  10.002  2.0374  1.2006  0.3377
 5657SOL    HW228608   3.703   1.516   9.874  0.0415  0.3073  0.0376
 5658SOL     OW28609   3.628   4.531  11.938 -0.4367 -0.3521  0.0618
 5658SOL    HW128610   3.637   4.451  11.887 -0.0108  0.3179 -0.9216
 5658SOL    HW228611   3.657   4.492  12.020 -0.4635  1.0545  0.7384
 5659SOL     OW28612   2.622   1.998   7.448 -0.4404 -0.4482 -0.0059
 5659SOL    HW128613   2.542   2.017   7.498  0.7541 -2.2941  2.6433
 5659SOL    HW228614   2.632   2.075   7.393  0.4173  0.2306  1.1180
 5660SOL     OW28615   4.085   0.535   3.043 -0.0311 -0.8714  0.1899
 5660SOL    HW128616   4.127   0.619   3.061  1.4681 -1.6039  0.1459
 5660SOL    HW228617   4.121   0.521   2.955  1.3748 -0.1738  0.6567
 5661SOL     OW28618   4.367   0.775  10.492  0.2182 -0.2499  0.4871
 5661SOL    HW128619   4.450   0.736  10.519 -0.1839 -0.4856  1.3992
 5661SOL    HW228620   4.337   0.708  10.431 -0.5120  0.1906  0.3614
 5662SOL     OW28621   1.843   0.619  10.476 -0.6829 -0.1316 -0.3654
 5662SOL    HW128622   1.817   0.573  10.396 -2.2042  2.0243 -1.1087
 5662SOL    HW228623   1.869   0.707  10.445 -0.0968 -0.3849 -0.6058
 5663SOL     OW28624   2.840   2.866   7.345  0.1641 -0.7704  0.2234
 5663SOL    HW128625   2.761   2.915   7.367  1.3247  2.2317 -2.3380
 5663SOL    HW228626   2.844   2.791   7.404 -0.8958 -1.2372 -0.2987
 5664SOL     OW28627   1.097   3.209   4.431 -0.0253 -0.1189  0.7635
 5664SOL    HW128628   1.111   3.217   4.337  1.2382 -0.8710  0.8925
 5664SOL    HW228629   1.012   3.166   4.437  0.4865 -1.4848 -1.6734
 5665SOL     OW28630   0.461   3.160   5.225 -0.7706  0.1774 -0.1998
 5665SOL    HW128631   0.539   3.164   5.280  2.0924  0.3602 -4.3289
 5665SOL    HW228632   0.392   3.146   5.290  0.5115  0.3415  1.2016
 5666SOL     OW28633   0.688   1.043  11.986 -0.6204 -0.4694 -0.2866
 5666SOL    HW128634   0.649   0.969  12.033 -3.5314  0.6648 -0.9394
 5666SOL    HW228635   0.771   1.057  12.032 -1.6288 -0.3815  1.4943
 5667SOL     OW28636   2.251   2.097   9.725  0.1631 -0.1849  0.2676
 5667SOL    HW128637   2.158   2.107   9.703  0.1474 -0.7035  0.0787
 5667SOL    HW228638   2.283   2.187   9.725  1.1649 -0.5381 -1.0328
 5668SOL     OW28639   1.996   2.805   5.017 -0.1098 -0.2258  0.3854
 5668SOL    HW128640   2.013   2.896   4.991 -0.7952 -0.4710 -0.9392
 5668SOL    HW228641   1.946   2.764   4.946 -1.0231 -1.7003  1.8846
 5669SOL     OW28642   3.278   2.420   1.812  0.2677 -0.3410 -0.4242
 5669SOL    HW128643   3.257   2.498   1.864 -3.1013 -0.0711 -2.2314
 5669SOL    HW228644   3.274   2.455   1.723 -0.5144 -0.4364 -0.4233
 5670SOL     OW28645   3.048   3.668   2.368  0.0255  0.5876 -0.1438
 5670SOL    HW128646   2.980   3.684   2.434 -2.9481  1.2941 -3.3444
 5670SOL    HW228647   3.058   3.574   2.379  1.1375  0.7930  0.5902
 5671SOL     OW28648   0.721   3.705   5.356 -0.2165 -0.8742 -0.0804
 5671SOL    HW128649   0.761   3.790   5.337 -0.9163 -0.1641  1.6939
 5671SOL    HW228650   0.799   3.656   5.382 -0.2055 -1.0829 -0.5081
 5672SOL     OW28651   1.377   2.889   3.879  0.1763 -0.3180  0.5050
 5672SOL    HW128652   1.381   2.968   3.934 -3.2636 -0.6159  1.1484
 5672SOL    HW228653   1.300   2.847   3.916  1.3726 -1.8679  1.2165
 5673SOL     OW28654   1.653   1.978   2.135 -0.1753  0.1873 -0.2432
 5673SOL    HW128655   1.731   2.022   2.102  0.2844 -0.1830  0.3578
 5673SOL    HW228656   1.602   1.969   2.055  0.3505 -0.3936 -0.5068
 5674SOL     OW28657   4.440   0.454   5.616  0.0088 -0.3141  0.0752
 5674SOL    HW128658   4.464   0.403   5.539 -1.0144  0.1384 -0.5397
 5674SOL    HW228659   4.469   0.404   5.692  0.5895  2.6835  1.8281
 5675SOL     OW28660   1.244   4.468   0.240 -0.0803  0.1415  0.0019
 5675SOL    HW128661   1.257   4.560   0.216  0.7473 -0.4747 -1.9607
 5675SOL    HW228662   1.313   4.439   0.300 -0.5192  0.5934  0.7216
 5676SOL     OW28663   0.683   4.415   4.440  0.0680  0.1316 -0.2516
 5676SOL    HW128664   0.648   4.365   4.515  0.7287 -0.9256 -0.6423
 5676SOL    HW228665   0.731   4.348   4.391 -1.2927 -1.0748  0.0794
 5677SOL     OW28666   0.378   3.007   7.220  0.2300 -0.1554 -0.1056
 5677SOL    HW128667   0.385   3.101   7.204  0.6175 -0.2651 -0.5905
 5677SOL    HW228668   0.353   3.004   7.313  0.4104  3.2797  0.0559
 5678SOL     OW28669   3.545   2.452   1.972 -0.0911  0.1903  0.3389
 5678SOL    HW128670   3.491   2.396   1.917 -0.8343  0.3997  0.8557
 5678SOL    HW228671   3.496   2.528   2.004 -0.2542  1.5426 -3.1464
 5679SOL     OW28672   0.307   1.684  11.447  0.6296  0.0204 -0.2543
 5679SOL    HW128673   0.395   1.717  11.462  0.7924  0.4123 -2.0789
 5679SOL    HW228674   0.331   1.607  11.394 -0.6419  0.7339 -1.8817
 5680SOL     OW28675   0.030   1.410   4.492 -0.5461 -0.3231 -0.0024
 5680SOL    HW128676   0.106   1.430   4.547  0.8204  0.7168 -2.2750
 5680SOL    HW228677   0.070   1.437   4.409 -0.4655  0.7555  0.3821
 5681SOL     OW28678   3.913   2.122   9.933  0.4970  0.5304  0.3584
 5681SOL    HW128679   3.988   2.108   9.875 -1.6398  1.4236 -2.6031
 5681SOL    HW228680   3.932   2.212   9.960  2.4486 -0.7121  3.1564
 5682SOL     OW28681   2.710   3.513  10.949  0.5698  0.7028 -0.5123
 5682SOL    HW128682   2.739   3.422  10.952 -0.6482  0.3519  0.5922
 5682SOL    HW228683   2.644   3.524  10.881 -0.0391  2.5905  0.3775
 5683SOL     OW28684   2.732   3.420  15.559  0.3514 -0.5496  0.1135
 5683SOL    HW128685   2.730   3.426  15.654  1.6952 -2.2084  0.2330
 5683SOL    HW228686   2.766   3.505  15.531 -0.9130  0.7396  2.5000
 5684SOL     OW28687   1.004   2.235   5.097  0.2739  0.1210  0.7171
 5684SOL    HW128688   0.938   2.167   5.115  0.3195 -0.4421 -1.2046
 5684SOL    HW228689   1.071   2.226   5.164  1.7888 -0.5865 -0.8929
 5685SOL     OW28690   0.901   4.279   8.312 -0.5467 -0.2069 -0.1647
 5685SOL    HW128691   0.924   4.367   8.341 -2.8226  0.3193  0.0365
 5685SOL    HW228692   0.887   4.297   8.219 -0.7125 -2.0749 -0.5125
 5686SOL     OW28693   3.956   0.793  11.314 -0.0646  0.4246 -0.0595
 5686SOL    HW128694   3.958   0.846  11.393  0.2288  0.7098 -0.2596
 5686SOL    HW228695   4.028   0.834  11.266 -2.5740  0.2707 -3.9929
 5687SOL     OW28696   0.900   2.631  12.761  0.8225  0.7491 -0.0641
 5687SOL    HW128697   0.805   2.638  12.767  0.6768 -1.5175  0.3353
 5687SOL    HW228698   0.920   2.720  12.788  0.2198  0.8896 -0.0924
 5688SOL     OW28699   0.470   2.455  11.289  0.3484  0.0190  0.1014
 5688SOL    HW128700   0.518   2.383  11.248 -1.4182 -0.9554 -0.2310
 5688SOL    HW228701   0.422   2.488  11.214  0.2118 -0.3962  0.0073
 5689SOL     OW28702   1.581   4.091  17.198  0.5158 -0.9328 -0.1259
 5689SOL    HW128703   1.488   4.100  17.176  0.0200 -1.5647  1.7147
 5689SOL    HW228704   1.593   4.175  17.243 -2.7036 -1.9304  2.5654
 5690SOL     OW28705   0.210   4.603   2.223  0.0971 -0.4362 -0.0565
 5690SOL    HW128706   0.242   4.628   2.310 -0.8006 -0.1298  0.1843
 5690SOL    HW228707   0.186   4.691   2.193 -2.8928 -0.6122  1.8454
 5691SOL     OW28708   3.210   2.762   5.743 -0.3419  0.5502  0.0266
 5691SOL    HW128709   3.242   2.672   5.742 -0.3847  0.5387 -0.3129
 5691SOL    HW228710   3.288   2.809   5.770  0.1937 -1.2978  1.7636
 5692SOL     OW28711   2.109   1.311  12.161 -0.3741  0.2206 -0.7016
 5692SOL    HW128712   2.051   1.235  12.166  2.1404 -1.6873 -0.6455
 5692SOL    HW228713   2.050   1.381  12.188 -1.7864 -0.8926 -0.9295
 5693SOL     OW28714   3.792   1.392   9.004 -0.0524 -0.0368 -0.2360
 5693SOL    HW128715   3.774   1.392   9.098 -0.0420  0.5608 -0.2288
 5693SOL    HW228716   3.878   1.435   8.998 -0.7937  1.4180 -0.3497
 5694SOL     OW28717   3.440   0.436  13.203 -0.7657  0.3172 -0.2319
 5694SOL    HW128718   3.379   0.510  13.193  1.4734  2.0034 -1.3735
 5694SOL    HW228719   3.517   0.493  13.205 -1.0290  0.8352 -5.1295
 5695SOL     OW28720   0.009   0.840  12.887 -0.4500  0.2691  0.1592
 5695SOL    HW128721   0.088   0.890  12.866  0.5464 -1.5992 -0.5280
 5695SOL    HW228722   0.035   0.795  12.968  0.5837 -2.2260 -1.5329
 5696SOL     OW28723   0.955   0.802   8.847 -0.1996  0.4135 -0.0338
 5696SOL    HW128724   1.008   0.785   8.926  1.4328 -0.0704 -1.2303
 5696SOL    HW228725   0.872   0.809   8.894 -1.0633  2.2293 -1.8296
 5697SOL     OW28726   2.873   2.195   4.196 -0.3129 -0.0645  0.2218
 5697SOL    HW128727   2.947   2.146   4.160 -1.6482 -1.0985 -1.1406
 5697SOL    HW228728   2.874   2.276   4.145 -0.2131 -0.1323  0.1153
 5698SOL     OW28729   2.202   3.062   4.006  0.1364  0.5579 -0.4210
 5698SOL    HW128730   2.169   3.115   3.933  1.2406  0.0383 -1.2994
 5698SOL    HW228731   2.228   3.135   4.062  0.5878  0.7165 -0.8351
 5699SOL     OW28732   1.374   1.793   0.679  0.5781  0.3792 -0.0100
 5699SOL    HW128733   1.396   1.810   0.588 -3.1049 -0.1256 -0.9873
 5699SOL    HW228734   1.415   1.866   0.724 -0.4938  0.7492  0.3818
 5700SOL     OW28735   1.395   1.725   7.608 -0.8914 -0.5951  0.3979
 5700SOL    HW128736   1.490   1.718   7.617 -0.8467  0.1516  0.5152
 5700SOL    HW228737   1.382   1.631   7.607 -2.4992 -0.3646 -0.5570
 5701SOL     OW28738   3.588   1.488   1.533  0.2134  0.2215  0.6089
 5701SOL    HW128739   3.622   1.482   1.444  0.6647 -3.0922  1.0004
 5701SOL    HW228740   3.517   1.552   1.534  0.6778  0.7169  1.7712
 5702SOL     OW28741   1.834   3.461   2.486 -0.3359 -0.0010  0.0692
 5702SOL    HW128742   1.774   3.430   2.554 -0.4914  0.1344 -0.0062
 5702SOL    HW228743   1.860   3.543   2.529  1.7681 -1.4832  1.6484
 5703SOL     OW28744   0.230   3.294   7.939 -0.0758 -0.0964 -0.3055
 5703SOL    HW128745   0.161   3.257   7.995  1.0022  0.0332  1.1238
 5703SOL    HW228746   0.283   3.322   8.014 -0.6952  0.1156  0.0552
 5704SOL     OW28747   3.432   1.819   4.774 -0.8771 -0.3248  0.6761
 5704SOL    HW128748   3.403   1.802   4.864 -0.4461 -2.9263  0.3064
 5704SOL    HW228749   3.360   1.864   4.730  0.2030  2.0444  1.3327
 5705SOL     OW28750   2.492   2.443   8.717  0.3232 -0.1111  0.1449
 5705SOL    HW128751   2.398   2.426   8.705  0.2166  1.1511 -0.7697
 5705SOL    HW228752   2.507   2.512   8.653  0.6411  0.2414  0.6036
 5706SOL     OW28753   3.547   3.669   4.098 -0.6545 -0.3022  0.7342
 5706SOL    HW128754   3.551   3.760   4.128  0.6076  0.0377 -0.4513
 5706SOL    HW228755   3.486   3.675   4.025 -1.4158 -1.8388  1.2283
 5707SOL     OW28756   1.815   3.589   2.176 -0.1279  0.5614 -0.4734
 5707SOL    HW128757   1.826   3.499   2.206 -1.0332  0.1738 -1.2676
 5707SOL    HW228758   1.774   3.571   2.091 -2.4376 -1.8606  1.1118
 5708SOL     OW28759   1.837   4.655   6.359 -0.3194 -0.6550  0.3177
 5708SOL    HW128760   1.922   4.634   6.320 -0.8924 -1.5046 -0.4617
 5708SOL    HW228761   1.807   4.721   6.297 -1.2652 -0.2456  1.2166
 5709SOL     OW28762   0.350   2.915   6.864 -0.1708 -0.0232  0.7162
 5709SOL    HW128763   0.304   2.836   6.834  2.5200 -1.0693 -0.6781
 5709SOL    HW228764   0.280   2.974   6.891  0.0695  1.4151 -1.8659
 5710SOL     OW28765   0.610   4.390   3.744  0.1055  0.0617 -0.4086
 5710SOL    HW128766   0.624   4.312   3.691 -0.0614  0.3045 -0.8193
 5710SOL    HW228767   0.516   4.396   3.725 -0.0710 -1.3684  0.0223
 5711SOL     OW28768   1.093   0.933  10.441  0.3095  0.5701 -0.1595
 5711SOL    HW128769   1.074   0.969  10.527 -2.5655 -0.3359 -0.4302
 5711SOL    HW228770   1.184   0.904  10.453  0.0717 -0.6565 -1.2778
 5712SOL     OW28771   4.697   2.394   8.747 -0.0273 -0.5117 -0.3079
 5712SOL    HW128772   0.036   2.399   8.798 -0.0486  1.0235 -0.4415
 5712SOL    HW228773   4.661   2.482   8.759 -0.7061 -0.6584 -1.3317
 5713SOL     OW28774   3.369   1.591   1.421  0.0853  0.1151  0.2669
 5713SOL    HW128775   3.275   1.608   1.425  0.0167  0.4140 -2.6466
 5713SOL    HW228776   3.390   1.571   1.330 -0.4174 -0.0604  0.1939
 5714SOL     OW28777   3.382   0.843   4.165 -0.4932 -0.4768  0.5813
 5714SOL    HW128778   3.313   0.875   4.107 -0.7926 -2.0621  0.0673
 5714SOL    HW228779   3.366   0.885   4.250 -3.0073 -2.4142  1.0810
 5715SOL     OW28780   3.127   2.867   5.149  0.4912 -0.2659  0.2051
 5715SOL    HW128781   3.063   2.797   5.140  0.4896 -0.1843 -0.3745
 5715SOL    HW228782   3.195   2.818   5.195  0.0646 -1.9182 -0.9461
 5716SOL     OW28783   1.977   3.239   1.307 -0.3878 -0.1410  0.0795
 5716SOL    HW128784   1.884   3.229   1.324  0.0051 -1.0180  1.7630
 5716SOL    HW228785   2.009   3.152   1.333 -1.7932 -0.9868 -1.0455
 5717SOL     OW28786   3.839   4.091  15.170  0.6872 -0.4902  0.3055
 5717SOL    HW128787   3.863   4.141  15.092 -0.1095 -0.3860  0.1287
 5717SOL    HW228788   3.774   4.033  15.133 -0.6843  1.4717 -0.3810
 5718SOL     OW28789   2.867   3.566   1.839  0.6210  0.0837 -0.1459
 5718SOL    HW128790   2.822   3.626   1.898  0.3308  0.1189 -0.4008
 5718SOL    HW228791   2.836   3.487   1.882  0.2531  0.3109  0.0062
 5719SOL     OW28792   4.064   3.405   4.562  0.3727  0.2464  0.6461
 5719SOL    HW128793   4.110   3.326   4.590  0.7888  0.3255  0.1864
 5719SOL    HW228794   4.081   3.409   4.468  0.0046 -0.1249  0.5692
 5720SOL     OW28795   3.856   2.932  12.398 -0.2489 -0.1299  0.4612
 5720SOL    HW128796   3.948   2.958  12.394 -0.6703  1.2674 -0.4180
 5720SOL    HW228797   3.807   2.990  12.457 -0.9436  0.1768 -0.4063
 5721SOL     OW28798   4.256   1.322   6.422 -0.0662  0.1768  0.0194
 5721SOL    HW128799   4.163   1.310   6.444 -0.6356  2.1758 -1.2621
 5721SOL    HW228800   4.254   1.378   6.344 -1.9917 -0.2418 -0.2457
 5722SOL     OW28801   2.086   3.749  11.008 -0.4865  0.2393  0.2370
 5722SOL    HW128802   2.026   3.720  11.077 -0.4946 -0.3967 -0.0439
 5722SOL    HW228803   2.045   3.718  10.928  0.4280 -1.9088  0.6204
 5723SOL     OW28804   0.326   1.189  16.043 -0.0837 -0.0106  0.5156
 5723SOL    HW128805   0.304   1.264  16.099 -1.2573  0.5257 -0.6515
 5723SOL    HW228806   0.313   1.228  15.956  1.1000  1.5190  1.0248
 5724SOL     OW28807   0.392   3.325   0.382  0.2548 -0.1688  0.0220
 5724SOL    HW128808   0.400   3.245   0.434  1.6317 -0.5154 -0.7235
 5724SOL    HW228809   0.389   3.308   0.288  0.6066 -2.5077  0.4279
 5725SOL     OW28810   1.132   1.038  13.579 -0.4235 -0.3372  0.5762
 5725SOL    HW128811   1.179   1.121  13.574 -1.2859  0.1140 -0.0233
 5725SOL    HW228812   1.150   1.006  13.491  0.3953 -0.1330  0.6712
 5726SOL     OW28813   2.448   0.341   2.712  0.0790  0.1120  0.2765
 5726SOL    HW128814   2.530   0.346   2.763  1.4612  1.4421 -2.0671
 5726SOL    HW228815   2.411   0.256   2.732  0.4296 -0.1176 -0.0554
 5727SOL     OW28816   2.301   2.351   6.822  0.5382  0.4594  0.3110
 5727SOL    HW128817   2.222   2.400   6.845  0.2015  0.0579  0.0276
 5727SOL    HW228818   2.316   2.379   6.731 -1.5917 -1.2436 -0.5555
 5728SOL     OW28819   0.760   0.104   2.521 -0.0799  0.0373 -0.4430
 5728SOL    HW128820   0.824   0.173   2.538 -1.0876  0.8400  0.1205
 5728SOL    HW228821   0.795   0.093   2.432  3.1918  0.8906  0.7313
 5729SOL     OW28822   3.053   4.024   8.323 -0.3875  0.1352 -0.2840
 5729SOL    HW128823   3.069   4.117   8.306 -2.0155  0.4361 -0.1992
 5729SOL    HW228824   3.074   4.010   8.416  1.9903  1.0966 -0.6683
 5730SOL     OW28825   4.142   1.172   7.367 -0.1412  0.1980  0.2028
 5730SOL    HW128826   4.194   1.248   7.341  2.3511 -1.9178 -1.0104
 5730SOL    HW228827   4.199   1.128   7.430  0.1281  1.5108  0.8922
 5731SOL     OW28828   2.755   3.158   5.947 -0.2000  0.6056  0.0205
 5731SOL    HW128829   2.782   3.067   5.936 -0.8021 -0.0290  3.7904
 5731SOL    HW228830   2.775   3.175   6.039  2.7916 -0.9560 -0.3469
 5732SOL     OW28831   0.641   3.902   8.406  0.0704  0.4359  0.5385
 5732SOL    HW128832   0.734   3.921   8.392  0.5150 -2.8315 -0.8342
 5732SOL    HW228833   0.614   3.969   8.469 -0.3819 -0.5560  1.4023
 5733SOL     OW28834   2.634   0.490   7.381 -0.3598 -0.0790 -0.0917
 5733SOL    HW128835   2.652   0.579   7.412 -0.9187  0.2017 -0.5805
 5733SOL    HW228836   2.548   0.469   7.419 -0.5302  0.0147 -0.4302
 5734SOL     OW28837   1.418   1.666   1.901  0.4277 -0.2383 -0.2933
 5734SOL    HW128838   1.421   1.616   1.982  0.1355 -0.2783 -0.3089
 5734SOL    HW228839   1.499   1.632   1.862  0.7431  1.7097 -1.3571
 5735SOL     OW28840   3.669   1.934  10.694  0.6500 -0.2177  0.0051
 5735SOL    HW128841   3.604   1.865  10.678 -0.2338  0.0257  2.5194
 5735SOL    HW228842   3.737   1.895  10.639  1.9190 -0.2209  1.5810
 5736SOL     OW28843   0.173   4.627   1.223  0.2724 -0.3523 -0.6485
 5736SOL    HW128844   0.113   4.557   1.248  1.0199 -0.4268  0.9224
 5736SOL    HW228845   0.252   4.579   1.248 -0.6332 -0.4257  2.0393
 5737SOL     OW28846   1.546   2.201   9.476  0.2472  0.1811 -0.4047
 5737SOL    HW128847   1.593   2.158   9.404  0.7693  0.2002 -0.0783
 5737SOL    HW228848   1.460   2.210   9.436 -0.2804 -2.0020  0.2071
 5738SOL     OW28849   0.394   3.928   4.449  0.1728  0.1622  0.0005
 5738SOL    HW128850   0.380   3.903   4.540 -1.8563  0.8669 -0.1343
 5738SOL    HW228851   0.303   3.939   4.423 -0.2379 -0.8233  1.0299
 5739SOL     OW28852   1.798   2.625   2.731  0.7351 -0.2611 -0.6147
 5739SOL    HW128853   1.840   2.603   2.648 -2.1349 -0.4422 -2.0269
 5739SOL    HW228854   1.764   2.539   2.755 -0.4947  0.3035 -0.3037
 5740SOL     OW28855   0.856   2.673   5.700  0.0766  0.2027  0.9083
 5740SOL    HW128856   0.879   2.742   5.638 -1.9040  1.7774  1.9286
 5740SOL    HW228857   0.944   2.638   5.709 -1.3195 -3.1020  1.7778
 5741SOL     OW28858   0.271   4.524   3.870  0.0153 -0.3921  0.0239
 5741SOL    HW128859   0.276   4.460   3.941  1.4245 -0.5944 -0.2624
 5741SOL    HW228860   0.185   4.565   3.883  1.2432  2.1061  0.2818
 5742SOL     OW28861   2.892   1.418   6.966  0.0285  0.1947 -0.0429
 5742SOL    HW128862   2.843   1.337   6.983 -1.7884  0.8917 -2.0017
 5742SOL    HW228863   2.841   1.484   7.014  0.3011  0.4743 -0.1424
 5743SOL     OW28864   4.047   3.838  11.549  0.0785  0.5590  0.1103
 5743SOL    HW128865   4.026   3.874  11.635 -0.4887  1.7996 -0.5439
 5743SOL    HW228866   4.082   3.916  11.506 -0.4448  1.0902  0.6428
 5744SOL     OW28867   3.090   0.656   1.766 -0.8461 -0.0810  0.4988
 5744SOL    HW128868   2.994   0.647   1.768 -0.8694  0.2812  1.1945
 5744SOL    HW228869   3.108   0.594   1.695  1.1704  0.9652  0.1174
 5745SOL     OW28870   2.081   4.308   7.690  0.4191  0.6936 -0.5919
 5745SOL    HW128871   2.083   4.386   7.744  3.0262 -0.5137  1.0545
 5745SOL    HW228872   2.174   4.289   7.691  0.3516  0.3780 -0.3370
 5746SOL     OW28873   2.866   0.575   3.758  0.3068 -0.3283 -0.0813
 5746SOL    HW128874   2.921   0.585   3.681  1.7969 -0.1543  1.0140
 5746SOL    HW228875   2.927   0.610   3.823 -1.2093  1.5355  0.3110
 5747SOL     OW28876   3.717   2.036   7.328 -0.3080  1.3720 -0.9626
 5747SOL    HW128877   3.781   2.094   7.369 -2.0954  0.9240  2.4961
 5747SOL    HW228878   3.774   1.964   7.299 -0.8434  0.6779 -0.3051
 5748SOL     OW28879   0.242   1.086  14.988 -0.3600 -0.0728  0.2261
 5748SOL    HW128880   0.232   1.068  15.082 -1.3990  0.4753  0.2147
 5748SOL    HW228881   0.179   1.156  14.970  0.4345  0.7142  0.4597
 5749SOL     OW28882   3.536   3.763  12.346 -1.0346 -0.1035  0.5903
 5749SOL    HW128883   3.587   3.723  12.276  1.6807 -0.0708  2.5654
 5749SOL    HW228884   3.470   3.809  12.293  0.2039  0.9747  0.0040
 5750SOL     OW28885   3.991   1.679   7.851 -0.2741  0.0388  0.6163
 5750SOL    HW128886   3.954   1.691   7.764 -0.5537  2.3631  1.0710
 5750SOL    HW228887   4.073   1.640   7.820 -0.4615 -0.9758  1.3906
 5751SOL     OW28888   4.377   1.891   4.503 -0.3270  0.4827 -0.4903
 5751SOL    HW128889   4.454   1.918   4.552 -0.7099  0.8079 -0.0750
 5751SOL    HW228890   4.299   1.939   4.528  0.4369  1.1778  0.5410
 5752SOL     OW28891   0.959   2.781   9.762 -0.4531 -0.7561  0.5351
 5752SOL    HW128892   1.037   2.751   9.809 -2.6707 -4.2486  1.9805
 5752SOL    HW228893   0.939   2.703   9.711  0.2714 -2.4533  2.8164
 5753SOL     OW28894   3.391   3.387   8.146  0.1346 -0.0331 -0.0227
 5753SOL    HW128895   3.300   3.416   8.140  0.1823  0.4747  1.5707
 5753SOL    HW228896   3.379   3.320   8.214 -1.6889  0.7149  0.4032
 5754SOL     OW28897   1.929   2.292   4.375  1.2468  0.6321  0.2419
 5754SOL    HW128898   2.005   2.238   4.356  1.2273  1.4520 -2.2126
 5754SOL    HW228899   1.869   2.255   4.310  0.3533  1.2432  0.7052
 5755SOL     OW28900   1.440   2.916   2.146  0.2845 -0.4010  0.1445
 5755SOL    HW128901   1.437   2.820   2.146 -1.4272 -0.3490 -1.1757
 5755SOL    HW228902   1.503   2.925   2.218  0.2520  1.3688 -0.0612
 5756SOL     OW28903   1.538   1.415  16.800 -0.2588 -0.0493 -0.6405
 5756SOL    HW128904   1.494   1.429  16.716 -1.1772  0.8791 -0.0020
 5756SOL    HW228905   1.531   1.501  16.842 -1.8410 -1.1613  1.3441
 5757SOL     OW28906   3.489   1.122   5.915 -0.3408 -0.1998 -0.1388
 5757SOL    HW128907   3.560   1.153   5.860 -1.4586  0.3740 -1.2512
 5757SOL    HW228908   3.425   1.190   5.894  0.1153 -0.1372 -1.2933
 5758SOL     OW28909   0.414   4.540   1.280 -0.0753 -0.1384  0.3244
 5758SOL    HW128910   0.429   4.502   1.367  0.5410  0.2837  0.4031
 5758SOL    HW228911   0.471   4.485   1.227  0.0823  0.8693 -0.5413
 5759SOL     OW28912   2.664   0.486   6.516  0.1510 -0.0764 -0.1980
 5759SOL    HW128913   2.644   0.402   6.475  0.5891  0.1864 -0.9516
 5759SOL    HW228914   2.707   0.464   6.599 -0.8982 -1.0145  0.0919
 5760SOL     OW28915   2.384   3.886  17.250 -0.3977  0.0600 -0.0706
 5760SOL    HW128916   2.423   3.863  17.166 -1.5581  1.4725 -0.9974
 5760SOL    HW228917   2.307   3.933  17.217 -0.4146  0.7858  1.0100
 5761SOL     OW28918   1.047   3.346  12.077  0.5139 -0.1860 -0.5207
 5761SOL    HW128919   1.114   3.292  12.036  0.4381 -1.2955  0.8325
 5761SOL    HW228920   1.069   3.427  12.031 -1.3105 -1.0226 -2.8322
 5762SOL     OW28921   2.595   0.448   1.254  0.2343 -0.2048 -0.2008
 5762SOL    HW128922   2.620   0.484   1.169  1.3734 -0.1599  0.1486
 5762SOL    HW228923   2.649   0.501   1.313 -3.8404  1.3905  2.1258
 5763SOL     OW28924   0.028   4.041   9.336  0.1668  0.3960 -0.2531
 5763SOL    HW128925   4.716   4.066   9.261  1.2618 -1.1589 -1.5466
 5763SOL    HW228926   0.111   4.033   9.290  0.4237  0.3654  0.2160
 5764SOL     OW28927   0.930   1.092  10.617  0.3482  0.2062  0.3690
 5764SOL    HW128928   1.013   1.140  10.613  0.2640  0.3354  0.1068
 5764SOL    HW228929   0.862   1.144  10.573 -1.6659 -2.0606  0.8321
 5765SOL     OW28930   0.508   3.857   3.780  0.2234 -0.7590 -0.5520
 5765SOL    HW128931   0.491   3.777   3.829  0.8916 -0.1251  0.7218
 5765SOL    HW228932   0.597   3.826   3.762  0.8258  0.3380  0.4895
 5766SOL     OW28933   3.836   1.171  11.094  0.1551  0.1593 -0.7956
 5766SOL    HW128934   3.820   1.093  11.148 -1.7491 -0.2300 -1.9504
 5766SOL    HW228935   3.886   1.227  11.154  0.6224 -0.0587 -0.9812
 5767SOL     OW28936   2.286   1.507   7.491 -0.5868 -0.1096  0.7675
 5767SOL    HW128937   2.291   1.456   7.572 -0.5453 -1.1428  0.1012
 5767SOL    HW228938   2.280   1.437   7.427  0.7679  0.2093  0.2947
 5768SOL     OW28939   4.478   3.085   0.974  0.0086  0.1565  0.3704
 5768SOL    HW128940   4.539   3.148   0.936 -0.1589 -0.3828 -0.7989
 5768SOL    HW228941   4.435   3.124   1.050  1.1481  1.4831  0.3256
 5769SOL     OW28942   4.475   3.004   6.501 -0.4340  0.3413 -1.1276
 5769SOL    HW128943   4.569   2.985   6.504 -0.5269  0.2700  1.1057
 5769SOL    HW228944   4.441   2.932   6.448 -0.5631 -0.3370 -0.1020
 5770SOL     OW28945   0.907   3.385  15.954  0.5692 -0.0609 -0.2243
 5770SOL    HW128946   0.890   3.302  15.909 -0.5494 -0.2350  0.5010
 5770SOL    HW228947   0.882   3.441  15.881  0.7860 -0.1676 -0.3799
 5771SOL     OW28948   1.207   1.355  10.025 -0.4265  0.4230 -0.5716
 5771SOL    HW128949   1.125   1.336  10.070  0.8076  1.2344  2.0418
 5771SOL    HW228950   1.207   1.275   9.972  0.1947  0.8856 -1.2655
 5772SOL     OW28951   0.549   4.528  12.768  0.2838 -0.6492  0.1848
 5772SOL    HW128952   0.550   4.622  12.786  0.6504 -0.9159  1.6154
 5772SOL    HW228953   0.605   4.505  12.842 -0.8169 -0.3049  1.1287
 5773SOL     OW28954   3.241   2.096   2.647  0.3874 -0.0205 -0.1421
 5773SOL    HW128955   3.231   2.185   2.614  1.4879  0.0281 -0.3439
 5773SOL    HW228956   3.267   2.052   2.566  0.1797 -1.9096  0.8163
 5774SOL     OW28957   0.873   1.552  13.565 -0.0793 -0.3484 -0.0238
 5774SOL    HW128958   0.913   1.466  13.570 -1.6870 -0.9294  3.0960
 5774SOL    HW228959   0.936   1.604  13.615 -0.7087  1.5346 -1.1539
 5775SOL     OW28960   4.162   2.377   1.216 -0.6366 -0.2418  0.6340
 5775SOL    HW128961   4.255   2.380   1.236 -0.6956 -1.4972  1.0804
 5775SOL    HW228962   4.159   2.435   1.140  0.7470 -0.4502  0.4249
 5776SOL     OW28963   4.294   2.321   2.073 -0.3262  0.4304  0.8176
 5776SOL    HW128964   4.207   2.281   2.073  0.0077 -0.3078  1.9911
 5776SOL    HW228965   4.345   2.240   2.079 -1.2921 -0.3389 -1.7257
 5777SOL     OW28966   3.954   4.019  13.679  0.3784 -0.3791 -0.4228
 5777SOL    HW128967   4.036   3.989  13.719 -0.1019  0.1875  0.9767
 5777SOL    HW228968   3.984   4.026  13.588  0.7137  0.8887 -0.2030
 5778SOL     OW28969   1.306   4.060  16.845 -0.0591 -0.4876 -0.2550
 5778SOL    HW128970   1.235   4.010  16.803 -1.7301  2.1323 -0.5739
 5778SOL    HW228971   1.382   4.047  16.789 -0.7642  0.4125 -1.4332
 5779SOL     OW28972   4.592   0.012   9.882  0.5699  0.0543 -0.3013
 5779SOL    HW128973   4.594   0.036   9.789 -0.9611 -1.1212 -0.6426
 5779SOL    HW228974   4.634   4.668   9.877  1.2521  0.3265  0.8774
 5780SOL     OW28975   1.510   2.939   1.861  0.2894  0.4323 -0.0994
 5780SOL    HW128976   1.606   2.944   1.864  0.2665  1.2962 -0.8234
 5780SOL    HW228977   1.487   2.925   1.953  0.1609 -0.3691 -0.2603
 5781SOL     OW28978   0.197   0.926   5.716  0.3210  0.4466  0.6913
 5781SOL    HW128979   0.289   0.944   5.693  1.4070 -3.0075  2.4178
 5781SOL    HW228980   0.175   0.889   5.631  0.9918  0.7640  0.3731
 5782SOL     OW28981   3.049   3.671   5.115 -0.5029  0.0915 -0.4847
 5782SOL    HW128982   3.089   3.740   5.062 -0.2786  0.1544 -0.2321
 5782SOL    HW228983   3.125   3.617   5.138  0.1602  0.8463 -0.8762
 5783SOL     OW28984   4.593   0.816   9.997  0.0271  0.0550 -0.2646
 5783SOL    HW128985   4.510   0.822  10.043  0.1271 -0.2012 -0.0444
 5783SOL    HW228986   4.626   0.904  10.011 -1.2702  0.3332  0.9955
 5784SOL     OW28987   4.030   1.164   6.171  0.3592  0.0132 -0.4198
 5784SOL    HW128988   4.113   1.168   6.124  1.0069  1.1300  0.8047
 5784SOL    HW228989   4.007   1.076   6.142 -0.5342  0.1272 -0.0689
 5785SOL     OW28990   4.727   1.916   7.732 -0.6163 -0.2233  0.3156
 5785SOL    HW128991   0.030   1.946   7.812 -0.8935  1.2213 -0.0686
 5785SOL    HW228992   0.024   1.974   7.667 -1.2238  0.7806  0.8481
 5786SOL     OW28993   3.879   4.592   9.727  0.3318 -0.4303  0.3814
 5786SOL    HW128994   3.819   4.581   9.652 -0.3108 -0.2340  0.8665
 5786SOL    HW228995   3.958   4.601   9.674  0.8003 -0.6069  1.0604
 5787SOL     OW28996   3.504   0.136  12.405 -0.6038  0.2881 -0.8673
 5787SOL    HW128997   3.499   0.226  12.436 -1.7891 -0.1313  0.2111
 5787SOL    HW228998   3.459   0.095  12.480  1.8986 -0.5256  0.1922
 5788SOL     OW28999   1.778   3.846   2.301  0.2129  0.1720  0.2036
 5788SOL    HW129000   1.819   3.764   2.275  1.4402  1.8105 -2.9315
 5788SOL    HW229001   1.770   3.882   2.213  3.7635  2.4157  0.8016
 5789SOL     OW29002   3.627   0.469   3.184  0.1617 -0.0213 -0.0775
 5789SOL    HW129003   3.557   0.416   3.221  1.1251  0.2306  2.0897
 5789SOL    HW229004   3.663   0.421   3.109 -0.6293 -0.5916 -0.0909
 5790SOL     OW29005   0.100   2.211   5.417 -0.4169 -0.1012 -0.6421
 5790SOL    HW129006   0.151   2.132   5.401  1.6502  1.3968 -1.4933
 5790SOL    HW229007   0.148   2.272   5.361 -0.1407 -0.6124 -0.9612
 5791SOL     OW29008   3.028   0.408   5.764  0.1186  0.5802 -0.6429
 5791SOL    HW129009   3.103   0.468   5.769  2.1700 -2.0597  0.2194
 5791SOL    HW229010   3.070   0.326   5.790 -1.8515 -0.1037  0.4007
 5792SOL     OW29011   0.140   1.740  13.095 -0.7201 -0.3146  0.3076
 5792SOL    HW129012   0.060   1.766  13.048 -0.6222  0.0455  0.3393
 5792SOL    HW229013   0.151   1.820  13.145  1.2097 -0.1095 -0.4575
 5793SOL     OW29014   3.601   4.471   8.046  0.3208  0.6631  0.0107
 5793SOL    HW129015   3.666   4.402   8.063  0.0601  0.0938 -1.2951
 5793SOL    HW229016   3.600   4.459   7.951  0.6738 -0.5473  0.1583
 5794SOL     OW29017   0.738   1.906   8.121 -0.1671  0.2037  0.1495
 5794SOL    HW129018   0.718   1.893   8.028 -1.4829 -0.3291  0.5036
 5794SOL    HW229019   0.705   1.995   8.129 -1.1107  0.0855 -2.4077
 5795SOL     OW29020   0.249   1.537   3.237 -0.2982  0.2958 -0.3690
 5795SOL    HW129021   0.162   1.514   3.204 -0.6841 -0.3496  1.0767
 5795SOL    HW229022   0.273   1.606   3.176 -0.3442 -0.2165 -0.9642
 5796SOL     OW29023   4.048   0.699   9.059 -0.2312 -0.2555  0.4706
 5796SOL    HW129024   4.112   0.663   9.120  2.2648  1.2380 -1.2604
 5796SOL    HW229025   4.116   0.733   9.000 -0.6840 -0.7401 -0.3262
 5797SOL     OW29026   0.151   0.775  11.980 -0.3127 -0.2127  0.1753
 5797SOL    HW129027   0.148   0.720  12.058 -4.1324 -1.8382 -1.1060
 5797SOL    HW229028   0.224   0.835  11.998 -0.3516  0.1422 -0.8666
 5798SOL     OW29029   3.931   3.921   6.807  0.4560  0.5965  0.2087
 5798SOL    HW129030   3.967   3.854   6.749  2.1313  1.9396 -0.2884
 5798SOL    HW229031   4.012   3.953   6.845  0.8488  1.4997 -1.4262
 5799SOL     OW29032   0.402   1.634   8.566  0.0543 -0.2231 -0.2796
 5799SOL    HW129033   0.353   1.712   8.541  1.4198  0.0338 -2.2197
 5799SOL    HW229034   0.490   1.666   8.586  0.6663 -1.8180 -0.4315
 5800SOL     OW29035   2.825   0.430   4.161 -0.6121  0.3266 -0.1163
 5800SOL    HW129036   2.803   0.508   4.110 -1.0555  0.6505  0.5774
 5800SOL    HW229037   2.750   0.375   4.138  1.2210 -1.9525 -0.6699
 5801SOL     OW29038   4.167   4.229  12.573  0.4524  0.1708 -0.0828
 5801SOL    HW129039   4.105   4.214  12.645 -1.2707  1.7542 -1.2407
 5801SOL    HW229040   4.169   4.139  12.543  1.4073  0.2291 -0.1832
 5802SOL     OW29041   3.007   0.582   2.195  0.6815 -0.3209 -0.2529
 5802SOL    HW129042   3.014   0.640   2.119 -0.8172  0.5019  0.2474
 5802SOL    HW229043   3.034   0.507   2.143  2.2316  0.7682 -1.0308
 5803SOL     OW29044   2.943   2.817   4.326 -0.5895  0.3039  0.0031
 5803SOL    HW129045   3.022   2.768   4.302  0.7534  1.3809  2.2615
 5803SOL    HW229046   2.883   2.792   4.256  0.7506 -0.9593 -0.7061
 5804SOL     OW29047   2.046   2.534   9.834 -0.2389 -0.1716 -0.5805
 5804SOL    HW129048   2.002   2.617   9.814  1.9612  1.6281  2.0947
 5804SOL    HW229049   2.033   2.513   9.926  0.0262  0.6845 -0.3512
 5805SOL     OW29050   2.105   0.746   3.013  0.5040  0.5636 -0.1945
 5805SOL    HW129051   2.112   0.659   2.972 -0.5897  0.3135  0.1593
 5805SOL    HW229052   2.011   0.750   3.030 -0.0505 -1.0874 -2.7330
 5806SOL     OW29053   3.635   1.855   9.182 -0.2097  0.7173  0.1335
 5806SOL    HW129054   3.689   1.826   9.255  1.1606 -3.8018 -2.6215
 5806SOL    HW229055   3.685   1.926   9.142 -1.9646  1.7806 -0.1503
 5807SOL     OW29056   4.234   4.180  15.349 -0.0477  0.2845  0.2213
 5807SOL    HW129057   4.250   4.100  15.299 -0.4063 -0.3501  1.1016
 5807SOL    HW229058   4.292   4.164  15.424  0.8252 -0.0196 -0.5196
 5808SOL     OW29059   0.923   1.619   3.455 -0.1480  0.3817 -0.1065
 5808SOL    HW129060   0.876   1.676   3.516 -2.8090 -2.9672  0.9718
 5808SOL    HW229061   0.849   1.564   3.427  1.3345 -1.5601 -0.2246
 5809SOL     OW29062   3.029   3.710   2.762  0.0612  0.1810 -0.3251
 5809SOL    HW129063   3.007   3.710   2.855 -0.1447 -0.5946 -0.3745
 5809SOL    HW229064   2.996   3.622   2.741  1.6524 -0.8915  1.7516
 5810SOL     OW29065   0.277   3.573   5.429 -0.0503 -0.2389  0.2854
 5810SOL    HW129066   0.336   3.499   5.441  2.6711  1.9280  0.4276
 5810SOL    HW229067   0.336   3.644   5.403 -1.1606  0.1701 -1.0870
 5811SOL     OW29068   3.844   1.593   4.358  0.2356  0.4855  0.6161
 5811SOL    HW129069   3.882   1.614   4.443  0.7956 -0.2735  0.5532
 5811SOL    HW229070   3.777   1.537   4.398 -2.7083  2.8901 -1.0130
 5812SOL     OW29071   1.695   1.299   1.493 -0.3916  0.2212  0.2448
 5812SOL    HW129072   1.779   1.280   1.534  0.4771 -0.9622 -2.0999
 5812SOL    HW229073   1.724   1.362   1.427 -1.2640  1.2098  0.7896
 5813SOL     OW29074   3.404   0.208   6.550  0.5374 -0.3452  0.1629
 5813SOL    HW129075   3.384   0.289   6.503  0.1429  0.0260  0.9790
 5813SOL    HW229076   3.437   0.236   6.635  0.9892 -0.2416 -0.0459
 5814SOL     OW29077   1.170   3.918   2.578 -0.0678 -0.2120  0.1809
 5814SOL    HW129078   1.100   3.937   2.641  0.4794 -2.6108  1.5198
 5814SOL    HW229079   1.171   3.996   2.522 -0.1859  0.4737  1.1368
 5815SOL     OW29080   0.916   0.921   1.917 -0.2896  0.4891 -0.6497
 5815SOL    HW129081   0.971   0.987   1.957  0.8245 -1.7374  1.4875
 5815SOL    HW229082   0.838   0.968   1.886 -1.2681 -1.5224 -1.2694
 5816SOL     OW29083   3.147   1.331   8.467  0.6887  0.5448  0.0930
 5816SOL    HW129084   3.153   1.381   8.386 -2.0318 -0.3412 -0.6526
 5816SOL    HW229085   3.091   1.391   8.516  0.9403  1.4842 -0.7611
 5817SOL     OW29086   3.100   2.818   9.468 -0.3523 -0.2776  0.0492
 5817SOL    HW129087   3.176   2.762   9.455  0.1668  0.2284  0.9539
 5817SOL    HW229088   3.107   2.832   9.562 -1.2644 -0.3178  0.1277
 5818SOL     OW29089   2.788   1.119   6.952  0.0574  0.6645 -0.0541
 5818SOL    HW129090   2.757   1.034   6.983  1.5697 -0.9058 -2.8774
 5818SOL    HW229091   2.845   1.093   6.880 -0.5694  0.3644 -0.4446
 5819SOL     OW29092   2.913   3.393   7.000  0.4656  0.0172 -0.7535
 5819SOL    HW129093   2.956   3.457   7.057 -0.8219  0.6665 -0.5231
 5819SOL    HW229094   2.971   3.320   7.023 -1.7066 -1.5202 -0.2011
 5820SOL     OW29095   1.443   1.013   7.817  0.2144 -0.1303 -0.1351
 5820SOL    HW129096   1.486   0.961   7.885  1.2505  2.6254  1.3177
 5820SOL    HW229097   1.382   0.942   7.798  0.6737 -0.8532  1.0888
 5821SOL     OW29098   1.690   4.389   7.013  0.6663 -1.3325  0.2041
 5821SOL    HW129099   1.730   4.317   6.963  1.5891  0.1475 -1.1856
 5821SOL    HW229100   1.718   4.362   7.101 -2.9064 -2.4641  1.0112
 5822SOL     OW29101   3.626   4.257   4.695 -0.0631 -0.1104  0.0201
 5822SOL    HW129102   3.575   4.214   4.625 -0.1832  1.4887 -0.8787
 5822SOL    HW229103   3.599   4.204   4.770 -1.6089  1.3371  0.4844
 5823SOL     OW29104   4.335   1.581   2.753  0.0582 -0.1477 -0.2404
 5823SOL    HW129105   4.266   1.599   2.817 -1.0486 -3.4073 -0.5289
 5823SOL    HW229106   4.293   1.509   2.705  3.1200 -1.5255 -0.8181
 5824SOL     OW29107   0.606   4.710   8.117  0.1935  0.3281  0.4649
 5824SOL    HW129108   0.598   0.054   8.159 -0.4730  1.1051 -1.2794
 5824SOL    HW229109   0.609   4.723   8.022 -0.3252  0.8093  0.5162
 5825SOL     OW29110   3.080   0.216  12.032 -0.2572 -0.5462 -0.0638
 5825SOL    HW129111   3.154   0.155  12.033  0.2090  0.0548  1.5419
 5825SOL    HW229112   3.096   0.259  12.116 -3.9295 -1.0989  0.9019
 5826SOL     OW29113   3.126   3.111   6.420  0.1716 -0.2133  0.6054
 5826SOL    HW129114   3.060   3.181   6.414 -0.5844 -0.9424  0.3369
 5826SOL    HW229115   3.193   3.143   6.359 -0.3815 -0.7587 -0.2900
 5827SOL     OW29116   0.983   2.786  13.709 -0.0344  0.0134 -0.2433
 5827SOL    HW129117   1.037   2.757  13.782 -2.8935 -0.3931  1.6650
 5827SOL    HW229118   1.047   2.826  13.649  0.7532  0.0659  0.6236
 5828SOL     OW29119   0.425   4.225  10.140  0.2284  0.2967  0.1627
 5828SOL    HW129120   0.332   4.228  10.161  0.7325 -0.8631  2.5833
 5828SOL    HW229121   0.460   4.203  10.226 -0.2715 -0.7507  0.0931
 5829SOL     OW29122   3.186   1.451   4.731 -0.8435  0.3076 -0.1759
 5829SOL    HW129123   3.279   1.428   4.734 -1.2889 -1.5896 -0.8785
 5829SOL    HW229124   3.150   1.369   4.696  1.0877 -1.2385  1.4286
 5830SOL     OW29125   1.132   1.004  11.749 -0.2011 -0.5950 -0.0562
 5830SOL    HW129126   1.063   0.955  11.705 -0.2007 -0.5573 -0.0981
 5830SOL    HW229127   1.150   0.939  11.818 -0.2114  0.3896  0.8689
 5831SOL     OW29128   0.762   0.248  16.753 -0.2741  0.4339 -0.4684
 5831SOL    HW129129   0.762   0.159  16.718  0.2120 -0.9345  3.0331
 5831SOL    HW229130   0.760   0.229  16.846 -2.1203  1.3500 -0.3061
 5832SOL     OW29131   3.920   2.048   0.190  0.3099 -0.0624  0.1037
 5832SOL    HW129132   3.859   2.108   0.148  0.1847  0.8407  1.5394
 5832SOL    HW229133   3.861   1.996   0.245  0.5973 -0.6228 -0.1244
 5833SOL     OW29134   2.931   1.324   8.108  0.4223  0.0281  0.0745
 5833SOL    HW129135   2.894   1.322   8.020 -3.2399 -0.1586  1.6144
 5833SOL    HW229136   2.878   1.398   8.138  1.1925  0.0009  1.4902
 5834SOL     OW29137   2.542   0.122  17.471 -0.4658  0.8161 -0.5391
 5834SOL    HW129138   2.475   0.103  17.405  0.2293 -0.0887 -0.9862
 5834SOL    HW229139   2.537   0.045  17.529  1.4426  1.2707  0.2497
 5835SOL     OW29140   1.964   0.262   4.710 -0.0372  0.5046 -0.1477
 5835SOL    HW129141   1.989   0.270   4.802  0.1486 -1.7144  0.0055
 5835SOL    HW229142   1.913   0.180   4.712  0.5828  0.1405  0.4918
 5836SOL     OW29143   4.597   4.571   2.666 -0.4322 -0.1238  0.2930
 5836SOL    HW129144   4.596   4.657   2.707 -0.7093 -0.1185  0.2738
 5836SOL    HW229145   4.597   4.582   2.571 -0.3258  0.9030  0.4151
 5837SOL     OW29146   2.489   1.234   2.997 -0.2354  0.3062 -0.3537
 5837SOL    HW129147   2.521   1.144   2.987 -0.9537 -0.1442  1.3512
 5837SOL    HW229148   2.395   1.212   2.992 -0.2641  0.8289 -2.0967
 5838SOL     OW29149   0.784   3.819   1.702 -0.5197 -0.2177 -0.4257
 5838SOL    HW129150   0.824   3.810   1.788 -1.0482 -0.3792 -0.1982
 5838SOL    HW229151   0.754   3.909   1.692  0.2672  0.1725  0.7806
 5839SOL     OW29152   2.374   1.581  16.361 -0.3870 -0.3374 -0.1766
 5839SOL    HW129153   2.449   1.621  16.404 -0.0874 -1.7959  0.6619
 5839SOL    HW229154   2.299   1.607  16.416 -1.1363  0.1617 -1.4407
 5840SOL     OW29155   0.842   3.638   2.926 -0.2133 -0.6244 -0.6511
 5840SOL    HW129156   0.865   3.557   2.970 -0.8368 -0.7782 -0.6086
 5840SOL    HW229157   0.891   3.700   2.979  0.9895 -1.3358 -0.9256
 5841SOL     OW29158   2.169   3.774   0.829  0.2336  0.0910  0.1556
 5841SOL    HW129159   2.149   3.864   0.855  0.1521 -0.3982  1.8143
 5841SOL    HW229160   2.255   3.773   0.871  0.6552  0.7118 -0.6868
 5842SOL     OW29161   1.153   1.136   9.878  0.2443 -0.2515 -0.0410
 5842SOL    HW129162   1.231   1.095   9.840  0.4255  0.4693 -0.4439
 5842SOL    HW229163   1.096   1.065   9.908  0.4181 -0.8331 -1.0936
 5843SOL     OW29164   3.108   4.104   4.268 -0.3500 -0.4660  0.0707
 5843SOL    HW129165   3.187   4.070   4.310 -0.2488  1.8643  1.7375
 5843SOL    HW229166   3.081   4.033   4.210  1.9566 -0.4468 -1.0164
 5844SOL     OW29167   0.178   0.196   6.520 -0.2589 -0.0852 -0.0869
 5844SOL    HW129168   0.184   0.250   6.440  3.2723 -0.9451 -0.3735
 5844SOL    HW229169   0.083   0.198   6.533 -0.2608 -1.5697  0.0770
 5845SOL     OW29170   4.387   2.372   3.395  0.2623 -0.0671 -0.3953
 5845SOL    HW129171   4.401   2.456   3.352  1.6542 -0.0712  0.0576
 5845SOL    HW229172   4.462   2.319   3.369  0.1366 -1.2791  1.6921
 5846SOL     OW29173   4.473   0.008  13.410  0.1472 -0.0330  0.2608
 5846SOL    HW129174   4.429   0.040  13.331 -0.1980  0.9719  0.8546
 5846SOL    HW229175   4.405   0.025  13.475 -0.7228  0.2568 -0.7251
 5847SOL     OW29176   2.292   0.157  12.012 -0.2359 -0.1707 -0.5326
 5847SOL    HW129177   2.322   0.070  12.039 -1.1034 -0.1148  0.5566
 5847SOL    HW229178   2.288   0.204  12.095  0.8778 -0.2896 -0.4108
 5848SOL     OW29179   2.558   2.952   4.254 -0.7943 -0.2233 -0.0529
 5848SOL    HW129180   2.633   2.901   4.224 -1.0718 -0.9598  0.5351
 5848SOL    HW229181   2.537   2.998   4.172 -2.6263 -2.7041 -0.9813
 5849SOL     OW29182   0.287   1.386  12.239  0.2578  0.1591 -0.0789
 5849SOL    HW129183   0.213   1.338  12.277 -0.1304  2.1168  1.6282
 5849SOL    HW229184   0.234   1.461  12.212 -0.6473 -0.8211 -1.0569
 5850SOL     OW29185   2.874   0.344   1.170  0.2944  0.2583  0.5024
 5850SOL    HW129186   2.863   0.439   1.169 -3.2619 -0.1793 -1.8259
 5850SOL    HW229187   2.885   0.317   1.079  1.1437  0.8186  0.4421
 5851SOL     OW29188   3.798   3.104   4.742 -0.0576 -0.2037 -0.1189
 5851SOL    HW129189   3.740   3.178   4.724 -0.7308 -0.0988  2.5656
 5851SOL    HW229190   3.812   3.094   4.647 -0.7659  0.3085 -0.2738
 5852SOL     OW29191   0.754   2.736   1.419 -0.6995 -0.2070  0.0449
 5852SOL    HW129192   0.772   2.742   1.513  0.4543  1.2931 -0.2734
 5852SOL    HW229193   0.812   2.660   1.409 -0.5455 -0.0466 -0.3018
 5853SOL     OW29194   0.241   4.442  17.367 -0.2781  0.0032 -0.1039
 5853SOL    HW129195   0.220   4.437  17.274 -2.0031 -4.5697  0.5200
 5853SOL    HW229196   0.156   4.413  17.402  0.8485 -0.0315  2.6033
 5854SOL     OW29197   4.653   0.760  14.676 -0.3055  0.5988  0.2148
 5854SOL    HW129198   4.677   0.669  14.690  1.8828  1.1991  0.3261
 5854SOL    HW229199   4.606   0.774  14.759  0.6377 -2.0715  1.1975
 5855SOL     OW29200   2.793   2.323  10.950  0.4632 -0.4229  0.3443
 5855SOL    HW129201   2.742   2.258  10.997 -0.2044 -1.4903 -1.8769
 5855SOL    HW229202   2.759   2.322  10.861 -1.0210  1.0504  0.8954
 5856SOL     OW29203   2.001   4.125   4.802 -0.1857 -0.5403 -0.1197
 5856SOL    HW129204   1.908   4.122   4.823  0.2109 -2.1415  1.4840
 5856SOL    HW229205   2.009   4.208   4.755 -0.7038 -0.8901 -0.8153
 5857SOL     OW29206   1.991   2.283  15.071 -0.3154  0.0742  0.1581
 5857SOL    HW129207   1.912   2.299  15.020 -1.3664 -2.1515  1.1300
 5857SOL    HW229208   1.965   2.293  15.163  0.0439 -0.8341  0.3599
 5858SOL     OW29209   4.232   1.749   2.228  0.4495  0.4002  0.3935
 5858SOL    HW129210   4.321   1.774   2.204 -0.4073  0.4823 -2.6429
 5858SOL    HW229211   4.216   1.813   2.298 -1.3902  1.4320 -0.9860
 5859SOL     OW29212   1.241   1.484   2.330 -0.1732  0.1565 -0.5061
 5859SOL    HW129213   1.178   1.413   2.340  0.0704  0.3585  2.4261
 5859SOL    HW229214   1.181   1.560   2.332  0.2268  0.4498  0.1098
 5860SOL     OW29215   3.362   3.705   2.514 -0.3512 -0.1578 -0.2326
 5860SOL    HW129216   3.275   3.677   2.487 -1.5598  1.2348  2.2413
 5860SOL    HW229217   3.371   3.652   2.593  0.6030  1.4221  0.7031
 5861SOL     OW29218   0.399   3.727   8.743  0.0489  0.1125  0.0336
 5861SOL    HW129219   0.492   3.726   8.721 -0.1349 -0.2902 -0.7003
 5861SOL    HW229220   0.399   3.807   8.795 -0.6851  0.3523 -0.3404
 5862SOL     OW29221   2.598   0.032   4.030 -0.0771  0.3968 -0.3238
 5862SOL    HW129222   2.639   4.712   4.089 -1.3457 -0.6639 -0.5586
 5862SOL    HW229223   2.640   0.029   3.944  0.1935  1.5819 -0.2439
 5863SOL     OW29224   1.188   0.707  14.789 -0.4760 -0.3424  0.4407
 5863SOL    HW129225   1.192   0.801  14.806 -0.9379 -0.1321 -0.5766
 5863SOL    HW229226   1.119   0.705  14.723  0.5744  2.4769 -0.7471
 5864SOL     OW29227   1.201   0.342  16.210  0.0388  0.5807  0.1373
 5864SOL    HW129228   1.178   0.249  16.205 -0.5741  0.7406  0.0579
 5864SOL    HW229229   1.129   0.379  16.159 -1.2124 -0.1737  1.3800
 5865SOL     OW29230   1.607   4.157   7.182  0.3516  0.2049 -0.3265
 5865SOL    HW129231   1.566   4.126   7.263  1.9992  0.5997  0.6529
 5865SOL    HW229232   1.599   4.075   7.134 -0.5241  0.3178 -0.3697
 5866SOL     OW29233   1.720   2.987   0.063  0.1690 -0.3616  0.2082
 5866SOL    HW129234   1.746   3.076   0.042 -3.6353  0.5786 -0.4139
 5866SOL    HW229235   1.787   2.963   0.127  0.3659 -1.8166 -0.5259
 5867SOL     OW29236   3.571   4.379   7.108 -0.7049 -0.3315  0.5902
 5867SOL    HW129237   3.570   4.291   7.147  1.8259 -0.1589  1.0462
 5867SOL    HW229238   3.557   4.421   7.193 -0.9395  1.4970 -0.3783
 5868SOL     OW29239   0.752   4.741   3.338  0.1990 -0.5452  0.0674
 5868SOL    HW129240   0.786   4.651   3.331 -0.1683 -0.7103  0.4052
 5868SOL    HW229241   0.836   0.045   3.337 -0.2741  0.3534  2.7503
 5869SOL     OW29242   3.119   1.832  13.030  0.1946 -0.0993  0.2871
 5869SOL    HW129243   3.166   1.914  13.027 -3.0440  1.8706  2.6915
 5869SOL    HW229244   3.183   1.768  13.062  0.8724  0.9231  0.9613
 5870SOL     OW29245   0.512   3.987   8.186 -0.0899 -0.2416  0.0995
 5870SOL    HW129246   0.473   4.060   8.235 -0.9940 -0.0549 -0.9099
 5870SOL    HW229247   0.567   3.947   8.254 -1.5101 -2.4025 -0.0525
 5871SOL     OW29248   0.328   0.332   2.145  0.8256  0.1188 -0.1406
 5871SOL    HW129249   0.396   0.380   2.098  0.8491 -0.4112 -0.6537
 5871SOL    HW229250   0.288   0.285   2.071 -0.5485 -0.3269  0.8981
 5872SOL     OW29251   3.709   2.788   8.586 -0.4217 -0.1161 -0.5061
 5872SOL    HW129252   3.708   2.854   8.517 -3.3282  1.0138  0.6399
 5872SOL    HW229253   3.705   2.713   8.527 -1.4011 -0.2536 -0.2625
 5873SOL     OW29254   1.856   0.708   3.833  0.5232  0.0706 -0.0287
 5873SOL    HW129255   1.924   0.716   3.767  1.6149 -0.0233  1.0713
 5873SOL    HW229256   1.843   0.613   3.837 -0.8892  0.2169 -1.3249
 5874SOL     OW29257   0.944   0.900   7.216 -0.5526  0.2896 -0.6348
 5874SOL    HW129258   0.877   0.959   7.182  0.1166  0.2072 -2.1262
 5874SOL    HW229259   0.964   0.843   7.142 -0.0686  2.1043 -1.9028
 5875SOL     OW29260   2.368   3.265   8.282  0.4312 -0.1568  0.0769
 5875SOL    HW129261   2.416   3.201   8.334  0.8740  1.5152  1.7394
 5875SOL    HW229262   2.415   3.265   8.198 -0.1962  1.4052 -0.2824
 5876SOL     OW29263   1.435   4.110   5.084 -0.5791 -0.1146  0.1049
 5876SOL    HW129264   1.501   4.172   5.052 -0.4459 -0.2003  0.2133
 5876SOL    HW229265   1.381   4.082   5.011 -0.6529  2.8689 -0.9895
 5877SOL     OW29266   0.009   1.918   5.609 -1.0733 -0.3277  0.0674
 5877SOL    HW129267   4.684   1.887   5.669  0.1929  0.9031  2.1318
 5877SOL    HW229268   0.075   1.954   5.668  1.3172 -1.4278 -1.9590
 5878SOL     OW29269   1.710   0.960  16.241 -0.6442  0.2820 -0.2110
 5878SOL    HW129270   1.636   0.949  16.300 -1.5012  3.1144 -0.7770
 5878SOL    HW229271   1.670   0.974  16.155 -0.5123  0.1463 -0.2962
 5879SOL     OW29272   2.348   4.222   8.131  0.2395 -0.5126 -0.6875
 5879SOL    HW129273   2.417   4.218   8.065 -0.0329  1.0392 -1.0776
 5879SOL    HW229274   2.287   4.161   8.090  0.0039 -0.6429 -0.1484
 5880SOL     OW29275   2.738   3.265   6.841  0.0540  0.1091  0.3210
 5880SOL    HW129276   2.817   3.305   6.879  0.9974 -1.6489  0.2168
 5880SOL    HW229277   2.724   3.192   6.903  2.6599 -0.7080 -0.0075
 5881SOL     OW29278   0.250   2.359  17.337  0.1240  0.0201  0.1791
 5881SOL    HW129279   0.289   2.436  17.378 -0.4089 -1.0326  2.6893
 5881SOL    HW229280   0.273   2.292  17.401 -0.3479 -0.9617 -0.6776
 5882SOL     OW29281   1.844   3.855   7.771 -0.7037  0.0840  0.5923
 5882SOL    HW129282   1.786   3.779   7.767  0.0407 -0.4508 -0.2715
 5882SOL    HW229283   1.922   3.813   7.808 -0.0714 -0.0693 -0.8889
 5883SOL     OW29284   4.648   2.511  13.929  0.6758 -0.2762 -0.3158
 5883SOL    HW129285   4.635   2.447  13.998 -1.9150  0.8904  0.2761
 5883SOL    HW229286   4.611   2.590  13.968  1.5785  1.8260 -3.7103
 5884SOL     OW29287   3.665   4.711   3.230  0.3660 -0.4987 -0.6295
 5884SOL    HW129288   3.719   0.025   3.175  3.1021 -0.2103  2.3256
 5884SOL    HW229289   3.729   4.685   3.296 -0.1546 -0.1632  0.0033
 5885SOL     OW29290   2.315   2.485   8.293  0.3986 -0.0015 -0.0721
 5885SOL    HW129291   2.301   2.560   8.235 -2.3126 -0.3351  0.1701
 5885SOL    HW229292   2.247   2.492   8.360  0.5755  1.2378 -0.0180
 5886SOL     OW29293   2.235   0.833   3.601  0.1937 -0.1155 -0.3290
 5886SOL    HW129294   2.226   0.741   3.578  1.4911  0.0156 -1.3005
 5886SOL    HW229295   2.329   0.845   3.595 -0.0540  1.5614 -0.9665
 5887SOL     OW29296   1.074   1.098   7.523  0.2906 -0.1204  0.0205
 5887SOL    HW129297   1.038   1.130   7.606 -0.7168 -0.8479 -0.1294
 5887SOL    HW229298   1.003   1.111   7.461 -0.7665 -0.0498  1.2369
 5888SOL     OW29299   2.542   0.142   3.600 -0.2063  0.5896  0.2254
 5888SOL    HW129300   2.582   0.216   3.556  0.4424  0.4186  0.5265
 5888SOL    HW229301   2.486   0.111   3.529 -0.9977  2.8635 -0.1182
 5889SOL     OW29302   1.070   0.185   1.094 -0.0039 -0.0160  0.2497
 5889SOL    HW129303   0.993   0.154   1.142 -1.0420  1.9987 -0.1198
 5889SOL    HW229304   1.092   0.108   1.043 -1.8268  0.6577 -1.5575
 5890SOL     OW29305   3.571   2.775   5.575 -0.1240 -0.2946 -0.6166
 5890SOL    HW129306   3.526   2.806   5.654  1.4996  0.9595 -0.1783
 5890SOL    HW229307   3.624   2.851   5.552  0.8590 -1.2187 -1.3875
 5891SOL     OW29308   2.888   0.791  15.275  0.3597 -0.1349  0.1894
 5891SOL    HW129309   2.955   0.858  15.287 -0.1510  1.0679 -3.9793
 5891SOL    HW229310   2.901   0.754  15.188  1.4877 -1.1845  0.8090
 5892SOL     OW29311   4.336   3.203  12.670 -0.4811 -0.3511  0.3635
 5892SOL    HW129312   4.345   3.178  12.578 -0.2920 -0.4011  0.3967
 5892SOL    HW229313   4.403   3.270  12.674 -2.3368  1.5755 -0.5591
 5893SOL     OW29314   1.106   3.111  11.025 -0.0988  0.6727 -0.1329
 5893SOL    HW129315   1.185   3.095  10.974 -0.4338  0.2072 -0.5007
 5893SOL    HW229316   1.114   3.200  11.060 -0.4487  0.6070  0.1215
 5894SOL     OW29317   0.923   4.511   4.182  0.3289  0.0134 -0.2821
 5894SOL    HW129318   0.839   4.490   4.140  1.2904 -1.3632 -1.4933
 5894SOL    HW229319   0.934   4.451   4.255 -1.2387 -0.8173 -0.7220
 5895SOL     OW29320   2.189   2.658   4.083  0.2750 -0.5078 -0.0810
 5895SOL    HW129321   2.229   2.584   4.128  1.2796  0.3688  0.4488
 5895SOL    HW229322   2.174   2.727   4.146  0.3400 -0.5244 -0.0483
 5896SOL     OW29323   0.677   0.037   5.089 -0.7235 -0.6338  0.3256
 5896SOL    HW129324   0.598   0.091   5.088 -1.0849 -1.1553  1.4557
 5896SOL    HW229325   0.650   4.701   5.041  0.9896 -0.1313 -1.4549
 5897SOL     OW29326   2.165   0.928   2.415 -0.1959 -0.0717 -0.7958
 5897SOL    HW129327   2.175   0.907   2.508 -2.2083  0.7789 -0.3949
 5897SOL    HW229328   2.210   0.851   2.379  1.1559 -0.3070  1.4041
 5898SOL     OW29329   3.518   0.017   6.746 -0.2709 -0.0169 -0.0304
 5898SOL    HW129330   3.526   0.076   6.670 -0.7616 -0.0599 -0.1167
 5898SOL    HW229331   3.610   0.007   6.771 -0.3394 -0.0485  0.2019
 5899SOL     OW29332   3.124   4.083   4.655  0.0362  0.1970  0.4531
 5899SOL    HW129333   3.214   4.075   4.685  0.5636 -0.1837 -1.2317
 5899SOL    HW229334   3.097   3.997   4.625 -0.2254  0.8776 -1.2797
 5900SOL     OW29335   3.274   1.489   9.171  0.5355 -0.4510 -0.1267
 5900SOL    HW129336   3.223   1.492   9.090 -1.2913  0.9576  1.0756
 5900SOL    HW229337   3.361   1.467   9.139  0.3173 -0.4641 -0.7141
 5901SOL     OW29338   1.217   2.050   1.988 -0.1393  0.3135  0.3902
 5901SOL    HW129339   1.121   2.053   1.983 -0.1548  0.6778  0.9500
 5901SOL    HW229340   1.227   1.989   1.914  0.8036  0.5338  0.3466
 5902SOL     OW29341   1.975   1.685  11.525  0.1121 -0.5565  0.0841
 5902SOL    HW129342   1.972   1.648  11.614  0.3099  0.2857  0.4454
 5902SOL    HW229343   1.946   1.613  11.469  1.0470 -0.0422 -1.0413
 5903SOL     OW29344   3.567   1.545   8.271 -0.5979  0.1930  0.5095
 5903SOL    HW129345   3.610   1.566   8.189 -0.6454 -2.6094 -0.2481
 5903SOL    HW229346   3.484   1.588   8.251 -0.7873 -1.3964 -2.1677
 5904SOL     OW29347   2.553   0.965   2.961  0.3460 -0.2014 -0.3592
 5904SOL    HW129348   2.636   0.956   2.915 -0.2396 -0.2322 -1.3999
 5904SOL    HW229349   2.545   0.876   2.996 -0.4135 -0.3604 -0.9570
 5905SOL     OW29350   1.774   4.184   6.775 -0.3828 -0.0534 -0.3020
 5905SOL    HW129351   1.737   4.195   6.687 -0.4797  4.4042  0.3179
 5905SOL    HW229352   1.821   4.101   6.769 -1.5978 -0.8113  0.7455
 5906SOL     OW29353   2.888   3.947  11.856 -0.3500  0.4918 -0.2302
 5906SOL    HW129354   2.926   4.028  11.888 -1.2603 -0.6918  3.7845
 5906SOL    HW229355   2.883   3.953  11.760 -3.7845  1.3456  0.0225
 5907SOL     OW29356   2.936   3.447   5.521 -0.4018 -0.0130  0.4348
 5907SOL    HW129357   2.999   3.493   5.577  1.9092 -0.8473 -1.4807
 5907SOL    HW229358   2.934   3.362   5.563  2.7544 -0.0786  0.4215
 5908SOL     OW29359   0.007   1.445   5.428  0.0935  0.3915 -0.2969
 5908SOL    HW129360   0.052   1.384   5.486 -2.5430  0.3140  1.6980
 5908SOL    HW229361   4.697   1.491   5.494  0.2506 -0.0036  0.0991
 5909SOL     OW29362   1.806   4.673   5.955 -0.1777 -0.0078  0.2279
 5909SOL    HW129363   1.851   4.605   5.905  2.6325  0.8449  1.5824
 5909SOL    HW229364   1.749   4.711   5.887  0.8728 -0.7884 -1.0804
 5910SOL     OW29365   0.886   1.499   2.219  0.1242  0.0716  0.0105
 5910SOL    HW129366   0.824   1.493   2.292  0.5857 -2.0699  0.2298
 5910SOL    HW229367   0.895   1.404   2.207  1.2475  0.1356  0.4290
 5911SOL     OW29368   3.050   1.404   6.714 -0.0452 -0.3175  0.4811
 5911SOL    HW129369   3.004   1.391   6.797 -0.7907  0.6158  0.2106
 5911SOL    HW229370   3.029   1.497   6.704  0.6890  0.0104  2.0849
 5912SOL     OW29371   2.072   3.124   0.464 -0.6455  0.2009 -0.0044
 5912SOL    HW129372   2.072   3.032   0.438  2.4987 -0.1683  1.2941
 5912SOL    HW229373   2.058   3.124   0.559 -0.5546  1.2353  0.0047
 5913SOL     OW29374   0.362   1.451  13.539 -0.2603 -0.3490  0.2295
 5913SOL    HW129375   0.368   1.381  13.603 -0.3012 -0.5380  0.0246
 5913SOL    HW229376   0.290   1.501  13.578  1.2523  3.0579 -1.2387
 5914SOL     OW29377   4.103   1.696  14.976  0.2719  0.1837 -0.2551
 5914SOL    HW129378   4.133   1.773  14.926 -1.5259  0.2463 -1.2278
 5914SOL    HW229379   4.039   1.730  15.039  1.9593 -0.1679  1.6598
 5915SOL     OW29380   3.045   1.247   4.578  0.2081  0.0120  0.1543
 5915SOL    HW129381   3.084   1.267   4.493  0.1172 -0.7742 -0.0676
 5915SOL    HW229382   2.956   1.251   4.544  0.1855 -1.2562  0.0488
 5916SOL     OW29383   0.753   2.535   3.740  0.4713 -0.5216 -0.4273
 5916SOL    HW129384   0.737   2.525   3.834  3.4278  1.2137  0.2736
 5916SOL    HW229385   0.848   2.552   3.744  0.4763 -0.8291  0.9191
 5917SOL     OW29386   0.574   4.060   2.757  0.0626 -0.0388 -0.0631
 5917SOL    HW129387   0.496   4.004   2.758 -0.0424  0.1550  1.9576
 5917SOL    HW229388   0.610   4.034   2.841 -2.5281 -0.8985  0.7835
 5918SOL     OW29389   3.302   2.399   6.705  0.0727 -0.6082 -0.6645
 5918SOL    HW129390   3.394   2.412   6.729 -0.0950 -0.3536 -0.1561
 5918SOL    HW229391   3.282   2.316   6.749 -1.2651  0.0054 -0.1081
 5919SOL     OW29392   2.847   4.115   4.659 -0.1753  0.2038 -0.0091
 5919SOL    HW129393   2.871   4.061   4.584  0.9991 -2.0201  1.9730
 5919SOL    HW229394   2.937   4.125   4.690 -0.2039  1.3568 -0.3030
 5920SOL     OW29395   0.683   2.148   2.570  0.4987 -1.0865 -0.3732
 5920SOL    HW129396   0.687   2.078   2.505 -1.8299 -1.8122  0.3016
 5920SOL    HW229397   0.766   2.140   2.618  0.0611 -2.2936  0.1764
 5921SOL     OW29398   3.082   4.343   2.533  0.1055 -0.0542  0.2680
 5921SOL    HW129399   3.006   4.337   2.591 -0.2569  0.7313 -0.1212
 5921SOL    HW229400   3.061   4.424   2.487  0.5630 -1.4478 -2.3960
 5922SOL     OW29401   3.871   1.921   5.164  0.1161  0.5182  0.6619
 5922SOL    HW129402   3.880   1.986   5.235 -3.0750  0.3705  1.2036
 5922SOL    HW229403   3.916   1.960   5.089  0.3967 -3.3070 -1.1281
 5923SOL     OW29404   3.378   1.749   5.068  0.1250  0.2109  0.0598
 5923SOL    HW129405   3.420   1.666   5.091 -0.5488 -0.0943  0.1879
 5923SOL    HW229406   3.454   1.799   5.100  0.1905  0.2312 -0.1257
 5924SOL     OW29407   3.760   4.014   5.581  0.2041 -0.3620  0.1235
 5924SOL    HW129408   3.772   4.062   5.663 -2.4369  0.2170  0.1849
 5924SOL    HW229409   3.805   3.932   5.602  0.3498  0.2481  2.2272
 5925SOL     OW29410   1.330   4.015   4.541 -0.8386 -0.2551  0.1373
 5925SOL    HW129411   1.288   3.967   4.612 -0.0402  0.3817  1.0339
 5925SOL    HW229412   1.348   3.947   4.477 -0.6942  0.7807 -0.9301
 5926SOL     OW29413   4.001   0.146   6.318  0.5535  0.2319 -0.1144
 5926SOL    HW129414   4.096   0.133   6.324  0.5506  0.2896  0.0645
 5926SOL    HW229415   3.996   0.237   6.349  1.0192  0.0179  0.5826
 5927SOL     OW29416   3.521   4.068   1.251 -0.2019 -0.0248 -0.2296
 5927SOL    HW129417   3.495   4.140   1.193  0.2956 -0.0560 -0.4895
 5927SOL    HW229418   3.610   4.061   1.218 -0.9522 -0.3194 -2.1899
 5928SOL     OW29419   3.356   0.703   4.979 -0.7032  0.2773 -0.5561
 5928SOL    HW129420   3.263   0.681   4.970 -0.8076  0.6242 -0.3205
 5928SOL    HW229421   3.402   0.621   4.961  0.2379  0.2729  1.9526
 5929SOL     OW29422   1.394   0.847   6.767 -1.1029  0.0082  0.9911
 5929SOL    HW129423   1.347   0.770   6.737  2.0512 -0.3711 -3.0135
 5929SOL    HW229424   1.324   0.900   6.804  1.6534  3.9201  0.5955
 5930SOL     OW29425   2.047   0.750   9.251 -0.4814  0.7098 -0.2534
 5930SOL    HW129426   2.047   0.834   9.299 -1.0581 -0.9772  2.6970
 5930SOL    HW229427   2.122   0.718   9.302 -2.4714  0.3378  2.4320
 5931SOL     OW29428   4.269   0.550   9.653 -0.0249 -0.0105  0.1284
 5931SOL    HW129429   4.271   0.620   9.588  1.3418  0.3665  0.5618
 5931SOL    HW229430   4.188   0.574   9.698 -0.7816 -1.9216 -0.2142
 5932SOL     OW29431   0.019   4.323   4.309  0.0933 -0.8917 -0.3203
 5932SOL    HW129432   4.695   4.392   4.317  0.5477 -0.4225 -0.6586
 5932SOL    HW229433   4.713   4.262   4.252 -2.6070  1.2736 -0.3692
 5933SOL     OW29434   0.654   0.425   6.491  0.2780  0.0803 -0.4392
 5933SOL    HW129435   0.673   0.396   6.402 -2.7752 -0.1387 -1.0396
 5933SOL    HW229436   0.561   0.448   6.487 -0.0330 -1.5446 -2.2791
 5934SOL     OW29437   2.193   0.032   5.090 -0.1346  0.3038  0.1226
 5934SOL    HW129438   2.187   0.096   5.161 -1.4529  1.2489 -0.8284
 5934SOL    HW229439   2.215   4.692   5.134 -2.5559 -0.4727 -0.1344
 5935SOL     OW29440   2.681   4.047  12.316 -0.2083  0.2457  0.7567
 5935SOL    HW129441   2.752   4.094  12.359  0.4266 -1.9572  2.1614
 5935SOL    HW229442   2.728   3.966  12.294  1.1918  1.4014 -0.4767
 5936SOL     OW29443   4.338   4.451   7.394  0.0867  0.7261 -0.5273
 5936SOL    HW129444   4.413   4.444   7.452 -0.6295 -1.7900  0.1141
 5936SOL    HW229445   4.379   4.414   7.316  1.3195 -0.3280  0.6343
 5937SOL     OW29446   3.588   3.289   4.998  0.0402 -0.2939  0.2502
 5937SOL    HW129447   3.600   3.382   5.016 -1.2723 -0.3103  1.1657
 5937SOL    HW229448   3.607   3.291   4.904 -2.1099  1.3796 -0.1315
 5938SOL     OW29449   3.295   4.703   2.648 -0.0241 -0.4388  0.0450
 5938SOL    HW129450   3.208   4.726   2.679 -0.2080 -1.9923  0.6915
 5938SOL    HW229451   3.304   0.019   2.573  0.3637 -2.2080 -1.2935
 5939SOL     OW29452   2.993   3.255   2.605  0.0500 -0.3765 -0.4310
 5939SOL    HW129453   3.088   3.263   2.609  0.0204 -0.1154 -0.2514
 5939SOL    HW229454   2.959   3.334   2.647 -1.8122 -1.9164  0.9456
 5940SOL     OW29455   3.818   2.735  15.329 -0.4401  0.2032 -0.2921
 5940SOL    HW129456   3.747   2.677  15.302  0.8405 -1.1532 -0.7432
 5940SOL    HW229457   3.815   2.798  15.257  4.0783 -0.4471 -1.0277
 5941SOL     OW29458   4.406   3.341   9.017 -0.4476 -0.0446  0.4165
 5941SOL    HW129459   4.410   3.314   8.926  1.6747 -0.3149  0.5715
 5941SOL    HW229460   4.471   3.412   9.021 -0.2908 -0.1650 -0.0529
 5942SOL     OW29461   1.252   0.381   3.688  0.1075 -0.1143  0.7044
 5942SOL    HW129462   1.173   0.332   3.708  0.9784 -2.2108 -0.9658
 5942SOL    HW229463   1.257   0.439   3.764 -3.6199  1.2332 -0.0570
 5943SOL     OW29464   3.786   3.063  16.448  0.2862 -0.1428  0.3175
 5943SOL    HW129465   3.695   3.076  16.474  1.2450  0.9063  3.1414
 5943SOL    HW229466   3.808   2.979  16.488 -2.3054 -1.0485 -0.1207
 5944SOL     OW29467   3.764   2.896   2.952  0.5229 -0.0908  0.4433
 5944SOL    HW129468   3.778   2.809   2.914  0.8912  0.1233  0.0917
 5944SOL    HW229469   3.718   2.865   3.030 -2.1023 -1.0677 -1.4726
 5945SOL     OW29470   1.217   3.341  10.404  0.3698 -0.5768 -0.2006
 5945SOL    HW129471   1.290   3.403  10.396  0.8885 -0.8436  2.2284
 5945SOL    HW229472   1.222   3.303  10.317 -0.6138  0.9283 -0.9153
 5946SOL     OW29473   2.695   2.350   9.237  0.1022  0.4623 -0.2116
 5946SOL    HW129474   2.610   2.308   9.253  0.2792 -0.0313 -0.5812
 5946SOL    HW229475   2.722   2.395   9.317  1.5774 -2.0459  0.6664
 5947SOL     OW29476   2.124   2.551   8.479  0.3611 -0.1952 -0.5429
 5947SOL    HW129477   2.114   2.637   8.438 -1.6353 -0.8045 -1.3624
 5947SOL    HW229478   2.147   2.577   8.568 -0.3885 -1.2871 -0.0168
 5948SOL     OW29479   4.242   3.897   1.639  0.2886  0.4969 -0.2928
 5948SOL    HW129480   4.184   3.869   1.568  1.8601  2.0955 -2.1931
 5948SOL    HW229481   4.325   3.852   1.625 -0.5645 -1.2108  0.1092
 5949SOL     OW29482   1.870   0.415  14.703  0.1086 -0.3682  0.0200
 5949SOL    HW129483   1.856   0.322  14.682  0.5008 -0.1796 -1.1045
 5949SOL    HW229484   1.858   0.419  14.798  2.0074 -3.1822  0.3964
 5950SOL     OW29485   3.028   0.703   8.478  0.3947 -0.2193 -0.0912
 5950SOL    HW129486   2.967   0.632   8.456  0.3628  0.1641 -1.2162
 5950SOL    HW229487   3.011   0.710   8.572 -1.4694  0.7107 -0.5070
 5951SOL     OW29488   1.838   0.191   9.889 -0.0834 -0.7496 -0.3379
 5951SOL    HW129489   1.839   0.146   9.973  1.5557  1.5045  0.8293
 5951SOL    HW229490   1.922   0.161   9.856  1.4017  0.7773  2.0345
 5952SOL     OW29491   0.509   2.751  10.112  0.9731 -0.1458 -0.4835
 5952SOL    HW129492   0.516   2.835  10.066 -0.1685  1.3187  2.0103
 5952SOL    HW229493   0.580   2.710  10.062  1.6247  1.7360 -1.1182
 5953SOL     OW29494   3.844   3.345   2.356  0.3431  0.1941  0.0566
 5953SOL    HW129495   3.806   3.380   2.437  2.1454  1.1956  0.4687
 5953SOL    HW229496   3.876   3.262   2.392 -3.4252 -0.7742  1.1640
 5954SOL     OW29497   3.785   1.785   2.937 -0.4383  0.3479 -0.0432
 5954SOL    HW129498   3.805   1.857   2.997  1.8469 -0.6318  0.3560
 5954SOL    HW229499   3.855   1.779   2.873 -0.5349  1.8778 -0.2831
 5955SOL     OW29500   2.266   1.439   2.784 -0.1833 -0.0811 -0.4926
 5955SOL    HW129501   2.182   1.405   2.754  0.0828 -0.3585 -0.9280
 5955SOL    HW229502   2.246   1.446   2.877  0.2588  2.1374 -0.5693
 5956SOL     OW29503   3.856   3.862   4.706  0.4043  0.2031  0.0542
 5956SOL    HW129504   3.935   3.829   4.663 -0.8494 -2.3333 -0.3258
 5956SOL    HW229505   3.830   3.913   4.629  1.0236 -0.1986 -0.4189
 5957SOL     OW29506   3.814   3.110  12.577 -0.3696 -0.4783 -0.6054
 5957SOL    HW129507   3.786   3.140  12.663 -1.1120  1.5078 -1.5332
 5957SOL    HW229508   3.905   3.139  12.573 -0.4878 -0.1539 -1.0607
 5958SOL     OW29509   4.008   1.233   2.160  0.5881  0.3392 -0.2332
 5958SOL    HW129510   4.042   1.295   2.096  2.4259  0.0377  0.4554
 5958SOL    HW229511   3.943   1.185   2.110 -0.5275  1.0974  0.4853
 5959SOL     OW29512   1.125   3.115   9.906  0.1888  0.5532  0.0900
 5959SOL    HW129513   1.169   3.097   9.823 -0.8623 -0.1446 -0.3192
 5959SOL    HW229514   1.137   3.209   9.913  2.0378  0.4137 -1.2951
 5960SOL     OW29515   1.767   2.618  17.199  0.5151 -0.1600 -0.1891
 5960SOL    HW129516   1.816   2.549  17.243  0.0886 -0.5206 -0.2844
 5960SOL    HW229517   1.833   2.688  17.199  1.8764 -1.4332 -0.0645
 5961SOL     OW29518   0.955   1.252   5.701 -0.0259  0.0227 -0.0884
 5961SOL    HW129519   0.990   1.206   5.625  3.3425 -0.9296  2.0010
 5961SOL    HW229520   0.926   1.175   5.749  0.9244 -0.5833 -0.4943
 5962SOL     OW29521   2.395   2.310   1.664  0.1527  0.2597  0.0434
 5962SOL    HW129522   2.396   2.367   1.740 -3.7521 -0.3867  0.5691
 5962SOL    HW229523   2.422   2.227   1.703  2.2823  0.6858 -0.5494
 5963SOL     OW29524   1.440   0.112   5.056  0.5330  0.0668  0.1276
 5963SOL    HW129525   1.350   0.136   5.077  1.1081  1.9870  0.4213
 5963SOL    HW229526   1.492   0.132   5.134 -0.0796  0.3823  0.4534
 5964SOL     OW29527   0.321   1.111   8.993 -0.0180 -0.8945  0.0473
 5964SOL    HW129528   0.264   1.103   9.069 -0.5536  0.5105 -0.1979
 5964SOL    HW229529   0.335   1.206   8.995  0.7923 -0.9626 -2.0014
 5965SOL     OW29530   0.298   1.154  11.136  0.1075 -0.0993  0.0033
 5965SOL    HW129531   0.310   1.080  11.076  0.5349  1.3956 -1.7455
 5965SOL    HW229532   0.210   1.180  11.110  0.6632 -0.4705 -2.1921
 5966SOL     OW29533   3.117   4.087  12.967  0.6872 -0.7912 -0.1233
 5966SOL    HW129534   3.057   4.122  13.033 -0.4708 -1.1478 -0.9765
 5966SOL    HW229535   3.183   4.053  13.027  2.6622 -0.0350 -1.8809
 5967SOL     OW29536   2.848   4.236   2.245  0.2577  0.2990 -0.0274
 5967SOL    HW129537   2.927   4.193   2.278 -1.1265 -3.0055 -1.0558
 5967SOL    HW229538   2.839   4.182   2.167 -0.7442  0.1329  0.1944
 5968SOL     OW29539   3.075   1.040   5.310  0.1170  0.5060 -0.2656
 5968SOL    HW129540   3.112   1.008   5.392  0.8169  1.3126 -0.2588
 5968SOL    HW229541   3.060   1.133   5.327 -1.2907  0.0750  0.7671
 5969SOL     OW29542   3.102   4.597   2.418 -0.2964 -0.8854 -0.3886
 5969SOL    HW129543   3.013   4.632   2.425  1.0506  2.1681  1.4026
 5969SOL    HW229544   3.151   4.679   2.419 -0.6681 -0.6547 -1.1472
 5970SOL     OW29545   0.098   0.335  13.705 -0.1577 -0.2892  0.0209
 5970SOL    HW129546   0.012   0.296  13.720  0.8110 -2.7764 -1.0015
 5970SOL    HW229547   0.085   0.418  13.751  0.5537  0.3596 -0.9502
 5971SOL     OW29548   2.235   1.112   3.617  0.2115 -0.2041 -0.4218
 5971SOL    HW129549   2.194   1.094   3.533  2.1221 -1.7050 -1.0323
 5971SOL    HW229550   2.239   1.034   3.672 -0.2315 -0.4033 -0.6767
 5972SOL     OW29551   0.012   4.524   9.317  0.4464 -0.0605 -0.1002
 5972SOL    HW129552   4.664   4.494   9.327  0.8061 -1.3973 -0.8364
 5972SOL    HW229553   0.062   4.447   9.289  2.9051  0.8813  1.6297
 5973SOL     OW29554   2.511   4.667   5.019  0.2508  0.5195  0.0302
 5973SOL    HW129555   2.512   4.645   4.926 -1.5758  1.2394 -0.1626
 5973SOL    HW229556   2.557   0.009   5.026  1.2442 -0.0868  0.8656
 5974SOL     OW29557   4.599   4.157   4.854  0.5131 -0.7238 -0.3000
 5974SOL    HW129558   4.639   4.173   4.769 -2.0613 -0.5220 -1.4933
 5974SOL    HW229559   4.654   4.084   4.880  0.5886  0.6396  3.3258
 5975SOL     OW29560   2.380   0.583   4.744  0.3392 -0.3052 -0.2471
 5975SOL    HW129561   2.287   0.575   4.723  0.6653  0.3427 -1.9979
 5975SOL    HW229562   2.409   0.579   4.652  2.2742  5.1266  0.0919
 5976SOL     OW29563   4.439   4.221  14.578  0.2708 -0.0213  0.1673
 5976SOL    HW129564   4.468   4.190  14.664  2.9022  2.1317  0.0373
 5976SOL    HW229565   4.520   4.209  14.527 -0.2888 -0.8461 -0.5441
 5977SOL     OW29566   2.224   4.173   5.600  0.3485 -0.3293 -0.2720
 5977SOL    HW129567   2.296   4.203   5.544 -0.1855  1.7652  0.1565
 5977SOL    HW229568   2.267   4.108   5.655  0.1291 -3.0276 -3.2939
 5978SOL     OW29569   1.530   0.366   6.200  0.1280 -0.2046  0.1515
 5978SOL    HW129570   1.552   0.421   6.274  0.4799 -0.3948  0.1893
 5978SOL    HW229571   1.438   0.342   6.215  0.3479 -1.4878 -0.5448
 5979SOL     OW29572   4.574   4.627   3.597  0.0628 -0.1721  0.1875
 5979SOL    HW129573   4.669   4.631   3.586  0.0364  3.5701  1.4683
 5979SOL    HW229574   4.543   4.649   3.509 -0.3159 -0.4997  0.2403
 5980SOL     OW29575   0.368   4.643   4.813  0.3741 -0.1435  0.0268
 5980SOL    HW129576   0.463   4.650   4.805  0.4296 -0.4320  0.4783
 5980SOL    HW229577   0.345   4.582   4.743 -1.1084  0.5970 -0.1468
 5981SOL     OW29578   2.446   2.108  15.928  0.3537  0.3683 -0.1937
 5981SOL    HW129579   2.411   2.166  15.860 -0.6187 -0.6064 -0.5108
 5981SOL    HW229580   2.454   2.185  15.985  2.7032  0.8070 -1.1284
 5982SOL     OW29581   1.734   0.663   7.516  0.2811  0.2064  0.4671
 5982SOL    HW129582   1.641   0.671   7.537  0.4398  0.4562  1.0786
 5982SOL    HW229583   1.729   0.585   7.462  0.8119  0.4989 -0.0106
 5983SOL     OW29584   1.974   2.502   7.388  0.0249  0.0487 -0.2730
 5983SOL    HW129585   2.046   2.535   7.442  0.8390 -1.8730 -0.1828
 5983SOL    HW229586   2.020   2.441   7.330 -0.3004  0.1494 -0.6306
 5984SOL     OW29587   4.148   3.897  12.518  0.6413 -0.4658 -1.0543
 5984SOL    HW129588   4.057   3.879  12.543  0.8767 -0.6909 -0.3633
 5984SOL    HW229589   4.198   3.868  12.594 -0.5198 -0.9932 -0.4888
 5985SOL     OW29590   2.959   1.574   0.650 -0.0918 -0.2593  0.3714
 5985SOL    HW129591   2.956   1.519   0.572 -0.8737  0.2140  0.0673
 5985SOL    HW229592   2.958   1.509   0.721  0.4497 -0.2696  0.3677
 5986SOL     OW29593   1.470   3.224   3.805 -0.3618 -0.4977 -0.1442
 5986SOL    HW129594   1.438   3.207   3.894  0.4888 -3.8565 -0.5028
 5986SOL    HW229595   1.399   3.275   3.767 -0.9529 -1.3506 -0.1800
 5987SOL     OW29596   0.269   1.563   3.837  0.3465 -0.8297  0.3705
 5987SOL    HW129597   0.269   1.553   3.932 -0.4746  0.0809  0.4699
 5987SOL    HW229598   0.276   1.658   3.838  1.0191 -0.8897  1.4735
 5988SOL     OW29599   1.909   0.597   8.476 -0.2274 -0.1728  0.3015
 5988SOL    HW129600   1.868   0.554   8.400  1.5330 -2.6964  0.7702
 5988SOL    HW229601   1.835   0.634   8.524  1.2248 -0.0758  2.4326
 5989SOL     OW29602   1.270   4.320   5.716 -0.1918 -0.0237  0.8464
 5989SOL    HW129603   1.365   4.313   5.726 -0.1855  1.5990  1.9888
 5989SOL    HW229604   1.233   4.305   5.804  0.1710 -1.4591  0.7462
 5990SOL     OW29605   0.839   0.007   3.806 -0.1181 -0.4351  0.2427
 5990SOL    HW129606   0.799   4.679   3.857 -0.2277  1.4404  2.7473
 5990SOL    HW229607   0.796   4.724   3.724 -1.1540  1.5053  0.1862
 5991SOL     OW29608   3.920   1.206   0.949  0.5106  0.4431 -0.0797
 5991SOL    HW129609   3.904   1.185   1.042 -1.8765 -1.0327 -0.8123
 5991SOL    HW229610   3.864   1.283   0.943  1.3751  1.1035  0.3627
 5992SOL     OW29611   3.029   3.134  14.840  0.3123 -0.0061  0.2303
 5992SOL    HW129612   3.087   3.059  14.853  1.0038  0.6029  0.7151
 5992SOL    HW229613   3.094   3.198  14.870  0.6104 -0.9808  1.6929
 5993SOL     OW29614   1.501   0.982   4.582  0.0918  0.3215 -0.0580
 5993SOL    HW129615   1.434   1.044   4.554 -0.5046 -0.2361  0.1190
 5993SOL    HW229616   1.573   1.037   4.610  1.1033 -2.1082  2.1444
 5994SOL     OW29617   3.293   4.615   1.441  0.4419  0.0965 -0.2078
 5994SOL    HW129618   3.200   4.623   1.417  0.5082 -1.2965 -0.9367
 5994SOL    HW229619   3.285   4.596   1.534 -0.3841  3.1032  0.3367
 5995SOL     OW29620   3.627   2.823   3.613 -0.6667  0.4434 -0.3091
 5995SOL    HW129621   3.560   2.827   3.682 -0.5190 -0.9583 -0.0948
 5995SOL    HW229622   3.575   2.770   3.552 -0.6512 -1.2571  1.1539
 5996SOL     OW29623   1.037   0.930   3.795  0.2546  0.2317  0.0083
 5996SOL    HW129624   0.971   0.946   3.727  1.2540 -0.9193 -1.2385
 5996SOL    HW229625   1.048   0.835   3.797  0.5646  0.2588 -0.6145
 5997SOL     OW29626   0.428   0.822   4.063 -0.1373 -0.0377  0.0318
 5997SOL    HW129627   0.501   0.836   4.003 -2.0780 -0.2295 -2.3712
 5997SOL    HW229628   0.367   0.770   4.010 -2.1986 -0.1747  2.5401
 5998SOL     OW29629   0.664   2.687   9.033  0.4280  0.0791 -0.1797
 5998SOL    HW129630   0.674   2.603   9.080  1.9912  0.5261  0.2795
 5998SOL    HW229631   0.755   2.711   9.018  0.9015 -0.8780  1.0918
 5999SOL     OW29632   4.363   3.223   1.161 -0.3774 -0.2036  0.7273
 5999SOL    HW129633   4.384   3.275   1.238  0.9805 -0.3583  0.4548
 5999SOL    HW229634   4.358   3.295   1.098 -0.5616  0.7140  1.8030
 6000SOL     OW29635   1.985   3.782   4.684  0.3000 -0.9646 -0.3464
 6000SOL    HW129636   2.020   3.784   4.773  0.2561 -1.8156 -0.3128
 6000SOL    HW229637   2.055   3.824   4.634  1.0462 -1.4029  0.3481
 6001SOL     OW29638   3.764   3.147  11.365 -0.1168  0.1151  0.2320
 6001SOL    HW129639   3.754   3.139  11.270  3.3098  0.1000 -0.1268
 6001SOL    HW229640   3.830   3.215  11.377  0.7661 -0.3635 -1.9414
 6002SOL     OW29641   0.475   0.835   3.725 -0.4367 -0.2580  0.3039
 6002SOL    HW129642   0.492   0.755   3.675 -1.8112 -0.5727  0.3494
 6002SOL    HW229643   0.564   0.864   3.745 -0.4139  0.7586 -1.2318
 6003SOL     OW29644   4.726   2.576  17.506  0.0936 -0.3630 -0.8182
 6003SOL    HW129645   4.730   2.641  17.436 -2.1881  0.3018 -0.3348
 6003SOL    HW229646   4.644   2.593  17.553 -0.0895 -3.3506 -0.0340
 6004SOL     OW29647   0.278   1.968   3.081 -0.1342 -0.1958  0.4606
 6004SOL    HW129648   0.190   1.931   3.069 -0.4059  1.0171 -1.4431
 6004SOL    HW229649   0.257   2.055   3.114  0.6802 -0.0133  0.4922
 6005SOL     OW29650   0.824   3.790  15.420  0.3408  0.2340  0.0564
 6005SOL    HW129651   0.900   3.743  15.384 -1.4376 -0.6783 -2.5048
 6005SOL    HW229652   0.832   3.878  15.384  0.6195  0.3342  0.3564
 6006SOL     OW29653   4.455   3.994  17.583 -0.2691  0.5779  0.0255
 6006SOL    HW129654   4.487   3.994  17.673 -0.1064  0.6627 -0.0313
 6006SOL    HW229655   4.385   3.929  17.591  1.0714 -1.0197 -1.1773
 6007SOL     OW29656   0.551   1.383   8.740 -0.1836  0.4729  0.2545
 6007SOL    HW129657   0.516   1.468   8.767  2.2381  2.1698 -1.9343
 6007SOL    HW229658   0.603   1.407   8.663  0.2868  0.9283  0.7152
 6008SOL     OW29659   0.366   1.898   9.911 -0.0838  0.2724  0.2364
 6008SOL    HW129660   0.347   1.811   9.877  0.2003  0.0321  0.6995
 6008SOL    HW229661   0.321   1.950   9.844 -2.8112 -0.9866  1.0520
 6009SOL     OW29662   4.341   2.843   8.251 -0.2060 -0.1699  0.5578
 6009SOL    HW129663   4.435   2.838   8.270  0.3273 -0.9439 -2.3256
 6009SOL    HW229664   4.333   2.806   8.163 -0.6023  4.2689 -1.2740
 6010SOL     OW29665   0.833   3.485  11.397 -0.4317  0.6359 -0.0284
 6010SOL    HW129666   0.897   3.555  11.384  2.0289 -1.7906 -0.7866
 6010SOL    HW229667   0.791   3.530  11.471 -0.9026 -0.8854  0.6419
 6011SOL     OW29668   3.754   3.673   6.672  0.0452  0.1468  0.0669
 6011SOL    HW129669   3.810   3.687   6.595  0.7873  0.6123  0.6966
 6011SOL    HW229670   3.785   3.739   6.734 -0.6718 -1.0809  1.7070
 6012SOL     OW29671   4.456   1.434   3.660  0.4593 -0.7553 -0.0055
 6012SOL    HW129672   4.502   1.414   3.578 -1.6854 -0.2424 -1.3387
 6012SOL    HW229673   4.459   1.351   3.708  0.8244 -0.1993  0.9233
 6013SOL     OW29674   0.997   0.387   8.169  0.0723 -0.0577 -0.1471
 6013SOL    HW129675   0.980   0.476   8.140  1.5438  0.4780  0.6169
 6013SOL    HW229676   0.943   0.389   8.248 -1.6580  0.4774 -1.3674
 6014SOL     OW29677   3.644   2.094   9.859  0.0495  0.1999  0.5910
 6014SOL    HW129678   3.646   2.190   9.857  1.8903  0.1631  0.2639
 6014SOL    HW229679   3.735   2.078   9.885  0.1680 -0.2619 -0.0948
 6015SOL     OW29680   0.271   2.738   3.885  0.0261 -0.1654  0.8978
 6015SOL    HW129681   0.260   2.805   3.952 -0.1439  0.4283  0.2779
 6015SOL    HW229682   0.325   2.673   3.929  1.6254 -0.8010 -1.9819
 6016SOL     OW29683   1.558   4.543   7.994  0.3143  0.4214  0.9155
 6016SOL    HW129684   1.563   4.501   7.908  2.0868 -0.0993  1.2728
 6016SOL    HW229685   1.583   4.475   8.057 -2.0986 -1.4454 -0.1786
 6017SOL     OW29686   1.498   4.464   7.218 -0.4187  0.0446 -0.2029
 6017SOL    HW129687   1.584   4.446   7.179 -0.2625  1.4149 -0.4917
 6017SOL    HW229688   1.432   4.415   7.170 -0.8598 -0.6911  1.1723
 6018SOL     OW29689   1.303   1.947   1.443  0.1331  0.3646 -0.2853
 6018SOL    HW129690   1.375   1.884   1.436 -2.5470 -2.7344 -0.0980
 6018SOL    HW229691   1.300   1.982   1.353 -0.8553 -0.0518 -0.4199
 6019SOL     OW29692   3.374   0.348   0.854 -0.0755  0.2115  0.0682
 6019SOL    HW129693   3.433   0.422   0.869  1.5343 -0.9703 -0.3273
 6019SOL    HW229694   3.384   0.311   0.942  1.5177 -1.0343 -0.6332
 6020SOL     OW29695   4.540   1.241   1.303 -0.2543 -0.4635  0.1550
 6020SOL    HW129696   4.526   1.297   1.227 -0.1438  0.5672  0.8982
 6020SOL    HW229697   4.600   1.297   1.352 -0.2478 -1.3619  1.1724
 6021SOL     OW29698   2.070   0.991   9.441  0.7633 -0.4238  0.6295
 6021SOL    HW129699   2.122   1.069   9.462 -0.0358  0.6210 -1.2598
 6021SOL    HW229700   2.070   0.937   9.520 -1.4021  1.4801  1.9517
 6022SOL     OW29701   1.758   2.271  11.449 -0.2580 -0.6443  0.3832
 6022SOL    HW129702   1.780   2.206  11.515  0.7248 -0.0519  0.6499
 6022SOL    HW229703   1.846   2.303  11.427 -1.2317  2.7520  1.3370
 6023SOL     OW29704   0.138   3.298   1.600  0.5374  0.2517  0.2012
 6023SOL    HW129705   0.066   3.294   1.662  0.2854  2.4225  0.0412
 6023SOL    HW229706   0.114   3.239   1.528  0.6217  0.8397 -0.3099
 6024SOL     OW29707   3.306   1.296   7.504 -0.4044  0.4259 -0.3793
 6024SOL    HW129708   3.355   1.214   7.510  0.1689  0.8451  0.6967
 6024SOL    HW229709   3.276   1.299   7.414 -0.9532  0.7639 -0.1822
 6025SOL     OW29710   3.493   3.829   2.795  0.2702 -0.3574 -0.1830
 6025SOL    HW129711   3.432   3.768   2.836 -0.3565  0.3485 -0.0620
 6025SOL    HW229712   3.565   3.825   2.858  0.3460  0.8502 -0.1852
 6026SOL     OW29713   2.098   0.760   8.322 -0.0803  0.2058 -0.1884
 6026SOL    HW129714   2.032   0.830   8.325  1.6580  1.7717  1.6282
 6026SOL    HW229715   2.068   0.693   8.382  1.3181  2.4524  3.0093
 6027SOL     OW29716   0.015   0.943   3.785 -0.0054 -0.1236  0.2310
 6027SOL    HW129717   0.033   0.863   3.736 -0.6572 -0.3800  0.4015
 6027SOL    HW229718   4.719   1.002   3.720 -0.6235 -1.5711 -0.7222
 6028SOL     OW29719   0.425   0.603   2.576  0.6464 -0.3745 -0.0791
 6028SOL    HW129720   0.450   0.537   2.512 -0.2448 -1.3492  0.5755
 6028SOL    HW229721   0.431   0.683   2.524  1.5543 -0.1059  0.4345
 6029SOL     OW29722   1.372   4.079   7.778 -0.0302  0.6153 -0.4593
 6029SOL    HW129723   1.333   4.092   7.864 -0.6664 -1.8674 -0.3565
 6029SOL    HW229724   1.447   4.023   7.798  0.3520  1.2799 -0.0316
 6030SOL     OW29725   2.536   4.666   5.678  0.4658 -0.2701 -0.4349
 6030SOL    HW129726   2.488   0.005   5.662  1.4250  0.3185 -0.3843
 6030SOL    HW229727   2.508   4.610   5.606  0.4199 -2.5596  1.3764
 6031SOL     OW29728   3.592   3.498   3.828 -0.5364  0.9348 -0.3750
 6031SOL    HW129729   3.622   3.431   3.767 -0.9329  0.4557 -0.0391
 6031SOL    HW229730   3.626   3.453   3.905 -0.6905  0.7443 -0.4203
 6032SOL     OW29731   0.870   3.750   5.664  0.6275  0.2629  0.5401
 6032SOL    HW129732   0.882   3.843   5.648 -2.1067  0.5535  0.2416
 6032SOL    HW229733   0.949   3.736   5.717  0.2466  0.8075  1.2389
 6033SOL     OW29734   2.101   0.229   2.893  0.5077  0.2381  0.2509
 6033SOL    HW129735   2.043   0.219   2.817  2.4802 -1.7111 -1.0124
 6033SOL    HW229736   2.090   0.140   2.927  0.6554  0.1025 -0.0536
 6034SOL     OW29737   2.860   2.687   9.410 -0.0343  0.4393  0.4510
 6034SOL    HW129738   2.848   2.699   9.315 -2.8990 -0.9591  0.6332
 6034SOL    HW229739   2.932   2.745   9.433  0.6273  0.3097 -1.2352
 6035SOL     OW29740   2.415   2.895   2.465 -0.7570 -0.2969  0.6234
 6035SOL    HW129741   2.435   2.805   2.491  0.7531 -0.9785 -2.8844
 6035SOL    HW229742   2.369   2.877   2.384  0.7963 -0.8200 -0.1535
 6036SOL     OW29743   4.565   4.151   9.585 -0.0491 -0.0128  0.6063
 6036SOL    HW129744   4.506   4.218   9.620 -0.6372  0.5922 -1.5249
 6036SOL    HW229745   4.610   4.139   9.668  1.1661 -2.5695 -0.4201
 6037SOL     OW29746   2.975   2.057   3.586  0.0896 -0.0457  0.0430
 6037SOL    HW129747   3.061   2.079   3.553 -0.3876  1.6166 -0.1053
 6037SOL    HW229748   2.974   1.962   3.577 -1.3462 -0.0683  0.2890
 6038SOL     OW29749   4.725   3.467   7.172  0.0139 -1.0301  0.6755
 6038SOL    HW129750   4.666   3.437   7.102 -0.6508  0.2938  0.6711
 6038SOL    HW229751   4.657   3.512   7.223 -0.2889  1.1043 -1.6417
 6039SOL     OW29752   1.269   0.131   1.423 -0.4116  0.1461  0.5067
 6039SOL    HW129753   1.356   0.089   1.427 -0.5056 -0.0937  0.0603
 6039SOL    HW229754   1.276   0.168   1.335 -1.0765 -2.0307 -0.4559
 6040SOL     OW29755   0.356   3.349   3.348  0.1798  0.1821 -0.4195
 6040SOL    HW129756   0.301   3.273   3.367 -1.3511  0.9034 -1.8594
 6040SOL    HW229757   0.429   3.333   3.407 -0.9882 -0.9408  0.7176
 6041SOL     OW29758   2.860   3.677   1.224 -0.0071  0.1075 -0.4615
 6041SOL    HW129759   2.927   3.627   1.177 -1.8935 -1.3665 -1.5802
 6041SOL    HW229760   2.913   3.740   1.273 -0.2786 -1.5022  1.8778
 6042SOL     OW29761   3.567   4.008   8.461 -0.0443  0.3883 -0.0680
 6042SOL    HW129762   3.561   3.912   8.464  1.5006  0.2728 -0.3895
 6042SOL    HW229763   3.609   4.021   8.546  2.3699 -1.7174 -0.9132
 6043SOL     OW29764   0.170   0.908   3.500 -1.1030  0.0646  0.2220
 6043SOL    HW129765   0.248   0.897   3.555  0.5734 -2.6968 -2.7330
 6043SOL    HW229766   0.207   0.885   3.415 -1.9438 -0.2794 -0.0555
 6044SOL     OW29767   2.917   0.021   6.904 -0.3235 -0.3387 -0.6388
 6044SOL    HW129768   2.877   4.678   6.923 -1.0242  0.4971  1.6486
 6044SOL    HW229769   2.978   0.025   6.978  0.0083  1.3065 -0.9986
 6045SOL     OW29770   2.361   2.928   4.463  0.0723 -0.9414 -0.2864
 6045SOL    HW129771   2.387   2.836   4.457  1.0170 -0.5994 -1.3537
 6045SOL    HW229772   2.401   2.955   4.380 -0.8045  1.8381  0.1876
 6046SOL     OW29773   2.974   0.757   8.198  0.2268  0.2566  0.0223
 6046SOL    HW129774   2.888   0.793   8.176 -0.0735 -0.8519 -0.6386
 6046SOL    HW229775   2.993   0.795   8.283 -0.2954  1.9230 -0.6031
 6047SOL     OW29776   4.223   4.484   0.004 -0.2684 -0.0385 -0.3910
 6047SOL    HW129777   4.272   4.438   0.073 -1.7606 -0.9668  0.0363
 6047SOL    HW229778   4.178   4.553   0.053  2.3482  0.8129  0.8377
 6048SOL     OW29779   0.141   0.431   7.133  0.5547  0.1364  0.0055
 6048SOL    HW129780   0.201   0.470   7.069 -0.6072 -0.3334 -1.3918
 6048SOL    HW229781   0.067   0.400   7.079  0.2577  0.5133  0.1996
 6049SOL     OW29782   2.644   1.168   4.679  0.2987 -0.1493  0.0979
 6049SOL    HW129783   2.658   1.145   4.771 -1.1357 -1.8645 -0.1159
 6049SOL    HW229784   2.637   1.079   4.645  0.2273 -0.2040  0.2551
 6050SOL     OW29785   1.446   1.224  16.278  0.0238 -0.0772  0.5333
 6050SOL    HW129786   1.479   1.267  16.199  0.7633 -1.3817  0.1323
 6050SOL    HW229787   1.358   1.258  16.292 -0.8705 -1.9828 -0.4360
 6051SOL     OW29788   3.805   1.621   3.159 -0.8115  0.1234  0.5226
 6051SOL    HW129789   3.790   1.673   3.080  0.9721 -0.6921 -0.3751
 6051SOL    HW229790   3.836   1.536   3.127 -0.4018  0.4565  0.0090
 6052SOL     OW29791   2.343   2.649   5.788 -0.0899  0.1862  0.7298
 6052SOL    HW129792   2.373   2.691   5.708 -1.0794 -1.0639 -0.2951
 6052SOL    HW229793   2.414   2.671   5.848  0.8123  0.8049 -0.5672
 6053SOL     OW29794   3.545   4.151   9.113  0.4744  0.0264  0.1917
 6053SOL    HW129795   3.631   4.147   9.155  1.4905  1.0597 -1.7983
 6053SOL    HW229796   3.558   4.190   9.027 -0.1175 -1.2179 -0.4752
 6054SOL     OW29797   0.864   3.754   6.591 -0.1785 -0.9525  0.5952
 6054SOL    HW129798   0.825   3.723   6.673 -0.0692  1.5763  1.6247
 6054SOL    HW229799   0.944   3.704   6.577  2.3548  2.7515  1.8379
 6055SOL     OW29800   2.864   3.884  11.591 -0.5830 -0.0631 -0.3179
 6055SOL    HW129801   2.938   3.835  11.555  0.4298  0.3130  1.2944
 6055SOL    HW229802   2.801   3.877  11.519 -0.9948  1.2892 -0.0911
 6056SOL     OW29803   1.811   1.890   9.225  0.0905  0.0121 -0.1810
 6056SOL    HW129804   1.788   1.797   9.228  1.5938 -0.3386  0.7705
 6056SOL    HW229805   1.865   1.900   9.304  2.6034 -0.6606 -1.8169
 6057SOL     OW29806   0.733   1.313  11.760 -0.2070 -0.4108  0.1935
 6057SOL    HW129807   0.770   1.401  11.749  1.1468 -0.9498  0.4554
 6057SOL    HW229808   0.674   1.323  11.834 -2.3453 -0.6177 -1.4960
 6058SOL     OW29809   1.712   0.050   1.050 -0.1863 -0.4574 -0.1327
 6058SOL    HW129810   1.756   0.128   1.085  0.3741 -0.5428 -0.6414
 6058SOL    HW229811   1.779   4.727   1.073  0.4838  0.0386 -0.6580
 6059SOL     OW29812   2.270   2.208  11.275  0.4745 -0.5746  0.4424
 6059SOL    HW129813   2.345   2.154  11.301 -1.0498 -2.6620  0.5073
 6059SOL    HW229814   2.258   2.164  11.191  0.8505 -1.5735  0.9169
 6060SOL     OW29815   3.774   1.602  10.186 -0.4923  0.6210 -0.4788
 6060SOL    HW129816   3.734   1.612  10.272  0.2788 -2.7073  0.2870
 6060SOL    HW229817   3.806   1.692  10.189 -0.6553  0.6404  0.4930
 6061SOL     OW29818   4.579   2.731  13.151  0.5113 -0.3258 -0.0206
 6061SOL    HW129819   4.529   2.779  13.085  0.2335 -0.9693 -0.2803
 6061SOL    HW229820   4.648   2.693  13.097  0.2677 -0.3895 -0.2860
 6062SOL     OW29821   0.018   0.668  10.372  0.3408 -0.6685  0.4250
 6062SOL    HW129822   4.702   0.707  10.437  1.9826  0.6380  1.0801
 6062SOL    HW229823   0.050   0.594  10.423 -1.5531 -2.4993 -1.0302
 6063SOL     OW29824   0.683   3.710  12.159 -0.5489  0.5474 -0.2190
 6063SOL    HW129825   0.740   3.639  12.187  1.1987  0.8019 -3.1912
 6063SOL    HW229826   0.597   3.671  12.176  0.6812 -1.8344  0.5484
 6064SOL     OW29827   1.237   3.090   4.900 -0.0213 -0.2329  0.1846
 6064SOL    HW129828   1.244   3.145   4.822 -2.8519 -0.4247 -0.2069
 6064SOL    HW229829   1.220   3.006   4.857  0.8489  0.7155 -1.9703
 6065SOL     OW29830   1.722   3.768   4.145 -0.0629  0.3828 -0.1788
 6065SOL    HW129831   1.790   3.812   4.094  1.2695 -0.4781  0.8324
 6065SOL    HW229832   1.773   3.729   4.216 -1.1099  3.6592  2.3400
 6066SOL     OW29833   3.742   4.724   5.269 -0.0550  0.1680 -0.0240
 6066SOL    HW129834   3.714   0.070   5.242 -1.0180 -0.4467 -1.0188
 6066SOL    HW229835   3.742   4.673   5.188  0.0593 -0.1071  0.1520
 6067SOL     OW29836   0.820   4.475   3.287  0.3030  0.3329 -0.0555
 6067SOL    HW129837   0.859   4.446   3.205  0.6482 -1.5924  0.7898
 6067SOL    HW229838   0.756   4.404   3.294  0.5287 -0.0064 -1.5618
 6068SOL     OW29839   0.132   0.132  14.812  0.3600  0.3597  0.3727
 6068SOL    HW129840   0.138   0.220  14.774  4.4261  0.0619  0.3864
 6068SOL    HW229841   0.152   0.143  14.904  0.1282  1.0579  0.3405
 6069SOL     OW29842   2.351   4.286   7.669  0.6395 -0.4639 -0.1116
 6069SOL    HW129843   2.417   4.353   7.683 -0.8103  1.1973 -1.2723
 6069SOL    HW229844   2.360   4.250   7.581 -0.2706  0.5394 -0.6191
 6070SOL     OW29845   2.613   3.451   7.685  0.7791 -0.2815 -0.3548
 6070SOL    HW129846   2.686   3.512   7.684 -0.7430  1.5532 -1.0417
 6070SOL    HW229847   2.571   3.470   7.601 -1.0535  1.7960  1.0066
 6071SOL     OW29848   2.248   4.567   2.349 -0.0262 -0.6339  0.6343
 6071SOL    HW129849   2.190   4.635   2.316 -1.5060 -1.4844  1.5094
 6071SOL    HW229850   2.221   4.570   2.441  0.5965  0.1677  0.7863
 6072SOL     OW29851   0.229   4.339   4.100  0.1090 -0.1163 -0.6894
 6072SOL    HW129852   0.312   4.292   4.093  1.0792  1.2414  1.6258
 6072SOL    HW229853   0.191   4.294   4.175 -0.7265  1.3569 -0.2170
 6073SOL     OW29854   3.240   0.625  13.302  0.4216  0.2428  0.8546
 6073SOL    HW129855   3.149   0.595  13.311 -0.1034  1.8473  0.8646
 6073SOL    HW229856   3.219   0.700  13.246 -0.1947  0.6428  1.6223
 6074SOL     OW29857   1.783   3.135  12.057  0.5716 -0.2273  0.4063
 6074SOL    HW129858   1.851   3.183  12.009  0.3144 -0.1616  0.1077
 6074SOL    HW229859   1.812   3.044  12.053 -1.9302 -1.0254  0.7506
 6075SOL     OW29860   3.864   1.960   9.082  0.0910 -0.0178  0.2194
 6075SOL    HW129861   3.940   1.946   9.026  1.0423 -0.5161  1.6362
 6075SOL    HW229862   3.901   1.937   9.167 -2.0177 -0.6077  0.9654
 6076SOL     OW29863   1.986   3.918   6.260 -0.3562 -0.1160  1.0344
 6076SOL    HW129864   1.909   3.970   6.237 -0.1806 -0.0017  0.7116
 6076SOL    HW229865   2.053   3.981   6.287 -2.0173  2.0473  0.0833
 6077SOL     OW29866   3.047   2.151   1.618  0.0508 -0.2800  0.5341
 6077SOL    HW129867   3.110   2.191   1.558 -0.3183  1.2455  1.1534
 6077SOL    HW229868   3.008   2.230   1.655  0.5487 -0.1175  0.7139
 6078SOL     OW29869   3.483   3.694   6.643  0.1121 -0.2168  0.1371
 6078SOL    HW129870   3.474   3.786   6.669 -0.7669  0.1845 -1.6218
 6078SOL    HW229871   3.578   3.686   6.655  0.0975 -1.0141 -0.3139
 6079SOL     OW29872   0.387   1.505   5.656 -0.5097 -0.2479 -0.3615
 6079SOL    HW129873   0.383   1.428   5.712 -0.3942  2.0859  2.8348
 6079SOL    HW229874   0.354   1.467   5.574 -1.2545  2.3892 -1.3043
 6080SOL     OW29875   3.081   1.342   3.567  0.3894  0.1867  0.5508
 6080SOL    HW129876   3.161   1.295   3.591  0.6512  0.2328 -0.2338
 6080SOL    HW229877   3.122   1.428   3.573 -0.0203  0.3235  1.3579
 6081SOL     OW29878   2.527   2.839   1.639 -0.2695  0.1032  0.0684
 6081SOL    HW129879   2.448   2.867   1.594  1.8471  1.3524 -2.8828
 6081SOL    HW229880   2.594   2.884   1.587 -0.3805 -0.5845 -0.6628
 6082SOL     OW29881   0.486   1.740   3.143 -0.0874 -0.5666 -0.0844
 6082SOL    HW129882   0.577   1.740   3.173 -0.5600  0.5922  1.3602
 6082SOL    HW229883   0.477   1.817   3.087 -2.3027 -2.6815 -2.6110
 6083SOL     OW29884   0.947   2.925   2.103  0.8047 -0.3377  0.0622
 6083SOL    HW129885   1.038   2.954   2.089 -0.2050  4.2784  3.0556
 6083SOL    HW229886   0.952   2.843   2.151  0.2699 -0.3237  0.1436
 6084SOL     OW29887   1.592   0.256   9.690  0.2983  0.1398 -0.6180
 6084SOL    HW129888   1.523   0.220   9.634  2.0957 -0.5838 -2.3884
 6084SOL    HW229889   1.530   0.288   9.755  0.0115  0.2383 -0.9412
 6085SOL     OW29890   0.080   0.342  12.130 -0.4619 -0.6106 -0.5874
 6085SOL    HW129891   0.023   0.398  12.077  2.0480  2.1180 -0.3614
 6085SOL    HW229892   0.019   0.291  12.184 -0.5699 -1.1816 -1.2420
 6086SOL     OW29893   4.736   3.278   6.546 -0.5712  0.8779  0.2502
 6086SOL    HW129894   4.738   3.237   6.632  0.7714  0.9901  0.2630
 6086SOL    HW229895   4.645   3.307   6.538 -1.0321 -0.6881 -0.1883
 6087SOL     OW29896   3.979   3.101   2.418  0.4269  0.1027 -0.6108
 6087SOL    HW129897   4.065   3.143   2.425 -0.0189  0.8248  0.5059
 6087SOL    HW229898   3.970   3.091   2.323  0.7831 -1.1961 -0.5124
 6088SOL     OW29899   1.326   1.068  14.271 -0.1152 -0.4165 -0.1415
 6088SOL    HW129900   1.276   0.997  14.231  2.1209 -0.7770 -2.2753
 6088SOL    HW229901   1.271   1.084  14.348 -0.9155  0.1211 -0.8230
 6089SOL     OW29902   3.736   4.457   5.385  0.4575 -0.3751 -0.0582
 6089SOL    HW129903   3.674   4.525   5.359  1.2516  0.4119  0.1077
 6089SOL    HW229904   3.705   4.421   5.468  0.1075  1.9896  0.8053
 6090SOL     OW29905   0.658   1.407   5.525  0.1945 -0.3424  0.5954
 6090SOL    HW129906   0.615   1.482   5.484  2.7658 -0.8675 -2.9959
 6090SOL    HW229907   0.684   1.438   5.612 -0.2030  0.6657  0.3532
 6091SOL     OW29908   2.538   1.095   2.339  0.6434  0.4152 -0.4314
 6091SOL    HW129909   2.556   1.002   2.325  1.0329  0.3719  0.3580
 6091SOL    HW229910   2.547   1.098   2.434 -3.3001 -0.4072 -0.0345
 6092SOL     OW29911   3.348   3.931   4.357 -0.1639 -0.2449  0.1914
 6092SOL    HW129912   3.300   3.851   4.379  0.1414 -0.0376  1.6033
 6092SOL    HW229913   3.399   3.918   4.277 -0.4457 -0.7499  0.0957
 6093SOL     OW29914   0.845   3.060   4.468  0.1377 -0.2222  0.0578
 6093SOL    HW129915   0.814   2.970   4.458 -0.7342  0.3366 -2.3138
 6093SOL    HW229916   0.765   3.107   4.447  0.8151  1.0632  0.3752
 6094SOL     OW29917   2.161   3.971  10.065  0.1842  0.6019 -0.2647
 6094SOL    HW129918   2.202   3.932  10.142  0.0672 -2.2738 -1.6552
 6094SOL    HW229919   2.233   4.023  10.029  1.2523  1.2666  2.8384
 6095SOL     OW29920   4.377   2.878   7.067 -0.1353  0.0898 -0.7202
 6095SOL    HW129921   4.384   2.866   6.972  2.4441 -0.2696 -0.4847
 6095SOL    HW229922   4.459   2.838   7.095 -0.2525 -0.6572 -1.4350
 6096SOL     OW29923   2.574   1.462   9.140 -0.1636  1.0712 -0.2607
 6096SOL    HW129924   2.662   1.499   9.132  0.3662 -0.0574  0.4025
 6096SOL    HW229925   2.567   1.476   9.234 -3.4418  0.6929 -0.4459
 6097SOL     OW29926   4.563   2.392   6.694  0.0995  1.1075 -0.5927
 6097SOL    HW129927   4.616   2.332   6.746 -1.8924 -0.2658 -0.1622
 6097SOL    HW229928   4.534   2.445   6.767  0.4373 -0.7382  0.8872
 6098SOL     OW29929   3.464   2.906   1.390  0.2465  0.5297 -0.4095
 6098SOL    HW129930   3.449   2.827   1.442  2.0742  0.8871  0.6641
 6098SOL    HW229931   3.456   2.971   1.459  3.3031  2.7801 -2.1698
 6099SOL     OW29932   0.871   4.195   8.623  0.6140 -0.1741 -0.0749
 6099SOL    HW129933   0.866   4.284   8.587 -0.0138 -0.1050  0.1910
 6099SOL    HW229934   0.914   4.213   8.707  2.3452  1.0016 -1.2012
 6100SOL     OW29935   0.499   1.003   7.042  0.2734 -0.0065 -0.8624
 6100SOL    HW129936   0.454   1.076   7.086 -0.9360 -0.2124 -1.7631
 6100SOL    HW229937   0.590   1.023   7.064  0.2443 -0.9164  0.0750
 6101SOL     OW29938   0.149   1.132   5.321 -0.3878  0.6030 -0.1846
 6101SOL    HW129939   0.076   1.087   5.363 -1.1442  1.8144 -0.1911
 6101SOL    HW229940   0.155   1.186   5.400 -0.2701  0.8025 -0.3293
 6102SOL     OW29941   1.917   0.805   4.084 -0.1091  0.2212 -0.2243
 6102SOL    HW129942   1.862   0.728   4.095  0.2209  0.0241  0.0538
 6102SOL    HW229943   1.947   0.791   3.994  1.6180  1.0935  0.1998
 6103SOL     OW29944   2.418   0.100   3.285 -0.6827  0.6252 -0.0719
 6103SOL    HW129945   2.355   0.028   3.290 -1.6446  1.5747  1.6204
 6103SOL    HW229946   2.409   0.109   3.190 -1.1970  2.9991  0.2089
 6104SOL     OW29947   3.361   1.612  10.486  0.4016 -0.3596  0.4392
 6104SOL    HW129948   3.366   1.526  10.529 -2.1271 -0.9676 -0.4609
 6104SOL    HW229949   3.315   1.582  10.408 -1.0182 -2.8953  2.2323
 6105SOL     OW29950   1.419   0.575   9.633 -0.5016  0.2856  0.2052
 6105SOL    HW129951   1.339   0.554   9.584 -1.3034  1.8527  0.8276
 6105SOL    HW229952   1.389   0.538   9.716  0.0415  2.2995  1.3101
 6106SOL     OW29953   3.196   4.557   5.140  0.2537 -0.4046 -0.0394
 6106SOL    HW129954   3.188   4.462   5.136 -1.1968 -0.2881 -0.0796
 6106SOL    HW229955   3.289   4.568   5.159 -0.0545  0.6436  0.8536
 6107SOL     OW29956   0.695   2.003   6.363 -0.1434 -0.4348 -0.0762
 6107SOL    HW129957   0.688   2.036   6.273 -0.5299 -0.4539 -0.0535
 6107SOL    HW229958   0.600   2.012   6.373 -0.0580  0.1230  0.1781
 6108SOL     OW29959   4.115   2.536  13.701 -1.0213 -0.0884  0.0254
 6108SOL    HW129960   4.209   2.555  13.706 -1.2989  0.6823  2.2913
 6108SOL    HW229961   4.075   2.600  13.759  0.4902  0.6896  0.2315
 6109SOL     OW29962   3.054   1.961  12.292 -0.5933 -0.2106 -0.1871
 6109SOL    HW129963   3.102   2.009  12.360  2.6767 -4.1506  0.2984
 6109SOL    HW229964   3.121   1.893  12.300 -0.5376 -0.2318 -0.8469
 6110SOL     OW29965   4.652   2.804   6.591 -0.2359 -0.2586 -0.0529
 6110SOL    HW129966   4.663   2.769   6.680 -1.8371  1.9898  1.0424
 6110SOL    HW229967   4.619   2.726   6.546 -2.8170  1.6856 -1.5065
 6111SOL     OW29968   0.239   0.764  12.616 -0.0108 -0.0192 -0.1412
 6111SOL    HW129969   0.257   0.697  12.682  0.7857  0.6284  0.3073
 6111SOL    HW229970   0.215   0.842  12.667 -1.6523 -0.4896 -0.1855
 6112SOL     OW29971   1.623   1.743   8.867 -0.4451 -0.0915  0.4118
 6112SOL    HW129972   1.649   1.799   8.794  1.3349 -0.8879  0.4291
 6112SOL    HW229973   1.666   1.659   8.850 -0.3614 -0.0554  0.4461
 6113SOL     OW29974   4.381   2.995  14.572 -0.4945  0.1387  0.2313
 6113SOL    HW129975   4.379   2.900  14.577 -1.3325  0.0892 -1.1378
 6113SOL    HW229976   4.449   3.016  14.635 -1.5283 -0.2347  1.4797
 6114SOL     OW29977   0.598   2.258   7.397  0.0234  0.4258  0.1735
 6114SOL    HW129978   0.667   2.323   7.408  0.8065 -0.8144  2.4693
 6114SOL    HW229979   0.647   2.176   7.399 -2.9752 -1.3316  1.3149
 6115SOL     OW29980   3.042   0.210   7.307  0.2376  0.1201 -0.3209
 6115SOL    HW129981   3.117   0.261   7.274  0.0256  1.3398  1.0758
 6115SOL    HW229982   3.088   0.176   7.384  0.3240 -0.8836 -0.8148
 6116SOL     OW29983   2.162   0.684   4.097 -0.3196 -0.3447 -0.7650
 6116SOL    HW129984   2.093   0.746   4.121 -0.7009 -0.0585 -2.6122
 6116SOL    HW229985   2.167   0.718   4.008  1.7902  1.7560  0.1796
 6117SOL     OW29986   4.334   1.665  11.796 -0.4551  0.6268  0.3180
 6117SOL    HW129987   4.326   1.760  11.790  0.1924  0.5883 -1.2218
 6117SOL    HW229988   4.418   1.651  11.753  0.5747  3.2868  1.4763
 6118SOL     OW29989   0.786   4.152   3.991  0.0437  0.6089 -1.0292
 6118SOL    HW129990   0.755   4.107   3.912 -0.6909 -3.3856  1.5316
 6118SOL    HW229991   0.866   4.103   4.010  0.5028  1.8018  0.1042
 6119SOL     OW29992   1.557   0.906   8.768 -0.0875  0.2764 -0.3905
 6119SOL    HW129993   1.543   0.916   8.674 -1.9803  1.1391 -0.0279
 6119SOL    HW229994   1.625   0.971   8.787  0.7500 -0.6292 -0.2827
 6120SOL     OW29995   0.340   1.014   2.404  0.0046 -0.3397  0.0155
 6120SOL    HW129996   0.276   0.952   2.367 -3.3381  1.8639  2.1098
 6120SOL    HW229997   0.413   0.953   2.411  1.1074  0.9017 -0.8058
 6121SOL     OW29998   1.070   2.600  10.978  0.1016 -0.0652 -0.1626
 6121SOL    HW129999   1.144   2.557  11.021  0.3637 -0.0145 -0.5630
 6121SOL    HW230000   1.069   2.688  11.016  3.6578 -0.5983  1.1265
 6122SOL     OW30001   0.479   2.514   4.793 -0.1051 -0.0878  0.3399
 6122SOL    HW130002   0.502   2.460   4.869  0.6382 -0.1568  0.0745
 6122SOL    HW230003   0.407   2.566   4.826  0.1751  1.1920 -1.0657
 6123SOL     OW30004   0.581   3.084  14.951  0.1114 -0.3184  0.7602
 6123SOL    HW130005   0.550   3.037  15.028 -2.3622 -0.2187 -0.1889
 6123SOL    HW230006   0.568   3.174  14.983 -1.1010  0.3487 -1.5957
 6124SOL     OW30007   4.351   3.880   6.962  1.1338 -0.4729  0.4054
 6124SOL    HW130008   4.304   3.801   6.935 -0.6291  0.7468 -0.1492
 6124SOL    HW230009   4.272   3.926   6.992  0.0855 -0.4007 -2.5298
 6125SOL     OW30010   0.709   3.276   9.951 -0.3691  0.1589  0.5672
 6125SOL    HW130011   0.736   3.191   9.918  1.2084  0.9033 -0.0571
 6125SOL    HW230012   0.746   3.329   9.880 -1.4700  1.0547  0.6538
 6126SOL     OW30013   2.357   1.391  15.834  0.1753  0.2571  0.2947
 6126SOL    HW130014   2.380   1.483  15.816  2.7105 -0.9375 -2.6735
 6126SOL    HW230015   2.443   1.353  15.816 -1.2437 -1.6243 -2.5347
 6127SOL     OW30016   1.339   1.785   8.918 -0.1239  0.3276 -0.3362
 6127SOL    HW130017   1.426   1.750   8.898 -0.4236 -1.0702  0.8356
 6127SOL    HW230018   1.308   1.715   8.976  2.5389 -1.6356 -1.2881
 6128SOL     OW30019   4.171   1.392   3.525  0.3033 -0.3052  0.3644
 6128SOL    HW130020   4.259   1.416   3.496  0.2812 -0.7705 -0.0936
 6128SOL    HW230021   4.192   1.333   3.597  2.8686 -0.7703 -0.7831
 6129SOL     OW30022   2.290   1.121   2.171  0.1587  0.1414 -0.1591
 6129SOL    HW130023   2.358   1.110   2.238 -1.2894 -0.7696  1.1484
 6129SOL    HW230024   2.316   1.051   2.111 -1.7578 -0.9126  0.2392
 6130SOL     OW30025   2.484   3.944  11.549  0.0565  0.4595  0.0764
 6130SOL    HW130026   2.520   3.889  11.619 -3.0397  0.3550  1.6104
 6130SOL    HW230027   2.539   4.021  11.550  0.5164  0.1515 -1.0615
 6131SOL     OW30028   2.348   2.870   6.083 -0.0028  0.6176 -0.0264
 6131SOL    HW130029   2.432   2.832   6.057  0.0196  1.2643 -0.9358
 6131SOL    HW230030   2.369   2.927   6.157 -1.1129  2.0590 -0.8139
 6132SOL     OW30031   0.380   2.610  16.722 -0.2113 -0.1571  0.3228
 6132SOL    HW130032   0.355   2.535  16.775 -0.6361  0.5522  1.1224
 6132SOL    HW230033   0.296   2.639  16.686  0.0620  1.6661  1.1430
 6133SOL     OW30034   1.944   2.958   1.794  0.0067 -0.0176 -0.7270
 6133SOL    HW130035   1.977   2.878   1.754  1.0074 -0.5512  1.1555
 6133SOL    HW230036   1.857   2.931   1.826  0.1423  1.1015  0.6158
 6134SOL     OW30037   1.024   0.695   5.143  0.4274 -0.1515  0.1089
 6134SOL    HW130038   0.976   0.757   5.088 -1.5312 -0.8214  1.0716
 6134SOL    HW230039   0.979   0.615   5.116  1.4696 -0.4758 -0.6756
 6135SOL     OW30040   0.045   4.475   8.075 -1.0869  0.6450 -0.2407
 6135SOL    HW130041   0.064   4.472   8.169 -1.3311  1.4676 -0.1579
 6135SOL    HW230042   0.124   4.498   8.026 -0.0611 -3.4230 -0.4133
 6136SOL     OW30043   4.300   2.513   4.111 -0.1093  0.0810  0.4312
 6136SOL    HW130044   4.382   2.530   4.158  0.2235 -1.8695  0.5251
 6136SOL    HW230045   4.244   2.464   4.171 -1.4675 -0.8611 -1.6066
 6137SOL     OW30046   2.263   1.855   3.782 -0.1657  0.1704  0.2699
 6137SOL    HW130047   2.254   1.950   3.771 -0.1914 -0.0432 -1.4366
 6137SOL    HW230048   2.179   1.832   3.821 -0.4294  0.3851 -0.1787
 6138SOL     OW30049   3.232   2.893   2.262  0.5924 -0.1828 -0.1261
 6138SOL    HW130050   3.175   2.820   2.237 -1.5251  1.1099  0.8955
 6138SOL    HW230051   3.233   2.878   2.356  2.3810 -1.2784 -0.3266
 6139SOL     OW30052   2.987   1.137   6.471 -0.3845 -0.1284  0.2373
 6139SOL    HW130053   2.895   1.116   6.451 -0.6821  1.6302 -0.2780
 6139SOL    HW230054   3.035   1.078   6.413 -0.7353  0.1438 -0.3335
 6140SOL     OW30055   3.527   0.820   4.589  0.5313 -0.5385  0.1983
 6140SOL    HW130056   3.579   0.818   4.509 -0.5260  1.8417 -0.5550
 6140SOL    HW230057   3.596   0.818   4.655  1.6273  2.1356 -0.8721
 6141SOL     OW30058   0.404   0.693   5.926  0.3276 -0.0674  0.4307
 6141SOL    HW130059   0.348   0.617   5.913 -1.6642  1.4027  0.3604
 6141SOL    HW230060   0.349   0.743   5.986 -0.4391 -3.1564  2.3366
 6142SOL     OW30061   4.677   4.529   5.931  0.1545  0.1890  0.5204
 6142SOL    HW130062   0.005   4.589   5.907 -1.0321  1.3964  0.0756
 6142SOL    HW230063   4.718   4.466   5.991  1.5627  1.7709  1.2161
 6143SOL     OW30064   2.184   0.038   4.527 -0.1894  0.3563 -0.0619
 6143SOL    HW130065   2.178   0.059   4.620  2.7281  0.3507  0.1340
 6143SOL    HW230066   2.189   0.123   4.485  2.9365  0.9315  1.4545
 6144SOL     OW30067   2.279   2.139  11.035  0.1740 -0.2927  0.0442
 6144SOL    HW130068   2.359   2.146  10.981 -0.5176  1.8571 -0.7200
 6144SOL    HW230069   2.222   2.181  10.970 -2.0259 -2.2172  0.7520
 6145SOL     OW30070   1.117   0.622  11.564  0.2561  0.0253  0.1081
 6145SOL    HW130071   1.095   0.587  11.477 -0.4702  1.2083 -0.1823
 6145SOL    HW230072   1.041   0.678  11.582  0.3024  0.5562 -1.3107
 6146SOL     OW30073   2.680   3.749  10.559 -0.2833  0.4266  0.5310
 6146SOL    HW130074   2.750   3.687  10.577 -2.1684 -1.2103  2.1374
 6146SOL    HW230075   2.694   3.806  10.635 -0.7818  0.0261  0.9208
 6147SOL     OW30076   2.912   0.576  15.424 -0.2740 -0.4497  0.5743
 6147SOL    HW130077   2.817   0.566  15.433 -0.1539 -1.3900  0.7648
 6147SOL    HW230078   2.906   0.661  15.381  0.1283 -0.6936  0.0508
 6148SOL     OW30079   1.298   0.200  17.394  0.3161 -0.5641 -0.0863
 6148SOL    HW130080   1.336   0.262  17.332  2.1931 -0.0182  1.6141
 6148SOL    HW230081   1.313   0.248  17.476  0.6751 -1.1102  0.1700
 6149SOL     OW30082   0.594   2.315   8.616 -0.3159  0.7577 -0.4298
 6149SOL    HW130083   0.652   2.391   8.629 -1.7317  1.4917  1.5847
 6149SOL    HW230084   0.641   2.257   8.677 -1.1514  1.6117  1.0225
 6150SOL     OW30085   4.125   2.828  16.509  0.7987 -0.4331 -0.0892
 6150SOL    HW130086   4.074   2.889  16.562 -1.1070 -2.2026  0.0852
 6150SOL    HW230087   4.071   2.811  16.432 -0.2027  0.3928  0.4271
 6151SOL     OW30088   2.811   1.989  17.616  0.2315  0.6641 -0.2349
 6151SOL    HW130089   2.743   2.048  17.649 -0.5953 -0.4852  0.1171
 6151SOL    HW230090   2.825   1.952  17.703  0.8619 -0.8993 -1.0071
 6152SOL     OW30091   1.269   3.981   4.086 -0.3716 -0.4074 -0.2969
 6152SOL    HW130092   1.215   3.952   4.160  0.3267  1.1694  0.8279
 6152SOL    HW230093   1.353   3.981   4.131 -0.1073  1.4735 -0.7907
 6153SOL     OW30094   0.611   2.841   3.837 -0.1423  0.2045  0.5294
 6153SOL    HW130095   0.694   2.807   3.805  0.1742  3.6322 -2.3275
 6153SOL    HW230096   0.546   2.800   3.779 -0.5778  1.0179  0.4323
 6154SOL     OW30097   3.302   1.305   2.064 -0.3326 -0.2741  0.1849
 6154SOL    HW130098   3.360   1.316   1.989  1.0437 -1.3316  1.0936
 6154SOL    HW230099   3.215   1.305   2.022 -0.0077 -2.1239 -0.4862
 6155SOL     OW30100   0.356   3.719   7.948 -0.3594  0.5146  0.3276
 6155SOL    HW130101   0.285   3.663   7.980  0.9974 -1.3581  0.0204
 6155SOL    HW230102   0.383   3.758   8.031  1.0979  0.5786 -0.1927
 6156SOL     OW30103   1.607   1.117   2.853  0.4585 -0.0341 -0.0699
 6156SOL    HW130104   1.576   1.174   2.923 -0.1581  0.5003 -0.7776
 6156SOL    HW230105   1.694   1.154   2.843  0.5101 -0.2436 -0.3895
 6157SOL     OW30106   1.032   3.496   9.408  0.1972 -0.1793 -0.3524
 6157SOL    HW130107   1.075   3.420   9.446 -1.5528 -1.1976 -0.4259
 6157SOL    HW230108   0.947   3.453   9.403  0.4099 -1.1608  4.0694
 6158SOL     OW30109   0.266   4.148  11.255 -0.0696  0.0373  0.8766
 6158SOL    HW130110   0.313   4.073  11.219  0.4486 -0.0143  1.6428
 6158SOL    HW230111   0.223   4.179  11.176 -1.3133  1.3681  2.0745
 6159SOL     OW30112   3.862   1.917   2.414  0.3556  0.0900 -0.3205
 6159SOL    HW130113   3.895   1.925   2.325 -0.1765  0.2162 -0.5068
 6159SOL    HW230114   3.925   1.850   2.440  1.5427  1.4502  0.3428
 6160SOL     OW30115   3.626   2.636   6.002 -0.0788  0.1779 -0.2343
 6160SOL    HW130116   3.711   2.593   5.993 -0.3502 -0.0072 -1.9984
 6160SOL    HW230117   3.665   2.722   6.017 -0.7000  0.4968 -0.4317
 6161SOL     OW30118   4.435   1.632   4.540  0.6410 -0.2869  0.1280
 6161SOL    HW130119   4.387   1.713   4.525 -0.5913 -0.7188  1.7430
 6161SOL    HW230120   4.439   1.603   4.449 -0.7653  0.8589 -0.2972
 6162SOL     OW30121   0.291   0.970  12.429 -0.0939 -0.3593  0.2762
 6162SOL    HW130122   0.382   0.979  12.398  0.4364 -2.9524  1.1375
 6162SOL    HW230123   0.294   0.884  12.471 -1.2365 -1.4542 -1.8927
 6163SOL     OW30124   4.635   2.567  13.666  0.2558 -0.7025 -0.2261
 6163SOL    HW130125   4.646   2.540  13.757  2.1039 -0.7958 -0.4669
 6163SOL    HW230126   4.724   2.589  13.638  0.6682 -1.6171  0.4043
 6164SOL     OW30127   0.649   0.253  11.443  0.0204 -0.1495 -0.1446
 6164SOL    HW130128   0.646   0.211  11.529 -0.3433  2.8195  1.2855
 6164SOL    HW230129   0.642   0.344  11.471 -1.5113 -1.3405  3.3907
 6165SOL     OW30130   1.232   0.602   7.111 -0.0615 -0.7856 -0.7529
 6165SOL    HW130131   1.254   0.647   7.193 -0.7282  1.9787 -2.0929
 6165SOL    HW230132   1.239   0.673   7.048  1.7274 -0.9018 -0.6833
 6166SOL     OW30133   4.384   3.805   4.032  0.2649  0.2712  0.0027
 6166SOL    HW130134   4.339   3.889   4.040  0.7040  0.4005  1.1264
 6166SOL    HW230135   4.348   3.779   3.947 -2.4839  0.4287  1.1296
 6167SOL     OW30136   1.941   4.046  17.764  0.3793 -0.3197 -0.1118
 6167SOL    HW130137   1.966   3.983   0.066  0.4097  0.0745  0.2452
 6167SOL    HW230138   1.897   3.988  17.701 -1.0102  1.5690 -0.8634
 6168SOL     OW30139   0.163   0.769   5.504  0.3439 -0.5667  0.2701
 6168SOL    HW130140   0.144   0.803   5.417 -0.8916 -2.6923 -0.2819
 6168SOL    HW230141   0.172   0.675   5.489  3.2462 -0.5443  1.8439
 6169SOL     OW30142   2.153   2.018  11.614  0.0299  0.0955 -0.4504
 6169SOL    HW130143   2.240   2.058  11.617 -0.0192  0.0913  1.0577
 6169SOL    HW230144   2.163   1.952  11.682 -1.2864  1.4950  1.1058
 6170SOL     OW30145   1.078   0.475   9.824 -0.1638 -0.3647 -0.6751
 6170SOL    HW130146   1.147   0.517   9.876  1.1608 -4.1921  0.6838
 6170SOL    HW230147   1.053   0.546   9.765  0.6205  1.4350  1.1659
 6171SOL     OW30148   1.840   3.977   3.630 -0.1634  0.4099 -0.2723
 6171SOL    HW130149   1.817   4.070   3.630 -0.8896  0.2278 -1.0222
 6171SOL    HW230150   1.916   3.976   3.572 -1.6767  0.1413 -2.2460
 6172SOL     OW30151   3.673   2.310   2.187  0.7097  0.3243 -0.1277
 6172SOL    HW130152   3.655   2.359   2.267  0.3023  2.7111 -1.6837
 6172SOL    HW230153   3.622   2.362   2.126 -0.4087 -1.0530 -0.3623
 6173SOL     OW30154   3.063   0.627  16.672 -0.2967 -0.2313 -0.3179
 6173SOL    HW130155   3.109   0.708  16.695 -0.3360 -0.8804  2.0549
 6173SOL    HW230156   2.988   0.654  16.618 -0.4617 -0.8204 -0.3872
 6174SOL     OW30157   2.577   0.948   7.473 -0.1766 -0.2226  0.4441
 6174SOL    HW130158   2.506   0.939   7.410  1.3243  2.2858 -1.5924
 6174SOL    HW230159   2.644   0.997   7.426 -1.7047 -0.1912 -1.6765
 6175SOL     OW30160   3.101   2.090   4.142  0.3377 -0.4664  0.2312
 6175SOL    HW130161   3.184   2.138   4.142  0.2393 -0.3014  0.9701
 6175SOL    HW230162   3.107   2.075   4.047  1.5831 -0.6088  0.3218
 6176SOL     OW30163   0.744   3.976   4.535 -0.2182 -0.4665 -0.6470
 6176SOL    HW130164   0.747   3.926   4.454 -1.0382 -2.4656  0.5631
 6176SOL    HW230165   0.669   3.945   4.585  2.7558 -2.8688  2.3686
 6177SOL     OW30166   1.006   1.265   6.086  0.1834 -0.0490 -0.3945
 6177SOL    HW130167   1.024   1.259   6.180 -0.6253  1.9129 -0.1067
 6177SOL    HW230168   1.071   1.203   6.053  0.2464 -1.3886  2.3148
 6178SOL     OW30169   2.862   1.943   1.481  0.0779  0.4669 -0.1828
 6178SOL    HW130170   2.854   2.031   1.443  0.9370  1.4778  2.0075
 6178SOL    HW230171   2.926   1.955   1.550 -0.7179  1.0580  0.4470
 6179SOL     OW30172   1.706   3.661  17.237  0.0139  0.4169  0.0805
 6179SOL    HW130173   1.658   3.731  17.193 -1.3435 -0.8467 -0.4426
 6179SOL    HW230174   1.753   3.709  17.305 -0.2322 -1.0557  1.3008
 6180SOL     OW30175   4.683   0.303   2.531  0.3379 -0.3059 -0.2430
 6180SOL    HW130176   4.644   0.217   2.544  0.6618 -0.5101 -0.6290
 6180SOL    HW230177   4.623   0.346   2.470 -0.3803  1.9591  2.0375
 6181SOL     OW30178   4.614   4.308   7.473  0.4445  0.2759  0.0525
 6181SOL    HW130179   4.689   4.318   7.414 -0.6420 -1.4132 -1.5965
 6181SOL    HW230180   4.577   4.220   7.464  0.1070  0.0806  3.2793
 6182SOL     OW30181   3.243   3.758  12.190  0.4208 -0.4341  0.2947
 6182SOL    HW130182   3.178   3.757  12.120 -1.0447 -2.5726  1.6958
 6182SOL    HW230183   3.187   3.736  12.264 -0.8061  0.5366 -0.3317
 6183SOL     OW30184   4.216   0.053  12.790  0.0298  0.9315  0.0458
 6183SOL    HW130185   4.240   4.730  12.856 -1.1012  0.1656 -0.2879
 6183SOL    HW230186   4.145   0.007  12.744  1.1311  0.6471 -1.3686
 6184SOL     OW30187   2.279   2.229  14.501 -0.7813  0.1801 -0.2595
 6184SOL    HW130188   2.344   2.193  14.561 -0.8728  0.0729 -0.2251
 6184SOL    HW230189   2.205   2.244  14.561  1.1535  1.3969  1.8207
 6185SOL     OW30190   4.659   4.659   2.008 -0.4619 -0.4085  0.4641
 6185SOL    HW130191   4.683   4.614   2.089  1.3149  1.5503  1.0213
 6185SOL    HW230192   4.645   4.582   1.953 -2.0922  2.0654 -2.5866
 6186SOL     OW30193   4.294   0.486   8.551 -0.0371 -0.0140 -0.3756
 6186SOL    HW130194   4.352   0.434   8.607  2.2489  1.2999 -1.5491
 6186SOL    HW230195   4.356   0.549   8.515 -0.2316  0.0403 -0.6164
 6187SOL     OW30196   3.572   3.866   7.167  0.0575  0.1989  0.1128
 6187SOL    HW130197   3.541   3.792   7.219 -1.6004 -1.1177 -2.7777
 6187SOL    HW230198   3.499   3.908   7.121  1.1492  1.7214 -0.2150
 6188SOL     OW30199   0.735   0.801   9.006 -0.4499  0.1930  0.5254
 6188SOL    HW130200   0.660   0.808   8.947  1.3332 -1.1132 -1.8463
 6188SOL    HW230201   0.747   0.706   9.010  1.9475  0.5120  0.5456
 6189SOL     OW30202   3.175   3.689  13.725  0.2699  0.2125 -0.3391
 6189SOL    HW130203   3.157   3.595  13.726  0.2125  0.2196 -1.6441
 6189SOL    HW230204   3.253   3.701  13.779  0.2796  0.7790 -0.4748
 6190SOL     OW30205   3.335   4.490  15.913  0.6318  0.0380  0.2532
 6190SOL    HW130206   3.332   4.586  15.917 -0.8586  0.0815 -1.7279
 6190SOL    HW230207   3.318   4.462  15.822  0.0192 -2.1145  1.0301
 6191SOL     OW30208   2.662   4.624  11.667 -0.4882 -0.1971 -0.9774
 6191SOL    HW130209   2.582   4.613  11.616 -1.9724  1.3061  1.0218
 6191SOL    HW230210   2.688   4.698  11.613  1.7408  0.1658  0.5872
 6192SOL     OW30211   3.454   1.914   8.764  0.6032  0.1688 -0.2654
 6192SOL    HW130212   3.425   1.846   8.824 -0.1852  1.0904  0.4036
 6192SOL    HW230213   3.479   1.972   8.836  1.9164  0.6649 -1.1179
 6193SOL     OW30214   0.361   0.414   3.685 -0.2135  0.2107  0.3725
 6193SOL    HW130215   0.414   0.367   3.621 -0.8109  0.5767 -0.4003
 6193SOL    HW230216   0.376   0.504   3.655 -1.7951  0.9308  1.7805
 6194SOL     OW30217   2.484   1.574   3.379  0.1617  0.0577 -0.1935
 6194SOL    HW130218   2.555   1.510   3.374  1.3646  1.6324 -3.1602
 6194SOL    HW230219   2.527   1.653   3.411 -0.2213  1.2400 -2.5990
 6195SOL     OW30220   2.424   3.467   3.304 -0.1609 -0.6641 -0.0411
 6195SOL    HW130221   2.495   3.405   3.284  0.2446 -0.0959 -0.3917
 6195SOL    HW230222   2.451   3.495   3.391  0.3125 -0.8496 -0.1287
 6196SOL     OW30223   0.669   4.458  11.373 -0.1604  0.3984 -0.1057
 6196SOL    HW130224   0.672   4.398  11.448  2.9253  0.3076 -0.2963
 6196SOL    HW230225   0.593   4.431  11.323  2.3836  1.6698 -4.6615
 6197SOL     OW30226   0.158   1.428   8.346  0.2432 -0.0194  0.7452
 6197SOL    HW130227   0.110   1.492   8.293 -0.6569 -1.4387 -0.1451
 6197SOL    HW230228   0.130   1.349   8.301 -1.2002  1.0766 -0.2572
 6198SOL     OW30229   0.968   2.937   5.967 -0.3522  0.1881 -0.1206
 6198SOL    HW130230   0.920   2.960   5.887 -1.8301  0.6404  0.8972
 6198SOL    HW230231   1.000   2.848   5.956  2.2433  1.3653 -2.4006
 6199SOL     OW30232   3.744   2.085   4.442  0.1968  0.1532 -0.7871
 6199SOL    HW130233   3.767   2.070   4.534 -2.2995  1.7440  0.1001
 6199SOL    HW230234   3.686   2.010   4.428 -0.2820  0.1172  1.4015
 6200SOL     OW30235   3.407   3.237   7.253  0.3208  0.0940  0.0505
 6200SOL    HW130236   3.446   3.149   7.258 -1.6821 -0.9106 -1.9170
 6200SOL    HW230237   3.331   3.231   7.310  0.4554  1.0569  0.3176
 6201SOL     OW30238   3.767   4.236  11.640  0.3414  0.8136 -0.2973
 6201SOL    HW130239   3.861   4.254  11.640  0.4559  0.2105 -2.2505
 6201SOL    HW230240   3.760   4.188  11.557  2.0882 -1.7483  1.0527
 6202SOL     OW30241   4.190   0.548   5.701 -0.3570 -0.0890  0.0214
 6202SOL    HW130242   4.178   0.623   5.644  1.1409 -1.2714 -1.8629
 6202SOL    HW230243   4.250   0.499   5.644  1.2948  1.7544  0.2067
 6203SOL     OW30244   4.250   0.285   1.816  0.9900  0.4750  0.3531
 6203SOL    HW130245   4.166   0.323   1.791  0.9847 -1.5101 -2.6294
 6203SOL    HW230246   4.236   0.200   1.773  1.4073  0.7656 -0.3544
 6204SOL     OW30247   3.369   0.209   5.226  0.2567 -0.0057 -0.2695
 6204SOL    HW130248   3.447   0.195   5.278  0.4287 -2.2552 -1.1323
 6204SOL    HW230249   3.304   0.229   5.293 -0.5310 -2.0372 -0.4105
 6205SOL     OW30250   0.507   3.078  16.230  0.0118 -0.1917  0.6675
 6205SOL    HW130251   0.437   3.084  16.295 -0.0449  1.6353  0.4330
 6205SOL    HW230252   0.493   2.989  16.196  1.9772 -0.2351 -0.0272
 6206SOL     OW30253   1.995   2.875   3.568 -0.4064  0.1579 -0.4694
 6206SOL    HW130254   1.989   2.955   3.621  1.0904 -0.3258  0.4380
 6206SOL    HW230255   1.913   2.836   3.598 -1.6132  2.8573 -0.1976
 6207SOL     OW30256   2.766   3.494   1.572  0.3190 -0.3828 -0.2586
 6207SOL    HW130257   2.797   3.522   1.658 -0.3839  2.7950 -1.0582
 6207SOL    HW230258   2.847   3.457   1.537  0.1645 -1.8502  0.9403
 6208SOL     OW30259   4.484   2.533   5.700  0.0293  0.4880  0.3320
 6208SOL    HW130260   4.463   2.589   5.626 -0.2563  0.6733  0.5546
 6208SOL    HW230261   4.531   2.593   5.757 -0.8901 -0.2336  1.8459
 6209SOL     OW30262   2.728   0.481   4.430  0.5664  0.6142  0.0571
 6209SOL    HW130263   2.751   0.480   4.337  0.0089  1.0057 -0.0817
 6209SOL    HW230264   2.787   0.417   4.469  1.3611  1.3331  0.0569
 6210SOL     OW30265   4.513   3.594  12.655  0.0754  0.4227  0.4388
 6210SOL    HW130266   4.423   3.606  12.624  0.7368 -0.0238 -1.6961
 6210SOL    HW230267   4.544   3.685  12.647 -0.1883  0.7351  2.9203
 6211SOL     OW30268   3.246   2.219   3.306 -0.4226 -0.7438  0.4063
 6211SOL    HW130269   3.233   2.202   3.399 -0.3773 -0.0998  0.5260
 6211SOL    HW230270   3.318   2.281   3.316 -0.3532 -0.5823 -1.1009
 6212SOL     OW30271   0.155   3.513   0.713  0.2765 -0.2429  0.2993
 6212SOL    HW130272   0.117   3.596   0.742  0.9313  0.4185 -0.7509
 6212SOL    HW230273   0.084   3.487   0.653 -0.8801  0.1671  1.4860
 6213SOL     OW30274   2.318   3.676   4.609  0.1092 -0.1253 -0.5401
 6213SOL    HW130275   2.335   3.702   4.699 -1.1396 -0.6107 -0.1628
 6213SOL    HW230276   2.330   3.762   4.569 -2.1762  1.4057  2.0585
 6214SOL     OW30277   3.820   3.781   2.721 -0.5642 -0.3111 -0.0783
 6214SOL    HW130278   3.793   3.736   2.801 -2.9297  0.7611 -0.2706
 6214SOL    HW230279   3.823   3.870   2.756 -2.0120  0.5293 -2.1221
 6215SOL     OW30280   2.682   1.910   5.433 -0.1044  0.2687 -1.2870
 6215SOL    HW130281   2.612   1.874   5.380 -1.6701  0.8264  0.3859
 6215SOL    HW230282   2.649   1.993   5.469  0.3600  0.5257 -1.4536
 6216SOL     OW30283   1.555   1.249   7.928  0.1910  0.3244 -0.0099
 6216SOL    HW130284   1.605   1.284   7.855 -2.4358  2.2377 -0.9125
 6216SOL    HW230285   1.499   1.191   7.877 -1.8385  2.8715 -0.6867
 6217SOL     OW30286   4.703   2.881   8.622 -0.0550 -0.1140  0.1716
 6217SOL    HW130287   4.681   2.962   8.578 -3.8565 -1.5679 -0.5939
 6217SOL    HW230288   0.039   2.850   8.575 -0.4795  1.1796 -1.3498
 6218SOL     OW30289   0.673   2.060  15.282 -0.0613  0.1573 -0.1110
 6218SOL    HW130290   0.741   2.094  15.340  0.9474 -2.0109 -0.0206
 6218SOL    HW230291   0.719   2.020  15.208  0.6221  1.4302 -0.3791
 6219SOL     OW30292   1.550   1.759  13.713  0.2288  0.2486  0.2779
 6219SOL    HW130293   1.625   1.716  13.755  1.1617 -0.9133 -2.6014
 6219SOL    HW230294   1.477   1.740  13.772 -1.3207 -0.8345 -2.0062
 6220SOL     OW30295   3.539   1.998   0.532 -0.1822 -0.7745 -0.1691
 6220SOL    HW130296   3.482   2.041   0.468  1.0597  1.8030  0.4386
 6220SOL    HW230297   3.500   1.911   0.526 -0.9333 -0.5722  1.8283
 6221SOL     OW30298   3.434   2.057   5.425  0.3537 -0.5372  0.5985
 6221SOL    HW130299   3.447   2.093   5.513 -3.1694 -0.4595  1.0755
 6221SOL    HW230300   3.345   2.023   5.433 -0.2993  1.1070  0.3064
 6222SOL     OW30301   2.426   0.673   8.939 -0.3825  0.1133 -0.0225
 6222SOL    HW130302   2.338   0.701   8.965 -0.3269  0.4946 -0.2332
 6222SOL    HW230303   2.428   0.713   8.852  0.6372  2.1462  0.9229
 6223SOL     OW30304   0.817   4.497   8.619 -0.1885 -0.0687 -0.0029
 6223SOL    HW130305   0.895   4.517   8.671 -0.9876  0.3766  1.0135
 6223SOL    HW230306   0.840   4.551   8.544 -0.1323 -2.6489 -1.8223
 6224SOL     OW30307   2.546   1.832   4.483 -0.2696 -0.4275  0.4114
 6224SOL    HW130308   2.566   1.790   4.567  0.8031  2.6151  1.6702
 6224SOL    HW230309   2.628   1.880   4.469 -0.4690  0.0917  1.0073
 6225SOL     OW30310   4.497   4.604   8.087  0.0453  0.2391  0.2609
 6225SOL    HW130311   4.482   4.690   8.049  3.5800  0.9666  0.4433
 6225SOL    HW230312   4.590   4.591   8.070  0.1177 -1.9395  2.1981
 6226SOL     OW30313   2.619   2.592   1.593 -0.0090  0.2644  0.0912
 6226SOL    HW130314   2.677   2.630   1.527  1.3381 -1.7767  0.0847
 6226SOL    HW230315   2.567   2.669   1.615  0.3158  0.3741  0.4923
 6227SOL     OW30316   3.315   3.461   4.950  0.4813 -0.2941  0.2809
 6227SOL    HW130317   3.337   3.553   4.938 -0.5517  0.2042  2.2994
 6227SOL    HW230318   3.223   3.465   4.923  0.2979 -1.3594  0.7566
 6228SOL     OW30319   3.483   1.143   3.416  0.1120 -0.0234  0.1466
 6228SOL    HW130320   3.561   1.127   3.469 -0.0050 -0.7145  0.1180
 6228SOL    HW230321   3.438   1.063   3.442 -1.4680  0.7757 -0.1231
 6229SOL     OW30322   4.700   2.903  15.801  0.2039  0.1118 -0.5265
 6229SOL    HW130323   4.626   2.908  15.862  2.6263  0.7482  2.3927
 6229SOL    HW230324   4.708   2.998  15.789  0.9442  0.2370  0.8824
 6230SOL     OW30325   3.274   4.157   5.564  0.4838 -0.3530  0.1793
 6230SOL    HW130326   3.348   4.103   5.536  0.7781  0.1581 -0.0256
 6230SOL    HW230327   3.284   4.154   5.659 -0.7877 -0.7949  0.3058
 6231SOL     OW30328   2.556   1.279   8.946 -0.3139  0.2515  0.2767
 6231SOL    HW130329   2.563   1.339   9.020 -0.1611  0.8771 -0.2516
 6231SOL    HW230330   2.483   1.314   8.896  0.1758 -0.7060 -1.1122
 6232SOL     OW30331   4.369   2.570  13.748 -0.0982  0.2522 -0.2815
 6232SOL    HW130332   4.464   2.577  13.745  0.0443 -0.8830  1.6375
 6232SOL    HW230333   4.366   2.496  13.809  1.8500  0.1363 -0.3128
 6233SOL     OW30334   4.223   1.384  10.209  0.5383 -0.9614  0.3077
 6233SOL    HW130335   4.221   1.288  10.209 -3.6004 -0.8910 -0.9920
 6233SOL    HW230336   4.137   1.404  10.173  1.6394  0.9505 -1.2421
 6234SOL     OW30337   2.265   1.930   4.466 -0.2636 -0.1302 -0.3379
 6234SOL    HW130338   2.289   2.006   4.413 -0.0682  0.4841  0.6312
 6234SOL    HW230339   2.355   1.912   4.492 -0.4595 -0.6902 -0.0632
 6235SOL     OW30340   3.680   2.148   7.001 -0.4180 -0.4934  0.4459
 6235SOL    HW130341   3.602   2.133   7.054 -0.8210 -0.5236 -0.1556
 6235SOL    HW230342   3.683   2.081   6.933 -2.8684  0.1992 -0.3501
 6236SOL     OW30343   0.013   2.502  15.776 -0.4247 -0.4164  0.4312
 6236SOL    HW130344   4.702   2.559  15.721  0.1615  1.3099  1.6500
 6236SOL    HW230345   0.092   2.555  15.791  0.8987 -2.4767  0.7793
 6237SOL     OW30346   2.593   2.061   5.158 -0.0569 -0.2753  0.6785
 6237SOL    HW130347   2.608   2.122   5.231 -0.3822  0.2075  0.3447
 6237SOL    HW230348   2.576   2.125   5.089  1.6138  0.0002  0.5380
 6238SOL     OW30349   1.978   1.367   5.925 -0.3280 -0.7278 -0.2063
 6238SOL    HW130350   1.977   1.309   6.001 -0.3164 -0.2240  0.1723
 6238SOL    HW230351   1.965   1.454   5.962  0.3860 -0.5976 -0.2715
 6239SOL     OW30352   3.584   2.478   3.633 -0.1010  0.3484 -0.0685
 6239SOL    HW130353   3.660   2.464   3.576 -0.5732  1.1323 -0.8809
 6239SOL    HW230354   3.545   2.391   3.644  0.6428 -0.1626 -1.4788
 6240SOL     OW30355   0.321   4.146   8.306  0.3482  0.4232 -0.3809
 6240SOL    HW130356   0.278   4.089   8.242 -0.2039  0.3280  0.0818
 6240SOL    HW230357   0.259   4.216   8.322 -2.6505 -1.8792 -2.0169
 6241SOL     OW30358   4.053   4.373  14.365 -0.2795 -0.4815 -0.8755
 6241SOL    HW130359   4.142   4.399  14.386 -0.5236 -0.2431 -0.1275
 6241SOL    HW230360   4.032   4.407  14.278  0.0317 -1.2696 -1.2659
 6242SOL     OW30361   4.478   2.946   9.849 -0.0207  0.3520  0.0058
 6242SOL    HW130362   4.409   2.919   9.789  1.6332  0.5502 -1.9986
 6242SOL    HW230363   4.454   3.038   9.856  0.3437  0.6417 -2.3905
 6243SOL     OW30364   3.374   1.722   8.251  0.0734  0.4576 -0.1128
 6243SOL    HW130365   3.419   1.803   8.275 -1.3500 -0.2732  5.0005
 6243SOL    HW230366   3.285   1.753   8.237 -0.5405 -0.7080  1.2466
 6244SOL     OW30367   2.777   1.593   7.670  0.0736  0.1684  0.4559
 6244SOL    HW130368   2.741   1.580   7.582 -3.3508 -0.3478  1.9407
 6244SOL    HW230369   2.692   1.605   7.713  0.7515 -0.2772  1.9378
 6245SOL     OW30370   0.059   0.159   6.926 -0.0288 -0.3789  0.2553
 6245SOL    HW130371   0.124   0.228   6.933 -1.1230  0.6333  0.4657
 6245SOL    HW230372   4.721   0.209   6.909 -0.8747 -1.9357 -0.3577
 6246SOL     OW30373   2.254   0.350  11.764 -0.2621 -0.0806 -0.3279
 6246SOL    HW130374   2.160   0.331  11.758 -0.2479  0.1637 -1.3678
 6246SOL    HW230375   2.289   0.273  11.720  0.5573  0.1814 -0.1285
 6247SOL     OW30376   0.181   2.815   6.189  0.3960 -0.6041 -0.6147
 6247SOL    HW130377   0.133   2.869   6.252  2.5511  1.6458 -0.9082
 6247SOL    HW230378   0.182   2.725   6.223 -1.1109  0.1109  1.3146
 6248SOL     OW30379   3.272   4.176   1.395  0.6492  0.1367  0.6384
 6248SOL    HW130380   3.332   4.143   1.328  0.9204 -0.6597  1.2757
 6248SOL    HW230381   3.210   4.214   1.332  0.4534  0.4420  1.0131
 6249SOL     OW30382   2.242   1.339   5.875  0.9192 -0.4591 -0.3238
 6249SOL    HW130383   2.152   1.366   5.896  1.8067  1.3821  1.0999
 6249SOL    HW230384   2.254   1.344   5.780 -2.2300 -1.6753 -0.7790
 6250SOL     OW30385   3.653   3.192   9.295 -0.1263 -0.5330  0.3784
 6250SOL    HW130386   3.646   3.230   9.383  3.5734  1.6834 -0.3066
 6250SOL    HW230387   3.643   3.269   9.240 -1.8690  0.1052  1.5720
 6251SOL     OW30388   0.372   3.999   8.845 -0.3294  0.0185  0.3429
 6251SOL    HW130389   0.372   4.030   8.755 -0.5284 -1.3976 -0.1502
 6251SOL    HW230390   0.417   4.076   8.880  0.7516 -0.9706  1.1409
 6252SOL     OW30391   1.757   2.639   3.987 -0.7112 -0.1334 -0.5357
 6252SOL    HW130392   1.811   2.596   4.053 -0.4890  1.2433  0.1723
 6252SOL    HW230393   1.718   2.559   3.951 -1.1158 -1.3862  2.6712
 6253SOL     OW30394   2.283   1.502   2.240 -0.5742 -0.1158 -0.0223
 6253SOL    HW130395   2.207   1.452   2.210  0.3452 -1.5654  0.0066
 6253SOL    HW230396   2.265   1.494   2.334 -2.4266  0.3231 -0.3472
 6254SOL     OW30397   1.786   2.924   5.679  0.1073 -0.6123  0.2354
 6254SOL    HW130398   1.811   3.004   5.725 -0.9034 -0.8113  1.1615
 6254SOL    HW230399   1.819   2.860   5.743  0.4192 -1.3898 -0.7074
 6255SOL     OW30400   3.077   3.474   4.846  0.6938  0.1262  0.2783
 6255SOL    HW130401   3.060   3.507   4.758  0.1035 -0.0711  0.3171
 6255SOL    HW230402   2.997   3.490   4.896 -0.6930  0.1446 -1.9566
 6256SOL     OW30403   4.032   0.836   4.465 -0.2893 -1.0277 -0.1612
 6256SOL    HW130404   4.014   0.835   4.371  4.2437 -1.4509 -1.0155
 6256SOL    HW230405   4.120   0.799   4.475 -0.5300 -1.8910 -1.2239
 6257SOL     OW30406   4.108   3.133   6.291  0.0635  0.4402 -0.4535
 6257SOL    HW130407   4.066   3.074   6.354  0.7573  1.4563  0.9737
 6257SOL    HW230408   4.122   3.070   6.221 -1.2029  0.3108 -0.6032
 6258SOL     OW30409   0.392   1.409  11.264  0.0479  0.3564 -0.4219
 6258SOL    HW130410   0.373   1.318  11.243  0.9957  0.1396 -0.3036
 6258SOL    HW230411   0.448   1.426  11.189  0.1570 -0.1750 -0.4610
 6259SOL     OW30412   2.890   2.873   3.874 -0.3993  0.1033 -0.0287
 6259SOL    HW130413   2.855   2.894   3.787  1.2362 -1.3132 -1.0178
 6259SOL    HW230414   2.914   2.958   3.912 -0.5465 -0.0465  0.3964
 6260SOL     OW30415   1.837   2.449   3.324 -0.4559  0.4233  0.0847
 6260SOL    HW130416   1.889   2.493   3.391  0.2641 -1.8218  0.9666
 6260SOL    HW230417   1.881   2.365   3.316 -1.3220  0.0038 -0.3094
 6261SOL     OW30418   2.393   3.677   5.651  0.0132  0.4274  0.8342
 6261SOL    HW130419   2.313   3.628   5.674  0.3769 -0.6648 -0.1970
 6261SOL    HW230420   2.454   3.626   5.703  2.3020  0.2985 -1.9869
 6262SOL     OW30421   1.662   3.419   3.785 -0.7320 -0.0273 -0.1972
 6262SOL    HW130422   1.616   3.501   3.803 -2.5306 -1.2594  0.7047
 6262SOL    HW230423   1.587   3.363   3.804  0.1509 -0.4897  1.9398
 6263SOL     OW30424   1.363   4.412  11.155 -0.1922  0.4013  0.8416
 6263SOL    HW130425   1.344   4.458  11.236 -0.2563 -0.7082  1.4480
 6263SOL    HW230426   1.310   4.471  11.101 -0.2307 -1.3976 -1.1049
 6264SOL     OW30427   0.431   0.219   1.446  0.2570  0.0780  0.1505
 6264SOL    HW130428   0.442   0.279   1.373 -0.6037 -0.6529 -0.5612
 6264SOL    HW230429   0.471   0.140   1.409 -0.0413 -1.4366  3.0646
 6265SOL     OW30430   4.582   4.697   2.369  0.6314  0.5341 -0.7353
 6265SOL    HW130431   4.487   4.701   2.383  0.8450  1.7906  0.3832
 6265SOL    HW230432   4.578   4.683   2.275 -0.4437  0.7195 -0.7235
 6266SOL     OW30433   4.626   0.569   1.673  0.1992 -0.5204  0.3351
 6266SOL    HW130434   4.604   0.650   1.719  0.0922  0.9768 -2.3474
 6266SOL    HW230435   4.613   0.513   1.750 -1.0807  0.9470  1.1824
 6267SOL     OW30436   4.271   2.884   1.730 -0.0933 -0.0951  0.1399
 6267SOL    HW130437   4.363   2.909   1.723 -0.1895  0.2051 -0.0374
 6267SOL    HW230438   4.275   2.791   1.753  1.0359  0.2786  1.5162
 6268SOL     OW30439   4.566   3.198   5.012 -0.0419 -0.7055 -0.3386
 6268SOL    HW130440   4.501   3.254   5.055  2.0253  2.3873 -1.1972
 6268SOL    HW230441   4.588   3.248   4.933  1.1724 -2.4364 -1.1149
 6269SOL     OW30442   2.930   3.267   1.215  0.4019  0.3347  0.3570
 6269SOL    HW130443   2.977   3.193   1.252 -2.5118 -2.7609 -2.1999
 6269SOL    HW230444   3.000   3.329   1.192  0.5449 -0.3303 -0.9973
 6270SOL     OW30445   3.331   4.397  11.114 -0.0404 -0.1369 -0.5237
 6270SOL    HW130446   3.408   4.414  11.169 -0.1078 -0.3785 -0.3540
 6270SOL    HW230447   3.299   4.318  11.157 -0.5380  0.9178  1.0368
 6271SOL     OW30448   1.628   2.339   3.159  0.4065  0.1076  0.0952
 6271SOL    HW130449   1.552   2.378   3.203 -0.9181 -2.9165  0.4478
 6271SOL    HW230450   1.709   2.358   3.208  0.0686 -2.8115  1.7598
 6272SOL     OW30451   0.021   0.823  13.159  0.2962  0.1425  0.4447
 6272SOL    HW130452   4.689   0.853  13.106 -0.4339 -1.1148  0.7597
 6272SOL    HW230453   0.052   0.911  13.178  0.5056  0.0918  0.3440
 6273SOL     OW30454   2.890   1.387   7.831  0.2373  0.3641  0.3542
 6273SOL    HW130455   2.961   1.380   7.767 -1.6410 -1.0665 -1.5792
 6273SOL    HW230456   2.861   1.478   7.825  2.9045  1.3535  2.0389
 6274SOL     OW30457   3.663   1.732   3.503 -0.1267 -0.0571 -0.0847
 6274SOL    HW130458   3.724   1.798   3.471  0.0365  0.2483  0.8506
 6274SOL    HW230459   3.629   1.688   3.425 -0.5527  1.8271 -0.9530
 6275SOL     OW30460   1.952   4.052   9.640  0.5326  0.3188  0.7494
 6275SOL    HW130461   1.958   3.974   9.584 -0.1670  1.5637 -1.0507
 6275SOL    HW230462   1.938   4.007   9.724 -0.1966  0.2028  0.5666
 6276SOL     OW30463   4.423   4.370   4.876 -0.1115  0.1600  0.2772
 6276SOL    HW130464   4.337   4.346   4.842 -0.0221  0.7268 -0.3439
 6276SOL    HW230465   4.462   4.283   4.876 -0.3549  0.0466 -1.5392
 6277SOL     OW30466   1.028   3.679   4.776  0.0952 -0.0627  0.1450
 6277SOL    HW130467   1.099   3.742   4.791  1.5287 -1.4582 -0.7606
 6277SOL    HW230468   1.084   3.602   4.784  0.7362  0.0166 -3.2388
 6278SOL     OW30469   3.794   4.241  15.935  0.5779  0.2071 -0.5466
 6278SOL    HW130470   3.887   4.249  15.956 -0.3658  3.9217  2.1109
 6278SOL    HW230471   3.770   4.332  15.916  1.0934  0.3911 -0.3179
 6279SOL     OW30472   0.181   0.386   4.776 -0.2517  0.2165  0.5629
 6279SOL    HW130473   0.118   0.453   4.747 -0.3335 -0.3479 -0.5745
 6279SOL    HW230474   0.234   0.434   4.840  1.2455  0.0211 -0.5225
 6280SOL     OW30475   4.076   2.068   2.108 -0.2669 -0.5791  0.5259
 6280SOL    HW130476   4.020   1.992   2.122 -0.2264 -0.6232  0.4495
 6280SOL    HW230477   4.143   2.029   2.052 -0.1560 -1.2204  1.1030
 6281SOL     OW30478   3.781   0.148   4.698  0.0286  0.3448  0.2067
 6281SOL    HW130479   3.858   0.132   4.643 -0.1873 -0.8948  0.2679
 6281SOL    HW230480   3.785   0.082   4.767  3.3335  1.1524  0.7848
 6282SOL     OW30481   2.960   1.992   7.417  0.1338 -0.1110  0.5080
 6282SOL    HW130482   2.872   1.958   7.399 -0.2109  1.6892 -1.2362
 6282SOL    HW230483   2.993   2.009   7.329 -1.3333  0.1020 -0.0017
 6283SOL     OW30484   0.496   1.666   2.517  0.1156  0.8247 -0.4290
 6283SOL    HW130485   0.426   1.727   2.495  0.1078  0.4779 -1.3559
 6283SOL    HW230486   0.455   1.635   2.598 -0.9310 -0.7548 -1.5623
 6284SOL     OW30487   0.982   1.331   8.754 -0.2616  0.5078  0.0438
 6284SOL    HW130488   1.026   1.375   8.826  2.5334  0.9456 -1.9055
 6284SOL    HW230489   1.046   1.273   8.713  0.7392  1.0109  0.8904
 6285SOL     OW30490   3.751   0.842   4.769  0.5151 -0.1895  0.2610
 6285SOL    HW130491   3.815   0.901   4.809  1.0057 -0.7776  0.3495
 6285SOL    HW230492   3.783   0.752   4.775  3.4418  0.7911 -0.3831
 6286SOL     OW30493   3.107   2.927   3.306  0.1534  0.3739  0.1410
 6286SOL    HW130494   3.119   2.995   3.238  0.6547  1.6243  1.4824
 6286SOL    HW230495   3.015   2.901   3.294  0.9121 -2.0939 -0.2683
 6287SOL     OW30496   1.257   4.069   7.512 -0.9284  0.1417 -0.1776
 6287SOL    HW130497   1.296   3.986   7.484 -0.5059 -0.3804  1.9392
 6287SOL    HW230498   1.282   4.067   7.605  0.1785  1.5876 -0.4586
 6288SOL     OW30499   4.277   3.876   7.649 -0.0054 -0.6862  0.3216
 6288SOL    HW130500   4.267   3.924   7.567  1.6304 -1.2585 -0.2082
 6288SOL    HW230501   4.235   3.932   7.714 -0.2159  2.0010 -2.1578
 6289SOL     OW30502   2.469   3.227   3.473  0.2640  0.0486  0.6598
 6289SOL    HW130503   2.525   3.151   3.459 -0.0825  0.1350 -1.1254
 6289SOL    HW230504   2.378   3.198   3.461 -0.0014  1.7878 -1.5935
 6290SOL     OW30505   0.959   2.532   8.872 -0.3343 -0.2464 -0.4595
 6290SOL    HW130506   0.910   2.543   8.791 -2.1301 -1.6551  0.4230
 6290SOL    HW230507   0.941   2.614   8.918 -1.6746  0.0302 -1.4860
 6291SOL     OW30508   4.051   4.589  13.316 -0.4728  0.0139 -0.7578
 6291SOL    HW130509   4.062   4.516  13.377 -0.3652  1.4539  0.9485
 6291SOL    HW230510   4.054   4.542  13.233  0.1350 -1.6197  0.1922
 6292SOL     OW30511   2.192   2.486  15.826 -0.1347 -0.2385  0.0145
 6292SOL    HW130512   2.106   2.523  15.845 -0.0923 -0.2542  0.2434
 6292SOL    HW230513   2.167   2.405  15.781  1.0066  0.0218 -1.0539
 6293SOL     OW30514   4.651   3.415   4.044  0.0290 -0.3384  0.1607
 6293SOL    HW130515   4.639   3.395   4.137  3.0070  3.0098  1.2723
 6293SOL    HW230516   4.661   3.331   4.000  1.0099  0.0920 -0.4263
 6294SOL     OW30517   1.250   2.871   7.892  0.0810 -0.1546 -0.2695
 6294SOL    HW130518   1.177   2.833   7.942  0.0624  0.8009  0.4353
 6294SOL    HW230519   1.209   2.891   7.808 -0.4560  2.3401  0.5600
 6295SOL     OW30520   1.770   0.315   6.888  0.9361  0.0064  0.1219
 6295SOL    HW130521   1.720   0.382   6.842  1.6993  0.0554 -0.6329
 6295SOL    HW230522   1.819   0.378   6.941 -0.0647  1.9095 -1.2212
 6296SOL     OW30523   4.324   4.678   4.919  0.5643  0.0373  0.1499
 6296SOL    HW130524   4.360   0.003   4.977 -1.5426  0.6913  0.6916
 6296SOL    HW230525   4.364   4.601   4.960  2.2938 -0.3734 -2.2800
 6297SOL     OW30526   4.189   4.542   8.070 -0.1012 -0.2745 -0.1774
 6297SOL    HW130527   4.281   4.568   8.078 -0.4303 -0.1791  3.2316
 6297SOL    HW230528   4.148   4.579   8.148  2.3391  0.9006  0.5591
 6298SOL     OW30529   1.230   3.143  15.367 -0.0907 -0.1789 -0.1569
 6298SOL    HW130530   1.266   3.109  15.449  0.1347 -1.8339 -0.9439
 6298SOL    HW230531   1.228   3.062  15.316 -3.2994  0.1980 -0.6503
 6299SOL     OW30532   2.658   4.424   7.906 -0.5380 -0.8807  0.4602
 6299SOL    HW130533   2.576   4.470   7.921 -0.1682 -0.6219  1.7150
 6299SOL    HW230534   2.724   4.487   7.936 -0.0126 -0.4626 -1.5491
 6300SOL     OW30535   0.895   1.029  10.879 -0.1264 -0.2686  0.0410
 6300SOL    HW130536   0.912   1.016  10.785 -1.0159  0.0979 -0.1707
 6300SOL    HW230537   0.811   1.072  10.892  0.4270  0.3951  1.4402
 6301SOL     OW30538   2.078   2.216  16.117  0.3285 -0.0726 -0.2876
 6301SOL    HW130539   2.053   2.140  16.170  0.3194 -2.1986 -3.3771
 6301SOL    HW230540   2.120   2.269  16.185 -2.3332 -0.1543  1.4269
 6302SOL     OW30541   0.667   3.857  11.349  0.5602  0.5673  0.3763
 6302SOL    HW130542   0.744   3.830  11.300  2.0770  1.4087  2.3046
 6302SOL    HW230543   0.599   3.800  11.311  0.1809  0.6599  0.9198
 6303SOL     OW30544   4.010   0.320   3.196 -0.0117 -0.0239 -0.3440
 6303SOL    HW130545   4.027   0.406   3.159  1.5023 -0.9471 -1.8065
 6303SOL    HW230546   3.969   0.344   3.279  1.1079 -2.2129  0.8377
 6304SOL     OW30547   4.132   3.024   2.807 -0.2673 -0.1150 -0.3163
 6304SOL    HW130548   4.054   3.038   2.753 -1.4135  0.7520  1.5678
 6304SOL    HW230549   4.168   3.110   2.782  0.7037 -1.1133 -2.2778
 6305SOL     OW30550   3.455   0.621   2.499  0.0016 -0.1468  0.2640
 6305SOL    HW130551   3.419   0.706   2.524  2.4591  0.3821  1.9943
 6305SOL    HW230552   3.399   0.605   2.423  1.9409 -0.7177 -1.0599
 6306SOL     OW30553   2.092   3.947   3.837 -0.1248 -0.1178  0.8578
 6306SOL    HW130554   2.122   3.873   3.783 -0.6483  0.5440 -0.3482
 6306SOL    HW230555   2.025   3.900   3.886 -2.0934  1.0303 -0.7585
 6307SOL     OW30556   1.494   2.926   2.439  0.3974  0.2202  0.2782
 6307SOL    HW130557   1.561   2.909   2.505  0.3935 -2.0303 -0.2783
 6307SOL    HW230558   1.432   2.856   2.460 -0.2121  1.2729  1.9414
 6308SOL     OW30559   2.750   1.050   7.956 -0.3122 -0.4104  0.9990
 6308SOL    HW130560   2.695   1.127   7.973 -1.9111 -1.2654 -0.2175
 6308SOL    HW230561   2.705   1.031   7.874 -1.6791  0.7112  1.4821
 6309SOL     OW30562   1.702   3.904   4.690  0.1708 -0.3183  0.0320
 6309SOL    HW130563   1.708   3.991   4.730  2.2924  0.1574 -1.3272
 6309SOL    HW230564   1.789   3.865   4.701  1.1298  1.0872 -2.5018
 6310SOL     OW30565   1.257   2.586  12.185  0.2073  0.0348 -0.0018
 6310SOL    HW130566   1.269   2.531  12.263 -1.7012  0.4194  0.5895
 6310SOL    HW230567   1.344   2.586  12.146  0.0450 -0.2030 -0.3613
 6311SOL     OW30568   0.744   1.932   2.387  0.6466 -0.5910  0.1531
 6311SOL    HW130569   0.835   1.934   2.359  0.9286 -1.1763  0.9994
 6311SOL    HW230570   0.750   1.857   2.447  2.2612  0.8553  1.7734
 6312SOL     OW30571   2.454   3.965   4.724 -0.3589 -0.1599  0.4656
 6312SOL    HW130572   2.485   3.900   4.786  0.8494 -0.4095 -0.4053
 6312SOL    HW230573   2.425   4.031   4.787 -1.5232  0.0905 -0.3302
 6313SOL     OW30574   3.144   3.014   8.697  0.4442  0.1753  0.7308
 6313SOL    HW130575   3.136   3.076   8.770  1.9869 -0.5378  1.5060
 6313SOL    HW230576   3.200   2.956   8.748 -0.0198 -3.2382 -2.6358
 6314SOL     OW30577   4.027   3.833   5.474  0.4231 -0.3941  0.0335
 6314SOL    HW130578   4.102   3.801   5.425  1.0813 -1.9423  2.0469
 6314SOL    HW230579   4.057   3.922   5.493  0.0353 -0.7404  2.2341
 6315SOL     OW30580   2.721   2.933  11.153 -0.5212 -0.1502 -0.2476
 6315SOL    HW130581   2.710   2.858  11.210 -2.0684 -0.6148 -1.1514
 6315SOL    HW230582   2.638   2.927  11.106 -1.2122 -2.2507  1.2504
 6316SOL     OW30583   2.257   4.010   5.312 -0.3056  0.1312  0.7312
 6316SOL    HW130584   2.265   4.090   5.364 -0.8715  0.9917 -0.5042
 6316SOL    HW230585   2.209   4.032   5.233 -0.0907 -0.1257  0.5283
 6317SOL     OW30586   3.451   0.027  12.649 -0.0403 -0.1698 -0.0591
 6317SOL    HW130587   3.389   4.707  12.689 -0.0580 -0.5854 -0.7332
 6317SOL    HW230588   3.527   0.012  12.706 -0.8024  0.3499  1.1171
 6318SOL     OW30589   2.259   3.963   7.302  0.0381 -0.0283 -0.3238
 6318SOL    HW130590   2.174   3.964   7.258  0.1473  1.0061 -0.5135
 6318SOL    HW230591   2.229   3.995   7.387 -0.1919  0.2074 -0.4913
 6319SOL     OW30592   2.198   1.023   4.401 -0.9797 -0.0773 -0.2447
 6319SOL    HW130593   2.165   0.944   4.358 -2.4911 -0.1360  1.0424
 6319SOL    HW230594   2.180   1.004   4.493  1.0297 -1.6089 -0.1550
 6320SOL     OW30595   0.087   1.802   4.687 -0.3136  0.0538 -0.2648
 6320SOL    HW130596   0.005   1.840   4.655 -0.1023  0.6322 -0.1244
 6320SOL    HW230597   0.042   1.745   4.749 -1.8694  0.5351 -0.9545
 6321SOL     OW30598   4.519   3.237   1.844 -0.0231 -0.3292 -0.2871
 6321SOL    HW130599   4.480   3.179   1.910 -1.3938  1.0799  0.1520
 6321SOL    HW230600   4.544   3.173   1.778 -1.3445  0.7953 -1.8878
 6322SOL     OW30601   1.003   3.193  11.336  0.0190  0.2063  0.1930
 6322SOL    HW130602   1.030   3.241  11.258  1.2975  0.9834  1.1153
 6322SOL    HW230603   1.055   3.112  11.337  0.0430  0.2027 -0.9794
 6323SOL     OW30604   1.356   1.099   2.161 -0.0228  0.5545  0.6467
 6323SOL    HW130605   1.385   1.106   2.252  1.5128  1.8668  0.0644
 6323SOL    HW230606   1.439   1.107   2.115  0.0627 -2.6163  0.2412
 6324SOL     OW30607   4.731   3.197   1.337 -0.2528 -0.4724 -0.2931
 6324SOL    HW130608   4.718   3.237   1.251 -0.6639  1.3734  0.6218
 6324SOL    HW230609   4.732   3.104   1.316  0.8265 -0.5790  0.2156
 6325SOL     OW30610   0.744   3.813   2.555 -0.0974 -0.2713 -0.0809
 6325SOL    HW130611   0.672   3.757   2.582 -0.3362 -0.0048 -0.1577
 6325SOL    HW230612   0.695   3.889   2.523  1.6803  0.5830 -0.7496
 6326SOL     OW30613   4.431   2.003   9.802  0.0857 -0.6132  0.6756
 6326SOL    HW130614   4.400   1.973   9.887 -2.7278  0.3551 -0.0022
 6326SOL    HW230615   4.433   1.921   9.753 -1.0902  1.0737 -2.2001
 6327SOL     OW30616   3.944   4.646   1.635  0.5264  0.0923 -0.7120
 6327SOL    HW130617   3.937   4.599   1.552 -0.7567  1.2162 -1.2360
 6327SOL    HW230618   3.852   4.673   1.646  0.0354 -2.2283  1.0609
 6328SOL     OW30619   3.099   2.829  14.505  1.0791 -0.1552  0.1227
 6328SOL    HW130620   3.064   2.918  14.509  1.5651  0.0273  0.3402
 6328SOL    HW230621   3.041   2.784  14.443  1.9308 -2.2394  0.8418
 6329SOL     OW30622   1.295   2.124   4.830 -0.0510  0.0285 -0.5487
 6329SOL    HW130623   1.342   2.096   4.751  0.6113 -0.4505  0.0081
 6329SOL    HW230624   1.309   2.050   4.890 -1.2716  0.1560 -0.1183
 6330SOL     OW30625   1.586   0.259  10.050  0.1708  0.1364  0.3488
 6330SOL    HW130626   1.608   0.201   9.977  0.7126 -0.4390  0.9726
 6330SOL    HW230627   1.495   0.236  10.065  1.1523 -2.7682  1.7137
 6331SOL     OW30628   4.546   2.263  15.514  0.3615  0.9409 -0.0378
 6331SOL    HW130629   4.576   2.227  15.598 -0.9253 -3.1542 -1.3390
 6331SOL    HW230630   4.616   2.232  15.456 -0.9223 -0.6018 -0.7303
 6332SOL     OW30631   2.917   3.079   4.946 -0.3001 -0.2622  0.3976
 6332SOL    HW130632   2.822   3.062   4.943 -0.4838  0.7702  0.2760
 6332SOL    HW230633   2.921   3.105   5.039 -0.4439  1.0807  0.0301
 6333SOL     OW30634   4.298   2.760   8.650  0.3224 -0.5398  0.4548
 6333SOL    HW130635   4.235   2.825   8.617 -0.3941 -2.1017 -1.2511
 6333SOL    HW230636   4.249   2.683   8.676  0.2387 -0.9842 -0.9925
 6334SOL     OW30637   4.132   0.904   9.542  0.3898  0.0774  0.0011
 6334SOL    HW130638   4.150   0.952   9.460  0.7031 -0.8274 -0.4567
 6334SOL    HW230639   4.192   0.833   9.520 -0.8870 -1.1350  0.3818
 6335SOL     OW30640   0.908   3.224   0.251  0.1586 -0.3157  0.1479
 6335SOL    HW130641   0.995   3.188   0.268  0.1969  0.5751  1.7557
 6335SOL    HW230642   0.895   3.202   0.159  0.1705 -0.0039  0.0708
 6336SOL     OW30643   0.307   3.669   8.237  0.3762  0.4243  0.1322
 6336SOL    HW130644   0.220   3.635   8.215  0.2847  0.5112  0.3633
 6336SOL    HW230645   0.284   3.683   8.328 -2.7275 -3.0035 -0.1444
 6337SOL     OW30646   0.578   2.659   2.669  0.0954 -0.5311 -0.1119
 6337SOL    HW130647   0.527   2.739   2.669  0.6701 -0.1659  2.9094
 6337SOL    HW230648   0.536   2.617   2.594 -2.1268 -1.1380  1.4739
 6338SOL     OW30649   3.418   1.546  16.556  0.3802  0.1302 -0.4865
 6338SOL    HW130650   3.461   1.517  16.637 -0.2156  0.2938 -0.1102
 6338SOL    HW230651   3.381   1.631  16.577  0.0618 -0.2662  0.5552
 6339SOL     OW30652   3.146   2.715  14.948  0.2824  0.7459  0.4930
 6339SOL    HW130653   3.137   2.632  14.996  1.5143  0.6182  0.5206
 6339SOL    HW230654   3.149   2.689  14.856  0.7077 -1.4418  1.1063
 6340SOL     OW30655   2.142   3.019   6.445 -0.2935  0.4859  0.5316
 6340SOL    HW130656   2.100   3.105   6.456 -0.2965  0.5839 -0.2181
 6340SOL    HW230657   2.204   3.047   6.378  0.0855  1.0800  1.1345
 6341SOL     OW30658   4.037   3.559  17.552 -0.3999 -0.1946 -0.5765
 6341SOL    HW130659   4.008   3.468  17.554 -2.6939  0.5174 -1.7847
 6341SOL    HW230660   4.009   3.581  17.463 -2.8834  0.4995  0.3619
 6342SOL     OW30661   2.037   3.175   7.212  0.5593  0.4020  0.1488
 6342SOL    HW130662   2.035   3.225   7.130  1.4431 -2.4754 -1.6520
 6342SOL    HW230663   2.020   3.241   7.279 -0.2262  1.0918 -0.7336
 6343SOL     OW30664   2.865   2.290   7.731 -0.7676 -0.1538 -0.0405
 6343SOL    HW130665   2.898   2.279   7.642  0.4113 -1.1029  0.5284
 6343SOL    HW230666   2.940   2.257   7.780 -1.7662 -2.2204  0.0926
 6344SOL     OW30667   0.954   3.988   9.053  0.3752 -0.1988 -0.5907
 6344SOL    HW130668   0.956   3.969   9.146  1.3013  1.9217 -0.1729
 6344SOL    HW230669   0.869   4.031   9.046 -0.6671 -2.0554  0.9312
 6345SOL     OW30670   3.303   0.260   9.943 -0.3671  0.1064 -0.4493
 6345SOL    HW130671   3.376   0.231   9.997 -0.9296  1.5887  1.1629
 6345SOL    HW230672   3.344   0.269   9.857 -1.3617 -0.0857 -0.9470
 6346SOL     OW30673   4.119   1.916  14.275  0.0616 -0.2691  0.4070
 6346SOL    HW130674   4.159   1.899  14.190 -0.6079 -0.0479  0.0511
 6346SOL    HW230675   4.036   1.869  14.274  0.2901 -0.6810  0.7758
 6347SOL     OW30676   0.291   3.676  12.935 -0.0516 -0.8573  0.1422
 6347SOL    HW130677   0.294   3.631  13.019  1.9134 -0.5914  0.2000
 6347SOL    HW230678   0.207   3.638  12.906 -0.7610  3.1230 -3.0158
 6348SOL     OW30679   0.077   1.628   3.557 -0.1216 -0.1672 -0.0948
 6348SOL    HW130680   0.134   1.559   3.524 -0.9806 -0.5279 -0.8268
 6348SOL    HW230681   0.138   1.671   3.617  0.0882  0.4309 -0.7375
 6349SOL     OW30682   0.866   1.926   7.640 -0.1830  0.8386  0.2604
 6349SOL    HW130683   0.917   1.863   7.590 -1.6739 -0.7318  0.7284
 6349SOL    HW230684   0.825   1.979   7.572 -1.3757  0.9987  1.1123
 6350SOL     OW30685   3.827   3.697  15.018  0.3563  0.0058  0.7181
 6350SOL    HW130686   3.894   3.765  15.022 -0.5650  0.8473  1.9902
 6350SOL    HW230687   3.860   3.648  14.943  0.9201 -0.8658  1.5365
 6351SOL     OW30688   4.027   4.268   7.062  0.1328 -0.1344 -0.1213
 6351SOL    HW130689   3.958   4.304   7.118  1.2215  1.9135 -0.1110
 6351SOL    HW230690   4.065   4.351   7.032  1.2322 -0.3807  0.5732
 6352SOL     OW30691   3.065   3.656   1.687 -0.3674  0.1921  0.7620
 6352SOL    HW130692   3.051   3.741   1.729  2.3993  0.8749  0.3175
 6352SOL    HW230693   2.992   3.606   1.725 -1.4215  1.5834  0.5737
 6353SOL     OW30694   2.575   4.264   2.693 -0.2879 -0.2839  0.0324
 6353SOL    HW130695   2.591   4.246   2.601  0.5263 -2.5854  0.6503
 6353SOL    HW230696   2.519   4.342   2.688  1.8912  1.3520  1.3169
 6354SOL     OW30697   0.830   1.076   5.879 -0.0026  0.1182  0.2331
 6354SOL    HW130698   0.915   1.088   5.922 -0.4365  0.0789  1.0988
 6354SOL    HW230699   0.775   1.059   5.955 -0.0374  1.7883  0.5905
 6355SOL     OW30700   0.199   2.739   6.736  0.1912 -0.5485 -0.3477
 6355SOL    HW130701   0.206   2.673   6.667  1.3111 -1.2755  0.4646
 6355SOL    HW230702   0.132   2.699   6.790  0.7538 -1.6175 -0.4259
 6356SOL     OW30703   2.983   2.848  14.042 -0.2892  0.3703  0.2083
 6356SOL    HW130704   2.888   2.854  14.035 -0.2364 -0.4121 -1.0609
 6356SOL    HW230705   3.007   2.848  13.949 -1.3982 -1.2622 -0.0709
 6357SOL     OW30706   2.920   2.324  13.240 -0.4704 -0.5292  0.2353
 6357SOL    HW130707   3.002   2.275  13.233  0.1497  0.3044  1.6487
 6357SOL    HW230708   2.952   2.414  13.239 -0.4413 -0.5263  1.2447
 6358SOL     OW30709   1.609   3.628   6.945 -0.0677 -0.7992  0.0753
 6358SOL    HW130710   1.638   3.646   6.856  2.7251  0.4302  1.2298
 6358SOL    HW230711   1.519   3.657   6.932  0.1507 -0.9009 -1.5846
 6359SOL     OW30712   2.407   2.701   4.969 -0.2995 -0.4928  0.1798
 6359SOL    HW130713   2.486   2.741   4.932 -1.1949  0.7248 -0.3867
 6359SOL    HW230714   2.363   2.675   4.889 -2.0077  1.2576  0.5680
 6360SOL     OW30715   0.840   0.880   1.259 -0.1904 -0.1242  0.4588
 6360SOL    HW130716   0.919   0.871   1.206 -0.5816 -1.1383  0.0502
 6360SOL    HW230717   0.866   0.876   1.351 -0.5159  1.0067  0.6008
 6361SOL     OW30718   0.252   2.313  15.698  0.2418 -0.0332 -0.0651
 6361SOL    HW130719   0.249   2.281  15.608 -1.7524  0.7110 -0.2789
 6361SOL    HW230720   0.192   2.387  15.703  1.2681  0.7863 -0.0500
 6362SOL     OW30721   1.296   3.925  12.711 -0.0262 -0.4665  0.4281
 6362SOL    HW130722   1.298   4.021  12.707 -0.8282 -0.5019 -0.7824
 6362SOL    HW230723   1.385   3.909  12.743 -0.0686  2.9570  2.3044
 6363SOL     OW30724   3.873   1.677  16.663 -0.5475 -0.1513  0.2701
 6363SOL    HW130725   3.858   1.753  16.720 -0.5593  0.6160 -0.7480
 6363SOL    HW230726   3.953   1.699  16.614 -0.2623  1.4425  1.4531
 6364SOL     OW30727   1.365   1.358   6.040 -0.3467 -0.0738 -0.6738
 6364SOL    HW130728   1.409   1.443   6.043 -1.2865  0.4730 -2.6285
 6364SOL    HW230729   1.346   1.344   6.133  1.7132 -0.3440 -0.2855
 6365SOL     OW30730   2.479   1.424   5.629  0.0827  0.1335  0.2623
 6365SOL    HW130731   2.494   1.498   5.687 -3.6558  1.2492 -0.2474
 6365SOL    HW230732   2.463   1.346   5.682  1.0263  1.0415  1.8986
 6366SOL     OW30733   2.938   4.440  12.346 -0.5062  0.1254  0.7226
 6366SOL    HW130734   2.981   4.514  12.302  1.0873 -1.0679  0.3123
 6366SOL    HW230735   3.005   4.428  12.413  0.5940  0.3154 -0.3413
 6367SOL     OW30736   4.223   1.781   4.085  0.1940  0.2162 -0.2700
 6367SOL    HW130737   4.222   1.694   4.045 -3.1515  0.6083 -1.0065
 6367SOL    HW230738   4.277   1.817   4.015 -0.1424  1.3048  0.0384
 6368SOL     OW30739   1.581   3.922   7.017 -0.1245  0.1231 -0.4243
 6368SOL    HW130740   1.639   3.908   6.943 -1.2433  1.0191 -1.4583
 6368SOL    HW230741   1.586   3.844   7.073 -1.4493  0.3111 -0.0286
 6369SOL     OW30742   4.209   4.255   1.492  0.4894 -0.2860  0.0585
 6369SOL    HW130743   4.156   4.242   1.570 -0.4254  1.1432 -0.3297
 6369SOL    HW230744   4.295   4.227   1.522  1.3067  3.2754  1.0109
 6370SOL     OW30745   1.873   0.793   6.754 -0.1349 -0.1141  0.0911
 6370SOL    HW130746   1.882   0.850   6.678 -1.6451  1.7618  1.3325
 6370SOL    HW230747   1.874   0.856   6.826 -0.4102  2.3387 -2.0353
 6371SOL     OW30748   4.328   2.737   2.810  0.7923  0.2266  0.2930
 6371SOL    HW130749   4.243   2.706   2.778  0.5289  0.6803  0.5526
 6371SOL    HW230750   4.309   2.785   2.891 -1.3109 -0.3972  0.1694
 6372SOL     OW30751   2.435   4.086   2.871 -0.0937  0.0458 -0.0743
 6372SOL    HW130752   2.341   4.101   2.882 -0.3040 -0.8649 -0.6530
 6372SOL    HW230753   2.455   4.130   2.788  0.2988 -0.4746 -0.2521
 6373SOL     OW30754   2.002   4.093   7.830  0.3173 -0.5239 -0.8095
 6373SOL    HW130755   1.986   4.164   7.768 -0.7567 -0.3364 -0.3286
 6373SOL    HW230756   1.931   4.030   7.813 -1.1799  1.2650 -1.2215
 6374SOL     OW30757   1.382   3.456   2.969 -0.6879  0.0751  0.3447
 6374SOL    HW130758   1.326   3.515   2.918  0.9026  1.0572 -0.2434
 6374SOL    HW230759   1.395   3.395   2.896  0.5940  0.2607  0.4194
 6375SOL     OW30760   3.826   2.011   5.579  0.8952 -0.5797  0.2303
 6375SOL    HW130761   3.774   1.943   5.536 -0.9528  0.5921  0.6254
 6375SOL    HW230762   3.897   1.961   5.619  0.8918 -1.4577 -0.8727
 6376SOL     OW30763   2.350   1.405   6.930 -0.2760  0.4649 -0.1361
 6376SOL    HW130764   2.378   1.396   6.839 -0.9792  0.8033 -0.3860
 6376SOL    HW230765   2.291   1.479   6.920 -0.1783  0.6265  0.5041
 6377SOL     OW30766   0.479   4.626  13.138  0.2584  0.3757  0.4767
 6377SOL    HW130767   0.383   4.622  13.146  0.1814  2.3344  0.5080
 6377SOL    HW230768   0.495   4.694  13.073  0.6030 -0.1586 -0.0046
 6378SOL     OW30769   2.201   2.804   8.340 -0.4723 -0.0937 -0.3360
 6378SOL    HW130770   2.186   2.836   8.251 -2.7281 -0.4960 -0.0943
 6378SOL    HW230771   2.291   2.776   8.325 -0.0258  0.2015  1.8963
 6379SOL     OW30772   0.646   3.725   5.949  0.9202 -0.1936 -0.1935
 6379SOL    HW130773   0.573   3.728   6.011 -0.0144 -1.7373 -1.2221
 6379SOL    HW230774   0.615   3.683   5.869 -0.3440  0.2097  0.0840
 6380SOL     OW30775   4.247   2.462   5.856 -0.3348  0.3912 -0.1556
 6380SOL    HW130776   4.210   2.549   5.846  0.5325  0.6973 -0.6888
 6380SOL    HW230777   4.320   2.462   5.794  1.3985 -0.3175  1.8923
 6381SOL     OW30778   4.561   1.082   6.617 -0.2236  0.1432  0.3716
 6381SOL    HW130779   4.564   1.143   6.544 -1.0070  1.6756  1.6206
 6381SOL    HW230780   4.568   0.998   6.572  0.2290 -0.2535  1.1758
 6382SOL     OW30781   4.088   4.594   7.795 -0.3314 -0.3551  0.6780
 6382SOL    HW130782   4.030   4.666   7.769  0.1474  0.6654  2.3985
 6382SOL    HW230783   4.076   4.602   7.890  0.2650  1.3517  0.6222
 6383SOL     OW30784   2.001   4.294   7.399  0.0765 -0.4293 -0.1213
 6383SOL    HW130785   2.017   4.315   7.491 -0.9537  0.3008 -0.1005
 6383SOL    HW230786   2.037   4.375   7.363 -0.7818 -0.4095 -0.9456
 6384SOL     OW30787   3.678   4.447  14.803  0.0353 -0.1705 -0.1172
 6384SOL    HW130788   3.645   4.381  14.742  2.0842 -0.1494 -1.2227
 6384SOL    HW230789   3.759   4.468  14.757  0.7841 -1.1799  0.7361
 6385SOL     OW30790   1.897   0.025  13.320  0.2449 -0.5765  0.2965
 6385SOL    HW130791   1.878   0.029  13.227  0.3400  0.7545  0.3313
 6385SOL    HW230792   1.871   0.112  13.349  1.0824 -0.2912  0.1947
 6386SOL     OW30793   0.526   1.499   4.945 -1.1552 -0.0425 -0.7951
 6386SOL    HW130794   0.499   1.527   4.857  0.5911  1.7278 -0.7530
 6386SOL    HW230795   0.621   1.503   4.949 -1.1602 -0.8477  0.1066
 6387SOL     OW30796   2.503   0.346   8.774  0.0892  0.8501 -0.3009
 6387SOL    HW130797   2.497   0.292   8.696  3.9176  1.0124 -0.7497
 6387SOL    HW230798   2.421   0.326   8.818 -0.0209  0.5590 -0.6404
 6388SOL     OW30799   4.002   4.188   7.475  0.1308 -0.7103 -0.0303
 6388SOL    HW130800   3.911   4.178   7.502  0.2638 -0.9756  0.3177
 6388SOL    HW230801   4.014   4.282   7.487  1.6683 -0.8317 -0.5977
 6389SOL     OW30802   3.682   3.425   9.044  0.2363  0.2060 -0.1483
 6389SOL    HW130803   3.776   3.442   9.033  0.6325 -0.2778  2.5097
 6389SOL    HW230804   3.646   3.473   8.969  0.4749  0.5790 -0.0256
 6390SOL     OW30805   1.811   0.375   2.649 -0.0459 -0.4947  0.5982
 6390SOL    HW130806   1.752   0.331   2.710 -0.4159 -1.6954 -0.6324
 6390SOL    HW230807   1.775   0.336   2.569 -1.1591 -1.5666  1.6183
 6391SOL     OW30808   3.348   2.654  17.254  0.4004  0.3722 -0.2110
 6391SOL    HW130809   3.357   2.703  17.172  1.4270 -0.7119 -0.7556
 6391SOL    HW230810   3.439   2.646  17.282  0.6406  0.4587 -0.9540
 6392SOL     OW30811   1.812   3.062  16.448  0.6448 -0.1144  0.3137
 6392SOL    HW130812   1.905   3.065  16.470  1.2980 -2.2416 -2.0436
 6392SOL    HW230813   1.805   3.081  16.354 -0.2927  0.9679  0.6126
 6393SOL     OW30814   2.768   3.631  10.057  0.4682 -0.3920 -0.6928
 6393SOL    HW130815   2.772   3.704   9.995  0.5961  2.4881  2.6859
 6393SOL    HW230816   2.703   3.581  10.009 -0.6779  0.7347 -0.3275
 6394SOL     OW30817   0.992   2.423  17.091  0.7485  0.3505  0.3266
 6394SOL    HW130818   1.082   2.435  17.059  1.4308  2.0880  2.9519
 6394SOL    HW230819   1.003   2.371  17.170 -0.4077  0.5500  0.6290
 6395SOL     OW30820   1.397   0.472   2.998 -0.5258 -0.0194 -0.4210
 6395SOL    HW130821   1.335   0.472   2.925 -0.1741 -1.1394 -0.7222
 6395SOL    HW230822   1.454   0.547   2.982 -2.1652  1.6793  1.7552
 6396SOL     OW30823   2.992   2.305   7.451  0.2020 -0.0593  0.5126
 6396SOL    HW130824   2.936   2.357   7.393  0.4607  1.1734  1.3774
 6396SOL    HW230825   3.000   2.225   7.400 -0.7824  0.9206 -1.1939
 6397SOL     OW30826   0.267   0.419   9.201  0.4833  0.1746  0.1731
 6397SOL    HW130827   0.287   0.394   9.111 -1.7484  1.7718 -0.7367
 6397SOL    HW230828   0.269   0.513   9.183  0.8716  0.1452  0.0627
 6398SOL     OW30829   3.437   1.139  12.372  0.3040 -0.3538  0.4751
 6398SOL    HW130830   3.439   1.233  12.389 -1.0292 -0.1761 -0.4114
 6398SOL    HW230831   3.477   1.102  12.450  0.1593  0.5081  0.9584
 6399SOL     OW30832   0.954   3.151   6.121  0.2312  0.7492 -0.5731
 6399SOL    HW130833   0.957   3.075   6.064  0.5873 -0.0976  0.5662
 6399SOL    HW230834   0.909   3.216   6.068 -1.2241  0.7697  0.6835
 6400SOL     OW30835   0.857   1.506   7.554 -0.1313 -0.3422 -0.6970
 6400SOL    HW130836   0.915   1.543   7.488  1.8183 -2.6401 -0.2581
 6400SOL    HW230837   0.907   1.532   7.632 -0.3744 -0.9143 -0.3550
 6401SOL     OW30838   4.345   0.933  15.695  0.2087 -0.0042 -0.0760
 6401SOL    HW130839   4.421   0.965  15.744  0.3764 -1.9919  0.9489
 6401SOL    HW230840   4.392   0.908  15.615 -0.0154 -1.4890  0.2530
 6402SOL     OW30841   1.911   2.072   6.857  0.1923 -0.4288  0.6705
 6402SOL    HW130842   1.997   2.039   6.830 -0.1092 -0.6161 -0.0580
 6402SOL    HW230843   1.896   2.131   6.784  2.2862 -0.4041  0.2525
 6403SOL     OW30844   1.665   1.218   1.847  0.0440 -0.0736 -0.5185
 6403SOL    HW130845   1.661   1.192   1.939 -2.0229 -0.0001 -0.5792
 6403SOL    HW230846   1.741   1.275   1.848 -0.0942  0.1229 -0.9846
 6404SOL     OW30847   2.919   0.120   5.908  0.1578 -0.0484 -0.2665
 6404SOL    HW130848   2.833   0.153   5.931  0.4448 -0.8247  1.9710
 6404SOL    HW230849   2.889   0.049   5.850 -1.5080  2.8750 -2.9516
 6405SOL     OW30850   4.328   2.671   6.637  0.2827  0.3079 -0.3009
 6405SOL    HW130851   4.356   2.762   6.638 -0.2478  0.4526  0.8533
 6405SOL    HW230852   4.403   2.620   6.605  0.8489 -0.1372  1.7677
 6406SOL     OW30853   0.080   1.362   5.792  0.5157 -0.0228 -0.1324
 6406SOL    HW130854   0.126   1.355   5.875 -1.8499 -0.5893  1.1103
 6406SOL    HW230855   0.095   1.455   5.773  3.9044 -0.1350  2.0046
 6407SOL     OW30856   3.611   3.754   8.447  0.7901  0.1515  0.1263
 6407SOL    HW130857   3.574   3.679   8.400  1.7547 -0.4389  0.3066
 6407SOL    HW230858   3.696   3.713   8.464 -0.0861 -0.5842  2.6691
 6408SOL     OW30859   0.415   2.851   7.621  0.0528 -0.2768  0.1257
 6408SOL    HW130860   0.415   2.940   7.586  1.7603 -0.7728 -1.1578
 6408SOL    HW230861   0.483   2.865   7.687 -0.2424  0.7154  0.2112
 6409SOL     OW30862   0.341   3.362   8.471  0.4779 -0.2391 -0.0648
 6409SOL    HW130863   0.318   3.286   8.524  1.8014 -0.7135 -0.1901
 6409SOL    HW230864   0.297   3.434   8.517  2.1568 -0.2255  1.5553
 6410SOL     OW30865   1.419   2.444   3.272  0.6551 -0.5736 -0.1875
 6410SOL    HW130866   1.457   2.473   3.355 -1.1451 -2.5678  1.3235
 6410SOL    HW230867   1.337   2.406   3.302  0.9006 -2.3717 -1.7308
 6411SOL     OW30868   1.888   2.043   6.253 -0.5272 -0.4960  0.6258
 6411SOL    HW130869   1.835   2.021   6.329 -0.1501 -1.1144  0.7071
 6411SOL    HW230870   1.970   2.068   6.295  0.0019 -0.6693 -0.2961
 6412SOL     OW30871   2.561   2.909   3.137 -0.3174 -0.5566  0.0338
 6412SOL    HW130872   2.555   2.906   3.041  1.4589 -1.8038 -0.0515
 6412SOL    HW230873   2.492   2.972   3.155  0.0721  0.7414 -3.0638
 6413SOL     OW30874   2.786   2.089  16.722 -0.2061  0.5436 -0.7480
 6413SOL    HW130875   2.792   2.010  16.668  1.3305  0.5385 -0.5856
 6413SOL    HW230876   2.697   2.090  16.755 -0.1543 -1.1508 -0.5443
 6414SOL     OW30877   4.592   2.249   6.374 -0.0163 -1.1602  0.4649
 6414SOL    HW130878   4.612   2.245   6.281 -0.9232 -2.7543  0.3438
 6414SOL    HW230879   4.675   2.288   6.402 -0.4783  0.2354 -0.1207
 6415SOL     OW30880   1.567   2.396   8.281  0.2445  0.6295 -0.0834
 6415SOL    HW130881   1.613   2.435   8.206  3.2467  0.1159  1.4777
 6415SOL    HW230882   1.480   2.434   8.276  0.3430  0.8991  0.2129
 6416SOL     OW30883   3.255   2.148   6.515 -0.3015  0.3072 -0.1334
 6416SOL    HW130884   3.308   2.092   6.572 -1.3030  0.3034  0.8034
 6416SOL    HW230885   3.293   2.142   6.427  1.9385  2.3760  0.6972
 6417SOL     OW30886   3.421   0.781   6.533  0.1288 -0.7617  0.0631
 6417SOL    HW130887   3.387   0.730   6.459 -1.3988  0.0574  0.1910
 6417SOL    HW230888   3.366   0.748   6.604 -1.9878  1.9954 -0.2876
 6418SOL     OW30889   2.266   4.472   4.694 -0.2470 -0.1411  0.5061
 6418SOL    HW130890   2.329   4.453   4.624  0.6257 -0.7267  1.4357
 6418SOL    HW230891   2.307   4.542   4.745 -1.4342  1.8603 -1.3100
 6419SOL     OW30892   3.623   0.833   7.978  0.4249  0.5471  0.6858
 6419SOL    HW130893   3.611   0.868   8.066  0.8039 -1.2035  1.4258
 6419SOL    HW230894   3.718   0.841   7.970  0.2907  0.2050 -1.2764
 6420SOL     OW30895   2.790   3.241   3.297  0.6879  0.2112  0.0325
 6420SOL    HW130896   2.752   3.187   3.366  2.1011  0.2077  0.8161
 6420SOL    HW230897   2.786   3.186   3.219 -2.7986  0.5089  0.0011
 6421SOL     OW30898   2.316   3.604   2.108 -0.2440  0.2939  0.3523
 6421SOL    HW130899   2.225   3.626   2.088 -0.2322  1.6130  1.7760
 6421SOL    HW230900   2.359   3.615   2.023 -1.4031  1.4316 -0.0942
 6422SOL     OW30901   1.586   4.350  13.449 -0.0947  0.2632  0.4465
 6422SOL    HW130902   1.583   4.442  13.425 -0.5159 -0.0248 -0.6134
 6422SOL    HW230903   1.665   4.339  13.501 -0.3339 -0.3952  0.6772
 6423SOL     OW30904   1.460   2.215   1.785  0.2136  0.2881 -0.3256
 6423SOL    HW130905   1.463   2.199   1.879 -0.7444  0.8003 -0.2102
 6423SOL    HW230906   1.365   2.203   1.781  0.2668 -0.9859  2.9326
 6424SOL     OW30907   0.462   4.338   4.815  0.7681 -0.1890  0.2372
 6424SOL    HW130908   0.470   4.259   4.868 -1.8465 -0.9035 -0.4648
 6424SOL    HW230909   0.395   4.296   4.761  1.7866  1.1721 -2.1106
 6425SOL     OW30910   0.759   3.390  16.198  0.0070 -0.0411 -0.2861
 6425SOL    HW130911   0.809   3.388  16.116 -0.1402  0.0012 -0.3777
 6425SOL    HW230912   0.809   3.451  16.253 -0.4931  0.2173 -0.1242
 6426SOL     OW30913   2.980   4.625  14.900 -0.3696  0.2794 -0.7710
 6426SOL    HW130914   2.987   4.542  14.854 -2.1155  0.0739 -0.6476
 6426SOL    HW230915   3.072   4.651  14.913 -0.8703  1.2385  0.8207
 6427SOL     OW30916   3.110   3.487   6.166 -0.1515  0.5899  0.2724
 6427SOL    HW130917   3.066   3.529   6.240 -0.5082 -1.8641  1.4609
 6427SOL    HW230918   3.198   3.472   6.202  0.3480 -0.6430 -1.4549
 6428SOL     OW30919   0.658   4.470   7.943  0.0393 -0.6441  0.2770
 6428SOL    HW130920   0.709   4.537   7.898 -1.5141  1.5760  1.8335
 6428SOL    HW230921   0.645   4.409   7.870 -0.4397 -0.6491  0.3640
 6429SOL     OW30922   0.776   0.598   4.898  0.2401 -0.0240  0.5571
 6429SOL    HW130923   0.720   0.655   4.951  0.7343  0.3444  0.6851
 6429SOL    HW230924   0.815   0.665   4.842  1.5752  0.1282  1.6503
 6430SOL     OW30925   3.280   0.835   9.473  0.6477  0.3015 -0.1801
 6430SOL    HW130926   3.199   0.849   9.425  0.6936  0.0758 -0.3218
 6430SOL    HW230927   3.299   0.919   9.514  0.1096  0.0192  0.6380
 6431SOL     OW30928   1.442   0.440  12.293  0.2711 -0.2506  0.2178
 6431SOL    HW130929   1.467   0.357  12.252  1.2172 -0.2071  0.7000
 6431SOL    HW230930   1.505   0.497  12.248 -0.1687 -1.6531 -2.1282
 6432SOL     OW30931   0.177   0.468  17.076 -0.0729 -0.2779 -0.2749
 6432SOL    HW130932   0.090   0.504  17.062 -0.7419 -1.6475  0.3568
 6432SOL    HW230933   0.228   0.542  17.109  0.3244 -0.6372 -0.0888
 6433SOL     OW30934   0.771   3.682   6.823 -0.4426  0.3327  0.2318
 6433SOL    HW130935   0.698   3.623   6.804  1.4922 -1.1738 -2.4106
 6433SOL    HW230936   0.753   3.714   6.912 -0.5007  0.5422  0.1452
 6434SOL     OW30937   3.194   2.115   9.051  0.3331  0.5699  0.3539
 6434SOL    HW130938   3.250   2.083   9.122 -0.2213 -1.7850 -0.2535
 6434SOL    HW230939   3.140   2.036   9.044 -0.7682  1.3165  0.3750
 6435SOL     OW30940   0.905   1.515   6.102 -0.3292  0.4457  0.4596
 6435SOL    HW130941   0.952   1.432   6.088 -0.2050  0.4024  1.1369
 6435SOL    HW230942   0.966   1.567   6.155 -0.7402  1.1130  0.2746
 6436SOL     OW30943   3.398   0.339   2.411 -0.0954  0.3286 -0.5167
 6436SOL    HW130944   3.352   0.388   2.343 -0.7823  2.6003  1.5927
 6436SOL    HW230945   3.378   0.383   2.494  1.8110  0.1067  0.0610
 6437SOL     OW30946   0.563   0.030   1.284 -0.1803  0.4880  0.2938
 6437SOL    HW130947   0.632   4.707   1.301  0.8438  1.9999  1.9046
 6437SOL    HW230948   0.493   4.710   1.265  1.3487 -0.6858 -1.6082
 6438SOL     OW30949   2.705   0.602   0.462  0.7341 -0.2145 -1.0422
 6438SOL    HW130950   2.659   0.584   0.544  0.0111 -1.3032 -1.6935
 6438SOL    HW230951   2.785   0.550   0.470  1.9203  1.8176  0.4362
 6439SOL     OW30952   1.943   2.604  11.602  0.1031 -0.5015  0.1551
 6439SOL    HW130953   2.008   2.568  11.661  1.2688  0.0183 -0.8101
 6439SOL    HW230954   1.995   2.600  11.521 -1.6307  3.0159 -1.1628
 6440SOL     OW30955   4.035   3.170   7.214  0.5140  0.0523  0.6411
 6440SOL    HW130956   3.957   3.166   7.159  0.3066 -0.7392  0.9985
 6440SOL    HW230957   3.999   3.143   7.298 -0.4542 -3.0539 -0.7445
 6441SOL     OW30958   2.321   1.172   7.062 -0.6187 -0.0525 -1.0106
 6441SOL    HW130959   2.367   1.099   7.020  1.2155 -0.1144  1.1004
 6441SOL    HW230960   2.347   1.248   7.010 -0.0425 -0.7045 -1.6828
 6442SOL     OW30961   2.454   1.446  16.098 -0.4330 -0.2401 -0.4245
 6442SOL    HW130962   2.410   1.486  16.173  0.3638 -0.1341 -0.0085
 6442SOL    HW230963   2.379   1.455  16.040 -1.3191  2.7173  1.1719
 6443SOL     OW30964   1.784   3.542   3.303  1.0199  0.1200 -0.0729
 6443SOL    HW130965   1.804   3.449   3.293 -1.2826 -0.0968 -2.6153
 6443SOL    HW230966   1.702   3.551   3.253  0.3411 -0.5776  0.9031
 6444SOL     OW30967   1.672   1.484   0.341 -0.2729  0.1651  0.5966
 6444SOL    HW130968   1.630   1.491   0.255  1.5521  0.1492 -0.2913
 6444SOL    HW230969   1.740   1.548   0.319 -0.8183 -0.4277 -2.7814
 6445SOL     OW30970   1.042   3.933   1.889 -0.3378 -0.1754  0.7702
 6445SOL    HW130971   0.993   3.996   1.943 -0.8493  0.0860  0.0015
 6445SOL    HW230972   1.028   3.853   1.939  0.4014  0.1363  1.4685
 6446SOL     OW30973   2.612   3.573   4.667 -0.0922 -0.5476 -0.5159
 6446SOL    HW130974   2.536   3.594   4.613 -0.9903  2.3623  1.8942
 6446SOL    HW230975   2.569   3.561   4.751  2.6453  1.5269  1.2043
 6447SOL     OW30976   0.447   1.254   8.131  0.3017  0.5252  0.6668
 6447SOL    HW130977   0.361   1.296   8.136 -0.3099 -0.8207  1.3531
 6447SOL    HW230978   0.504   1.323   8.096 -0.0831  1.3798  1.7175
 6448SOL     OW30979   2.562   4.556   2.096  0.0244  0.2609  0.4018
 6448SOL    HW130980   2.500   4.568   2.024 -1.1224  0.4597  1.4226
 6448SOL    HW230981   2.630   4.507   2.048  0.4970 -0.3276  1.6683
 6449SOL     OW30982   3.802   3.898   5.139  0.3263  0.4013 -0.7291
 6449SOL    HW130983   3.791   3.819   5.087 -1.7010 -0.5885  1.2202
 6449SOL    HW230984   3.896   3.913   5.153  0.3737 -1.2893  0.7712
 6450SOL     OW30985   4.179   3.137   1.641  0.6493  0.6420 -0.1030
 6450SOL    HW130986   4.185   3.043   1.659 -2.8990  0.1005 -1.8188
 6450SOL    HW230987   4.119   3.174   1.705 -1.9819 -2.6554 -0.6343
 6451SOL     OW30988   4.382   1.093   2.966  0.1308  0.2338  0.1313
 6451SOL    HW130989   4.459   1.148   2.958  0.9446 -0.8779  0.2283
 6451SOL    HW230990   4.357   1.085   2.874  1.0882  1.0622 -0.2027
 6452SOL     OW30991   0.089   2.641   4.275  0.3499 -0.0908 -0.0482
 6452SOL    HW130992   0.129   2.591   4.204 -0.6142 -0.2382 -0.4912
 6452SOL    HW230993   0.166   2.676   4.320  0.3852  2.0164 -1.7248
 6453SOL     OW30994   3.259   1.897   3.730 -0.8649 -0.0411  0.7690
 6453SOL    HW130995   3.255   1.954   3.807 -2.5996  0.5361  0.2618
 6453SOL    HW230996   3.336   1.844   3.747 -0.9932 -0.6136 -0.4245
 6454SOL     OW30997   1.741   2.894   4.900 -0.6152 -0.1948 -0.1323
 6454SOL    HW130998   1.694   2.815   4.929 -0.4728 -1.0939 -2.3317
 6454SOL    HW230999   1.809   2.843   4.856 -1.9564 -0.1698 -2.2588
 6455SOL     OW31000   1.049   1.826   1.452 -0.8290 -0.0259 -0.9617
 6455SOL    HW131001   1.124   1.875   1.488 -1.2083  0.2916 -0.5984
 6455SOL    HW231002   1.037   1.896   1.388 -2.0116  1.9638  1.4213
 6456SOL     OW31003   3.758   2.538   6.634 -0.0342  0.2187  0.2015
 6456SOL    HW131004   3.695   2.559   6.703 -0.2361  2.1024 -0.5704
 6456SOL    HW231005   3.843   2.544   6.678 -0.7185  1.6635  1.3466
 6457SOL     OW31006   4.430   4.362  11.519  0.0262 -0.0111  0.4106
 6457SOL    HW131007   4.339   4.337  11.535  0.3314 -1.5272 -0.2487
 6457SOL    HW231008   4.478   4.284  11.548 -2.3744 -1.1679  1.2849
 6458SOL     OW31009   0.713   3.127   7.159  0.7473 -0.4114  0.4131
 6458SOL    HW131010   0.630   3.128   7.111  0.7521 -0.4232  0.4046
 6458SOL    HW231011   0.746   3.216   7.147 -1.2609  0.3270  0.3097
 6459SOL     OW31012   3.347   4.468   9.066 -0.2147  0.0110 -0.2769
 6459SOL    HW131013   3.295   4.388   9.059 -0.7830  0.2689  0.9317
 6459SOL    HW231014   3.422   4.430   9.021  0.6127 -0.4131  1.4646
 6460SOL     OW31015   0.712   1.234  14.978  0.2812  0.1235 -0.7244
 6460SOL    HW131016   0.695   1.324  14.950 -1.4312  0.5990  1.7772
 6460SOL    HW231017   0.659   1.234  15.058  0.7614  1.8092 -0.4002
 6461SOL     OW31018   2.936   4.554  17.633 -0.3643 -0.1308 -0.4605
 6461SOL    HW131019   2.986   4.490  17.582  0.0253  0.9807 -1.4632
 6461SOL    HW231020   2.902   4.611  17.564 -0.3977  2.2859  1.5713
 6462SOL     OW31021   3.556   2.903   4.701 -0.0513 -0.2406  0.2347
 6462SOL    HW131022   3.537   2.992   4.673  1.3663  0.0491  0.2062
 6462SOL    HW231023   3.518   2.844   4.636  0.6037 -0.8607  0.4171
 6463SOL     OW31024   4.125   0.097   8.737  0.6762  0.1834 -0.0917
 6463SOL    HW131025   4.220   0.092   8.729  0.7207 -1.7485  1.5831
 6463SOL    HW231026   4.125   0.107   8.833 -1.7123  2.9396 -0.3581
 6464SOL     OW31027   2.269   2.290  14.988 -0.1161 -0.3909 -0.4312
 6464SOL    HW131028   2.179   2.298  15.020 -0.4729  1.7177 -2.0284
 6464SOL    HW231029   2.307   2.374  15.011 -2.0685  0.3677  0.0341
 6465SOL     OW31030   1.206   1.840   8.703 -0.4166 -0.5666  0.4123
 6465SOL    HW131031   1.161   1.911   8.749  0.0485 -0.1288  0.1905
 6465SOL    HW231032   1.269   1.813   8.771 -0.7262 -3.8716 -0.6236
 6466SOL     OW31033   4.704   3.853  14.440 -0.3691 -0.1298  0.5991
 6466SOL    HW131034   4.702   3.897  14.525 -0.0870  1.6689 -0.3143
 6466SOL    HW231035   0.011   3.913  14.383 -1.6881  0.6334  0.2534
 6467SOL     OW31036   4.161   3.823  17.557 -0.1964  0.0992 -0.2406
 6467SOL    HW131037   4.095   3.867  17.611  0.0775  0.4916 -0.2284
 6467SOL    HW231038   4.142   3.730  17.559  1.1260 -0.1771 -0.4659
 6468SOL     OW31039   3.907   1.826  12.195 -0.7200  0.4552 -0.6137
 6468SOL    HW131040   3.949   1.762  12.252 -2.4781 -1.9123 -1.9593
 6468SOL    HW231041   3.974   1.826  12.126 -0.0013 -1.5042  0.0804
 6469SOL     OW31042   0.166   1.922  11.881  0.8489 -0.1843 -0.2096
 6469SOL    HW131043   0.082   1.884  11.907 -1.0461  4.6986  0.7042
 6469SOL    HW231044   0.164   1.921  11.785  0.2669 -1.5314 -0.1924
 6470SOL     OW31045   2.399   0.652   4.237 -0.5699  0.1809  0.1342
 6470SOL    HW131046   2.312   0.672   4.201 -0.5164 -1.2863 -0.8358
 6470SOL    HW231047   2.412   0.565   4.199  0.0389  0.0937  0.5513
 6471SOL     OW31048   1.427   1.085   4.118  0.0649 -0.0837 -0.0251
 6471SOL    HW131049   1.373   1.157   4.150 -2.6261 -0.2529 -4.2442
 6471SOL    HW231050   1.366   1.021   4.082  0.8726 -0.3442 -0.9348
 6472SOL     OW31051   4.048   3.937  12.959 -0.1869  0.3398  0.4807
 6472SOL    HW131052   4.029   4.024  12.926 -0.7847  0.2251  0.5157
 6472SOL    HW231053   4.048   3.885  12.879  0.4076 -0.9746  1.3332
 6473SOL     OW31054   2.313   0.749   7.798 -0.6213 -0.3999 -0.1905
 6473SOL    HW131055   2.349   0.669   7.835 -0.7522 -0.1507  0.4830
 6473SOL    HW231056   2.303   0.798   7.880  0.9430  0.8396 -0.7311
 6474SOL     OW31057   2.149   3.327   3.210  0.1680  0.0855  0.3552
 6474SOL    HW131058   2.241   3.355   3.207 -0.2414  1.5290  0.9016
 6474SOL    HW231059   2.100   3.406   3.188 -1.0888 -0.6872  0.3948
 6475SOL     OW31060   1.138   1.049  14.471 -0.5783  0.0343 -0.2578
 6475SOL    HW131061   1.201   1.031  14.540 -1.2314  0.7222  0.5117
 6475SOL    HW231062   1.076   1.103  14.519 -3.0647 -1.7730 -1.4158
 6476SOL     OW31063   0.807   3.521  11.093  0.1936  0.6072  0.0068
 6476SOL    HW131064   0.789   3.502  11.185 -1.1463  0.8012 -0.2226
 6476SOL    HW231065   0.803   3.616  11.082  0.6460  0.4202 -1.8567
 6477SOL     OW31066   1.623   1.964   6.062 -0.6122 -0.2023  0.4625
 6477SOL    HW131067   1.564   2.027   6.103 -0.9514 -0.2211  0.0132
 6477SOL    HW231068   1.608   1.888   6.117  2.3342 -0.0769  1.4370
 6478SOL     OW31069   0.104   2.409   0.866  0.4888  0.1759 -0.7385
 6478SOL    HW131070   0.175   2.363   0.911  0.5157  2.1412  1.2101
 6478SOL    HW231071   0.090   2.346   0.794 -0.4218  0.9740 -1.2595
 6479SOL     OW31072   3.666   2.053   2.562  0.3378  0.4188 -0.7272
 6479SOL    HW131073   3.727   2.007   2.504  0.4533  1.2318 -1.2392
 6479SOL    HW231074   3.605   1.980   2.572  0.0358  0.1104 -4.8517
 6480SOL     OW31075   3.525   2.542   8.057 -0.1677 -0.1024  0.0228
 6480SOL    HW131076   3.468   2.482   8.106 -0.7273 -0.0099 -0.5246
 6480SOL    HW231077   3.612   2.503   8.052 -0.9030 -1.5747 -1.4101
 6481SOL     OW31078   0.397   0.188  13.215  0.4885  0.7749 -0.2829
 6481SOL    HW131079   0.374   0.250  13.284  0.6755 -0.4955  0.9175
 6481SOL    HW231080   0.317   0.137  13.217  0.0573  1.4813  0.2437
 6482SOL     OW31081   0.068   4.070  14.292 -0.5482 -0.0319  0.4354
 6482SOL    HW131082   0.105   3.995  14.247  2.3647  2.2834 -1.0196
 6482SOL    HW231083   0.022   4.113  14.220  1.1006  0.5959 -0.2455
 6483SOL     OW31084   3.951   2.493  12.062 -0.0853 -0.0228  0.3160
 6483SOL    HW131085   3.904   2.571  12.092 -0.6022 -0.1506 -0.1622
 6483SOL    HW231086   3.883   2.446  12.013  0.6388 -2.5256  1.6833
 6484SOL     OW31087   3.649   1.055   6.942 -0.0620 -0.0486 -0.4446
 6484SOL    HW131088   3.600   1.064   6.860 -1.3394 -1.4163  0.1847
 6484SOL    HW231089   3.694   0.972   6.924  2.3617  1.3554 -0.8968
 6485SOL     OW31090   3.683   1.090   2.249  0.7522 -0.1163 -0.5926
 6485SOL    HW131091   3.737   1.062   2.176  0.9659 -1.9498  0.2819
 6485SOL    HW231092   3.591   1.082   2.225  0.8268 -2.0580 -0.2299
 6486SOL     OW31093   2.663   4.465   3.723 -0.2268 -0.0838  0.3484
 6486SOL    HW131094   2.570   4.448   3.739 -0.3178 -0.7935 -0.9166
 6486SOL    HW231095   2.713   4.389   3.751  1.0237  0.8976  0.7584
 6487SOL     OW31096   2.387   0.555   3.342 -0.1009 -0.8457 -0.5055
 6487SOL    HW131097   2.321   0.548   3.272  0.8209 -1.1248 -1.3363
 6487SOL    HW231098   2.342   0.524   3.421  0.5309 -1.3863 -0.3641
 6488SOL     OW31099   4.571   1.698   6.666 -0.2355  0.1466  0.3799
 6488SOL    HW131100   4.538   1.735   6.748  1.0094 -0.0971  1.0007
 6488SOL    HW231101   4.644   1.755   6.640 -1.0203  0.4308 -1.1723
 6489SOL     OW31102   0.667   2.661  15.141  0.0118  0.5021 -0.1385
 6489SOL    HW131103   0.599   2.678  15.077  0.4632  1.2587 -0.4160
 6489SOL    HW231104   0.685   2.569  15.121  2.4317  1.3652 -1.9878
 6490SOL     OW31105   0.548   3.403   2.894 -0.0843  0.3162 -0.2241
 6490SOL    HW131106   0.548   3.492   2.858 -0.4174 -0.5630 -2.3535
 6490SOL    HW231107   0.479   3.416   2.959 -0.8788  0.1619 -1.0584
 6491SOL     OW31108   1.828   2.230  12.399  0.1158  0.2872  0.4894
 6491SOL    HW131109   1.872   2.280  12.468 -1.8776  2.0091  0.4863
 6491SOL    HW231110   1.900   2.167  12.398 -1.8809 -1.9761 -1.0824
 6492SOL     OW31111   1.793   3.908  17.597 -0.2240  0.3463 -0.4459
 6492SOL    HW131112   1.727   3.969  17.629 -1.1024 -0.7094 -0.2362
 6492SOL    HW231113   1.742   3.827  17.607  3.2127 -1.4594  2.4279
 6493SOL     OW31114   4.711   2.662   2.212 -0.2120  0.4082 -0.5359
 6493SOL    HW131115   0.001   2.664   2.121  0.7578 -0.4817 -0.2106
 6493SOL    HW231116   4.642   2.595   2.209 -0.2176  0.5562 -3.6536
 6494SOL     OW31117   0.809   1.270   5.144  0.2417  0.0782 -0.1776
 6494SOL    HW131118   0.873   1.276   5.214  0.8282 -1.4881 -0.5764
 6494SOL    HW231119   0.753   1.347   5.152  0.4044 -0.0294  1.8060
 6495SOL     OW31120   1.297   0.977   6.415  0.0431  0.2748  0.6116
 6495SOL    HW131121   1.344   0.921   6.353 -0.6072 -0.2283  0.5773
 6495SOL    HW231122   1.361   1.048   6.420 -0.2213  0.5839 -0.3923
 6496SOL     OW31123   0.983   4.481   6.862 -0.1896  0.4350  0.6778
 6496SOL    HW131124   1.014   4.552   6.917 -0.1613  1.2447 -0.3867
 6496SOL    HW231125   1.046   4.467   6.791 -0.5905 -1.5532  0.6985
 6497SOL     OW31126   1.236   3.378  14.255 -0.2226  0.1795 -0.4923
 6497SOL    HW131127   1.175   3.323  14.305  0.4714 -0.0912  0.0680
 6497SOL    HW231128   1.196   3.464  14.265 -0.0219  0.2829 -0.5785
 6498SOL     OW31129   3.301   0.132   1.574  0.3013  0.5478  0.6597
 6498SOL    HW131130   3.277   0.069   1.506 -0.4042 -0.0393  1.4669
 6498SOL    HW231131   3.338   0.075   1.641  0.3504  0.0966  0.2459
 6499SOL     OW31132   0.441   3.264   0.125 -0.3934 -0.3338  0.4279
 6499SOL    HW131133   0.372   3.251   0.060  1.3717  0.6969 -1.6431
 6499SOL    HW231134   0.466   3.356   0.117  1.7924 -0.7604  2.3229
 6500SOL     OW31135   4.031   2.513   2.499 -0.2838  0.5685  0.0103
 6500SOL    HW131136   3.959   2.461   2.534 -0.1687 -1.4087 -2.6613
 6500SOL    HW231137   4.025   2.589   2.556  1.0944  1.2488 -0.7459
 6501SOL     OW31138   2.877   4.459  10.083 -0.0572  0.0593 -0.4482
 6501SOL    HW131139   2.850   4.502  10.002  1.2719  0.6576 -0.5881
 6501SOL    HW231140   2.794   4.434  10.122  0.0087  1.0017  0.3065
 6502SOL     OW31141   1.052   4.663   8.725 -0.1561 -0.2721  0.3318
 6502SOL    HW131142   1.103   4.581   8.729 -0.3110 -0.2251  3.7552
 6502SOL    HW231143   1.033   4.677   8.818 -4.6838 -0.2159 -0.5992
 6503SOL     OW31144   1.456   0.310  16.089 -0.6004  0.2384  0.3005
 6503SOL    HW131145   1.375   0.362  16.093 -1.3746 -0.8026 -1.9687
 6503SOL    HW231146   1.489   0.320  16.178  0.7599  2.9160 -0.5083
 6504SOL     OW31147   2.577   3.755   4.454 -0.1957  0.7249  0.0496
 6504SOL    HW131148   2.663   3.713   4.455 -0.5431  0.0170 -0.5726
 6504SOL    HW231149   2.589   3.845   4.422 -0.4779  0.7263 -0.0507
 6505SOL     OW31150   4.220   1.867  12.001  0.4662 -0.2504  0.0231
 6505SOL    HW131151   4.229   1.900  11.912  0.2866  3.6342  1.4576
 6505SOL    HW231152   4.253   1.941  12.052 -0.0067 -1.7621  2.5231
 6506SOL     OW31153   1.501   4.028   6.262  0.0466  0.1169  0.0114
 6506SOL    HW131154   1.444   3.971   6.314  1.1971 -0.4635  0.6404
 6506SOL    HW231155   1.453   4.110   6.257 -0.5800 -0.2797 -0.5763
 6507SOL     OW31156   4.027   3.790   1.174 -0.3975  0.8273  0.2042
 6507SOL    HW131157   4.098   3.825   1.228 -0.0138  1.3203 -0.6079
 6507SOL    HW231158   4.055   3.709   1.131 -0.4902  0.8400  0.1198
 6508SOL     OW31159   1.611   4.426   2.692  0.2060 -0.1952 -0.4345
 6508SOL    HW131160   1.683   4.401   2.751 -0.5441 -1.2409  0.0507
 6508SOL    HW231161   1.624   4.381   2.609  1.2552  1.5424 -1.2126
 6509SOL     OW31162   3.080   3.822   4.625  0.3246 -0.5149 -0.2659
 6509SOL    HW131163   3.141   3.770   4.571 -1.7788 -2.0503 -1.1539
 6509SOL    HW231164   3.009   3.758   4.633  0.9103 -1.1556 -0.1905
 6510SOL     OW31165   4.628   0.064   9.612  0.7716  0.1318 -0.4518
 6510SOL    HW131166   4.610   0.147   9.568 -1.2831 -1.5951 -2.8255
 6510SOL    HW231167   4.705   0.035   9.564  0.0218 -1.6463 -0.5634
 6511SOL     OW31168   2.908   0.439   0.547  0.8881  0.4136  0.4796
 6511SOL    HW131169   2.925   0.418   0.638  2.3589 -1.9685 -0.3533
 6511SOL    HW231170   2.944   0.360   0.507  0.6940  0.5312  0.0709
 6512SOL     OW31171   3.351   0.198   0.223 -0.6046 -0.4402 -0.4194
 6512SOL    HW131172   3.382   0.259   0.157  0.0984 -0.0318  0.2969
 6512SOL    HW231173   3.373   0.234   0.309 -0.0660  1.6444 -1.4179
 6513SOL     OW31174   3.866   4.098   5.834 -0.1736 -0.3624  0.0645
 6513SOL    HW131175   3.894   4.010   5.858  0.0207 -0.2593  0.2184
 6513SOL    HW231176   3.825   4.132   5.913 -0.1454 -0.2424  0.0286
 6514SOL     OW31177   1.532   0.742   2.662 -0.1352 -0.1180  0.0987
 6514SOL    HW131178   1.438   0.744   2.644 -0.6092 -0.1307  2.5384
 6514SOL    HW231179   1.547   0.656   2.624  0.3152  0.9506 -2.1193
 6515SOL     OW31180   1.176   4.291   3.490 -0.4832  0.2038 -0.6395
 6515SOL    HW131181   1.098   4.345   3.500 -2.1035 -2.0364 -1.0549
 6515SOL    HW231182   1.149   4.255   3.405 -3.1970 -0.9482  0.7168
 6516SOL     OW31183   3.575   3.317   4.353  0.3044 -0.3046 -0.1563
 6516SOL    HW131184   3.512   3.273   4.296 -0.0359 -0.3137  0.2312
 6516SOL    HW231185   3.578   3.257   4.427 -0.0602  0.8354  0.7826
 6517SOL     OW31186   3.388   4.618   9.387 -0.2134 -0.1877 -0.2176
 6517SOL    HW131187   3.303   4.573   9.388 -0.8680  1.0627  1.6401
 6517SOL    HW231188   3.439   4.560   9.443  0.4732  1.0327  0.4293
 6518SOL     OW31189   0.884   3.558   0.604  0.0341  0.5810 -0.0300
 6518SOL    HW131190   0.803   3.508   0.614 -0.2564  1.7136  3.1366
 6518SOL    HW231191   0.849   3.640   0.568 -1.3890 -0.4327 -0.9498
 6519SOL     OW31192   2.210   1.717   6.043 -0.2419  0.2091  0.0641
 6519SOL    HW131193   2.273   1.691   5.975  0.5050  0.6297  0.5921
 6519SOL    HW231194   2.137   1.750   5.991 -0.1681  1.2026  0.5901
 6520SOL     OW31195   2.167   3.141  14.078 -0.3366 -0.5853  0.0644
 6520SOL    HW131196   2.086   3.143  14.130  0.9414  0.7531  1.9841
 6520SOL    HW231197   2.154   3.080  14.005  1.9699 -1.7136  0.5941
 6521SOL     OW31198   0.401   2.779   7.926  0.1740 -0.2220  0.1135
 6521SOL    HW131199   0.478   2.723   7.926 -1.6459 -2.7615 -1.2542
 6521SOL    HW231200   0.435   2.866   7.905  0.2814  0.0716  1.4983
 6522SOL     OW31201   0.245   3.555   7.167  0.2243 -0.5261  0.1017
 6522SOL    HW131202   0.167   3.506   7.196 -0.6651  0.3416 -0.8250
 6522SOL    HW231203   0.206   3.609   7.098 -0.6633 -3.2969 -1.5713
 6523SOL     OW31204   2.602   1.899   9.819 -0.0801 -0.0685 -0.1891
 6523SOL    HW131205   2.592   1.863   9.731  0.6515 -0.2924 -0.1815
 6523SOL    HW231206   2.524   1.869   9.864 -0.2791  0.1242 -0.4090
 6524SOL     OW31207   2.590   4.435   4.051  0.6850 -0.2789  0.3386
 6524SOL    HW131208   2.514   4.492   4.063  2.5770  2.7565 -2.0247
 6524SOL    HW231209   2.648   4.480   4.112  1.8018 -0.3685 -0.6672
 6525SOL     OW31210   4.588   4.071   9.101 -0.1642  0.4626  0.2661
 6525SOL    HW131211   4.526   4.113   9.161  0.7325  2.4430 -0.2200
 6525SOL    HW231212   4.616   4.145   9.047 -0.5632  0.0084 -0.5652
 6526SOL     OW31213   0.110   4.358  12.213  0.1151  0.4326  0.5943
 6526SOL    HW131214   0.023   4.364  12.173  0.7586  0.8323 -0.7668
 6526SOL    HW231215   0.133   4.442  12.251 -2.4310  1.0312  0.8060
 6527SOL     OW31216   4.389   1.443   4.338  0.2592 -0.0501 -0.6235
 6527SOL    HW131217   4.405   1.377   4.271 -1.0391  0.4089 -1.3780
 6527SOL    HW231218   4.379   1.397   4.421 -3.1546 -1.4043 -1.8049
 6528SOL     OW31219   0.639   2.902  15.803 -0.0599 -0.3166 -0.2619
 6528SOL    HW131220   0.659   2.995  15.815  1.3768 -0.6661  0.0972
 6528SOL    HW231221   0.631   2.880  15.895  2.2173  1.8153  0.4551
 6529SOL     OW31222   4.101   1.845   5.471  0.1830 -0.5587 -0.2438
 6529SOL    HW131223   4.168   1.833   5.538  0.5015  0.7937 -0.3263
 6529SOL    HW231224   4.017   1.842   5.517  0.3586  0.7136  0.1578
 6530SOL     OW31225   1.287   4.007   2.287  0.2598 -0.0049  0.4827
 6530SOL    HW131226   1.359   3.977   2.233 -0.0834  1.3419 -0.7162
 6530SOL    HW231227   1.337   4.046   2.358 -2.0757  1.7449  1.1920
 6531SOL     OW31228   4.570   1.831   5.401  0.2147 -0.4054 -0.3004
 6531SOL    HW131229   4.610   1.889   5.466 -0.1396 -0.6892  0.1692
 6531SOL    HW231230   4.630   1.838   5.327  0.0235 -3.5337 -0.7477
 6532SOL     OW31231   0.056   1.075   7.742 -0.6471  0.4293  0.5302
 6532SOL    HW131232   0.067   0.994   7.693 -1.2704  1.7948 -1.8780
 6532SOL    HW231233   0.044   1.136   7.669 -1.1037  0.1291  0.3590
 6533SOL     OW31234   2.543   2.058  14.971 -0.4938 -0.8031 -0.3823
 6533SOL    HW131235   2.614   1.998  14.992 -0.6911 -1.2779 -1.0584
 6533SOL    HW231236   2.499   2.075  15.054 -1.9365  0.8030 -1.4801
 6534SOL     OW31237   4.688   3.653   2.829 -0.4724  0.9002  0.0705
 6534SOL    HW131238   4.670   3.703   2.749 -2.3765  1.6965  0.9737
 6534SOL    HW231239   4.718   3.717   2.894 -0.7752  0.8690  0.2396
 6535SOL     OW31240   4.705   1.215  16.275  0.2306  0.0233  0.4203
 6535SOL    HW131241   0.032   1.278  16.255 -1.4181  2.1315  1.3537
 6535SOL    HW231242   4.694   1.223  16.370  0.5462 -0.5307  0.5037
 6536SOL     OW31243   0.187   4.742  13.257 -0.1583 -0.2701 -0.4912
 6536SOL    HW131244   0.099   4.733  13.221 -1.5956  0.3250  2.9719
 6536SOL    HW231245   0.168   0.018  13.349 -1.3783  0.7875 -0.9532
 6537SOL     OW31246   4.316   2.915   4.748  0.0962 -0.6916  0.0806
 6537SOL    HW131247   4.242   2.906   4.809  0.0860  2.0396  0.4331
 6537SOL    HW231248   4.392   2.926   4.805 -0.1926 -1.7633  0.6812
 6538SOL     OW31249   4.507   0.793   7.183 -0.5667  0.0622 -0.2740
 6538SOL    HW131250   4.540   0.883   7.186 -1.6428  0.4454  0.0947
 6538SOL    HW231251   4.471   0.777   7.270  3.4516 -2.0343  1.0394
 6539SOL     OW31252   3.065   2.040   9.521 -0.2248  0.3416 -0.2384
 6539SOL    HW131253   3.045   1.967   9.463 -1.5820 -1.2743  2.2575
 6539SOL    HW231254   2.995   2.044   9.587  0.3711  0.5934  0.3875
 6540SOL     OW31255   1.622   3.183  17.543  0.3081  0.2852  0.0789
 6540SOL    HW131256   1.592   3.211  17.629  0.0261 -1.3359  0.5137
 6540SOL    HW231257   1.542   3.175  17.491 -0.2264 -0.7036  1.0493
 6541SOL     OW31258   0.324   3.386  11.009 -0.4430  0.0894 -0.1594
 6541SOL    HW131259   0.375   3.332  11.069  0.2616 -0.0362 -0.8678
 6541SOL    HW231260   0.253   3.326  10.986  1.3679 -1.1596 -2.4465
 6542SOL     OW31261   3.467   4.101   1.623  0.2227 -0.1599 -0.1954
 6542SOL    HW131262   3.484   4.191   1.652 -0.0192  0.0790 -0.8009
 6542SOL    HW231263   3.397   4.114   1.559  2.3154  1.0479 -2.2832
 6543SOL     OW31264   1.158   3.599   7.168 -0.3554  0.0818  0.2057
 6543SOL    HW131265   1.201   3.514   7.159 -0.1126  0.1897  0.3316
 6543SOL    HW231266   1.103   3.595   7.090 -0.3686 -3.1807  0.3760
 6544SOL     OW31267   4.367   4.557   2.219  0.2550  0.4087  0.0501
 6544SOL    HW131268   4.433   4.494   2.189 -0.9425  0.7996 -3.3753
 6544SOL    HW231269   4.322   4.587   2.139  1.0482  1.4890  0.0195
 6545SOL     OW31270   2.098   1.927   2.690  0.0250  0.2983  1.2025
 6545SOL    HW131271   2.082   1.833   2.688 -0.9654  0.5309 -2.4810
 6545SOL    HW231272   2.011   1.958   2.664 -0.6415  0.2109  3.3666
 6546SOL     OW31273   0.712   4.526  14.269  0.4705  0.9230 -0.6006
 6546SOL    HW131274   0.788   4.520  14.210  1.2906  0.9030  0.4555
 6546SOL    HW231275   0.726   4.456  14.334 -2.2539 -0.5486 -1.6107
 6547SOL     OW31276   1.300   4.410  15.558  0.0975 -0.2427  0.2006
 6547SOL    HW131277   1.313   4.408  15.464  1.4582 -0.7785  0.4014
 6547SOL    HW231278   1.301   4.504  15.577 -1.8857 -0.1259 -0.2408
 6548SOL     OW31279   3.318   1.849   4.328  0.3159  0.0850  0.0915
 6548SOL    HW131280   3.373   1.779   4.363 -0.8221 -0.2941  1.1190
 6548SOL    HW231281   3.371   1.922   4.360 -2.0308  1.2594  1.2936
 6549SOL     OW31282   2.800   2.648   6.330 -0.2332 -0.2029 -0.5428
 6549SOL    HW131283   2.789   2.742   6.344  1.4369 -0.0233 -0.4711
 6549SOL    HW231284   2.761   2.609   6.409  0.5283  1.2772  0.5591
 6550SOL     OW31285   0.200   3.724   7.723 -0.1786  0.2389  0.4624
 6550SOL    HW131286   0.201   3.636   7.685  3.6627  1.1537 -1.6163
 6550SOL    HW231287   0.267   3.717   7.791  0.4095 -1.7299 -0.3388
 6551SOL     OW31288   3.828   3.635   7.445 -0.1719  0.6640  0.9408
 6551SOL    HW131289   3.920   3.629   7.419 -0.4347 -2.7024  0.8491
 6551SOL    HW231290   3.825   3.561   7.505  0.0028 -1.1140 -1.2373
 6552SOL     OW31291   0.381   1.964  14.267 -0.6626  0.3739  0.5178
 6552SOL    HW131292   0.310   2.019  14.235  0.1149  0.3281 -1.2785
 6552SOL    HW231293   0.441   1.958  14.193 -0.6052  1.6764  0.4480
 6553SOL     OW31294   4.726   0.925  17.622  0.4516 -0.6396 -0.2571
 6553SOL    HW131295   4.695   0.960  17.706  1.3294 -0.6385  0.0656
 6553SOL    HW231296   0.041   0.860  17.664  0.7779 -0.3711 -0.2852
 6554SOL     OW31297   1.954   2.338   3.876 -0.5640 -0.4762  0.0503
 6554SOL    HW131298   1.984   2.416   3.829 -1.8244  1.4205  2.3780
 6554SOL    HW231299   1.939   2.289   3.795  0.3077 -0.8069  0.0847
 6555SOL     OW31300   0.820   2.876   6.209  0.0796 -0.0854 -0.2827
 6555SOL    HW131301   0.739   2.925   6.224  0.4870  0.2859  0.7219
 6555SOL    HW231302   0.843   2.901   6.119 -0.5246 -2.0942 -1.0033
 6556SOL     OW31303   2.291   2.719   1.171  0.1322  0.3313 -0.7265
 6556SOL    HW131304   2.259   2.641   1.126 -0.7674 -0.2326  0.8723
 6556SOL    HW231305   2.381   2.727   1.140 -0.2522 -0.1174 -1.9695
 6557SOL     OW31306   0.492   4.681   7.071  0.2888 -0.4627  0.1480
 6557SOL    HW131307   0.403   4.651   7.051  0.5448 -0.4574 -1.0141
 6557SOL    HW231308   0.545   4.615   7.026 -1.7664 -1.1623 -1.2310
 6558SOL     OW31309   3.342   2.867   0.625 -0.6028  0.5388  0.4030
 6558SOL    HW131310   3.344   2.961   0.608  3.5586  0.0037 -2.0155
 6558SOL    HW231311   3.423   2.833   0.663 -0.5499  0.3681  0.1349
 6559SOL     OW31312   3.988   0.434   6.400  0.3279  0.4945  0.0375
 6559SOL    HW131313   3.984   0.456   6.307 -1.1539  0.6873  0.1563
 6559SOL    HW231314   4.028   0.512   6.438 -1.7265  1.1045  0.9121
 6560SOL     OW31315   0.147   1.661   5.739 -0.0774 -0.2674 -0.4715
 6560SOL    HW131316   0.235   1.656   5.702 -1.0164  2.5963 -3.1097
 6560SOL    HW231317   0.111   1.728   5.681 -0.4115  0.4864  0.6140
 6561SOL     OW31318   1.882   2.428   2.057  0.5738 -0.6522 -0.3104
 6561SOL    HW131319   1.790   2.414   2.082  0.2439  2.3017  0.1330
 6561SOL    HW231320   1.915   2.386   2.136  0.1828  2.8879  1.7722
 6562SOL     OW31321   1.665   2.314   8.510 -0.1410 -0.0439  0.3808
 6562SOL    HW131322   1.759   2.331   8.505  0.0534 -1.2500  0.0165
 6562SOL    HW231323   1.643   2.341   8.421  2.0515 -0.1815 -0.2067
 6563SOL     OW31324   2.703   2.484   2.435  0.5752 -0.3292 -0.2321
 6563SOL    HW131325   2.740   2.501   2.522  2.1082 -1.6662 -0.6327
 6563SOL    HW231326   2.776   2.435   2.398  1.3925  0.3934  0.3940
 6564SOL     OW31327   2.134   0.454   4.255 -0.5413  0.3004  0.0252
 6564SOL    HW131328   2.080   0.393   4.204 -1.8083  1.1496  0.3478
 6564SOL    HW231329   2.130   0.527   4.192  0.9121 -2.2948 -3.0971
 6565SOL     OW31330   0.886   3.499   5.473  0.2856 -0.7292 -0.1567
 6565SOL    HW131331   0.879   3.463   5.562  0.0726  2.9743  1.3260
 6565SOL    HW231332   0.982   3.503   5.467  0.0941  3.5812  0.0989
 6566SOL     OW31333   3.901   2.885   7.243 -0.0450 -0.2994 -0.5906
 6566SOL    HW131334   3.829   2.846   7.293 -1.5128  0.2641 -2.2844
 6566SOL    HW231335   3.955   2.920   7.314  1.6288  2.0489 -2.9911
 6567SOL     OW31336   3.929   0.992   9.253  0.1589 -0.1621  0.2157
 6567SOL    HW131337   3.869   1.013   9.324  0.9278  2.7272  0.0131
 6567SOL    HW231338   3.867   0.965   9.186  0.3040 -0.0023  0.0157
 6568SOL     OW31339   0.318   3.581   0.490 -0.5007 -0.1546  0.3644
 6568SOL    HW131340   0.348   3.498   0.451 -0.2038  0.3568 -0.4906
 6568SOL    HW231341   0.277   3.542   0.567  0.9533 -0.3315  1.0260
 6569SOL     OW31342   4.602   0.342   6.941 -0.0960  0.1350  0.6160
 6569SOL    HW131343   4.590   0.418   6.998 -2.0348 -0.2883  0.7552
 6569SOL    HW231344   4.515   0.309   6.919 -0.1973  0.8485 -0.0319
 6570SOL     OW31345   2.182   4.346   2.175  0.1485 -0.0831  0.1009
 6570SOL    HW131346   2.184   4.425   2.229 -0.3644  0.3932 -0.5812
 6570SOL    HW231347   2.101   4.350   2.123  0.3874  0.2340 -0.2414
 6571SOL     OW31348   1.093   4.070  11.786  0.0797 -0.4084  0.0765
 6571SOL    HW131349   1.046   4.154  11.779  0.7759  0.0125  0.4674
 6571SOL    HW231350   1.184   4.088  11.808  0.6107  0.8016 -3.1524
 6572SOL     OW31351   2.500   3.715  12.317 -0.6440 -0.0684 -0.4125
 6572SOL    HW131352   2.545   3.782  12.264  1.5346 -0.1656  1.3087
 6572SOL    HW231353   2.574   3.668  12.355 -0.8974  0.3885  0.6552
 6573SOL     OW31354   1.346   1.678  13.868  0.0122 -0.1814  0.3265
 6573SOL    HW131355   1.391   1.670  13.952  3.5174 -3.0701 -1.7910
 6573SOL    HW231356   1.256   1.662  13.894  0.3528 -0.1967  1.4882
 6574SOL     OW31357   1.269   0.320   6.252 -0.2686  0.5019 -0.2069
 6574SOL    HW131358   1.174   0.324   6.251 -0.3557 -1.3927  1.1368
 6574SOL    HW231359   1.295   0.381   6.321 -0.2209  1.1645 -0.8100
 6575SOL     OW31360   1.475   0.356   9.087 -0.3364  0.1431  0.9824
 6575SOL    HW131361   1.509   0.377   9.174  0.0899 -0.1268  0.8796
 6575SOL    HW231362   1.540   0.290   9.064  0.9595  1.6042  0.5049
 6576SOL     OW31363   4.614   1.380   8.849 -0.4575  0.6588  0.3161
 6576SOL    HW131364   4.673   1.451   8.874  0.3172  0.2365 -0.3103
 6576SOL    HW231365   4.669   1.329   8.789  0.4443 -1.1445  2.6382
 6577SOL     OW31366   2.730   1.101   6.366  0.5732  0.2021 -0.2480
 6577SOL    HW131367   2.702   1.099   6.457 -1.4181  0.5316 -0.8507
 6577SOL    HW231368   2.655   1.145   6.326 -0.4686 -1.9966 -0.7117
 6578SOL     OW31369   4.536   4.320   3.369  0.1296  0.1944 -0.1440
 6578SOL    HW131370   4.515   4.286   3.456 -0.4207 -1.4902 -0.9393
 6578SOL    HW231371   4.606   4.269   3.327  0.9891  2.0457 -0.9463
 6579SOL     OW31372   1.734   3.185   8.004  0.2490  0.0606 -0.2417
 6579SOL    HW131373   1.726   3.243   7.928 -1.6422  1.8446  1.3289
 6579SOL    HW231374   1.693   3.105   7.972 -1.5196  1.1005 -0.5667
 6580SOL     OW31375   2.303   1.653   5.138  0.5359  0.1485  0.6419
 6580SOL    HW131376   2.218   1.651   5.094  0.4647 -1.2979  0.8292
 6580SOL    HW231377   2.292   1.566   5.176 -2.9140  1.3939  2.5173
 6581SOL     OW31378   0.912   1.269   2.818 -0.1533  0.3074  0.2883
 6581SOL    HW131379   0.934   1.186   2.775  1.4751  0.2315  1.2587
 6581SOL    HW231380   0.995   1.318   2.817 -0.7864  1.3651 -0.8152
 6582SOL     OW31381   4.062   2.957  10.377  0.1461 -0.5003  0.0944
 6582SOL    HW131382   4.055   2.902  10.454 -1.3126 -2.1817 -1.2513
 6582SOL    HW231383   3.977   2.960  10.333  0.5842  0.8433 -0.6695
 6583SOL     OW31384   3.846   0.300   9.024  0.0120  0.6198  0.2895
 6583SOL    HW131385   3.771   0.247   8.995  0.2489 -0.2344  1.2518
 6583SOL    HW231386   3.851   0.267   9.114 -0.8935 -3.8557 -1.2843
 6584SOL     OW31387   2.002   1.990   4.941 -0.0261  0.2153 -0.4902
 6584SOL    HW131388   2.024   1.904   4.976 -1.4215  0.7261  1.5972
 6584SOL    HW231389   1.948   1.965   4.865 -0.1351  0.9579 -0.6623
 6585SOL     OW31390   3.281   0.811   8.405 -0.3218  0.1502 -0.1841
 6585SOL    HW131391   3.272   0.901   8.436  3.1751 -0.4967  2.8184
 6585SOL    HW231392   3.222   0.764   8.463  0.1756  3.7982  3.2644
 6586SOL     OW31393   1.105   2.034   6.675 -0.4108  0.2615  0.1814
 6586SOL    HW131394   1.022   1.996   6.703 -0.5348 -0.6402 -1.3622
 6586SOL    HW231395   1.105   2.126   6.701  0.4358  0.6460 -1.1482
 6587SOL     OW31396   3.595   4.492   4.557  0.4000  0.0419 -0.1934
 6587SOL    HW131397   3.522   4.463   4.503  0.1640  0.6866 -0.2232
 6587SOL    HW231398   3.608   4.417   4.615  1.3662 -0.6026 -1.2466
 6588SOL     OW31399   1.057   0.363   0.489  0.1779  0.3276  0.1088
 6588SOL    HW131400   1.025   0.365   0.399 -0.8508  1.0281  0.4806
 6588SOL    HW231401   0.987   0.420   0.522 -0.1831 -0.7473  1.1659
 6589SOL     OW31402   1.393   3.446   9.777  0.5326 -0.1483 -0.2559
 6589SOL    HW131403   1.316   3.439   9.833 -0.7812  0.0983 -2.0229
 6589SOL    HW231404   1.354   3.422   9.693 -0.0105 -0.0856 -0.0229
 6590SOL     OW31405   0.419   1.638   8.057  0.5596 -0.2133  0.0622
 6590SOL    HW131406   0.407   1.600   8.144 -0.2323 -0.5377 -0.1881
 6590SOL    HW231407   0.472   1.566   8.024 -0.5822 -0.9414 -0.1524
 6591SOL     OW31408   4.077   2.651   3.061  0.5300 -0.1228 -0.3369
 6591SOL    HW131409   4.048   2.659   2.970 -0.5342  0.5546  0.0565
 6591SOL    HW231410   4.128   2.731   3.072  1.3364 -0.9635  2.0577
 6592SOL     OW31411   1.757   3.755  12.745  0.0280 -0.0172 -0.8178
 6592SOL    HW131412   1.805   3.696  12.803  2.4590  0.0544 -2.7314
 6592SOL    HW231413   1.788   3.717  12.663  2.1660  1.8738 -0.8978
 6593SOL     OW31414   4.369   1.932   3.876 -0.0008 -0.5181 -0.4352
 6593SOL    HW131415   4.405   2.014   3.844  0.9870 -0.7750  0.0050
 6593SOL    HW231416   4.284   1.931   3.833 -0.9167  0.1396  1.3822
 6594SOL     OW31417   2.975   2.440   2.391 -0.2388  0.3070 -0.0635
 6594SOL    HW131418   2.974   2.345   2.402  1.2031  0.7598  4.0003
 6594SOL    HW231419   2.991   2.450   2.298  2.1393 -0.4261  0.2541
 6595SOL     OW31420   0.336   3.672   4.090  0.7628 -0.0227 -0.2353
 6595SOL    HW131421   0.390   3.648   4.016  1.0380 -0.3237  0.0660
 6595SOL    HW231422   0.281   3.738   4.048  0.0602 -0.4472  0.0158
 6596SOL     OW31423   0.008   2.884  14.536 -0.1044 -0.5074 -0.3574
 6596SOL    HW131424   0.076   2.878  14.603  0.3601 -2.5079 -1.0116
 6596SOL    HW231425   0.009   2.980  14.526 -2.3707 -0.3519  0.8195
 6597SOL     OW31426   3.375   4.040   4.718  0.3986 -0.0176 -0.2341
 6597SOL    HW131427   3.456   3.991   4.735  0.4983 -0.4113 -1.8608
 6597SOL    HW231428   3.365   3.997   4.633 -2.0784 -1.6924  0.9253
 6598SOL     OW31429   2.651   4.314   1.110  0.0095  0.1535  0.1346
 6598SOL    HW131430   2.581   4.363   1.066  0.0312 -0.0749 -0.1570
 6598SOL    HW231431   2.620   4.231   1.073  0.0091  1.2278 -2.2826
 6599SOL     OW31432   1.567   0.094   1.843 -0.5058 -0.2019  0.1139
 6599SOL    HW131433   1.576   0.108   1.749 -2.7863 -0.9169 -0.2139
 6599SOL    HW231434   1.617   0.167   1.878  0.4141 -2.1620  2.9045
 6600SOL     OW31435   1.495   2.164   8.666  0.4815  0.1256 -0.2061
 6600SOL    HW131436   1.558   2.107   8.709 -0.7565 -0.8426  0.3341
 6600SOL    HW231437   1.559   2.204   8.608 -1.6208  1.8181 -1.3789
 6601SOL     OW31438   2.177   2.195   2.453 -0.3382  0.1870 -0.4298
 6601SOL    HW131439   2.250   2.146   2.415  0.7986  0.0336  1.9824
 6601SOL    HW231440   2.238   2.260   2.488 -1.7495 -0.4960  3.3235
 6602SOL     OW31441   4.373   1.290   5.654  0.3286  0.3661 -0.0414
 6602SOL    HW131442   4.289   1.304   5.699  1.5315  0.1939  2.2485
 6602SOL    HW231443   4.361   1.372   5.605 -1.0092  1.3486  1.9233
 6603SOL     OW31444   2.920   3.235   5.663  0.2208 -0.1818  0.4652
 6603SOL    HW131445   2.858   3.226   5.735 -0.0272  0.9449  0.3912
 6603SOL    HW231446   2.950   3.145   5.652 -1.5940 -0.7562  0.3415
 6604SOL     OW31447   1.347   3.124  17.211 -0.0597  0.3069  0.0853
 6604SOL    HW131448   1.269   3.068  17.218 -1.4545  2.2934  0.3410
 6604SOL    HW231449   1.324   3.196  17.153 -1.4882  0.3073  0.6569
 6605SOL     OW31450   0.999   1.309   4.200  0.0605  0.0666  0.3870
 6605SOL    HW131451   1.066   1.333   4.136  0.4794 -0.1199  0.7558
 6605SOL    HW231452   0.988   1.217   4.176  1.2412  0.0293  0.0091
 6606SOL     OW31453   2.572   3.982   8.649  0.0208  0.2044 -0.1204
 6606SOL    HW131454   2.528   4.063   8.676  1.2298  0.9606 -0.4133
 6606SOL    HW231455   2.637   4.007   8.583  0.2771  1.8108  0.7335
 6607SOL     OW31456   4.115   1.567   7.067 -0.3426 -0.1056 -0.0653
 6607SOL    HW131457   4.127   1.630   6.996  0.1244 -1.6203 -1.3242
 6607SOL    HW231458   4.160   1.486   7.042 -2.6067 -1.0623 -0.9866
 6608SOL     OW31459   3.991   4.081  14.901  0.4685  0.4806 -0.5303
 6608SOL    HW131460   3.929   4.139  14.857 -1.3777  0.4575  2.0144
 6608SOL    HW231461   4.068   4.087  14.845  1.7123  0.2938  1.1585
 6609SOL     OW31462   3.124   1.804   2.368  0.2792 -0.3728  0.2672
 6609SOL    HW131463   3.157   1.875   2.313 -2.4962 -0.2150 -1.1776
 6609SOL    HW231464   3.167   1.723   2.339  0.3335  0.1369 -1.0907
 6610SOL     OW31465   0.353   0.507   5.643  0.1746  0.0871  0.0958
 6610SOL    HW131466   0.287   0.496   5.712  0.2897 -0.0916  0.1776
 6610SOL    HW231467   0.296   0.513   5.566  0.0612  0.8319  0.2397
 6611SOL     OW31468   4.189   4.725   6.049  0.1352  0.0305  0.1892
 6611SOL    HW131469   4.124   4.678   6.101  0.1270 -0.0650  0.0929
 6611SOL    HW231470   4.243   4.651   6.020  0.1297  0.2549 -0.3921
 6612SOL     OW31471   1.655   0.510   4.878 -0.0587  0.2163 -0.5229
 6612SOL    HW131472   1.743   0.486   4.850 -0.0089  1.7070 -1.6658
 6612SOL    HW231473   1.605   0.538   4.801 -0.3537 -0.6605 -0.6539
 6613SOL     OW31474   2.455   2.474   5.374 -0.0234  0.4039  0.0684
 6613SOL    HW131475   2.400   2.551   5.356  0.3860 -0.0370 -3.0829
 6613SOL    HW231476   2.407   2.429   5.444 -2.5603  0.7819 -1.4238
 6614SOL     OW31477   3.391   3.217   8.353 -0.2895 -0.0097  0.0494
 6614SOL    HW131478   3.367   3.263   8.434  3.5197 -0.5647  1.4739
 6614SOL    HW231479   3.345   3.134   8.369  1.1368 -1.0428 -1.2263
 6615SOL     OW31480   3.614   0.562   6.522  0.4707 -0.2322 -0.4327
 6615SOL    HW131481   3.526   0.577   6.489 -0.7940  0.1985  3.0763
 6615SOL    HW231482   3.662   0.643   6.510  1.0850 -0.4993  0.1809
 6616SOL     OW31483   2.640   0.256   4.240  0.0482 -0.2769 -0.2008
 6616SOL    HW131484   2.593   0.233   4.320 -0.2487  1.5579  0.1657
 6616SOL    HW231485   2.699   0.181   4.233  0.0568 -0.4626  2.0054
 6617SOL     OW31486   0.417   2.194   0.530  0.5579  0.7633 -0.3296
 6617SOL    HW131487   0.377   2.159   0.451  1.9927 -0.7447 -0.3833
 6617SOL    HW231488   0.388   2.286   0.529 -0.4322  0.4284 -1.7721
 6618SOL     OW31489   0.876   2.702   4.715 -0.0568  0.0467  0.0992
 6618SOL    HW131490   0.896   2.733   4.803 -1.1331 -0.5551  0.5458
 6618SOL    HW231491   0.941   2.752   4.665  2.3595 -1.2198  1.9775
 6619SOL     OW31492   1.296   2.344   8.690  0.1372 -0.0087 -0.9530
 6619SOL    HW131493   1.365   2.280   8.675  0.5004  0.6503 -2.0757
 6619SOL    HW231494   1.268   2.355   8.599  1.6051 -1.2045 -1.5333
 6620SOL     OW31495   4.465   2.527   2.197  0.7308 -0.0243  0.1828
 6620SOL    HW131496   4.453   2.568   2.111  2.7567 -1.5978 -0.8559
 6620SOL    HW231497   4.451   2.435   2.176 -2.6132  1.1594 -2.8376
 6621SOL     OW31498   0.440   1.888   1.924 -0.2640  0.1305  0.3522
 6621SOL    HW131499   0.345   1.875   1.924 -0.4527  1.4857  0.8298
 6621SOL    HW231500   0.464   1.911   2.014  2.4604  0.9189 -0.5784
 6622SOL     OW31501   3.356   3.563   7.891  0.4370  0.0216 -0.9024
 6622SOL    HW131502   3.413   3.547   7.966 -0.7411 -0.0822 -0.0420
 6622SOL    HW231503   3.415   3.523   7.826  0.7771 -1.4496  0.3244
 6623SOL     OW31504   3.161   4.621  16.838 -0.4263 -0.7282  0.3070
 6623SOL    HW131505   3.198   4.535  16.816  1.7548  0.2939 -0.0994
 6623SOL    HW231506   3.234   4.676  16.808  0.6740 -2.2339  0.2212
 6624SOL     OW31507   1.732   1.401   8.645  0.0432  0.1295  0.3699
 6624SOL    HW131508   1.813   1.450   8.634  0.3810 -0.1055  1.8241
 6624SOL    HW231509   1.696   1.441   8.724  2.4068  2.2991  0.3443
 6625SOL     OW31510   0.210   4.690   7.074 -0.0805 -0.1388 -0.2430
 6625SOL    HW131511   0.158   0.007   7.020  0.2664 -0.5654 -1.0547
 6625SOL    HW231512   0.166   4.607   7.054  0.6203 -0.6185  0.2151
 6626SOL     OW31513   4.046   2.869   3.664 -0.7521  0.6300  0.3332
 6626SOL    HW131514   3.993   2.790   3.665 -0.0229  0.1410 -0.2519
 6626SOL    HW231515   4.075   2.854   3.754 -0.3345  0.3141  0.1430
 6627SOL     OW31516   3.236   0.430  11.135 -0.1221 -0.2557  0.6287
 6627SOL    HW131517   3.153   0.464  11.102  0.2948  0.0623 -0.0911
 6627SOL    HW231518   3.304   0.462  11.077 -0.0798 -0.1222  0.7522
 6628SOL     OW31519   2.840   1.251   2.163  0.2350 -0.1506 -0.0683
 6628SOL    HW131520   2.754   1.233   2.124 -0.8026  2.5745  0.9936
 6628SOL    HW231521   2.906   1.272   2.097  1.7138  0.5100  1.5999
 6629SOL     OW31522   3.304   0.028  11.176 -0.3082  1.1806 -0.2104
 6629SOL    HW131523   3.399   0.039  11.167 -0.1307  0.0722  0.1793
 6629SOL    HW231524   3.304   0.012  11.271  2.1831 -0.2079 -0.4393
 6630SOL     OW31525   0.892   3.065   5.315  0.8963  0.3768  0.3226
 6630SOL    HW131526   0.800   3.087   5.328  1.2298  2.4439 -0.9463
 6630SOL    HW231527   0.906   3.095   5.225  3.2081 -1.8900 -0.0795
 6631SOL     OW31528   2.901   4.073   2.864  0.1425 -0.1334 -0.1302
 6631SOL    HW131529   2.952   4.136   2.915 -1.6742  2.0566 -1.0154
 6631SOL    HW231530   2.962   4.072   2.790 -0.6291  0.8818 -0.7705
 6632SOL     OW31531   0.884   3.831  10.451  0.2005 -0.0603 -0.2475
 6632SOL    HW131532   0.885   3.855  10.544  0.7679 -1.9293  0.2251
 6632SOL    HW231533   0.896   3.736  10.448  2.1737  0.2560 -3.2027
 6633SOL     OW31534   0.578   2.802   5.576 -0.5152 -0.0618  0.1155
 6633SOL    HW131535   0.615   2.719   5.607 -1.2282 -0.5889 -0.4473
 6633SOL    HW231536   0.606   2.800   5.484 -0.9817  0.3602 -0.0326
 6634SOL     OW31537   3.665   3.167  10.782  0.0653 -0.3021  0.1533
 6634SOL    HW131538   3.602   3.104  10.748 -0.0011 -0.7498  1.1096
 6634SOL    HW231539   3.628   3.213  10.858 -0.2222  0.0592 -0.2063
 6635SOL     OW31540   0.121   3.580  10.988  0.0509 -0.0270  0.3984
 6635SOL    HW131541   0.178   3.507  10.964  0.6524  0.6851 -0.3621
 6635SOL    HW231542   0.125   3.576  11.083  1.1701 -1.4277  0.2839
 6636SOL     OW31543   3.942   2.928   2.618  0.0432 -0.0231 -0.8055
 6636SOL    HW131544   3.866   2.880   2.586 -0.0087  0.2453 -1.0842
 6636SOL    HW231545   3.960   2.981   2.541 -0.0696  1.6708  0.3463
 6637SOL     OW31546   2.550   2.262   3.908 -0.0595  0.0483  0.1762
 6637SOL    HW131547   2.563   2.273   4.002  1.2518  1.4016 -0.1677
 6637SOL    HW231548   2.543   2.166   3.910 -0.7056  0.0906 -0.0747
 6638SOL     OW31549   2.198   0.014   8.286 -0.2112  0.0885  0.1889
 6638SOL    HW131550   2.130   0.007   8.353  0.9190 -0.0796  1.3179
 6638SOL    HW231551   2.203   4.672   8.240  0.9227  0.8439 -1.0700
 6639SOL     OW31552   1.183   2.891   7.633  0.0746 -0.6675 -0.0955
 6639SOL    HW131553   1.246   2.868   7.564  0.4269 -2.6194  0.8939
 6639SOL    HW231554   1.108   2.938   7.597  1.0863 -0.4588 -1.9487
 6640SOL     OW31555   3.212   0.921  17.695 -0.4458  0.0453 -0.0323
 6640SOL    HW131556   3.273   0.994  17.704 -1.3932  0.6638  1.2371
 6640SOL    HW231557   3.136   0.968  17.663  0.3442  0.2273 -1.6496
 6641SOL     OW31558   3.738   3.891  13.511  0.6399  0.1456  0.3461
 6641SOL    HW131559   3.652   3.877  13.550  0.9392  1.3312  1.4128
 6641SOL    HW231560   3.793   3.916  13.585  0.6655  1.2089 -0.0380
 6642SOL     OW31561   1.857   4.205   5.494 -0.2396 -0.5149 -0.4717
 6642SOL    HW131562   1.871   4.111   5.505 -0.8353 -0.3629  1.4453
 6642SOL    HW231563   1.913   4.242   5.563  0.3370  0.0667 -1.2391
 6643SOL     OW31564   1.216   0.840   2.913  0.4344 -0.3440  0.2068
 6643SOL    HW131565   1.236   0.760   2.863 -0.7044 -1.0012  0.8053
 6643SOL    HW231566   1.138   0.802   2.952  0.1076  0.1625  0.0416
 6644SOL     OW31567   1.139   1.391   8.978 -0.3089 -0.2064 -0.8136
 6644SOL    HW131568   1.102   1.399   9.066  2.1430  0.1538  0.1936
 6644SOL    HW231569   1.224   1.428   9.005  0.1113 -1.7098 -0.0634
 6645SOL     OW31570   0.581   2.702   7.441 -0.5264  0.1890 -0.1585
 6645SOL    HW131571   0.506   2.741   7.486 -1.1907 -1.7385  0.4083
 6645SOL    HW231572   0.642   2.774   7.423  0.0524 -0.5570 -1.1465
 6646SOL     OW31573   4.540   2.858   9.309 -0.4648  0.1037  0.2236
 6646SOL    HW131574   4.496   2.932   9.352 -0.7326 -0.8301  1.5532
 6646SOL    HW231575   4.473   2.799   9.274 -1.9365  0.9974  1.5612
 6647SOL     OW31576   4.596   1.223   4.434 -0.8481 -0.3024 -0.7188
 6647SOL    HW131577   4.599   1.240   4.340 -3.7960 -2.7337 -1.2603
 6647SOL    HW231578   4.667   1.280   4.462  0.8580 -2.1759 -1.2468
 6648SOL     OW31579   3.496   2.105   5.758  0.7364  0.2009 -0.1874
 6648SOL    HW131580   3.507   2.013   5.734 -0.5736  0.3077 -1.1398
 6648SOL    HW231581   3.551   2.116   5.836 -1.7898 -1.3327  1.8065
 6649SOL     OW31582   3.301   0.350  17.178  0.2031 -0.6036 -0.3444
 6649SOL    HW131583   3.315   0.363  17.272 -0.2913 -0.1891 -0.3231
 6649SOL    HW231584   3.317   0.440  17.149 -1.9379 -0.9576 -2.5669
 6650SOL     OW31585   0.074   1.547  12.087 -0.0662 -0.5458 -0.1091
 6650SOL    HW131586   0.002   1.493  12.122  0.5718 -2.2020 -1.3369
 6650SOL    HW231587   0.021   1.624  12.064 -2.0525 -1.8800 -0.0688
 6651SOL     OW31588   4.582   1.719  15.581  0.5555 -0.1190 -0.6214
 6651SOL    HW131589   4.568   1.804  15.539  0.9106 -0.3216 -1.1550
 6651SOL    HW231590   4.568   1.661  15.506 -0.6873 -0.8172  0.1605
 6652SOL     OW31591   3.840   1.624  14.683 -0.4907 -0.0422  0.4967
 6652SOL    HW131592   3.861   1.548  14.737  1.4503  0.9272  1.1093
 6652SOL    HW231593   3.855   1.698  14.742  1.9094  0.2219 -0.4735
 6653SOL     OW31594   3.521   2.487   2.311 -0.2680  0.4241 -0.3598
 6653SOL    HW131595   3.513   2.581   2.321  0.5038  0.3440  1.1110
 6653SOL    HW231596   3.493   2.465   2.400 -1.3834  0.7598 -0.6373
 6654SOL     OW31597   1.125   3.236   3.821  0.5408 -0.3592  0.3712
 6654SOL    HW131598   1.173   3.258   3.742  1.9605  1.5467  1.7780
 6654SOL    HW231599   1.119   3.323   3.860 -1.3704 -0.0282 -0.6288
 6655SOL     OW31600   1.708   2.516   5.677  0.1011 -0.3208 -0.5016
 6655SOL    HW131601   1.743   2.434   5.643  1.7690  0.1999 -0.0501
 6655SOL    HW231602   1.683   2.480   5.762  0.4194  2.1734  0.6757
 6656SOL     OW31603   2.275   2.972  12.241 -0.0632  0.4982  0.3610
 6656SOL    HW131604   2.186   2.937  12.236  0.1546  0.3621 -2.6306
 6656SOL    HW231605   2.269   3.035  12.169 -1.9607 -0.7528 -0.5891
 6657SOL     OW31606   3.045   3.856   4.159  1.0311  0.1003  0.4897
 6657SOL    HW131607   3.068   3.823   4.072 -1.1605  0.3942 -0.1868
 6657SOL    HW231608   3.029   3.778   4.212  0.8035 -1.9213 -2.5407
 6658SOL     OW31609   3.113   1.396   6.142 -0.0156  0.6406 -0.1463
 6658SOL    HW131610   3.088   1.474   6.191  0.2101  1.9541 -2.1280
 6658SOL    HW231611   3.145   1.430   6.059  0.2785 -1.0548 -0.7218
 6659SOL     OW31612   4.698   3.926  12.075 -0.6656 -0.4406 -0.3576
 6659SOL    HW131613   4.713   3.835  12.099 -0.4609 -0.4158 -0.3965
 6659SOL    HW231614   0.014   3.961  12.143 -2.0426  0.1982  0.5085
 6660SOL     OW31615   3.614   1.576   8.823  0.2858  0.1717  0.0522
 6660SOL    HW131616   3.670   1.499   8.812 -2.7152 -2.2476  1.5155
 6660SOL    HW231617   3.613   1.591   8.918  0.0357  0.7422 -0.0433
 6661SOL     OW31618   0.717   2.251   2.321  0.0906  0.1420  0.4238
 6661SOL    HW131619   0.669   2.258   2.403 -0.8895 -1.5939  0.0023
 6661SOL    HW231620   0.752   2.162   2.319  0.1281  0.2131 -1.6321
 6662SOL     OW31621   1.998   1.331   9.579 -0.1675  0.2357 -0.1989
 6662SOL    HW131622   2.026   1.357   9.667  2.3350 -2.4535 -0.2146
 6662SOL    HW231623   2.079   1.325   9.527  0.1874  1.7489  0.1730
 6663SOL     OW31624   4.376   0.358   6.580  0.3017  0.0947  0.4066
 6663SOL    HW131625   4.386   0.370   6.486  0.1272  0.6746  0.4628
 6663SOL    HW231626   4.346   0.446   6.602  1.4121  0.2789  1.1714
 6664SOL     OW31627   3.472   2.816   5.827 -0.2959 -0.3442 -0.0491
 6664SOL    HW131628   3.497   2.747   5.888 -2.0255 -0.7889  0.1731
 6664SOL    HW231629   3.433   2.889   5.875  1.7233  1.2347 -0.8342
 6665SOL     OW31630   2.717   4.725   0.942 -0.4071  0.2189  0.4320
 6665SOL    HW131631   2.784   0.050   0.953 -1.2493  1.3814 -1.5748
 6665SOL    HW231632   2.700   4.736   0.849  0.6737  0.4729  0.2644
 6666SOL     OW31633   2.099   1.366   8.776  0.2887  0.5342  0.1825
 6666SOL    HW131634   2.102   1.418   8.696  1.1607  1.5854  0.8864
 6666SOL    HW231635   2.059   1.290   8.735 -0.0525  0.5475  0.4913
 6667SOL     OW31636   3.488   0.365   8.754  0.4099  0.0760 -0.2932
 6667SOL    HW131637   3.541   0.331   8.827 -0.0226 -2.2592 -1.0739
 6667SOL    HW231638   3.534   0.445   8.728 -0.6964  1.1759  1.1163
 6668SOL     OW31639   2.366   3.305   0.475 -0.6925  0.1738  0.1022
 6668SOL    HW131640   2.449   3.259   0.461 -0.3869  0.9017 -0.4642
 6668SOL    HW231641   2.301   3.235   0.475  1.6742 -2.0304  0.2613
 6669SOL     OW31642   2.918   0.378   2.016  0.3531 -0.0758 -0.3183
 6669SOL    HW131643   2.854   0.449   2.017 -0.2541 -0.6179 -0.5202
 6669SOL    HW231644   2.966   0.395   1.935  2.2439  0.3502  0.8999
 6670SOL     OW31645   3.122   3.675  12.485 -0.4052 -0.4919 -0.6686
 6670SOL    HW131646   3.193   3.718  12.532 -1.6684  0.7702  0.0804
 6670SOL    HW231647   3.121   3.590  12.530 -2.1584 -0.6905 -1.1001
 6671SOL     OW31648   0.001   1.323   7.310 -0.3854 -0.0395 -0.4501
 6671SOL    HW131649   4.738   1.366   7.225  1.9148  1.2946  0.0974
 6671SOL    HW231650   4.731   1.232   7.284 -0.5245  0.1377 -1.0051
 6672SOL     OW31651   4.625   1.802  11.358  0.3453  0.3319 -0.0135
 6672SOL    HW131652   4.611   1.715  11.321  0.4150  0.5101 -0.4626
 6672SOL    HW231653   4.634   1.852  11.277  1.2780 -0.7443 -0.5774
 6673SOL     OW31654   0.942   1.837   3.808  0.3507 -0.1208 -0.0008
 6673SOL    HW131655   0.924   1.837   3.714 -1.8855 -0.2061  0.4127
 6673SOL    HW231656   0.849   1.836   3.832  1.2328  3.3405  3.6035
 6674SOL     OW31657   3.505   0.874  10.092 -0.1253  0.3435 -0.1916
 6674SOL    HW131658   3.529   0.785  10.118 -0.6568  0.2526  0.0066
 6674SOL    HW231659   3.412   0.876  10.067 -0.5460 -0.9239  1.2326
 6675SOL     OW31660   0.753   0.934   8.578 -0.2436  0.2140 -0.0482
 6675SOL    HW131661   0.747   0.998   8.649  0.3708  0.8496 -0.5720
 6675SOL    HW231662   0.726   0.848   8.612 -0.3374  1.2676  2.5855
 6676SOL     OW31663   4.095   2.973   8.326  0.5316  0.2483 -0.3276
 6676SOL    HW131664   4.128   3.062   8.337  0.1425  0.3468  0.0157
 6676SOL    HW231665   4.179   2.927   8.330 -0.8836 -2.2845  0.2291
 6677SOL     OW31666   1.180   0.060  10.895  0.6251 -0.1919  0.4448
 6677SOL    HW131667   1.167   0.074  10.989 -0.1123 -1.6429  0.5541
 6677SOL    HW231668   1.172   0.151  10.867 -0.5558 -0.2237  0.6897
 6678SOL     OW31669   1.529   3.878  12.828 -0.5497  0.1156 -0.1189
 6678SOL    HW131670   1.566   3.885  12.916  0.5898 -0.9615 -0.5185
 6678SOL    HW231671   1.590   3.826  12.776 -0.1981  0.2258  0.1842
 6679SOL     OW31672   1.939   3.453   7.269  0.0050 -0.4000  0.2408
 6679SOL    HW131673   1.871   3.424   7.209  0.6588 -0.7069 -0.3451
 6679SOL    HW231674   1.888   3.498   7.337  0.0966 -0.6958  0.5100
 6680SOL     OW31675   1.937   4.629   9.084 -0.4348 -0.1348 -0.3081
 6680SOL    HW131676   1.998   4.565   9.045  0.2705  0.0462  0.4910
 6680SOL    HW231677   1.995   4.694   9.124  1.3280 -1.5988 -0.4236
 6681SOL     OW31678   2.594   3.655   0.070  0.0433  0.6879  0.2560
 6681SOL    HW131679   2.611   3.675  17.744  2.9303  0.8280  0.8422
 6681SOL    HW231680   2.502   3.627   0.067  0.2256 -0.0510  1.2277
 6682SOL     OW31681   1.165   3.426   4.816 -0.0953  0.5583 -0.4818
 6682SOL    HW131682   1.186   3.372   4.740 -0.0073  0.3224 -0.2895
 6682SOL    HW231683   1.248   3.463   4.847  0.2610  0.8610 -1.7925
 6683SOL     OW31684   4.667   4.279   8.901 -0.1652 -0.0055 -0.3698
 6683SOL    HW131685   4.624   4.234   8.828  1.9282  0.8718 -2.1567
 6683SOL    HW231686   4.601   4.346   8.918 -1.2038 -0.9631 -0.5919
 6684SOL     OW31687   1.445   2.092   8.230 -0.0534  0.2111 -0.2110
 6684SOL    HW131688   1.463   2.024   8.295  2.0365  1.4457  0.5082
 6684SOL    HW231689   1.352   2.100   8.251  0.4050 -1.9461  2.5980
 6685SOL     OW31690   1.125   4.662   4.302  0.2300 -0.1754 -0.2984
 6685SOL    HW131691   1.192   4.599   4.276  2.1601  1.4233  0.7185
 6685SOL    HW231692   1.053   4.629   4.249 -0.1156 -1.6406  1.1349
 6686SOL     OW31693   4.475   1.763  10.447 -0.4458 -0.0147 -0.3366
 6686SOL    HW131694   4.443   1.698  10.384  0.4278  0.1562 -0.9502
 6686SOL    HW231695   4.430   1.727  10.523 -2.2861 -2.1467 -2.4305
 6687SOL     OW31696   2.177   4.509   0.700  0.0484 -0.2622 -0.1742
 6687SOL    HW131697   2.172   4.500   0.605  2.9244 -2.6057 -0.1039
 6687SOL    HW231698   2.103   4.568   0.713  0.6695  0.6488 -0.7911
 6688SOL     OW31699   2.740   2.681   8.840 -0.1747 -0.3583  0.1171
 6688SOL    HW131700   2.674   2.724   8.894  0.5878  0.6398  0.2505
 6688SOL    HW231701   2.805   2.659   8.907  1.3992  1.0904 -0.9440
 6689SOL     OW31702   3.865   1.856   6.100 -0.2001 -0.4654 -0.0859
 6689SOL    HW131703   3.826   1.769   6.106 -0.2441 -0.4771 -0.5113
 6689SOL    HW231704   3.946   1.863   6.150 -0.9783  0.6523  1.0134
 6690SOL     OW31705   3.012   4.095   6.636 -0.1506  0.2742 -0.0060
 6690SOL    HW131706   2.936   4.146   6.607  0.2691 -0.3665 -2.1937
 6690SOL    HW231707   3.083   4.132   6.584  1.8825 -0.6886  2.0995
 6691SOL     OW31708   1.496   1.981   7.851 -0.3068  0.0896 -0.4569
 6691SOL    HW131709   1.407   1.993   7.818 -0.4761 -3.4925 -1.3493
 6691SOL    HW231710   1.559   1.980   7.779  1.3159  0.3292  0.9638
 6692SOL     OW31711   2.257   1.896   6.242  0.1024 -0.0172  0.0359
 6692SOL    HW131712   2.236   1.828   6.178 -1.1666  0.9859 -0.6383
 6692SOL    HW231713   2.207   1.968   6.203 -0.9691  0.5453  2.4251
 6693SOL     OW31714   2.149   0.185  15.986 -0.0820  0.1634 -0.4756
 6693SOL    HW131715   2.151   0.101  15.940  0.7536 -0.5298  0.8107
 6693SOL    HW231716   2.165   0.154  16.075  0.9665  0.5562 -0.5261
 6694SOL     OW31717   4.145   2.672  12.281 -0.6899 -0.2886  0.8503
 6694SOL    HW131718   4.192   2.713  12.209 -1.2045  0.5747  1.0080
 6694SOL    HW231719   4.057   2.694  12.251 -0.3672  0.4128  0.4146
 6695SOL     OW31720   3.039   1.083   1.798  0.1030  0.7436 -0.2089
 6695SOL    HW131721   3.062   1.164   1.844  0.1824  0.8133 -0.3710
 6695SOL    HW231722   2.954   1.065   1.840  1.1350 -2.0523  0.6522
 6696SOL     OW31723   3.779   4.600   7.694 -0.0600  0.5973  0.1659
 6696SOL    HW131724   3.692   4.640   7.703 -1.6419 -2.6091 -0.5492
 6696SOL    HW231725   3.777   4.525   7.754 -1.8236  0.2873 -0.2610
 6697SOL     OW31726   3.629   1.043   4.006  0.0004  0.5316 -0.0722
 6697SOL    HW131727   3.652   0.955   4.035  0.1542  0.8873  0.8913
 6697SOL    HW231728   3.647   1.031   3.912  0.5657  0.7662  0.0062
 6698SOL     OW31729   3.627   2.258   9.204 -0.3947  0.1610 -0.2774
 6698SOL    HW131730   3.621   2.334   9.261 -0.6317 -0.4806  0.5613
 6698SOL    HW231731   3.608   2.294   9.118  0.8830  0.5752 -0.3874
 6699SOL     OW31732   2.919   1.646   5.039  0.5935  0.0691  0.4342
 6699SOL    HW131733   2.951   1.650   4.949  3.8294  1.3666  1.6309
 6699SOL    HW231734   2.825   1.647   5.020  0.3061 -1.3198  1.7928
 6700SOL     OW31735   2.994   3.343   1.513 -0.0437 -0.4446 -0.6751
 6700SOL    HW131736   3.037   3.279   1.456  4.4793  0.6395  1.5411
 6700SOL    HW231737   3.064   3.364   1.575 -0.2317 -3.6805  0.6515
 6701SOL     OW31738   2.412   0.625   2.066 -0.2301 -0.0930 -0.5042
 6701SOL    HW131739   2.331   0.601   2.023 -1.6833 -0.5882  2.5034
 6701SOL    HW231740   2.394   0.592   2.154 -2.7727  1.5378 -0.4143
 6702SOL     OW31741   2.803   4.523   2.956 -0.1697  0.3115  0.0816
 6702SOL    HW131742   2.887   4.509   2.911  0.6884  1.8885  1.1819
 6702SOL    HW231743   2.779   4.431   2.965 -0.8820  0.6528  1.5350
 6703SOL     OW31744   2.684   0.091  13.758  0.4306  0.2919 -0.4385
 6703SOL    HW131745   2.738   0.034  13.812 -1.4130  3.0328  4.2642
 6703SOL    HW231746   2.611   0.114  13.815  0.3743 -1.7408  0.2907
 6704SOL     OW31747   0.265   0.258   5.072  0.2458  0.3955  0.0237
 6704SOL    HW131748   0.303   0.286   4.989  1.0525  2.0929  0.9665
 6704SOL    HW231749   0.346   0.262   5.125 -0.0155  3.0292  0.1980
 6705SOL     OW31750   1.869   0.068   4.093  0.2963 -0.2704  0.0288
 6705SOL    HW131751   1.803   0.001   4.107  1.1144 -0.7790  1.5476
 6705SOL    HW231752   1.921   0.065   4.174  1.4959  2.1823 -0.6321
 6706SOL     OW31753   1.977   0.063   8.462 -0.0482  0.1956  0.4156
 6706SOL    HW131754   1.994   0.147   8.504 -1.0128  1.4746 -1.7778
 6706SOL    HW231755   1.898   0.026   8.503 -0.1769  0.1164  0.0936
 6707SOL     OW31756   4.318   1.970   6.976 -0.0471  0.1226  0.3025
 6707SOL    HW131757   4.335   2.019   7.056  1.3110  1.0171 -0.5285
 6707SOL    HW231758   4.257   2.034   6.940 -2.2007 -1.0536  1.8485
 6708SOL     OW31759   3.022   0.050   4.614  0.0737  1.0710  0.1447
 6708SOL    HW131760   3.104   0.055   4.566  0.7442  2.4686  1.4622
 6708SOL    HW231761   2.986   4.703   4.602  0.2827  0.7888  1.6848
 6709SOL     OW31762   1.188   2.731   4.350 -0.5709  0.0181 -0.2349
 6709SOL    HW131763   1.118   2.771   4.402 -1.0121  0.0788 -0.8695
 6709SOL    HW231764   1.208   2.808   4.296  1.6450 -1.8395 -2.0815
 6710SOL     OW31765   1.627   4.727   2.691  0.1474  0.1382  0.6701
 6710SOL    HW131766   1.535   4.712   2.716  0.0467 -2.4762 -1.2575
 6710SOL    HW231767   1.653   4.635   2.690  0.3625  0.2097  0.1134
 6711SOL     OW31768   0.213   0.721   8.613  0.3992 -0.2636  0.0211
 6711SOL    HW131769   0.294   0.726   8.562 -0.4279  0.3689 -1.2466
 6711SOL    HW231770   0.216   0.811   8.645 -4.0033 -0.2420  0.3609
 6712SOL     OW31771   0.625   2.661  10.376  0.6323 -0.5349  0.1438
 6712SOL    HW131772   0.709   2.701  10.352  1.2999 -1.1093  1.5307
 6712SOL    HW231773   0.559   2.704  10.321  0.7426 -2.8489 -1.8051
 6713SOL     OW31774   2.049   0.220   7.641 -0.5190  0.4241 -0.1069
 6713SOL    HW131775   2.028   0.299   7.592  0.8157  1.1361  0.4822
 6713SOL    HW231776   2.133   0.250   7.676 -0.3962  0.7767 -0.7015
 6714SOL     OW31777   3.153   1.884   8.706 -0.2637 -0.0946 -0.1272
 6714SOL    HW131778   3.227   1.938   8.734 -2.0050  2.1887  0.0722
 6714SOL    HW231779   3.207   1.815   8.668  0.3773  0.2355  0.1931
 6715SOL     OW31780   0.499   0.147   5.654 -0.7043  0.3967 -0.2235
 6715SOL    HW131781   0.428   0.154   5.590 -0.8830 -0.4719 -0.1270
 6715SOL    HW231782   0.457   0.101   5.726 -0.0337  0.1642  0.0206
 6716SOL     OW31783   1.399   0.232   0.714  0.1923  0.7978  0.4983
 6716SOL    HW131784   1.455   0.227   0.792  0.0256 -2.2654  0.4465
 6716SOL    HW231785   1.358   0.318   0.718 -0.5670  0.4813 -0.3111
 6717SOL     OW31786   0.717   1.414   2.701  0.3763  0.1789 -0.0940
 6717SOL    HW131787   0.676   1.469   2.768 -1.1307 -0.1606 -0.7338
 6717SOL    HW231788   0.792   1.375   2.745  0.2319  2.4297  2.1408
 6718SOL     OW31789   4.627   1.843   2.851 -0.6904  0.5812 -0.2048
 6718SOL    HW131790   4.594   1.828   2.940  0.6486 -0.1800  0.1624
 6718SOL    HW231791   4.613   1.937   2.844  0.6052  0.7018 -1.2440
 6719SOL     OW31792   1.565   4.254  11.209 -0.5505  0.3933  0.3791
 6719SOL    HW131793   1.484   4.305  11.200 -1.1042 -0.5805 -0.0832
 6719SOL    HW231794   1.602   4.272  11.122 -1.5228 -1.6104 -0.4410
 6720SOL     OW31795   4.647   4.046   8.365  0.0744  0.2661 -0.1338
 6720SOL    HW131796   4.557   4.030   8.337  0.4499 -0.3590 -0.9634
 6720SOL    HW231797   4.638   4.140   8.351  0.1529  0.1085 -1.2161
 6721SOL     OW31798   4.517   4.539   9.084 -0.1340  0.1082 -0.0190
 6721SOL    HW131799   4.476   4.624   9.099  0.9218  1.0061 -2.2819
 6721SOL    HW231800   4.535   4.513   9.174  1.8439  1.2840 -0.0693
 6722SOL     OW31801   3.065   4.667   3.787 -0.7906 -0.3254 -0.2844
 6722SOL    HW131802   3.001   4.738   3.782  0.8506  1.1870  0.5065
 6722SOL    HW231803   3.089   4.670   3.879  1.1583 -3.8556 -0.6604
 6723SOL     OW31804   1.783   1.487   9.486  0.1044  0.4770 -0.6370
 6723SOL    HW131805   1.870   1.448   9.497  0.3835  1.2795  0.0244
 6723SOL    HW231806   1.814   1.540   9.413  0.4212  1.1914  0.0104
 6724SOL     OW31807   4.293   4.344  13.159  0.0024 -0.2594  0.4277
 6724SOL    HW131808   4.317   4.258  13.191  0.0205  1.0934  4.0862
 6724SOL    HW231809   4.290   4.394  13.241 -1.1784  0.9968 -0.3775
 6725SOL     OW31810   1.958   1.222   3.312  0.2967  0.3146 -0.4127
 6725SOL    HW131811   1.990   1.297   3.362  1.3641  0.6406 -1.5584
 6725SOL    HW231812   2.007   1.147   3.344 -1.4223 -0.6783 -0.1359
 6726SOL     OW31813   0.186   0.613  13.068 -0.1555  0.2995 -0.1013
 6726SOL    HW131814   0.163   0.678  13.134 -0.4914  0.5312 -0.4442
 6726SOL    HW231815   0.131   0.544  13.105 -0.6738  0.4346 -0.6205
 6727SOL     OW31816   1.375   2.637   2.113  0.0195  0.3642  0.2904
 6727SOL    HW131817   1.294   2.609   2.071  0.7510 -1.6135  0.1830
 6727SOL    HW231818   1.361   2.601   2.201 -0.1268 -0.9221 -0.2584
 6728SOL     OW31819   2.455   2.081   0.661  0.3065  0.0075  0.1836
 6728SOL    HW131820   2.377   2.032   0.636  0.6623 -1.5381  2.1441
 6728SOL    HW231821   2.516   2.031   0.607  0.6854  1.3535 -0.6258
 6729SOL     OW31822   4.554   0.061   8.383 -0.5150  0.0881 -0.8104
 6729SOL    HW131823   4.485   0.095   8.328 -1.1951  1.6487  0.9996
 6729SOL    HW231824   4.632   0.077   8.329 -0.4583 -0.5875 -0.9350
 6730SOL     OW31825   2.614   1.037   9.940  0.4502  0.6450 -0.2810
 6730SOL    HW131826   2.610   1.106  10.006 -1.2259  0.0343  0.2445
 6730SOL    HW231827   2.659   1.090   9.874 -2.2166  2.3241 -0.7502
 6731SOL     OW31828   4.259   1.295   9.459  0.2370 -0.2122 -0.0303
 6731SOL    HW131829   4.234   1.235   9.389  0.2104  1.3040 -1.3273
 6731SOL    HW231830   4.212   1.376   9.438  0.9970  0.4213  0.7342
 6732SOL     OW31831   4.212   0.268   7.163  0.2007  0.6385  0.5231
 6732SOL    HW131832   4.304   0.261   7.188  0.2460  0.2979  0.2544
 6732SOL    HW231833   4.189   0.177   7.180 -3.9226  1.0133 -3.3167
 6733SOL     OW31834   4.143   4.316  11.268  0.2778  0.3518 -0.0754
 6733SOL    HW131835   4.176   4.350  11.351  0.7239 -1.2059  0.3877
 6733SOL    HW231836   4.050   4.338  11.269 -0.0658 -1.1905  2.5855
 6734SOL     OW31837   0.578   2.690  11.858 -0.1209 -0.9639 -0.4029
 6734SOL    HW131838   0.542   2.602  11.856 -1.0391 -0.6277  1.4421
 6734SOL    HW231839   0.668   2.667  11.883 -0.5952 -1.9634  0.3804
 6735SOL     OW31840   4.028   0.637   9.776  0.4878 -0.3452  0.1137
 6735SOL    HW131841   3.976   0.593   9.844 -0.1063  0.5022  0.2048
 6735SOL    HW231842   4.009   0.729   9.793 -2.1437 -0.0660 -4.4296
 6736SOL     OW31843   2.812   0.002   2.447 -0.2772  0.2934 -0.1887
 6736SOL    HW131844   2.790   0.090   2.417  2.1093  0.5379 -1.1980
 6736SOL    HW231845   2.753   4.729   2.521  0.0092 -0.7151 -0.1686
 6737SOL     OW31846   3.416   2.914   9.559 -0.2592 -0.4148  0.6886
 6737SOL    HW131847   3.496   2.936   9.608  0.2841 -1.2610  0.1712
 6737SOL    HW231848   3.364   2.993   9.580 -0.6297 -0.6919  0.8225
 6738SOL     OW31849   4.712   3.536   6.846  0.3036 -0.4275 -0.9348
 6738SOL    HW131850   4.677   3.553   6.758 -0.4614 -0.8540 -0.7163
 6738SOL    HW231851   0.056   3.512   6.809  0.5420 -0.3710 -0.4158
 6739SOL     OW31852   4.391   2.048   4.253  0.3564 -0.2902 -0.4606
 6739SOL    HW131853   4.443   2.011   4.325  1.8510  0.4539 -1.1645
 6739SOL    HW231854   4.450   2.046   4.178 -1.3327  0.6445 -1.8038
 6740SOL     OW31855   3.837   0.201   9.556  0.1277  0.0607 -0.2839
 6740SOL    HW131856   3.879   0.268   9.611 -1.7112 -0.0645  1.2611
 6740SOL    HW231857   3.769   0.255   9.517 -0.2636 -0.4335 -0.2690
 6741SOL     OW31858   1.147   2.905   2.466 -0.4459 -0.0219 -0.1216
 6741SOL    HW131859   1.211   2.833   2.468 -0.1347  0.2572 -0.0983
 6741SOL    HW231860   1.195   2.961   2.404  1.0317 -1.0259  0.1017
 6742SOL     OW31861   3.493   3.154   2.522 -0.0300  0.2886  0.0989
 6742SOL    HW131862   3.536   3.117   2.600  0.1164  0.5711  0.1512
 6742SOL    HW231863   3.550   3.129   2.450 -0.4358  0.5897 -0.3268
 6743SOL     OW31864   0.142   3.539   3.809 -0.2744 -0.2311 -0.8490
 6743SOL    HW131865   0.106   3.500   3.889  0.7134  0.7715  0.0810
 6743SOL    HW231866   0.160   3.466   3.750  0.3476  0.3277 -1.3342
 6744SOL     OW31867   1.278   1.253  12.246  0.1588  0.3918  0.0652
 6744SOL    HW131868   1.241   1.341  12.241  0.6497  0.5128 -1.5253
 6744SOL    HW231869   1.296   1.234  12.154 -0.7365  3.5768 -0.7729
 6745SOL     OW31870   2.098   4.314   6.603  0.1468  0.2482 -0.4210
 6745SOL    HW131871   2.050   4.233   6.582 -2.2221  1.0594  1.8829
 6745SOL    HW231872   2.187   4.289   6.578  0.5562  2.9002 -1.4882
 6746SOL     OW31873   1.992   2.298  16.395 -0.9305 -0.1333 -0.1390
 6746SOL    HW131874   1.924   2.243  16.354  0.9294 -1.4625 -1.4632
 6746SOL    HW231875   2.009   2.238  16.468 -4.0733  1.6938  2.0773
 6747SOL     OW31876   4.347   1.088  14.899 -0.3700 -0.0340 -0.1058
 6747SOL    HW131877   4.301   1.123  14.822 -1.3065  2.9210  1.8219
 6747SOL    HW231878   4.398   1.161  14.932 -1.6402  0.3345  1.0267
 6748SOL     OW31879   3.614   3.049   5.418 -0.0556 -0.1493 -0.0054
 6748SOL    HW131880   3.549   3.048   5.348  0.7333 -3.4979 -0.6801
 6748SOL    HW231881   3.565   3.068   5.497 -2.0446  2.4943 -1.8628
 6749SOL     OW31882   0.162   2.878  14.765  0.0809  0.0644  0.2346
 6749SOL    HW131883   0.138   2.913  14.851 -1.9443  1.7014 -1.0064
 6749SOL    HW231884   0.239   2.929  14.739  0.3783 -0.6643 -0.3001
 6750SOL     OW31885   2.738   3.186   7.676 -0.0161  0.5478  0.3129
 6750SOL    HW131886   2.683   3.249   7.722 -1.1329  0.1252 -0.4309
 6750SOL    HW231887   2.820   3.194   7.725 -0.3005 -0.0540  0.9008
 6751SOL     OW31888   3.127   0.440   1.601 -0.3784  0.3120 -0.4358
 6751SOL    HW131889   3.095   0.379   1.536  0.2874  0.8228 -1.2355
 6751SOL    HW231890   3.124   0.383   1.678  0.8781 -0.5952 -1.0639
 6752SOL     OW31891   3.841   2.008   6.394 -0.4497 -0.1886  0.2160
 6752SOL    HW131892   3.819   1.947   6.464 -0.7967  0.7358  0.9223
 6752SOL    HW231893   3.912   1.952   6.364 -0.5685  0.1113 -0.6250
 6753SOL     OW31894   1.971   1.784   0.345  0.4150 -0.1483  0.3208
 6753SOL    HW131895   2.017   1.715   0.393 -0.5477 -1.2062 -0.2563
 6753SOL    HW231896   1.903   1.744   0.290 -1.1480  1.1790  1.2997
 6754SOL     OW31897   0.011   2.920  10.512  0.2055  0.1161  0.3385
 6754SOL    HW131898   4.675   2.887  10.468 -0.7749  0.3668  1.8906
 6754SOL    HW231899   4.727   2.957  10.597 -2.0717 -0.7531  0.0090
 6755SOL     OW31900   0.085   2.462   3.882  0.2481  0.1670 -0.4496
 6755SOL    HW131901   0.049   2.424   3.962 -2.5089  1.0428 -1.2688
 6755SOL    HW231902   0.101   2.554   3.903  0.3964 -0.5154  2.4631
 6756SOL     OW31903   3.211   1.757  12.381  0.7081 -0.2320  0.3537
 6756SOL    HW131904   3.302   1.731  12.361  0.2636 -1.7282  0.2609
 6756SOL    HW231905   3.231   1.762  12.474  0.9452  0.1921  0.2798
 6757SOL     OW31906   4.013   3.729   7.234 -0.3768 -0.3668  0.0209
 6757SOL    HW131907   4.034   3.800   7.295 -1.2418 -0.0895  0.0014
 6757SOL    HW231908   3.947   3.769   7.177  0.9503  0.6599 -0.8107
 6758SOL     OW31909   0.780   4.043  10.332  0.4483 -0.6238 -0.1545
 6758SOL    HW131910   0.813   3.961  10.368 -0.9755  0.1950  2.9762
 6758SOL    HW231911   0.848   4.064  10.268  1.9026  2.1565  2.3467
 6759SOL     OW31912   1.521   1.942   7.274 -0.2562  0.2070 -0.4444
 6759SOL    HW131913   1.525   1.902   7.186 -1.0105 -1.0024  0.0659
 6759SOL    HW231914   1.533   1.868   7.333 -0.0019  0.8641  0.3191
 6760SOL     OW31915   3.797   2.883   7.711  0.3518 -0.3436  0.0294
 6760SOL    HW131916   3.872   2.941   7.722 -0.5017  0.3421  2.0979
 6760SOL    HW231917   3.776   2.868   7.803 -0.3056 -1.0023 -0.2172
 6761SOL     OW31918   0.248   3.428   2.493  0.2215 -0.2714  0.4125
 6761SOL    HW131919   0.326   3.424   2.437 -1.2200 -1.4981 -1.5242
 6761SOL    HW231920   0.215   3.510   2.455 -0.2310 -0.9878 -0.7334
 6762SOL     OW31921   2.925   0.449   9.171 -0.0775  0.3455 -0.0824
 6762SOL    HW131922   2.868   0.440   9.094 -1.1915 -0.4414  0.8295
 6762SOL    HW231923   2.996   0.389   9.149  1.3160  1.4697  1.3725
 6763SOL     OW31924   1.633   0.704   5.057 -0.2322  0.2540  0.0565
 6763SOL    HW131925   1.613   0.634   4.995 -2.1568  2.0747 -1.3687
 6763SOL    HW231926   1.587   0.778   5.018 -0.8905 -0.8949 -1.3499
 6764SOL     OW31927   3.801   4.286   8.061 -0.1316 -0.0833  0.1658
 6764SOL    HW131928   3.789   4.193   8.082 -1.6817 -0.2677 -1.5033
 6764SOL    HW231929   3.829   4.318   8.147 -0.2154 -1.6779  0.7838
 6765SOL     OW31930   1.341   2.821  11.130 -0.0118  0.1941 -0.2948
 6765SOL    HW131931   1.247   2.803  11.135 -0.1606  0.8518 -0.7421
 6765SOL    HW231932   1.364   2.848  11.218  0.1876 -1.2584  0.1020
 6766SOL     OW31933   0.792   0.084   6.022  0.5727  0.0091 -0.4853
 6766SOL    HW131934   0.830   0.028   6.089  2.3734 -1.1439 -2.4888
 6766SOL    HW231935   0.751   0.018   5.966 -0.1462  0.4468 -0.4825
 6767SOL     OW31936   3.979   2.774   6.990 -0.4291 -0.2084 -0.1768
 6767SOL    HW131937   3.964   2.680   7.001 -0.8827  0.1245  2.0468
 6767SOL    HW231938   3.967   2.807   7.079 -2.3075 -1.8321  0.1776
 6768SOL     OW31939   2.928   1.657   6.781  0.1426 -0.5961 -0.5893
 6768SOL    HW131940   2.835   1.678   6.785 -0.0153 -1.4042 -0.0521
 6768SOL    HW231941   2.937   1.601   6.858 -0.8915  0.8961  0.6087
 6769SOL     OW31942   0.859   4.466  10.941 -0.3300  0.4702 -0.0922
 6769SOL    HW131943   0.914   4.451  11.017  0.8083  1.3394 -0.7415
 6769SOL    HW231944   0.781   4.505  10.981 -1.9416 -3.3996  0.4993
 6770SOL     OW31945   4.605   4.098   4.395  0.3864  0.2397 -0.1763
 6770SOL    HW131946   4.546   4.117   4.322  0.2239  0.1534 -0.0677
 6770SOL    HW231947   4.617   4.004   4.385 -1.8134  0.1675 -2.1941
 6771SOL     OW31948   4.010   0.231  16.652 -0.3039 -0.0893  0.1372
 6771SOL    HW131949   4.062   0.275  16.719 -0.4207  2.8011 -1.6896
 6771SOL    HW231950   3.927   0.275  16.670  1.1835  1.8462  2.3468
 6772SOL     OW31951   2.564   0.856  15.681 -0.0214 -0.1495 -0.6197
 6772SOL    HW131952   2.590   0.825  15.594  0.7961 -1.9827  0.2710
 6772SOL    HW231953   2.469   0.846  15.677 -0.2529  2.0265 -0.4050
 6773SOL     OW31954   4.549   3.003   0.193  0.0785 -0.5544 -0.0500
 6773SOL    HW131955   4.469   2.952   0.205 -0.4225  0.2973  0.2290
 6773SOL    HW231956   4.603   2.932   0.157 -0.0556 -0.5111 -0.3422
 6774SOL     OW31957   4.534   1.572  11.246 -0.0170  0.0114  0.6314
 6774SOL    HW131958   4.552   1.480  11.229 -1.0339  0.2013 -1.4708
 6774SOL    HW231959   4.476   1.594  11.173 -1.9613 -1.0234  1.8913
 6775SOL     OW31960   2.816   1.517   2.232 -0.2085  0.5523 -0.4437
 6775SOL    HW131961   2.886   1.536   2.168  0.0524  0.1062 -0.2876
 6775SOL    HW231962   2.808   1.422   2.239 -2.6521  0.9212  1.7585
 6776SOL     OW31963   2.986   4.676   7.274 -0.4376 -0.0725 -0.0823
 6776SOL    HW131964   3.013   4.691   7.183  0.4511 -3.0495 -0.3204
 6776SOL    HW231965   2.959   0.024   7.292 -2.0064 -0.3278 -1.1006
 6777SOL     OW31966   3.934   2.846  17.520  0.1883 -0.2254 -0.0949
 6777SOL    HW131967   3.997   2.782  17.488  1.8159  1.5174 -0.3254
 6777SOL    HW231968   3.855   2.792  17.524  0.2005 -0.1830  0.7545
 6778SOL     OW31969   4.636   3.280   4.766  0.1006  0.1598 -0.5797
 6778SOL    HW131970   4.585   3.224   4.708 -1.3596 -0.0084  0.8725
 6778SOL    HW231971   4.723   3.279   4.726  0.4664 -1.2524  0.2758
 6779SOL     OW31972   3.875   1.180  12.929  0.1408 -0.5965  0.4926
 6779SOL    HW131973   3.826   1.220  13.000 -1.8002 -0.3678 -0.9584
 6779SOL    HW231974   3.923   1.257  12.896 -0.1655 -0.5862  0.0719
 6780SOL     OW31975   4.603   3.173   1.583 -0.2317  0.3093 -0.0028
 6780SOL    HW131976   4.615   3.078   1.580 -0.1291  0.3647 -1.3846
 6780SOL    HW231977   4.644   3.203   1.502 -0.2367 -2.2811 -0.9636
 6781SOL     OW31978   3.846   1.871  10.029 -0.7892  0.4996 -0.2033
 6781SOL    HW131979   3.880   1.961  10.025  0.2846  0.0733 -0.5301
 6781SOL    HW231980   3.764   1.882  10.078  0.6371  0.1112  2.3171
 6782SOL     OW31981   0.261   0.865   2.617 -0.3676 -0.5219 -0.0025
 6782SOL    HW131982   0.302   0.933   2.564  0.6429 -0.3862  0.9822
 6782SOL    HW231983   0.283   0.886   2.707  2.2885 -0.0676 -0.7572
 6783SOL     OW31984   0.251   3.214   2.869 -0.3246  0.1469  0.0620
 6783SOL    HW131985   0.182   3.280   2.870 -0.8202 -0.3579 -0.4350
 6783SOL    HW231986   0.261   3.196   2.776  1.9101 -1.4889  0.6232
 6784SOL     OW31987   0.926   0.931   4.473  0.6113 -0.0080  0.5390
 6784SOL    HW131988   0.895   1.001   4.530  0.7016  2.4715 -2.4576
 6784SOL    HW231989   1.019   0.928   4.498  0.0249 -1.1316  2.6337
 6785SOL     OW31990   2.214   1.374   3.770 -0.0497  0.2147 -0.2207
 6785SOL    HW131991   2.136   1.351   3.821 -0.6155 -1.0095 -1.6286
 6785SOL    HW231992   2.235   1.302   3.710 -0.9573  1.4677 -2.0297
 6786SOL     OW31993   2.771   1.657   1.839 -0.3060  0.1506  0.0919
 6786SOL    HW131994   2.697   1.611   1.879 -0.7932  1.9763  1.2474
 6786SOL    HW231995   2.833   1.586   1.821 -1.8067 -1.4538  1.2659
 6787SOL     OW31996   1.593   2.485   8.010 -0.1514 -0.4615 -0.1888
 6787SOL    HW131997   1.521   2.424   8.022  0.3206 -0.7305  1.3500
 6787SOL    HW231998   1.671   2.432   7.993  0.8300  1.0789 -0.4597
 6788SOL     OW31999   2.898   0.717   8.707  0.2203 -0.1183  0.7385
 6788SOL    HW132000   2.831   0.653   8.733  0.2001 -0.3537  0.1011
 6788SOL    HW232001   2.837   0.781   8.671  0.7134  0.8053  1.5558
 6789SOL     OW32002   3.902   0.110   9.842 -0.1894 -0.3054 -0.3224
 6789SOL    HW132003   3.897   0.137   9.750  1.9097 -2.0226 -0.9472
 6789SOL    HW232004   3.878   0.018   9.832 -1.2661 -0.2409  1.7694
 6790SOL     OW32005   2.283   3.862   2.767 -0.2886 -0.4891 -0.6575
 6790SOL    HW132006   2.251   3.948   2.794 -2.2408 -0.8210 -1.9878
 6790SOL    HW232007   2.313   3.820   2.848 -1.0207 -0.4881 -0.3850
 6791SOL     OW32008   3.438   3.149   1.543 -0.3753 -0.0278 -0.2629
 6791SOL    HW132009   3.505   3.208   1.578 -0.3131 -0.2379 -0.0223
 6791SOL    HW232010   3.436   3.175   1.451  1.4904  2.2176  0.3135
 6792SOL     OW32011   1.370   1.816   5.727 -0.4164 -0.0724 -0.6901
 6792SOL    HW132012   1.352   1.777   5.641  1.5845 -0.0153 -1.1404
 6792SOL    HW232013   1.460   1.846   5.718 -0.4377  0.8890  2.3974
 6793SOL     OW32014   0.890   3.831  11.186  0.3716 -0.5782  0.0895
 6793SOL    HW132015   0.973   3.830  11.232  0.1739  1.2882  0.4822
 6793SOL    HW232016   0.896   3.916  11.142  0.7263 -0.0004  1.2764
 6794SOL     OW32017   2.732   3.512   3.136 -0.4221 -0.3393 -0.0970
 6794SOL    HW132018   2.727   3.606   3.121 -0.4040 -0.5114 -1.1269
 6794SOL    HW232019   2.645   3.491   3.103 -0.1935 -2.2145  0.4752
 6795SOL     OW32020   1.397   4.482   7.491  0.3793  0.6134 -0.2094
 6795SOL    HW132021   1.346   4.401   7.483 -1.3163  1.4610  1.9609
 6795SOL    HW232022   1.418   4.501   7.400  2.7168  1.2242  0.4531
 6796SOL     OW32023   4.469   2.213   3.793 -0.5637  0.3986 -0.2016
 6796SOL    HW132024   4.381   2.228   3.761 -0.4235  2.2546  0.2323
 6796SOL    HW232025   4.490   2.296   3.836 -0.4031  0.3366 -0.1569
 6797SOL     OW32026   4.298   3.869  16.925 -0.1332 -0.4454 -0.1153
 6797SOL    HW132027   4.366   3.802  16.933 -0.2742 -0.4072  1.3715
 6797SOL    HW232028   4.252   3.837  16.848  1.2307 -3.2464  0.2535
 6798SOL     OW32029   4.724   0.380   7.533 -0.4538  0.4012  0.2342
 6798SOL    HW132030   4.700   0.467   7.501  0.6870 -0.3996 -2.7639
 6798SOL    HW232031   0.051   0.358   7.471 -1.4335 -1.3511 -0.2416
 6799SOL     OW32032   2.998   1.940   1.781 -0.1895  0.2233 -0.5101
 6799SOL    HW132033   2.903   1.954   1.784 -0.4427 -1.5177 -0.6961
 6799SOL    HW232034   3.024   2.027   1.749  1.0911  0.7342  1.9302
 6800SOL     OW32035   1.400   3.817   7.476 -0.0397  0.1738 -0.0387
 6800SOL    HW132036   1.494   3.835   7.468  0.1595 -0.6443  0.4441
 6800SOL    HW232037   1.391   3.747   7.541  1.7628  1.8235  1.9937
 6801SOL     OW32038   3.169   0.195  12.491 -0.1442 -0.3583  0.5007
 6801SOL    HW132039   3.128   0.237  12.567 -1.3037 -0.1706 -0.2260
 6801SOL    HW232040   3.156   0.101  12.499  0.2313 -0.3094  1.6416
 6802SOL     OW32041   2.330   2.303   9.459  0.0103 -0.0262 -0.0977
 6802SOL    HW132042   2.418   2.268   9.447 -0.7721 -2.0594  0.0432
 6802SOL    HW232043   2.333   2.339   9.547  0.6491 -0.6523  0.1257
 6803SOL     OW32044   0.963   3.162  12.237  0.4366 -0.4841 -0.4238
 6803SOL    HW132045   0.974   3.226  12.167 -2.3757  1.2963  0.7207
 6803SOL    HW232046   0.883   3.129  12.195 -0.3405  1.7666 -0.7401
 6804SOL     OW32047   1.086   2.587   6.020 -0.2106  0.3550  0.3144
 6804SOL    HW132048   1.163   2.534   6.039 -0.6314 -1.3026 -2.5601
 6804SOL    HW232049   1.060   2.561   5.931  0.7538  0.1966  0.0853
 6805SOL     OW32050   0.857   0.665   4.298 -0.4529  0.4518 -0.1060
 6805SOL    HW132051   0.894   0.670   4.386 -2.5900  3.4084  0.6443
 6805SOL    HW232052   0.790   0.733   4.302 -0.7790  0.2065 -1.2676
 6806SOL     OW32053   0.089   4.537   3.503 -0.0442  0.2137 -0.5256
 6806SOL    HW132054   0.012   4.509   3.454 -0.0365  1.7678 -1.4016
 6806SOL    HW232055   0.149   4.468   3.476  0.2617  0.4175 -0.3630
 6807SOL     OW32056   0.330   2.266  12.227 -0.5484  0.1467  0.1279
 6807SOL    HW132057   0.290   2.352  12.215 -0.7579 -0.1648 -1.5479
 6807SOL    HW232058   0.313   2.242  12.135 -1.7862  0.3214  0.3105
 6808SOL     OW32059   0.264   1.586   9.487  0.5872  0.0147 -0.1129
 6808SOL    HW132060   0.233   1.499   9.513  1.0431  0.2217  1.1122
 6808SOL    HW232061   0.194   1.612   9.427 -0.8715 -0.0996  1.5420
 6809SOL     OW32062   2.973   3.448  11.033  0.2777 -0.1701 -0.3277
 6809SOL    HW132063   3.039   3.510  11.064 -0.3666  1.5090 -2.3454
 6809SOL    HW232064   2.932   3.497  10.961  3.3347  3.1068  0.1583
 6810SOL     OW32065   4.500   3.531   7.336  0.1671 -0.1547 -0.3029
 6810SOL    HW132066   4.416   3.485   7.342 -0.2346  0.5490 -0.4612
 6810SOL    HW232067   4.496   3.595   7.407  1.3069  1.8600 -2.0558
 6811SOL     OW32068   3.242   2.261   9.423  0.1943 -0.1047  0.6774
 6811SOL    HW132069   3.172   2.195   9.427  0.5025 -0.4420  0.4530
 6811SOL    HW232070   3.313   2.213   9.381  0.2470  1.3679 -0.9148
 6812SOL     OW32071   3.475   2.108   8.979 -0.3337 -0.4931 -0.3225
 6812SOL    HW132072   3.381   2.124   8.979 -0.5940 -1.9310  1.8988
 6812SOL    HW232073   3.499   2.091   9.070  1.1233 -2.1800 -1.0300
 6813SOL     OW32074   4.391   2.237   4.710  0.8473  0.1171 -0.0598
 6813SOL    HW132075   4.329   2.205   4.644  1.3320 -0.4376 -0.2522
 6813SOL    HW232076   4.409   2.153   4.754 -1.9600 -0.4948 -0.0832
 6814SOL     OW32077   2.838   2.734   2.644  0.2456  0.1616 -0.0258
 6814SOL    HW132078   2.798   2.745   2.557 -0.0343  0.5996  0.1568
 6814SOL    HW232079   2.851   2.827   2.666  1.8136 -0.5044  1.8338
 6815SOL     OW32080   2.618   3.339   3.677 -0.2138  0.4400 -1.3339
 6815SOL    HW132081   2.554   3.343   3.607 -1.8395  0.5339  0.1605
 6815SOL    HW232082   2.619   3.430   3.706  2.5564 -0.1211  0.3961
 6816SOL     OW32083   3.402   2.122   0.960  0.4663  0.7176  0.4353
 6816SOL    HW132084   3.310   2.105   0.982  0.1437  1.8391 -0.0520
 6816SOL    HW232085   3.404   2.132   0.865 -1.2215  1.0466  0.4290
 6817SOL     OW32086   2.971   1.643  12.349 -0.3336 -0.0598 -0.0788
 6817SOL    HW132087   2.949   1.721  12.400 -1.1523  0.8867 -1.8975
 6817SOL    HW232088   3.063   1.663  12.334 -0.2113 -2.7471 -2.7410
 6818SOL     OW32089   1.516   4.406   7.768 -0.1903  0.3026 -0.3451
 6818SOL    HW132090   1.545   4.315   7.761  2.1239  1.0703 -0.8949
 6818SOL    HW232091   1.538   4.437   7.680 -0.3453  0.1376 -0.4411
 6819SOL     OW32092   3.412   3.485  11.003  0.1828  0.5947  0.0682
 6819SOL    HW132093   3.402   3.502  10.910 -3.3361 -0.9565  0.1435
 6819SOL    HW232094   3.503   3.455  11.001 -0.3103 -0.9783  0.8950
 6820SOL     OW32095   1.100   1.198   6.355  0.2710 -0.3067  0.2944
 6820SOL    HW132096   1.160   1.271   6.367 -1.5276  1.3262 -0.6535
 6820SOL    HW232097   1.160   1.125   6.339  0.1037 -0.8549  2.1798
 6821SOL     OW32098   2.733   4.381   7.478 -0.5168  0.0148 -0.7987
 6821SOL    HW132099   2.649   4.426   7.487 -0.6114  0.1621 -2.3791
 6821SOL    HW232100   2.747   4.396   7.384  0.3395  1.8334 -0.3889
 6822SOL     OW32101   1.667   0.545  10.235  0.1088 -0.6456  0.4663
 6822SOL    HW132102   1.633   0.568  10.149  3.0729  2.8800  0.1947
 6822SOL    HW232103   1.761   0.528  10.224 -0.0507 -0.5615 -0.9770
 6823SOL     OW32104   0.548   0.420   1.991  0.4169  0.2292 -0.0467
 6823SOL    HW132105   0.560   0.440   1.898 -0.1255  1.0165  0.0561
 6823SOL    HW232106   0.627   0.366   1.991  0.5934  0.4940  1.8297
 6824SOL     OW32107   0.203   0.004   7.875  0.0185 -0.0516 -0.0301
 6824SOL    HW132108   0.239   4.728   7.962 -2.0020 -3.1994  0.1530
 6824SOL    HW232109   0.288   0.037   7.846 -1.1057  1.7719 -1.2333
 6825SOL     OW32110   0.435   1.528   6.220 -0.1274  0.2532 -0.2249
 6825SOL    HW132111   0.400   1.464   6.282  2.5553 -2.5445 -1.6227
 6825SOL    HW232112   0.355   1.572   6.190 -0.8068  0.3648  1.7730
 6826SOL     OW32113   3.719   0.023  10.193 -0.6645  0.0067 -0.0784
 6826SOL    HW132114   3.732   4.703  10.122  0.7530 -0.6692  0.7965
 6826SOL    HW232115   3.790   4.740  10.251 -2.6544 -1.2058  1.8434
 6827SOL     OW32116   3.056   0.698   3.080  0.0516 -0.0520  0.2817
 6827SOL    HW132117   3.015   0.612   3.078 -2.9604  1.3419  1.9203
 6827SOL    HW232118   3.147   0.674   3.062 -0.2718 -1.7311  0.9127
 6828SOL     OW32119   2.479   1.823  13.118 -0.0503  0.4207  0.5426
 6828SOL    HW132120   2.522   1.892  13.069  0.2431 -0.3420 -0.2773
 6828SOL    HW232121   2.550   1.768  13.151 -0.4207 -0.4528 -0.0899
 6829SOL     OW32122   0.344   3.825   0.375  0.5751  0.5403  0.5800
 6829SOL    HW132123   0.328   3.742   0.420 -1.0533  0.9924  0.7969
 6829SOL    HW232124   0.438   3.842   0.384  0.2669  1.0548  2.8353
 6830SOL     OW32125   4.130   2.115   3.908 -0.1212  0.2381  0.5151
 6830SOL    HW132126   4.075   2.037   3.915  0.4210 -0.3469 -1.5894
 6830SOL    HW232127   4.166   2.121   3.996  0.5012 -0.4426  0.3120
 6831SOL     OW32128   2.011   3.090   7.551  0.2143  0.1967 -0.0223
 6831SOL    HW132129   2.005   3.126   7.640  1.6073 -1.1034  0.5838
 6831SOL    HW232130   2.089   3.136   7.521 -1.6325  3.1681 -0.2473
 6832SOL     OW32131   3.928   3.190  13.913 -1.0149  0.7730 -0.1556
 6832SOL    HW132132   3.941   3.260  13.976  0.6450  1.7419 -1.5814
 6832SOL    HW232133   3.998   3.132  13.944 -1.9221  0.4457  1.2878
 6833SOL     OW32134   2.512   1.877  10.384  0.1405 -0.2532  0.4373
 6833SOL    HW132135   2.509   1.914  10.472 -0.5331  2.9748 -0.9441
 6833SOL    HW232136   2.604   1.894  10.365  0.4668 -3.5302 -1.0013
 6834SOL     OW32137   0.060   3.050   7.223  0.3246  0.4478 -0.0489
 6834SOL    HW132138   0.094   2.992   7.292 -1.2505  0.2920  0.6009
 6834SOL    HW232139   4.726   3.088   7.266 -1.5983 -0.7993 -2.3406
 6835SOL     OW32140   0.719   4.608   2.903 -0.5265 -0.5057 -0.1321
 6835SOL    HW132141   0.718   4.702   2.883 -1.5915 -0.2167  1.2851
 6835SOL    HW232142   0.798   4.584   2.854  1.3624  3.0484  1.1457
 6836SOL     OW32143   1.760   3.879   6.787 -0.1740 -0.2692  0.0230
 6836SOL    HW132144   1.848   3.842   6.795 -1.0560 -2.8746 -2.2908
 6836SOL    HW232145   1.713   3.830   6.720  1.5866 -0.6041 -0.9601
 6837SOL     OW32146   3.505   0.363  13.962  0.0159 -0.0542  0.2037
 6837SOL    HW132147   3.519   0.321  13.877 -0.1463  0.8815 -0.2848
 6837SOL    HW232148   3.463   0.446  13.939 -0.6156 -0.5515 -0.4335
 6838SOL     OW32149   2.740   3.027   1.841 -0.4151 -0.5635  0.5251
 6838SOL    HW132150   2.754   3.079   1.761  2.9430 -0.3769  1.2490
 6838SOL    HW232151   2.791   3.086   1.896 -1.1135 -0.1554  0.7317
 6839SOL     OW32152   4.400   4.661   7.128 -0.1600 -0.6514 -0.2632
 6839SOL    HW132153   4.448   4.608   7.065  2.6129  3.2486 -1.4680
 6839SOL    HW232154   4.466   4.667   7.196  0.0765  1.3576 -0.6589
 6840SOL     OW32155   2.584   2.570   7.172 -0.1284  0.0146  0.4060
 6840SOL    HW132156   2.493   2.598   7.161  0.1752  1.0347  0.5346
 6840SOL    HW232157   2.579   2.514   7.249  2.6434 -0.4591  0.2319
 6841SOL     OW32158   4.424   1.448   9.855  0.3693  0.1962  0.0628
 6841SOL    HW132159   4.350   1.462   9.797  0.3716  1.4724  0.3779
 6841SOL    HW232160   4.379   1.425   9.937 -1.1556  0.9136 -0.5857
 6842SOL     OW32161   0.597   2.553   2.959  0.3399  0.2378 -0.2229
 6842SOL    HW132162   0.583   2.648   2.964 -3.5538 -0.3201 -0.4719
 6842SOL    HW232163   0.594   2.540   2.865 -2.4014  1.5325 -0.3392
 6843SOL     OW32164   3.396   0.379   6.747 -0.4420  0.4382 -0.0533
 6843SOL    HW132165   3.325   0.419   6.797 -0.1030 -0.7571  1.3653
 6843SOL    HW232166   3.398   0.451   6.684  0.5325  0.5759  0.1328
 6844SOL     OW32167   3.552   1.611   9.089  0.6048  0.0742 -0.4582
 6844SOL    HW132168   3.602   1.687   9.117  1.3797 -0.5928 -0.0114
 6844SOL    HW232169   3.552   1.558   9.169 -0.9686  0.7278 -0.0359
 6845SOL     OW32170   2.965   4.717  16.635  0.0531 -0.1681 -0.1103
 6845SOL    HW132171   3.039   4.724  16.696 -1.9507 -0.7814  2.4069
 6845SOL    HW232172   2.932   0.065  16.632  0.8394  0.1524  0.8918
 6846SOL     OW32173   2.562   3.686  15.488  0.1736 -0.1897 -0.2946
 6846SOL    HW132174   2.558   3.702  15.583  1.6024  0.7112 -0.3960
 6846SOL    HW232175   2.523   3.770  15.465  1.9430  0.7621  0.2326
 6847SOL     OW32176   2.004   1.818   2.023  0.1606  0.0024  0.3864
 6847SOL    HW132177   2.040   1.901   1.991  1.4156 -1.0142 -0.8150
 6847SOL    HW232178   2.063   1.806   2.098 -0.9737  1.3162  1.4803
 6848SOL     OW32179   3.995   1.737   2.758  0.7663  0.0689  0.0204
 6848SOL    HW132180   4.021   1.719   2.667 -2.0734  0.1269 -0.8191
 6848SOL    HW232181   4.077   1.714   2.801  0.0825 -0.6871  0.9066
 6849SOL     OW32182   3.938   0.454   5.547  0.1465  0.1170  0.1828
 6849SOL    HW132183   3.895   0.368   5.552 -2.2134  1.2408 -0.5511
 6849SOL    HW232184   4.025   0.420   5.528 -0.0154 -0.2722  0.1379
 6850SOL     OW32185   2.511   3.630   0.854  0.3624 -0.7746  0.1289
 6850SOL    HW132186   2.443   3.591   0.799 -0.4917 -1.0636  1.3721
 6850SOL    HW232187   2.461   3.627   0.936 -1.8445 -1.2953 -1.2252
 6851SOL     OW32188   2.158   0.309   2.401  0.3084 -0.2696  0.3693
 6851SOL    HW132189   2.184   0.384   2.348 -0.8458 -1.3455 -1.7061
 6851SOL    HW232190   2.244   0.271   2.420  0.7883  0.0364 -1.2052
 6852SOL     OW32191   2.436   4.046  16.560  0.1538 -0.3696 -0.3233
 6852SOL    HW132192   2.518   3.998  16.567  0.1520 -0.2493  0.4654
 6852SOL    HW232193   2.373   3.978  16.586 -1.3487  0.6446 -1.3030
 6853SOL     OW32194   0.797   0.808   4.709  0.2942  0.4811 -0.1358
 6853SOL    HW132195   0.736   0.760   4.653 -2.1442  1.8153  1.4072
 6853SOL    HW232196   0.846   0.856   4.641 -0.1411  0.5074 -0.4288
 6854SOL     OW32197   3.186   0.600   9.529 -0.3735 -0.2545  0.6051
 6854SOL    HW132198   3.222   0.688   9.518 -1.4220 -0.3568 -3.8215
 6854SOL    HW232199   3.117   0.604   9.462  1.1968 -2.5236 -1.1306
 6855SOL     OW32200   4.252   1.492   2.304  0.3741 -0.3610 -0.1031
 6855SOL    HW132201   4.198   1.562   2.268  0.7208  0.3427  0.7822
 6855SOL    HW232202   4.291   1.458   2.223 -1.5529  4.1098 -2.8955
 6856SOL     OW32203   2.415   0.966   8.208  0.3322  0.5001 -0.0178
 6856SOL    HW132204   2.351   0.896   8.192  1.2825 -0.3860  0.0577
 6856SOL    HW232205   2.474   0.935   8.276  1.0902  0.1153 -0.8469
 6857SOL     OW32206   3.504   2.077  11.648  0.0293  0.2775  0.0064
 6857SOL    HW132207   3.536   2.014  11.714 -0.3196  0.0126 -0.0760
 6857SOL    HW232208   3.577   2.064  11.587  0.0471  0.6742 -0.0520
 6858SOL     OW32209   0.056   4.727   8.774 -0.1664 -0.5156  0.0008
 6858SOL    HW132210   0.052   0.058   8.712  0.5451 -1.3719 -1.0654
 6858SOL    HW232211   0.150   4.711   8.767  0.2979  1.6811  1.4747
 6859SOL     OW32212   1.940   3.773   0.114 -0.3337 -0.5176 -0.3755
 6859SOL    HW132213   1.928   3.748   0.023  3.2533  2.2060 -1.5835
 6859SOL    HW232214   2.006   3.713   0.150  0.8902 -0.0135 -1.7551
 6860SOL     OW32215   1.358   4.289   2.022  0.7817 -0.4342 -0.0308
 6860SOL    HW132216   1.341   4.302   1.928  0.4713  0.2197  0.1179
 6860SOL    HW232217   1.444   4.246   2.019  0.9048 -0.1423 -0.6154
 6861SOL     OW32218   2.213   4.396   8.854  0.2095  0.3082  0.3715
 6861SOL    HW132219   2.197   4.422   8.944 -1.1678  1.2867 -0.1520
 6861SOL    HW232220   2.231   4.482   8.816  0.7812 -0.3101 -0.7597
 6862SOL     OW32221   1.710   2.391  14.202 -0.3959  0.1863 -0.0494
 6862SOL    HW132222   1.623   2.431  14.208 -0.0048  1.0204  0.1686
 6862SOL    HW232223   1.709   2.332  14.277 -1.6579  0.1352 -0.1007
 6863SOL     OW32224   0.794   2.797  11.141  0.0448  0.0467 -0.2193
 6863SOL    HW132225   0.765   2.763  11.056  0.2759 -0.4978 -0.0795
 6863SOL    HW232226   0.708   2.784  11.183  0.3520  2.1100  1.0529
 6864SOL     OW32227   0.749   1.756   3.601  0.1953 -0.1652 -1.0482
 6864SOL    HW132228   0.694   1.680   3.620  2.3817 -1.2008  1.1854
 6864SOL    HW232229   0.684   1.821   3.575 -1.3423 -1.3882 -0.2437
 6865SOL     OW32230   1.566   3.477   5.917  0.3863  0.4907  0.5256
 6865SOL    HW132231   1.649   3.522   5.901  1.2873 -1.5303 -0.4521
 6865SOL    HW232232   1.601   3.389   5.931  0.0375 -0.2135 -2.9482
 6866SOL     OW32233   1.837   3.393   8.498 -0.1031 -0.3163 -0.0033
 6866SOL    HW132234   1.892   3.470   8.508 -2.1865  1.5454 -2.6831
 6866SOL    HW232235   1.852   3.370   8.406 -2.0916  2.7762 -1.0968
 6867SOL     OW32236   3.826   2.934   9.139 -0.1999 -0.2163 -0.1166
 6867SOL    HW132237   3.816   3.029   9.127  0.9915 -0.4150 -2.6973
 6867SOL    HW232238   3.800   2.919   9.229  0.2126 -2.5092 -0.3822
 6868SOL     OW32239   2.813   3.944   1.807 -0.1015 -0.4658  0.0682
 6868SOL    HW132240   2.765   4.024   1.828 -2.0289 -1.0587 -1.9852
 6868SOL    HW232241   2.768   3.879   1.862 -2.0517  0.5832 -0.2745
 6869SOL     OW32242   4.606   3.615   3.177 -0.1733 -0.3518 -0.2285
 6869SOL    HW132243   4.650   3.540   3.136  0.5238  0.5389 -1.1141
 6869SOL    HW232244   4.675   3.657   3.229 -0.0963 -1.7928  0.8372
 6870SOL     OW32245   1.180   4.362  17.748  0.2462  0.1770 -0.1040
 6870SOL    HW132246   1.185   4.417   0.061 -0.3804 -1.1066  0.8584
 6870SOL    HW232247   1.084   4.355  17.742  0.2273 -0.8721  1.2666
 6871SOL     OW32248   4.198   3.978   6.483 -1.0204 -0.7087 -0.0455
 6871SOL    HW132249   4.164   3.994   6.395  1.9067  0.8781 -0.9052
 6871SOL    HW232250   4.290   3.956   6.470 -1.1025 -0.9830 -0.1489
 6872SOL     OW32251   0.308   1.823   2.427 -0.6840  0.4087 -0.4914
 6872SOL    HW132252   0.334   1.915   2.418 -0.1238  0.3693  0.7726
 6872SOL    HW232253   0.220   1.830   2.464 -0.8461 -1.6772 -0.4690
 6873SOL     OW32254   3.366   1.281   3.599 -0.5874 -0.6449  0.3691
 6873SOL    HW132255   3.376   1.226   3.522  4.4626  2.2201 -0.9691
 6873SOL    HW232256   3.454   1.314   3.614 -0.6979 -0.3011  0.2440
 6874SOL     OW32257   3.861   2.570   4.545 -0.5410 -0.1094 -0.1555
 6874SOL    HW132258   3.774   2.560   4.505 -1.6171  4.0777  1.0892
 6874SOL    HW232259   3.843   2.633   4.615 -1.2105  1.3698 -1.6656
 6875SOL     OW32260   4.029   4.428  13.098 -0.3546  0.5055 -1.2754
 6875SOL    HW132261   3.957   4.369  13.075 -0.5733  0.3976 -0.3106
 6875SOL    HW232262   4.103   4.370  13.116  0.6886  1.9799 -0.8629
 6876SOL     OW32263   0.165   0.386   7.763  0.1442  0.0867 -0.1517
 6876SOL    HW132264   0.111   0.463   7.783 -0.8189 -0.7973  0.6523
 6876SOL    HW232265   0.114   0.345   7.692 -2.2466 -0.0306  1.6248
 6877SOL     OW32266   3.917   2.212  14.346  0.1289 -0.2606  0.2308
 6877SOL    HW132267   3.898   2.306  14.344  1.4471 -0.0068 -0.3989
 6877SOL    HW232268   3.834   2.171  14.320  0.3046 -0.0082 -0.7354
 6878SOL     OW32269   0.406   1.473   4.095 -0.1817 -0.0471 -0.1936
 6878SOL    HW132270   0.393   1.405   4.029 -0.7584 -0.7565  0.6601
 6878SOL    HW232271   0.424   1.423   4.174  1.1281 -0.5115 -0.7683
 6879SOL     OW32272   1.624   2.526   7.060  0.2632  0.0819 -0.4234
 6879SOL    HW132273   1.589   2.572   7.136  0.1855 -0.1326 -0.3296
 6879SOL    HW232274   1.642   2.439   7.097 -0.2916  0.4548  0.7006
 6880SOL     OW32275   1.244   2.458   4.103 -0.2749  0.1938  0.4901
 6880SOL    HW132276   1.167   2.514   4.114  0.0617  1.5440 -3.9782
 6880SOL    HW232277   1.308   2.528   4.090 -1.0036  0.8567  0.4968
 6881SOL     OW32278   4.462   4.696  12.727 -0.2360 -0.1596  0.0393
 6881SOL    HW132279   4.507   4.733  12.802  1.0667  3.3538 -2.4611
 6881SOL    HW232280   4.373   4.731  12.732  0.1690  0.5232  2.4729
 6882SOL     OW32281   1.911   3.432   3.606 -0.0253 -0.5376  0.0971
 6882SOL    HW132282   1.900   3.391   3.520  3.3389  1.3251 -1.2165
 6882SOL    HW232283   1.821   3.446   3.636 -0.4751  0.3659 -1.6713
 6883SOL     OW32284   4.459   0.813   6.227  0.9044  0.3298 -0.3424
 6883SOL    HW132285   4.553   0.818   6.243  0.5343 -0.8076  2.0856
 6883SOL    HW232286   4.461   0.805   6.131 -0.4107  0.2425 -0.3663
 6884SOL     OW32287   3.432   2.853   8.513  0.2902 -0.1682 -0.5813
 6884SOL    HW132288   3.458   2.789   8.579  1.0303  0.7779  0.0607
 6884SOL    HW232289   3.475   2.820   8.435 -1.4597 -1.7908 -0.8433
 6885SOL     OW32290   0.428   4.019   5.355  0.1292 -0.0977 -0.1288
 6885SOL    HW132291   0.461   4.081   5.420  0.7723  0.7231 -1.2335
 6885SOL    HW232292   0.413   4.073   5.277  0.3673 -1.8164 -1.3753
 6886SOL     OW32293   2.550   2.700   6.697 -0.0919  1.0425  0.0692
 6886SOL    HW132294   2.588   2.643   6.763  1.1758  0.8406 -0.8314
 6886SOL    HW232295   2.586   2.654   6.621  0.8106 -1.7769  2.1987
 6887SOL     OW32296   4.716   2.449   2.009  0.1554  0.0282 -0.1571
 6887SOL    HW132297   4.726   2.511   1.937 -0.8487  1.2150  0.7259
 6887SOL    HW232298   0.065   2.433   2.035  0.2499  3.0166  1.3121
 6888SOL     OW32299   2.284   3.565   5.259 -0.8637  0.0320 -0.3410
 6888SOL    HW132300   2.303   3.514   5.338  1.8043  0.7851 -0.4782
 6888SOL    HW232301   2.209   3.620   5.280 -1.5935 -0.3856 -1.8497
 6889SOL     OW32302   1.917   4.598  14.312  0.0160  0.7311 -0.0640
 6889SOL    HW132303   1.980   4.628  14.378  0.3463  1.4509 -0.7091
 6889SOL    HW232304   1.831   4.615  14.352 -0.2062  0.2753 -0.3407
 6890SOL     OW32305   2.433   3.534   4.008  0.1809 -0.2626 -0.2880
 6890SOL    HW132306   2.524   3.555   3.988  0.1815 -0.5868 -0.6344
 6890SOL    HW232307   2.411   3.614   4.056  0.2545  0.4143 -1.3887
 6891SOL     OW32308   1.931   3.657   6.681  0.3273 -0.3461 -0.5255
 6891SOL    HW132309   1.844   3.621   6.700 -0.5447  0.1661 -3.4740
 6891SOL    HW232310   1.980   3.574   6.678 -2.2385 -2.0338  3.8144
 6892SOL     OW32311   3.687   2.629   0.958  0.0108  0.3881  0.8469
 6892SOL    HW132312   3.618   2.567   0.981 -0.8129  0.5862 -1.0923
 6892SOL    HW232313   3.650   2.667   0.878 -1.5393 -1.8216  0.5135
 6893SOL     OW32314   0.427   1.408   1.110 -0.1483  0.2063 -0.0322
 6893SOL    HW132315   0.361   1.478   1.108  1.4149  1.6202 -2.0377
 6893SOL    HW232316   0.499   1.454   1.068  0.6065  0.3343  1.3987
 6894SOL     OW32317   4.029   1.816   4.275 -0.4309  0.1423  0.0857
 6894SOL    HW132318   3.995   1.736   4.313  0.8016  0.0403  0.9657
 6894SOL    HW232319   4.108   1.784   4.232 -0.3392 -0.0691  0.4176
 6895SOL     OW32320   1.051   3.663   7.625  0.3763 -0.2105  0.1735
 6895SOL    HW132321   1.062   3.728   7.695  1.5714 -0.4057  0.1776
 6895SOL    HW232322   1.143   3.659   7.598  0.5278 -0.8369  0.7864
 6896SOL     OW32323   2.754   2.434   2.815  0.1375  0.5433 -0.3708
 6896SOL    HW132324   2.782   2.380   2.889  0.2740 -1.6654 -2.0247
 6896SOL    HW232325   2.678   2.393   2.774  1.9059 -1.1806 -1.9197
 6897SOL     OW32326   2.655   0.765  15.445 -0.1221  0.1879  0.4740
 6897SOL    HW132327   2.601   0.743  15.369  2.1085  1.4074 -1.4597
 6897SOL    HW232328   2.732   0.807  15.407  1.0737 -2.1384  0.3796
 6898SOL     OW32329   3.690   2.896   8.846  0.3904 -0.7056  0.1370
 6898SOL    HW132330   3.687   2.869   8.754 -0.2148 -2.1273  0.5657
 6898SOL    HW232331   3.687   2.991   8.836 -2.8478 -0.8762 -0.6301
 6899SOL     OW32332   1.315   1.489   4.676 -0.1994  0.7616  0.2383
 6899SOL    HW132333   1.371   1.551   4.629 -0.3461  0.7089 -0.0026
 6899SOL    HW232334   1.229   1.509   4.638  0.0558  0.9831 -0.2178
 6900SOL     OW32335   0.618   3.127  15.972 -0.0286  0.0246 -0.7203
 6900SOL    HW132336   0.616   3.219  15.945 -0.5559  1.1297  3.1849
 6900SOL    HW232337   0.613   3.129  16.067  1.3117 -0.0430 -0.6438
 6901SOL     OW32338   2.618   0.451   2.211 -0.3842 -0.1481  0.3638
 6901SOL    HW132339   2.530   0.415   2.204 -0.8864  0.8661  1.3753
 6901SOL    HW232340   2.633   0.479   2.120 -0.4162  3.2250  1.3677
 6902SOL     OW32341   3.616   3.550   8.139 -0.4019 -0.1141 -0.2072
 6902SOL    HW132342   3.533   3.502   8.145  0.7522 -1.9362  0.9866
 6902SOL    HW232343   3.676   3.477   8.151 -0.2342 -0.0845 -0.8671
 6903SOL     OW32344   1.021   4.703   7.006  0.0164  0.0085 -0.2953
 6903SOL    HW132345   1.116   4.695   7.009  0.0118 -0.8219 -2.4169
 6903SOL    HW232346   1.010   0.054   7.024 -1.7127 -0.3850  0.6576
 6904SOL     OW32347   4.027   2.855   4.602  0.0833 -0.0369  0.1581
 6904SOL    HW132348   4.074   2.784   4.645 -0.3882 -0.2630  0.3007
 6904SOL    HW232349   3.986   2.902   4.675  1.3457  0.5655  0.4742
 6905SOL     OW32350   3.951   3.357  12.316 -0.8017  0.1173  0.2890
 6905SOL    HW132351   3.862   3.328  12.338  0.4376 -4.2220 -0.5525
 6905SOL    HW232352   3.923   3.391  12.231  1.8611  0.4210 -0.4591
 6906SOL     OW32353   2.730   1.958   5.772  0.0584 -0.1854 -0.3041
 6906SOL    HW132354   2.734   2.053   5.773 -0.5030 -0.1876  1.4775
 6906SOL    HW232355   2.779   1.936   5.692 -3.2150 -3.8954 -1.3232
 6907SOL     OW32356   2.522   1.322   2.208  0.7407 -0.3634 -0.0200
 6907SOL    HW132357   2.539   1.244   2.261 -0.5015  0.2784  1.3213
 6907SOL    HW232358   2.428   1.340   2.214  1.6040  3.7226  1.4621
 6908SOL     OW32359   3.721   1.193   5.774 -0.1486  0.3672 -0.3723
 6908SOL    HW132360   3.757   1.105   5.774  1.6563  1.0969  0.3462
 6908SOL    HW232361   3.775   1.244   5.713  0.1387  0.1586 -0.2904
 6909SOL     OW32362   3.187   3.140   8.030 -0.3896  0.7182 -0.5784
 6909SOL    HW132363   3.159   3.228   8.054 -3.0122  0.4137 -2.6345
 6909SOL    HW232364   3.151   3.133   7.942 -2.4742  0.1379  0.3232
 6910SOL     OW32365   0.210   4.084  17.625  0.2691  0.0059 -0.4480
 6910SOL    HW132366   0.206   4.033  17.706 -1.5802 -2.1244 -1.8652
 6910SOL    HW232367   0.128   4.133  17.632 -1.1868 -1.9650 -3.5913
 6911SOL     OW32368   0.144   2.134   2.050  0.1172 -0.6377  0.1985
 6911SOL    HW132369   0.212   2.199   2.068  0.6236 -1.4294  1.1131
 6911SOL    HW232370   0.062   2.183   2.054  0.0428 -0.6426 -1.5147
 6912SOL     OW32371   2.035   4.438   4.187 -0.6025 -0.5342 -0.1974
 6912SOL    HW132372   2.102   4.505   4.173 -0.7542 -0.1902  0.6823
 6912SOL    HW232373   2.080   4.360   4.155 -0.7814 -0.8980  0.4365
 6913SOL     OW32374   1.549   2.780  11.395  0.1799  0.3770  0.7706
 6913SOL    HW132375   1.480   2.714  11.384 -0.0589  0.3607  2.3735
 6913SOL    HW232376   1.612   2.729  11.445  2.2170  1.6408 -0.4878
 6914SOL     OW32377   2.007   0.294   7.177 -0.1089  0.5977 -0.5011
 6914SOL    HW132378   1.984   0.256   7.092 -0.2873 -0.5449  0.0539
 6914SOL    HW232379   1.944   0.365   7.188 -1.3192 -0.6402  0.5498
 6915SOL     OW32380   0.507   3.506   7.692  0.2384  0.1297  0.0263
 6915SOL    HW132381   0.413   3.490   7.696  0.1815 -0.0334 -2.0531
 6915SOL    HW232382   0.542   3.427   7.653  0.2827  0.9239 -1.5525
 6916SOL     OW32383   2.609   2.511   5.157  0.2671  0.3655 -0.0377
 6916SOL    HW132384   2.557   2.480   5.231 -1.9581  1.5194 -1.1195
 6916SOL    HW232385   2.587   2.604   5.166 -1.6339 -0.0289 -0.6990
 6917SOL     OW32386   2.769   1.644   3.284  0.1517  0.7017 -0.6743
 6917SOL    HW132387   2.793   1.717   3.341 -3.3104  0.6818  0.8441
 6917SOL    HW232388   2.840   1.583   3.303 -0.3205  0.8643  1.6085
 6918SOL     OW32389   1.299   2.097   7.279  0.0936 -0.5505  0.0459
 6918SOL    HW132390   1.380   2.046   7.279  0.8715  0.6720  0.6654
 6918SOL    HW232391   1.321   2.182   7.239 -4.0757  1.0014  1.0641
 6919SOL     OW32392   2.540   1.411  12.100 -0.8293 -0.7938 -0.3297
 6919SOL    HW132393   2.572   1.321  12.109  1.0907  0.0790  1.6969
 6919SOL    HW232394   2.470   1.420  12.165  0.8163 -3.0271  1.7791
 6920SOL     OW32395   2.177   0.748   8.067 -0.3733 -0.0436  0.0075
 6920SOL    HW132396   2.144   0.660   8.049 -1.8829  0.3548  0.8776
 6920SOL    HW232397   2.167   0.750   8.163  2.8087  1.0723  0.3376
 6921SOL     OW32398   2.738   1.623  13.122  0.3519 -0.0755 -0.3176
 6921SOL    HW132399   2.803   1.690  13.100 -0.3157  0.8227  0.4670
 6921SOL    HW232400   2.697   1.597  13.039 -1.1386 -0.4109  0.5269
 6922SOL     OW32401   4.642   2.728   8.262 -0.2422 -0.1809 -0.4047
 6922SOL    HW132402   4.729   2.708   8.295 -0.4736  0.5756  0.7111
 6922SOL    HW232403   4.646   2.693   8.174  2.0254 -2.0633  0.4744
 6923SOL     OW32404   2.347   0.337   1.365 -0.0974 -0.7350 -0.5098
 6923SOL    HW132405   2.345   0.397   1.439  1.8800 -0.7244 -0.4707
 6923SOL    HW232406   2.427   0.375   1.330  1.3022 -0.7671  2.6818
 6924SOL     OW32407   1.086   4.521   2.175 -0.2410 -0.3809 -0.4097
 6924SOL    HW132408   1.015   4.519   2.111 -2.0344  1.1411  1.5457
 6924SOL    HW232409   1.126   4.438   2.151 -0.5633 -1.2640  2.1353
 6925SOL     OW32410   4.679   3.564  15.919  0.1354  0.2980 -0.0874
 6925SOL    HW132411   0.013   3.521  15.957 -0.0297 -0.0877 -0.1833
 6925SOL    HW232412   4.721   3.648  15.900 -1.8716  1.3411  0.1183
 6926SOL     OW32413   4.667   4.572   8.454 -0.3635 -0.1891 -0.8324
 6926SOL    HW132414   0.017   4.596   8.453 -0.7404  1.4634  2.3521
 6926SOL    HW232415   4.626   4.654   8.427 -2.0737 -1.1214 -1.0821
 6927SOL     OW32416   0.735   1.002  10.090  0.3227  0.4980 -0.1590
 6927SOL    HW132417   0.660   0.956  10.129 -0.2637  0.8320 -0.8896
 6927SOL    HW232418   0.798   0.987  10.160 -0.1451 -0.6507  0.0183
 6928SOL     OW32419   4.674   0.955   6.145 -0.8972  0.4343  0.0019
 6928SOL    HW132420   4.735   0.895   6.189  0.1518 -0.1591 -2.3077
 6928SOL    HW232421   4.716   0.974   6.061  2.5357 -1.4035  1.3176
 6929SOL     OW32422   4.228   4.569  13.699  0.2038  0.0788  0.2952
 6929SOL    HW132423   4.232   4.485  13.745 -1.3967  0.0841  0.4311
 6929SOL    HW232424   4.133   4.575  13.709  0.4206  3.5381  0.2712
 6930SOL     OW32425   1.973   2.990   7.840 -0.2920  0.3249 -0.1818
 6930SOL    HW132426   1.940   3.074   7.872  1.3719  1.0707 -0.4768
 6930SOL    HW232427   1.940   2.943   7.917 -0.0846 -1.3961 -1.1261
 6931SOL     OW32428   2.379   0.477   0.075 -0.6965 -0.0580  0.5858
 6931SOL    HW132429   2.404   0.563   0.042 -2.6003  0.6748  1.0283
 6931SOL    HW232430   2.400   0.415   0.005 -0.2077 -1.3204  1.8546
 6932SOL     OW32431   0.392   4.330   9.881  0.2429 -0.6221 -0.3976
 6932SOL    HW132432   0.381   4.424   9.874  1.1309 -0.3382  2.1968
 6932SOL    HW232433   0.447   4.313   9.957  1.2353 -0.1613 -1.0184
 6933SOL     OW32434   3.564   4.609   6.222 -0.1802 -0.2110 -0.2815
 6933SOL    HW132435   3.477   4.585   6.255  0.5592 -1.3477  0.8816
 6933SOL    HW232436   3.589   4.685   6.274 -1.7033 -0.2774  0.5780
 6934SOL     OW32437   1.263   3.814  12.129  0.0143 -0.0698 -0.1243
 6934SOL    HW132438   1.168   3.813  12.118 -0.1988 -1.1394  1.7273
 6934SOL    HW232439   1.295   3.829  12.040 -2.9736 -0.3419 -1.2414
 6935SOL     OW32440   4.496   4.396   5.723  0.3562 -0.5141 -0.5403
 6935SOL    HW132441   4.409   4.395   5.764  0.3373  0.4651 -0.5609
 6935SOL    HW232442   4.550   4.436   5.791  1.0684 -0.7429 -0.9666
 6936SOL     OW32443   4.427   4.069   7.963  0.0698  0.3957 -0.8359
 6936SOL    HW132444   4.399   4.051   8.053 -0.4020 -3.2916 -1.7235
 6936SOL    HW232445   4.497   4.134   7.971 -0.6464  0.7472  2.8275
 6937SOL     OW32446   2.624   1.465   2.536 -0.1560 -0.2145 -0.2049
 6937SOL    HW132447   2.690   1.440   2.601 -2.5194 -1.2850  1.7998
 6937SOL    HW232448   2.563   1.391   2.533 -1.2122  0.6300  0.2635
 6938SOL     OW32449   4.373   4.582   9.547 -0.3988  0.4870 -0.3749
 6938SOL    HW132450   4.321   4.649   9.591 -0.4649 -0.1513  0.5141
 6938SOL    HW232451   4.461   4.596   9.583 -0.8534  1.6508  0.2711
 6939SOL     OW32452   0.649   0.025   6.711  0.0631 -0.1661 -0.7611
 6939SOL    HW132453   0.703   0.028   6.632  0.9018  0.2752 -0.1635
 6939SOL    HW232454   0.652   4.676   6.741  2.3873 -0.1360 -0.9324
 6940SOL     OW32455   1.537   2.269  16.357  0.0597  0.5026  0.2207
 6940SOL    HW132456   1.471   2.258  16.289 -1.1208  0.8704  1.3160
 6940SOL    HW232457   1.486   2.276  16.437  0.1073 -0.5877  0.3417
 6941SOL     OW32458   4.178   3.293   6.525 -0.2481 -0.2318 -0.3310
 6941SOL    HW132459   4.179   3.233   6.451  0.6557 -2.2141  1.2882
 6941SOL    HW232460   4.091   3.281   6.562 -0.6256 -0.1033 -1.1738
 6942SOL     OW32461   4.093   4.454  14.676  0.1888  0.8404 -0.0250
 6942SOL    HW132462   4.121   4.365  14.693 -1.7855 -0.0728 -1.4780
 6942SOL    HW232463   4.102   4.456  14.580 -0.8570  0.0335 -0.1397
 6943SOL     OW32464   0.639   1.611   0.666 -0.0616  0.5927 -0.1402
 6943SOL    HW132465   0.710   1.579   0.611  0.8180 -0.0462  1.3580
 6943SOL    HW232466   0.681   1.612   0.752  0.1370 -0.4610 -0.2220
 6944SOL     OW32467   2.540   3.832   1.649  0.2878  0.2789  0.1795
 6944SOL    HW132468   2.524   3.875   1.565  2.3934 -1.2745 -1.0140
 6944SOL    HW232469   2.622   3.873   1.680 -0.2496  1.0310  0.6033
 6945SOL     OW32470   1.697   0.204   5.237 -0.1973 -0.1409  0.2616
 6945SOL    HW132471   1.770   0.141   5.240 -1.2049 -1.2992  0.3217
 6945SOL    HW232472   1.635   0.174   5.304 -0.1970  0.8213  0.6962
 6946SOL     OW32473   4.620   1.169   8.381  0.5905  0.3272  0.6075
 6946SOL    HW132474   4.600   1.123   8.462 -0.7642 -2.6633 -1.4593
 6946SOL    HW232475   4.530   1.176   8.352 -0.0625  1.0541  2.8145
 6947SOL     OW32476   0.686   3.406   7.056  0.1821  0.2721  0.5199
 6947SOL    HW132477   0.626   3.348   7.009  1.2869  0.2548 -0.8425
 6947SOL    HW232478   0.770   3.402   7.012  0.6364 -0.0788  1.4048
 6948SOL     OW32479   1.814   1.620   2.051 -0.6052 -0.1977 -0.2377
 6948SOL    HW132480   1.902   1.656   2.052 -0.9362  0.5738  1.9543
 6948SOL    HW232481   1.774   1.660   2.129 -0.5739 -2.2766  0.8542
 6949SOL     OW32482   0.871   4.655   1.988  0.1729  0.1413  0.2182
 6949SOL    HW132483   0.811   4.703   1.931 -1.4584 -1.2878  0.7366
 6949SOL    HW232484   0.919   4.598   1.928 -0.6306  2.1198 -2.2812
 6950SOL     OW32485   4.092   3.031  12.442 -0.1139  0.3237  0.1929
 6950SOL    HW132486   4.186   3.038  12.428 -0.1490  0.1924 -0.1180
 6950SOL    HW232487   4.082   3.105  12.502 -2.1421  0.2802 -0.0834
 6951SOL     OW32488   2.017   1.673   7.157  0.4813 -0.6553  0.0773
 6951SOL    HW132489   2.007   1.587   7.198 -0.1413 -0.3769  0.5154
 6951SOL    HW232490   1.939   1.711   7.196  1.3502  1.7205 -0.5218
 6952SOL     OW32491   2.255   2.198  13.701  0.0960 -0.1407 -0.3351
 6952SOL    HW132492   2.260   2.280  13.749 -1.3153  0.0005 -0.4215
 6952SOL    HW232493   2.345   2.191  13.671  0.1716 -3.1532  0.5684
 6953SOL     OW32494   0.626   3.929   2.993  0.0618 -0.0354 -0.6026
 6953SOL    HW132495   0.693   3.892   3.050  0.9421  2.0665 -0.2643
 6953SOL    HW232496   0.593   4.007   3.037 -0.9445  0.2011 -1.7530
 6954SOL     OW32497   3.683   2.319   8.731  0.3436 -0.0094 -0.2731
 6954SOL    HW132498   3.736   2.241   8.749  0.7274 -0.0150 -1.4365
 6954SOL    HW232499   3.693   2.331   8.637  1.0257 -0.5994 -0.2790
 6955SOL     OW32500   2.951   2.998   2.747  0.3157 -0.3784  0.3187
 6955SOL    HW132501   3.031   3.022   2.794  1.9877 -3.2500 -1.0475
 6955SOL    HW232502   2.940   3.076   2.693 -0.5076 -2.5224 -2.6136
 6956SOL     OW32503   0.784   3.870   3.227  0.0015 -0.3062  0.9690
 6956SOL    HW132504   0.787   3.784   3.268 -0.0729 -1.2390 -1.0003
 6956SOL    HW232505   0.716   3.907   3.282  2.2089  1.7669  2.3262
 6957SOL     OW32506   4.303   3.279   5.076  0.4305 -0.2135  0.2985
 6957SOL    HW132507   4.217   3.318   5.090  0.5047 -0.0043  0.1865
 6957SOL    HW232508   4.314   3.297   4.983 -0.4861  0.6521  0.3630
 6958SOL     OW32509   0.044   0.452   1.967  0.1222 -0.0884 -0.3705
 6958SOL    HW132510   4.698   0.420   1.948  0.1491  1.1041 -2.4339
 6958SOL    HW232511   0.100   0.375   1.959 -0.5720 -0.8165  1.7422
 6959SOL     OW32512   2.113   0.836  12.281  0.1940  0.2260 -0.4075
 6959SOL    HW132513   2.109   0.786  12.363  1.1632 -0.6101 -0.8649
 6959SOL    HW232514   2.117   0.764  12.218  0.7967 -0.6876  0.6665
 6960SOL     OW32515   2.191   2.539   7.574  0.1654 -1.1407 -0.7293
 6960SOL    HW132516   2.253   2.489   7.627  1.0270  0.6443 -0.0472
 6960SOL    HW232517   2.256   2.572   7.512 -2.1552 -0.3679 -2.7557
 6961SOL     OW32518   3.511   2.213   3.669 -0.0524  0.7230  0.1186
 6961SOL    HW132519   3.513   2.140   3.608 -0.3777  2.2063 -1.6719
 6961SOL    HW232520   3.536   2.167   3.749 -1.2613  0.5728  0.3978
 6962SOL     OW32521   3.189   1.546   3.957  0.3734  0.5996 -0.0137
 6962SOL    HW132522   3.243   1.616   3.992  1.0119 -1.1276  2.3928
 6962SOL    HW232523   3.165   1.499   4.036 -0.1142 -3.1752 -2.3920
 6963SOL     OW32524   4.493   2.530   6.982  0.4776 -0.0845 -0.5802
 6963SOL    HW132525   4.399   2.548   6.975  0.7115  1.2200 -0.4092
 6963SOL    HW232526   4.488   2.509   7.075  0.6943  1.8453 -0.1228
 6964SOL     OW32527   3.452   0.253   2.714  0.0821  0.0160 -0.2510
 6964SOL    HW132528   3.542   0.282   2.696 -0.1045  1.7900  1.6228
 6964SOL    HW232529   3.444   0.181   2.652  0.6413  0.3898 -0.7499
 6965SOL     OW32530   2.648   2.231   2.178  0.3278 -0.3038 -1.3155
 6965SOL    HW132531   2.743   2.228   2.171  0.5922 -1.0119  2.7567
 6965SOL    HW232532   2.642   2.199   2.268  1.7613  0.1066 -1.0855
 6966SOL     OW32533   4.527   2.178   8.756 -0.2155 -0.9908  0.2282
 6966SOL    HW132534   4.454   2.238   8.771 -0.3966 -1.3345  0.6940
 6966SOL    HW232535   4.593   2.244   8.733 -1.1014 -0.2071 -0.0367
 6967SOL     OW32536   1.974   0.965  14.111 -0.1130  0.2507 -0.0144
 6967SOL    HW132537   1.907   1.022  14.149 -0.4619 -1.2209  1.5886
 6967SOL    HW232538   1.918   0.903  14.066 -1.0796  2.6369 -2.0849
 6968SOL     OW32539   0.589   1.437   9.614  0.2090  0.0925 -0.1685
 6968SOL    HW132540   0.517   1.427   9.676  0.2524  1.9992  0.1944
 6968SOL    HW232541   0.664   1.432   9.674 -0.4770  3.0034  0.9568
 6969SOL     OW32542   3.251   3.865   3.475 -0.4105 -0.0763 -0.3447
 6969SOL    HW132543   3.226   3.926   3.544 -1.0678 -0.9415  0.1723
 6969SOL    HW232544   3.244   3.781   3.520  0.6855 -0.6037 -1.1339
 6970SOL     OW32545   1.050   0.459   6.791  0.1329  0.5157 -0.0570
 6970SOL    HW132546   1.024   0.549   6.808  2.1132  0.9329  0.7230
 6970SOL    HW232547   0.990   0.443   6.718  1.4949 -1.8730 -0.6719
 6971SOL     OW32548   4.623   3.503   4.508 -0.3906 -0.6901  0.2938
 6971SOL    HW132549   4.623   3.559   4.586 -3.0969  0.7047 -0.6899
 6971SOL    HW232550   4.626   3.569   4.438  2.5207 -0.4626  0.6507
 6972SOL     OW32551   3.430   1.633   8.654 -0.2886  0.4000  0.2927
 6972SOL    HW132552   3.515   1.640   8.696  0.6100 -0.8381 -1.3224
 6972SOL    HW232553   3.453   1.646   8.563 -2.3122 -1.1878 -0.4645
 6973SOL     OW32554   1.406   0.378   8.307  0.0428 -0.6592  0.0222
 6973SOL    HW132555   1.453   0.321   8.368  0.3932  0.9257  1.2425
 6973SOL    HW232556   1.317   0.361   8.340  0.2182  2.4213  2.1033
 6974SOL     OW32557   4.734   4.224   4.621 -0.0439 -0.2930 -0.0369
 6974SOL    HW132558   4.722   4.294   4.557 -1.6601 -1.9990 -1.5805
 6974SOL    HW232559   0.001   4.148   4.564  1.9900  0.6312 -0.9712
 6975SOL     OW32560   2.981   4.429   8.715 -0.3581 -0.2511  0.2748
 6975SOL    HW132561   2.966   4.512   8.758  0.4216  0.1547 -0.2365
 6975SOL    HW232562   2.888   4.405   8.713 -0.4677  0.2396 -0.5785
 6976SOL     OW32563   3.205   3.526  11.185 -0.2294 -0.4200  0.1282
 6976SOL    HW132564   3.285   3.515  11.134  0.1373  0.5165  0.4875
 6976SOL    HW232565   3.229   3.460  11.249 -2.9092 -1.6744 -0.1579
 6977SOL     OW32566   1.118   1.242   7.007  0.3636 -0.4024 -0.6534
 6977SOL    HW132567   1.160   1.327   7.018 -0.5250  0.0348 -0.6026
 6977SOL    HW232568   1.032   1.282   6.994 -0.6819 -2.5740 -0.5245
 6978SOL     OW32569   3.918   0.554  11.730  0.3753 -0.2672  0.0415
 6978SOL    HW132570   3.883   0.558  11.642 -2.4028  1.8350  1.2322
 6978SOL    HW232571   3.847   0.606  11.769  1.8550  2.0450 -0.3656
 6979SOL     OW32572   0.858   2.562   5.355 -0.3225 -0.2704 -0.1525
 6979SOL    HW132573   0.855   2.478   5.401 -2.0952 -1.3549 -2.2111
 6979SOL    HW232574   0.937   2.601   5.392 -0.8922  0.1906  0.5868
 6980SOL     OW32575   0.705   0.481  14.234 -0.0792  0.0904  0.1273
 6980SOL    HW132576   0.613   0.453  14.232 -0.0615  0.0711 -0.4855
 6980SOL    HW232577   0.705   0.531  14.152 -1.1888 -0.4458 -0.2111
 6981SOL     OW32578   1.546   2.245  12.378  0.0967  0.1517 -0.0862
 6981SOL    HW132579   1.641   2.232  12.380  0.3059  1.4474 -1.9638
 6981SOL    HW232580   1.529   2.293  12.298  0.9597 -0.9354 -0.9153
 6982SOL     OW32581   1.419   2.325  10.428 -0.5535 -0.5360 -0.2207
 6982SOL    HW132582   1.468   2.244  10.415 -1.7046 -1.5219  1.5614
 6982SOL    HW232583   1.479   2.377  10.480 -0.1103  0.0943 -1.3620
 6983SOL     OW32584   4.120   1.341   2.668 -0.8508 -0.5130 -0.3938
 6983SOL    HW132585   4.075   1.369   2.588  1.3691  0.5965 -1.2629
 6983SOL    HW232586   4.040   1.305   2.705 -0.8168  0.0355  0.2117
 6984SOL     OW32587   0.381   3.815  15.505  0.8931 -0.8435 -0.1141
 6984SOL    HW132588   0.370   3.865  15.425 -0.7534 -0.8774  0.0827
 6984SOL    HW232589   0.312   3.863  15.551  2.5010  1.0955  0.2505
 6985SOL     OW32590   2.735   1.647   5.503  0.2301  0.1388 -1.0263
 6985SOL    HW132591   2.680   1.615   5.431  1.8458 -2.0886 -1.2738
 6985SOL    HW232592   2.723   1.738   5.477  2.2795  0.6340 -0.2171
 6986SOL     OW32593   1.562   0.777   3.488 -0.1417  0.8017  0.2803
 6986SOL    HW132594   1.500   0.792   3.560 -1.5943  0.9292 -0.9866
 6986SOL    HW232595   1.575   0.861   3.445 -0.8363  0.4817 -0.5448
 6987SOL     OW32596   0.873   1.955  13.180 -0.1558 -0.0421  0.5034
 6987SOL    HW132597   0.875   1.928  13.088 -0.7416 -0.5262  0.6328
 6987SOL    HW232598   0.918   1.882  13.223 -0.5926  0.1603  1.2922
 6988SOL     OW32599   3.291   3.913  15.374 -0.1657 -0.3134 -0.1186
 6988SOL    HW132600   3.299   3.818  15.362 -0.0911 -0.1333 -1.4672
 6988SOL    HW232601   3.197   3.915  15.355 -0.4451 -3.0199  1.0162
 6989SOL     OW32602   3.952   1.602   6.384  0.3566 -0.2370 -0.0872
 6989SOL    HW132603   3.873   1.549   6.383  1.4005 -1.7802 -0.8698
 6989SOL    HW232604   3.975   1.592   6.292 -0.3952 -0.7613 -0.2154
 6990SOL     OW32605   1.287   3.391   9.246 -0.2129  0.3487 -0.0213
 6990SOL    HW132606   1.299   3.446   9.323  0.4540  0.6582 -0.3487
 6990SOL    HW232607   1.299   3.451   9.172  2.5360 -1.5078 -1.0651
 6991SOL     OW32608   0.573   1.992   5.627  0.5406 -0.0496 -0.4625
 6991SOL    HW132609   0.653   1.945   5.648 -0.6833 -2.2252 -0.6522
 6991SOL    HW232610   0.517   1.918   5.603 -0.4608  0.0432  1.5978
 6992SOL     OW32611   2.796   4.360   5.819  0.2261 -0.2642 -0.2935
 6992SOL    HW132612   2.857   4.310   5.872  1.2969  2.0461  0.6345
 6992SOL    HW232613   2.716   4.317   5.849  0.5019  0.5764  1.6167
 6993SOL     OW32614   2.616   1.247   5.414 -0.9486  0.1510 -0.4948
 6993SOL    HW132615   2.560   1.211   5.345  0.5499 -0.7135 -1.2457
 6993SOL    HW232616   2.561   1.294   5.477  0.2655 -1.1942  1.5995
 6994SOL     OW32617   3.371   0.556   5.919 -0.5373  0.1307 -0.6439
 6994SOL    HW132618   3.441   0.507   5.876 -0.9097 -1.3837  0.4649
 6994SOL    HW232619   3.418   0.607   5.986 -1.8327 -0.7494  0.9546
 6995SOL     OW32620   4.459   2.171   9.160  0.5589  0.2492  0.0048
 6995SOL    HW132621   4.532   2.209   9.209  0.1302  0.7132  0.2892
 6995SOL    HW232622   4.393   2.145   9.224  2.0648 -3.0982  0.1804
 6996SOL     OW32623   0.755   0.312  17.006  0.1829  0.2907  0.4834
 6996SOL    HW132624   0.834   0.357  17.035 -1.3133  2.2530  1.4746
 6996SOL    HW232625   0.747   0.261  17.087  1.9767 -1.1663 -0.2684
 6997SOL     OW32626   3.698   1.487  10.656 -0.1791 -0.1787  0.7936
 6997SOL    HW132627   3.745   1.517  10.733  3.6422  0.0798 -1.6006
 6997SOL    HW232628   3.636   1.430  10.701 -0.3642 -0.3302  0.3559
 6998SOL     OW32629   4.057   2.991   7.471  0.3770  0.4903 -0.3792
 6998SOL    HW132630   4.058   3.084   7.492 -0.1787  0.6085 -0.8841
 6998SOL    HW232631   4.143   2.962   7.503 -0.2842  2.0166  2.7338
 6999SOL     OW32632   1.008   2.865  15.786  0.3013 -0.4654  0.5369
 6999SOL    HW132633   1.070   2.807  15.741 -0.5818  0.6900 -2.1852
 6999SOL    HW232634   0.964   2.811  15.851  2.5473 -4.1311 -0.9719
 7000SOL     OW32635   0.335   3.301   4.813 -1.0502 -0.1425 -0.4047
 7000SOL    HW132636   0.337   3.223   4.868  0.9372 -2.1759 -3.3602
 7000SOL    HW232637   0.376   3.372   4.863  0.1837 -1.2707  0.1996
 7001SOL     OW32638   1.909   2.001   2.337  0.2788  0.6530 -0.4364
 7001SOL    HW132639   1.953   1.919   2.314  0.0024  0.4218 -0.1551
 7001SOL    HW232640   1.836   2.001   2.275 -0.3127 -4.0269  0.2553
 7002SOL     OW32641   0.582   0.086  14.679 -0.0830 -0.1975  0.1991
 7002SOL    HW132642   0.554   0.002  14.641  1.9975 -0.1474 -1.4561
 7002SOL    HW232643   0.660   0.051  14.722 -0.6804  0.1272  1.5400
 7003SOL     OW32644   4.597   2.689   1.248 -0.4950 -0.0894 -0.0560
 7003SOL    HW132645   4.515   2.700   1.199 -0.0993 -1.4485 -1.0189
 7003SOL    HW232646   4.569   2.610   1.294 -0.8929  0.3716  0.4923
 7004SOL     OW32647   0.434   2.390   1.523 -0.4842  0.0241  0.0157
 7004SOL    HW132648   0.515   2.348   1.552  0.4163  2.4062  0.9354
 7004SOL    HW232649   0.452   2.473   1.478 -0.2711  0.3215  0.6511
 7005SOL     OW32650   3.643   1.881   2.099  0.0397 -0.1539  0.7940
 7005SOL    HW132651   3.612   1.804   2.146 -1.2047 -0.2494 -0.1900
 7005SOL    HW232652   3.611   1.869   2.010 -0.1456 -1.9121  1.1146
 7006SOL     OW32653   3.955   1.825   5.712 -0.2695 -0.4306  0.4693
 7006SOL    HW132654   3.947   1.823   5.807 -1.3022 -1.8692  0.3412
 7006SOL    HW232655   3.964   1.732   5.691 -0.0092  0.2017 -2.1464
 7007SOL     OW32656   0.977   2.757   6.789 -0.3073 -0.1766 -0.3457
 7007SOL    HW132657   0.926   2.837   6.797 -1.5588 -1.0449  0.3228
 7007SOL    HW232658   0.935   2.695   6.849  0.1447 -0.0602  0.0872
 7008SOL     OW32659   1.338   4.710   2.809  0.6761 -0.1157  0.1746
 7008SOL    HW132660   1.259   4.695   2.861  0.2010  1.0886 -0.1866
 7008SOL    HW232661   1.331   0.060   2.784 -1.1821  0.2862  2.1825
 7009SOL     OW32662   2.775   1.336   4.502 -0.0845 -0.9305  0.0837
 7009SOL    HW132663   2.728   1.282   4.565  0.1201 -0.2694  0.8165
 7009SOL    HW232664   2.718   1.335   4.426 -1.5317 -0.3207  1.1516
 7010SOL     OW32665   3.624   1.863   4.047  0.2379 -0.5048  0.1731
 7010SOL    HW132666   3.609   1.876   4.140 -1.7030 -0.1825 -0.1655
 7010SOL    HW232667   3.672   1.781   4.044  2.3744  0.6999  2.2717
 7011SOL     OW32668   3.848   1.094   1.182  0.1853 -0.5633  0.2866
 7011SOL    HW132669   3.925   1.094   1.238  0.0918 -0.9763  0.4143
 7011SOL    HW232670   3.777   1.107   1.244  0.8970 -1.5259  1.3148
 7012SOL     OW32671   2.958   1.234   3.154 -0.0218  0.0912  0.4760
 7012SOL    HW132672   3.024   1.167   3.135 -1.2593 -1.2518  0.8787
 7012SOL    HW232673   2.947   1.278   3.070 -1.0828 -0.7587  0.1728
 7013SOL     OW32674   2.727   3.844  15.245  0.3217  0.3918 -0.5348
 7013SOL    HW132675   2.672   3.805  15.176 -0.5824 -1.7933  1.4439
 7013SOL    HW232676   2.765   3.911  15.188  2.8603 -1.1729 -0.6626
 7014SOL     OW32677   4.225   0.501   7.017 -0.5104  0.2285 -0.0620
 7014SOL    HW132678   4.219   0.437   7.088  3.4211  0.5576  0.5871
 7014SOL    HW232679   4.136   0.535   7.018 -1.0451 -1.1713 -0.3214
 7015SOL     OW32680   2.380   2.929   5.146  0.2248  0.5368 -0.2640
 7015SOL    HW132681   2.400   2.848   5.099  0.3895  1.1167 -1.1983
 7015SOL    HW232682   2.306   2.901   5.200  1.6134 -2.4041  0.1114
 7016SOL     OW32683   1.485   0.152  14.742 -0.1804 -0.2299  0.8989
 7016SOL    HW132684   1.549   0.194  14.799  0.3018  0.9751 -0.5210
 7016SOL    HW232685   1.487   0.060  14.768  1.6369 -0.6292 -0.6541
 7017SOL     OW32686   3.898   3.978   9.252  0.0574 -0.4201 -0.1563
 7017SOL    HW132687   3.958   3.903   9.260 -1.9393 -2.3182 -2.6749
 7017SOL    HW232688   3.816   3.929   9.252  0.0555 -0.4185  0.1257
 7018SOL     OW32689   0.497   1.353   6.917 -0.1911 -0.0840 -0.2585
 7018SOL    HW132690   0.558   1.353   6.991 -2.9082  1.8984  1.9711
 7018SOL    HW232691   0.498   1.446   6.894  0.4144  0.3342  1.4372
 7019SOL     OW32692   4.539   2.576   6.505 -0.1290 -0.0009  0.2892
 7019SOL    HW132693   4.553   2.506   6.569  2.7863 -1.1973 -1.6363
 7019SOL    HW232694   4.482   2.526   6.445 -0.4396  1.0221 -0.2595
 7020SOL     OW32695   1.889   4.610   2.332  0.2142 -0.4646  0.4772
 7020SOL    HW132696   1.812   4.663   2.313  0.6067 -0.2877 -0.5611
 7020SOL    HW232697   1.964   4.662   2.305 -0.6990  0.4181 -0.2996
 7021SOL     OW32698   4.548   3.838   7.883  0.1516 -0.2047  0.3759
 7021SOL    HW132699   4.611   3.859   7.814 -1.1799  1.8953 -0.1899
 7021SOL    HW232700   4.505   3.923   7.894 -0.0190 -0.2788  0.2678
 7022SOL     OW32701   0.054   3.130   5.182 -0.7690  0.0484 -0.1647
 7022SOL    HW132702   4.716   3.138   5.130  0.2980  0.0989 -1.7829
 7022SOL    HW232703   0.016   3.119   5.270  0.4475 -0.3103  0.3159
 7023SOL     OW32704   0.332   2.484   5.591  0.4225 -0.1677 -0.2960
 7023SOL    HW132705   0.243   2.518   5.603  0.2089 -0.1907 -1.8897
 7023SOL    HW232706   0.341   2.425   5.666  0.1979  0.4751  0.2313
 7024SOL     OW32707   2.274   0.332   4.456  0.2599  0.1752  0.4425
 7024SOL    HW132708   2.198   0.367   4.501  0.5493  2.7069 -1.0558
 7024SOL    HW232709   2.264   0.396   4.386 -1.1987  1.1909  1.5844
 7025SOL     OW32710   3.931   4.628   1.014  0.8779 -0.0385 -0.0810
 7025SOL    HW132711   3.943   4.536   1.036 -0.1897 -0.2799 -0.5334
 7025SOL    HW232712   3.838   4.637   1.034  0.7549  1.2234 -1.1957
 7026SOL     OW32713   4.683   2.666   6.847  0.0336  0.0660  0.2518
 7026SOL    HW132714   4.609   2.617   6.884 -2.1118  3.3581  0.4076
 7026SOL    HW232715   4.718   2.703   6.928  0.7466 -2.8596  1.2557
 7027SOL     OW32716   4.193   3.277   9.189 -0.2619  0.1584  0.3412
 7027SOL    HW132717   4.228   3.322   9.265 -1.0403  2.9493 -0.9346
 7027SOL    HW232718   4.261   3.292   9.123  1.7474 -2.7888  1.7442
 7028SOL     OW32719   3.175   3.633   6.582  0.2182 -0.1497  0.1227
 7028SOL    HW132720   3.208   3.722   6.596  0.3884 -0.2706  0.5047
 7028SOL    HW232721   3.227   3.577   6.639  1.4697  0.9066  0.0034
 7029SOL     OW32722   2.044   2.818  12.267 -0.2746 -0.2419 -0.6553
 7029SOL    HW132723   1.971   2.879  12.273 -0.8233 -1.0423  0.7450
 7029SOL    HW232724   2.053   2.791  12.358 -0.0105  1.7426 -0.0945
 7030SOL     OW32725   3.386   4.305   6.927 -0.4313 -0.4154  0.6465
 7030SOL    HW132726   3.455   4.338   6.985 -0.0788  2.1499 -1.2687
 7030SOL    HW232727   3.372   4.381   6.872 -1.0481  0.3093  1.8030
 7031SOL     OW32728   3.562   0.054   8.775 -0.1225  0.1166  0.1687
 7031SOL    HW132729   3.479   0.011   8.795 -0.8826  1.2656 -0.5172
 7031SOL    HW232730   3.577   0.117   8.845 -0.0582  0.0568  0.2091
 7032SOL     OW32731   4.416   1.542   7.048 -0.3653  0.1281  0.3826
 7032SOL    HW132732   4.435   1.606   6.980  0.2468 -0.1680  0.2789
 7032SOL    HW232733   4.346   1.489   7.009 -0.9557  2.0877 -1.2030
 7033SOL     OW32734   1.495   2.393  17.264 -0.3470 -0.4515  0.2170
 7033SOL    HW132735   1.544   2.413  17.184 -1.6522  0.5755 -0.3231
 7033SOL    HW232736   1.555   2.331  17.305  0.9760  1.1839  0.7854
 7034SOL     OW32737   2.277   3.651   6.992  0.0505  0.0698  0.0351
 7034SOL    HW132738   2.323   3.643   6.908  1.9638 -0.4029  1.1159
 7034SOL    HW232739   2.283   3.562   7.027 -0.8494  0.5902  1.5244
 7035SOL     OW32740   2.295   0.053   2.063 -0.2341 -0.0733 -0.2702
 7035SOL    HW132741   2.256   0.081   1.980 -2.2583  0.8347  0.9984
 7035SOL    HW232742   2.314   4.703   2.042 -1.6889 -0.4337 -0.0152
 7036SOL     OW32743   1.262   3.868   3.161  0.7539  0.1500 -0.5139
 7036SOL    HW132744   1.305   3.791   3.197  2.1613  2.8025  3.4988
 7036SOL    HW232745   1.320   3.878   3.085  1.6321 -1.7683 -0.0946
 7037SOL     OW32746   4.603   1.945  11.593 -0.1140 -0.1664  0.5315
 7037SOL    HW132747   4.615   1.924  11.501  1.5922  1.0823  0.4709
 7037SOL    HW232748   4.695   1.959  11.613 -0.6271  1.2460  1.9698
 7038SOL     OW32749   1.067   1.126   5.409  0.1794 -0.1825 -0.1333
 7038SOL    HW132750   1.001   1.196   5.414 -0.7666 -1.1039  0.2763
 7038SOL    HW232751   1.033   1.067   5.475  2.1131 -0.4530  0.6185
 7039SOL     OW32752   3.461   4.281   9.617  0.0984  0.0247 -0.1903
 7039SOL    HW132753   3.405   4.269   9.541  0.9851 -1.3878 -0.6139
 7039SOL    HW232754   3.528   4.339   9.580 -0.6872  1.3027  0.3856
 7040SOL     OW32755   1.614   2.397   2.118  0.2591  0.2720  0.4946
 7040SOL    HW132756   1.607   2.401   2.213 -0.1835  4.9151  0.2570
 7040SOL    HW232757   1.539   2.340   2.106  0.6743  0.0080 -0.8195
 7041SOL     OW32758   1.284   3.426   2.402  0.1946 -0.3157 -0.0542
 7041SOL    HW132759   1.372   3.390   2.389  1.1039  1.7334  0.4604
 7041SOL    HW232760   1.299   3.482   2.477 -2.2359 -0.1563  0.3163
 7042SOL     OW32761   1.177   2.460   1.972 -0.4303 -0.1574  0.5344
 7042SOL    HW132762   1.131   2.430   1.894 -1.6936  2.0167  0.4258
 7042SOL    HW232763   1.106   2.442   2.033 -0.1036 -3.1525  0.0292
 7043SOL     OW32764   0.877   1.601   8.676  0.0040 -0.3211  0.1487
 7043SOL    HW132765   0.917   1.623   8.591 -0.5447 -0.2637 -0.0944
 7043SOL    HW232766   0.887   1.506   8.680  2.8560 -0.1261 -2.1286
 7044SOL     OW32767   1.761   2.764   3.692 -0.1201 -0.2303 -0.2236
 7044SOL    HW132768   1.676   2.736   3.660 -1.4561  1.7577  1.5990
 7044SOL    HW232769   1.741   2.819   3.768  0.6282  1.2806 -1.1142
 7045SOL     OW32770   2.964   1.854   5.386 -0.3500  0.1235  1.0408
 7045SOL    HW132771   3.027   1.847   5.314 -1.0618 -2.4949  0.6538
 7045SOL    HW232772   2.882   1.882   5.345 -1.3596 -2.1959  1.4928
 7046SOL     OW32773   3.953   1.947   6.673 -0.0247  0.2010 -0.0652
 7046SOL    HW132774   4.019   1.877   6.670 -2.0356 -1.6999  0.0601
 7046SOL    HW232775   3.984   2.020   6.727 -1.3567  1.3219 -0.8133
 7047SOL     OW32776   3.002   3.864   3.049 -0.4881 -0.4507  0.2374
 7047SOL    HW132777   2.977   3.912   2.969 -0.8495 -2.4827 -0.8807
 7047SOL    HW232778   3.002   3.934   3.114 -0.2579 -0.9269  0.7430
 7048SOL     OW32779   2.285   3.369  15.229 -0.5178  0.1109  0.3357
 7048SOL    HW132780   2.213   3.313  15.201 -0.3911  0.2348 -0.2267
 7048SOL    HW232781   2.249   3.457  15.225  0.1968  0.3886  0.0054
 7049SOL     OW32782   4.462   0.503   2.749 -0.5074 -0.4776 -0.4467
 7049SOL    HW132783   4.406   0.549   2.687  1.1573  3.2293  0.8008
 7049SOL    HW232784   4.446   0.560   2.823  1.0170  0.6454 -0.9812
 7050SOL     OW32785   0.416   0.022  11.637 -0.3555 -0.8987 -0.5461
 7050SOL    HW132786   0.473   4.724  11.571  1.7356  1.9941 -0.5107
 7050SOL    HW232787   0.475   0.095  11.655 -0.3239 -1.5671  2.0672
 7051SOL     OW32788   3.359   1.282  11.062 -0.0201  0.5292  0.5169
 7051SOL    HW132789   3.264   1.280  11.072  0.0444 -0.9049  0.7955
 7051SOL    HW232790   3.396   1.291  11.150 -2.1712  2.2181  1.2314
 7052SOL     OW32791   1.036   2.736  14.433 -0.5128 -0.6104 -0.5757
 7052SOL    HW132792   1.005   2.826  14.430 -0.0555 -0.4096  0.5682
 7052SOL    HW232793   0.974   2.696  14.494  0.3990 -0.6469  0.3249
 7053SOL     OW32794   3.422   3.540  16.079  0.3052 -0.2876  0.1779
 7053SOL    HW132795   3.377   3.549  15.995  1.8008 -3.2151 -0.9156
 7053SOL    HW232796   3.482   3.615  16.076 -0.1186 -0.0745 -3.0158
 7054SOL     OW32797   4.184   4.334   7.837  0.3608  0.5122 -0.6093
 7054SOL    HW132798   4.221   4.398   7.776 -0.2987  1.2421 -0.2490
 7054SOL    HW232799   4.176   4.392   7.912 -1.1997 -1.0518  0.4448
 7055SOL     OW32800   3.279   0.520   9.193 -0.6563  0.0567  0.8621
 7055SOL    HW132801   3.211   0.472   9.145  0.8868 -2.6320  1.3240
 7055SOL    HW232802   3.236   0.603   9.211 -0.5148  0.7497 -1.9841
 7056SOL     OW32803   4.677   3.760   5.096  0.1243 -0.4997  0.1957
 7056SOL    HW132804   4.742   3.693   5.120 -0.2344 -0.2505  1.8298
 7056SOL    HW232805   4.673   3.810   5.177 -1.2162 -1.1205  0.5079
 7057SOL     OW32806   1.487   2.380   6.379  0.6682  0.0775 -0.1741
 7057SOL    HW132807   1.405   2.424   6.357  1.3516  1.1035 -0.6817
 7057SOL    HW232808   1.455   2.352   6.465  1.9977 -1.1679 -0.0700
 7058SOL     OW32809   0.278   3.004   4.358 -0.8132 -0.5229 -0.6252
 7058SOL    HW132810   0.218   3.000   4.432 -1.0505  0.8589 -0.7408
 7058SOL    HW232811   0.353   2.952   4.386  0.2033  1.7518  0.8506
 7059SOL     OW32812   3.443   0.381   5.525 -0.2912  0.3625 -0.0213
 7059SOL    HW132813   3.451   0.315   5.594  0.4401 -0.6705 -1.1032
 7059SOL    HW232814   3.524   0.430   5.523 -0.0982  0.0512  0.0767
 7060SOL     OW32815   0.830   1.194   9.926  0.2504 -0.3938 -0.5545
 7060SOL    HW132816   0.783   1.125   9.973 -0.0496  0.9248  1.0723
 7060SOL    HW232817   0.866   1.143   9.853  0.3791  1.1204 -1.5388
 7061SOL     OW32818   3.466   4.193  10.929  0.1190 -0.0258 -0.2031
 7061SOL    HW132819   3.426   4.261  10.983  0.7946 -0.1423  0.4512
 7061SOL    HW232820   3.555   4.229  10.927 -0.9202  2.5190 -0.9004
 7062SOL     OW32821   3.915   1.858  16.865  0.2802  0.1892  0.0183
 7062SOL    HW132822   3.985   1.914  16.830 -0.0201 -0.8491 -2.2509
 7062SOL    HW232823   3.941   1.843  16.956 -0.5801 -1.1100  0.0418
 7063SOL     OW32824   3.505   3.295  16.095  0.0100 -0.0549  0.1330
 7063SOL    HW132825   3.477   3.386  16.106 -0.9075 -0.3703  0.4352
 7063SOL    HW232826   3.556   3.291  16.014  1.5412 -2.1125  1.2111
 7064SOL     OW32827   0.066   3.262  11.108 -0.4632  0.5470 -0.0392
 7064SOL    HW132828   0.097   3.189  11.162  1.8222  1.5969  0.0618
 7064SOL    HW232829   4.714   3.245  11.104  0.1880 -2.7297 -2.1970
 7065SOL     OW32830   4.691   3.234   6.817  0.4565 -0.0336  0.1857
 7065SOL    HW132831   4.605   3.193   6.828 -0.3414  2.2038  2.2846
 7065SOL    HW232832   4.698   3.316   6.864 -0.9219  0.8360 -1.1100
 7066SOL     OW32833   3.636   3.006   4.302  0.5247  0.0625 -0.5021
 7066SOL    HW132834   3.665   3.008   4.211 -0.4417 -0.2891 -0.8208
 7066SOL    HW232835   3.611   2.914   4.312 -0.2553  0.2378 -0.7757
 7067SOL     OW32836   3.774   4.192   9.324 -0.3811  0.7196  0.4098
 7067SOL    HW132837   3.841   4.125   9.311  0.9590  2.0739  0.3663
 7067SOL    HW232838   3.755   4.179   9.417  0.2421  1.4034  0.6304
 7068SOL     OW32839   1.525   1.285   9.812 -0.6244  0.3052  0.9955
 7068SOL    HW132840   1.466   1.343   9.765  1.9970  0.1753 -2.4874
 7068SOL    HW232841   1.610   1.314   9.780  0.2273 -0.0732  2.9059
 7069SOL     OW32842   0.733   1.100   7.145 -0.1735  0.2639 -0.0743
 7069SOL    HW132843   0.772   1.183   7.116  4.4268 -1.5415  0.9194
 7069SOL    HW232844   0.700   1.102   7.234  0.1161 -0.6030  0.0580
 7070SOL     OW32845   3.088   0.790  14.504  0.0515 -0.1571 -0.6663
 7070SOL    HW132846   3.053   0.871  14.541  0.8220 -1.2035  2.4237
 7070SOL    HW232847   3.090   0.803  14.410 -0.6651  0.4947 -0.5920
 7071SOL     OW32848   0.432   0.126  13.647 -0.1210 -0.1678 -0.4769
 7071SOL    HW132849   0.365   0.076  13.691 -0.2908  2.6016  2.3981
 7071SOL    HW232850   0.449   0.189  13.717  0.6143 -0.8798 -0.0125
 7072SOL     OW32851   3.093   1.765   2.626 -0.4827 -0.3533  0.2597
 7072SOL    HW132852   3.108   1.803   2.540 -3.5376 -2.4409 -1.2133
 7072SOL    HW232853   3.024   1.702   2.601  0.4185 -1.5080  0.6988
 7073SOL     OW32854   3.017   0.174   8.763  0.2112 -0.0077  0.3902
 7073SOL    HW132855   3.088   0.238   8.764  0.2169 -0.0129  0.3267
 7073SOL    HW232856   2.957   0.222   8.820 -2.2943 -1.3728 -1.1121
 7074SOL     OW32857   2.796   3.703   5.078 -0.3994 -0.3662 -0.5096
 7074SOL    HW132858   2.784   3.769   5.010  0.8844  0.4243  0.0373
 7074SOL    HW232859   2.890   3.687   5.086 -0.3604 -1.0550 -2.2158
 7075SOL     OW32860   2.957   2.598   1.952 -0.2619 -0.5610 -0.2101
 7075SOL    HW132861   2.870   2.560   1.938 -1.1765  1.0371  1.1274
 7075SOL    HW232862   2.959   2.679   1.901 -0.9549  0.8515  2.0108
 7076SOL     OW32863   3.666   3.983   6.921  0.1881  0.7826 -0.2737
 7076SOL    HW132864   3.673   4.066   6.968 -1.7722 -0.2798  1.8716
 7076SOL    HW232865   3.757   3.972   6.892  0.0901  1.0558 -0.6750
 7077SOL     OW32866   4.598   2.874  17.404  0.0689 -0.2625  0.0048
 7077SOL    HW132867   4.598   2.958  17.359 -3.1625 -0.5654 -0.6257
 7077SOL    HW232868   4.528   2.894  17.466 -0.5742  0.4063 -0.9387
 7078SOL     OW32869   3.255   1.491   5.570 -0.3759  0.0965 -0.0087
 7078SOL    HW132870   3.183   1.547   5.542 -0.1963  0.1753 -0.3229
 7078SOL    HW232871   3.326   1.540   5.528  0.5632 -0.9970  0.2883
 7079SOL     OW32872   3.617   2.871   2.074  0.0079 -0.0393  0.3215
 7079SOL    HW132873   3.630   2.844   1.984 -1.6797  1.1185 -0.2781
 7079SOL    HW232874   3.680   2.820   2.124 -0.2728 -1.0574 -0.3727
 7080SOL     OW32875   1.130   4.730   0.945 -0.1034 -0.8398  0.7761
 7080SOL    HW132876   1.106   4.662   0.882 -0.0472 -2.3161  2.3459
 7080SOL    HW232877   1.215   4.701   0.978 -1.0199 -3.8454  0.4507
 7081SOL     OW32878   0.094   0.121  13.533  0.2031  0.3452 -0.2922
 7081SOL    HW132879   0.120   0.077  13.613  1.1662 -0.1474 -0.8697
 7081SOL    HW232880   0.123   0.209  13.557 -1.5722  0.7324  0.4285
 7082SOL     OW32881   0.126   1.394   9.203 -0.8138  0.4124  0.7313
 7082SOL    HW132882   0.134   1.484   9.234 -0.4697  0.5809  0.1492
 7082SOL    HW232883   0.163   1.405   9.116 -4.0852 -0.0511 -0.7100
 7083SOL     OW32884   0.018   1.849   3.225  0.2295 -0.5929 -0.2273
 7083SOL    HW132885   4.690   1.832   3.162  0.8534  2.0157 -1.6669
 7083SOL    HW232886   4.714   1.852   3.308 -1.3436 -0.6358 -1.0914
 7084SOL     OW32887   3.703   1.515  16.507  0.1326  0.1077 -0.3017
 7084SOL    HW132888   3.618   1.513  16.551 -0.0021 -0.3821 -0.5936
 7084SOL    HW232889   3.758   1.575  16.558 -1.1385 -0.8352  2.1714
 7085SOL     OW32890   2.287   2.396   3.499  0.4387 -0.2958  0.0406
 7085SOL    HW132891   2.353   2.375   3.565  0.1135 -0.9352  0.1637
 7085SOL    HW232892   2.309   2.487   3.482  0.2905 -0.3007 -0.1764
 7086SOL     OW32893   0.251   2.640  15.847  0.1390 -0.0477  0.3904
 7086SOL    HW132894   0.313   2.668  15.780 -0.4958 -0.0376 -0.1956
 7086SOL    HW232895   0.318   2.596  15.899 -0.1166  0.1303  0.8732
 7087SOL     OW32896   4.278   2.804   6.380 -0.3677  0.2610  0.2674
 7087SOL    HW132897   4.207   2.853   6.422 -2.7428 -0.9219 -2.3443
 7087SOL    HW232898   4.263   2.718   6.420 -0.5214 -0.1425 -0.6469
 7088SOL     OW32899   0.537   3.610   6.698 -0.3535  0.2368  0.1380
 7088SOL    HW132900   0.535   3.619   6.603 -3.0450  0.1859  0.1838
 7088SOL    HW232901   0.493   3.684   6.740  0.0121  0.7307 -0.3475
 7089SOL     OW32902   2.362   2.056   6.580 -0.1630 -0.0460  0.2501
 7089SOL    HW132903   2.310   1.978   6.597 -1.4892  0.4429 -1.6482
 7089SOL    HW232904   2.448   2.014   6.583  0.9289  2.1576  0.2040
 7090SOL     OW32905   3.212   1.116   6.662 -0.5627 -0.3920 -0.5604
 7090SOL    HW132906   3.129   1.164   6.655  0.8523  1.7477 -2.6827
 7090SOL    HW232907   3.202   1.047   6.597  1.5085  0.2051 -1.5200
 7091SOL     OW32908   2.087   1.479   4.319 -0.1563 -0.3190 -0.7627
 7091SOL    HW132909   2.118   1.411   4.260 -0.9438 -0.6794 -0.7468
 7091SOL    HW232910   2.169   1.516   4.353 -0.6514  0.6913 -0.6507
 7092SOL     OW32911   0.506   0.411   2.394  0.1528  0.0857 -0.1516
 7092SOL    HW132912   0.461   0.429   2.311 -0.1868 -1.1556 -0.2415
 7092SOL    HW232913   0.509   0.316   2.382 -0.6327  0.1408 -0.7943
 7093SOL     OW32914   2.514   3.184   0.920 -0.0212 -0.1882 -1.1301
 7093SOL    HW132915   2.449   3.239   0.964  1.5419  0.6966  0.0488
 7093SOL    HW232916   2.587   3.197   0.980 -1.0619 -2.3905  0.6058
 7094SOL     OW32917   0.819   1.600   2.933  0.6534 -0.0861 -0.5257
 7094SOL    HW132918   0.811   1.695   2.920  1.8248  0.1509  0.4521
 7094SOL    HW232919   0.881   1.595   3.006  1.2077  3.0398 -0.7785
 7095SOL     OW32920   4.494   1.245   6.994 -0.1950  0.0580  0.2900
 7095SOL    HW132921   4.578   1.282   6.967  0.8989 -2.6109  0.1039
 7095SOL    HW232922   4.436   1.319   6.975 -1.5294 -0.6994  1.4559
 7096SOL     OW32923   4.530   3.984  12.397  0.1046 -0.1841  0.0589
 7096SOL    HW132924   4.607   4.014  12.348 -1.2340  0.2985 -1.7791
 7096SOL    HW232925   4.491   4.070  12.414  1.9625  0.2190  2.1828
 7097SOL     OW32926   2.519   2.007   6.269  0.1869  0.0814 -0.2345
 7097SOL    HW132927   2.427   1.988   6.251  0.2609 -1.3496  0.9797
 7097SOL    HW232928   2.551   1.919   6.286 -2.2173 -0.3960  1.7419
 7098SOL     OW32929   2.362   1.643  10.367  0.5060 -0.2123  0.0934
 7098SOL    HW132930   2.389   1.734  10.352 -3.2137  0.7012 -1.0019
 7098SOL    HW232931   2.272   1.648  10.336  0.7929  0.8004 -0.5975
 7099SOL     OW32932   2.155   4.612   1.173 -0.0546  0.1732  0.3301
 7099SOL    HW132933   2.209   4.654   1.105 -1.1900 -0.8130 -1.1935
 7099SOL    HW232934   2.190   4.651   1.253  3.7384  0.8853 -1.6970
 7100SOL     OW32935   0.923   2.114   2.694 -0.1907 -0.2210 -0.0213
 7100SOL    HW132936   0.940   2.170   2.769  2.3727  0.2020 -0.9361
 7100SOL    HW232937   1.007   2.080   2.663  0.7407  0.4756  1.7243
 7101SOL     OW32938   4.453   1.278   7.976  0.4124 -0.0532  0.0180
 7101SOL    HW132939   4.368   1.236   7.965 -0.7117  2.3349 -0.5625
 7101SOL    HW232940   4.425   1.370   7.981  0.6708 -0.0483  1.4184
 7102SOL     OW32941   2.174   2.056   7.099  0.5618 -0.0915  0.0125
 7102SOL    HW132942   2.169   2.043   7.004 -0.4547 -0.1016  0.0690
 7102SOL    HW232943   2.254   2.108   7.101  0.6379 -0.4384  4.3359
 7103SOL     OW32944   1.995   1.811   3.659 -0.2358 -0.2934  0.7277
 7103SOL    HW132945   2.019   1.782   3.571  1.1023 -1.5285  1.4973
 7103SOL    HW232946   2.078   1.858   3.671 -0.6377  0.7295 -0.4938
 7104SOL     OW32947   1.134   2.807   1.854 -0.1013 -0.6870 -0.1320
 7104SOL    HW132948   1.146   2.868   1.926  0.3060  1.1547 -1.7494
 7104SOL    HW232949   1.045   2.787   1.884 -0.7624 -1.8808 -2.8991
 7105SOL     OW32950   0.394   1.396   9.814  0.5103 -0.1703  0.2540
 7105SOL    HW132951   0.312   1.350   9.834 -0.7594  1.8409 -0.2706
 7105SOL    HW232952   0.462   1.347   9.861  0.1832 -0.3422  0.5569
 7106SOL     OW32953   1.865   3.714  14.639  0.2398  0.0569  0.4157
 7106SOL    HW132954   1.937   3.685  14.583 -0.4797  0.0180 -0.4833
 7106SOL    HW232955   1.877   3.646  14.705 -0.5605  1.4295  1.9652
 7107SOL     OW32956   3.723   0.477  13.646  0.1306  0.4897 -0.8300
 7107SOL    HW132957   3.789   0.413  13.672  1.1933  1.3215 -1.4939
 7107SOL    HW232958   3.642   0.433  13.670  1.7582 -2.0485 -0.0280
 7108SOL     OW32959   1.283   2.666   8.412 -0.2215 -0.0893  0.3702
 7108SOL    HW132960   1.268   2.626   8.497  0.2378 -1.1660 -0.0520
 7108SOL    HW232961   1.191   2.668   8.387 -0.5585 -0.7840  1.5542
 7109SOL     OW32962   2.499   1.747   5.333  0.3494 -0.6578  0.0764
 7109SOL    HW132963   2.416   1.704   5.353  0.8031 -1.2421  0.7004
 7109SOL    HW232964   2.520   1.710   5.247  1.5349 -0.2683  0.1984
 7110SOL     OW32965   1.274   2.527   1.505  0.2119 -0.1877  0.1069
 7110SOL    HW132966   1.292   2.607   1.554 -1.9724 -1.5208  3.1195
 7110SOL    HW232967   1.295   2.548   1.414  2.2148 -0.5721  0.4791
 7111SOL     OW32968   1.431   4.222  12.996  0.0080  0.2661 -0.0238
 7111SOL    HW132969   1.365   4.181  12.940  0.5992 -1.8124  0.7853
 7111SOL    HW232970   1.467   4.289  12.938 -0.7661  1.0960  0.4580
 7112SOL     OW32971   1.119   3.627   6.653  0.1585  0.5301 -0.1386
 7112SOL    HW132972   1.165   3.706   6.626  0.8918  0.5506  1.1630
 7112SOL    HW232973   1.102   3.659   6.741  0.1605  0.2517 -0.0365
 7113SOL     OW32974   1.350   3.782   6.061 -0.3620 -0.0953 -0.2426
 7113SOL    HW132975   1.288   3.711   6.076  0.6433 -0.4923  2.0186
 7113SOL    HW232976   1.364   3.812   6.150  0.6446  0.5062 -0.6077
 7114SOL     OW32977   2.411   3.980   9.558 -0.2951 -0.0948  0.0231
 7114SOL    HW132978   2.321   3.952   9.541 -0.3349 -0.4498  0.8445
 7114SOL    HW232979   2.402   4.068   9.520 -3.1589 -0.1921  0.4733
 7115SOL     OW32980   0.996   2.651   3.801 -0.2115 -0.3770  0.4824
 7115SOL    HW132981   1.033   2.623   3.885  1.9444  1.4030  0.1172
 7115SOL    HW232982   0.977   2.744   3.811 -1.5005 -0.6216  0.4165
 7116SOL     OW32983   0.708   3.342   8.869 -0.0865 -0.4887 -0.5145
 7116SOL    HW132984   0.665   3.371   8.789 -0.1743 -0.8501 -0.5984
 7116SOL    HW232985   0.656   3.262   8.882  0.1315 -0.2935  1.5506
 7117SOL     OW32986   2.596   3.649  17.460  0.4359  0.1556 -0.5804
 7117SOL    HW132987   2.596   3.553  17.465  1.8878  0.1997  0.2649
 7117SOL    HW232988   2.507   3.684  17.460  0.8053  1.0985 -1.5798
 7118SOL     OW32989   2.415   1.276  14.969  0.1045 -0.3016 -0.0125
 7118SOL    HW132990   2.505   1.298  14.994  0.6542  1.5527 -3.5839
 7118SOL    HW232991   2.418   1.321  14.884 -0.3658 -1.3725 -0.5979
 7119SOL     OW32992   0.523   1.986   2.233 -0.5024 -0.8152  0.5851
 7119SOL    HW132993   0.468   1.988   2.311 -0.2062  0.3649  0.7739
 7119SOL    HW232994   0.608   1.964   2.271 -0.9822 -3.1982  0.2826
 7120SOL     OW32995   2.222   1.088   1.563  1.0091  0.0057 -0.1256
 7120SOL    HW132996   2.263   1.147   1.499  0.9885 -0.1518 -0.2855
 7120SOL    HW232997   2.226   1.004   1.516  0.9635  1.2310 -2.3555
 7121SOL     OW32998   3.924   0.971   4.919 -0.0918 -0.1368 -0.4268
 7121SOL    HW132999   4.004   0.922   4.938  0.3860  1.2221  1.0590
 7121SOL    HW233000   3.965   1.051   4.885  1.3435 -0.5461  0.3587
 7122SOL     OW33001   4.111   1.949   9.243  0.5615 -0.3689  0.4755
 7122SOL    HW133002   4.142   2.039   9.245  1.3171 -0.5681 -2.6555
 7122SOL    HW233003   4.200   1.914   9.238  0.2563 -1.3347  1.8518
 7123SOL     OW33004   2.359   0.344   1.815  0.1956  0.1950  0.3598
 7123SOL    HW133005   2.366   0.413   1.749 -0.7333 -1.1482 -1.1569
 7123SOL    HW233006   2.264   0.343   1.831 -0.1994 -0.6830 -1.9509
 7124SOL     OW33007   0.978   2.188   7.553 -0.1391 -0.3300  0.1020
 7124SOL    HW133008   0.947   2.172   7.642  1.5049 -0.3955  0.6653
 7124SOL    HW233009   0.919   2.259   7.528 -3.8952 -3.2903  0.4152
 7125SOL     OW33010   4.650   3.807   8.138  0.1187 -0.9992  0.9173
 7125SOL    HW133011   4.581   3.837   8.197 -2.1761 -0.9268 -1.8065
 7125SOL    HW233012   4.609   3.803   8.052 -0.2329 -1.6417  1.1130
 7126SOL     OW33013   3.346   0.600  17.064  0.0529  0.2246  0.1932
 7126SOL    HW133014   3.327   0.567  16.976  1.5778 -0.8990  0.2872
 7126SOL    HW233015   3.253   0.615  17.081 -0.4808 -2.1697 -0.5288
 7127SOL     OW33016   2.278   3.399   4.582  0.0438 -0.2706  0.7222
 7127SOL    HW133017   2.192   3.434   4.604  0.6671  0.3069  2.2600
 7127SOL    HW233018   2.319   3.485   4.573 -2.0339  0.6954  0.4309
 7128SOL     OW33019   0.999   3.556   8.837 -0.1838 -0.4275  0.3615
 7128SOL    HW133020   0.920   3.512   8.804  0.3910 -0.0042 -1.5419
 7128SOL    HW233021   0.970   3.647   8.830 -0.8639 -0.6431  0.3409
 7129SOL     OW33022   1.860   3.544   5.432 -0.2833  0.1138  0.1555
 7129SOL    HW133023   1.891   3.471   5.379 -0.1271 -1.4065  2.3046
 7129SOL    HW233024   1.776   3.573   5.398 -1.1103 -0.0372  2.0685
 7130SOL     OW33025   2.281   3.284   2.614 -0.0279  0.0641  0.1144
 7130SOL    HW133026   2.356   3.342   2.603 -0.6542  1.1412  1.3706
 7130SOL    HW233027   2.212   3.349   2.632 -1.3455 -1.5180  0.7412
 7131SOL     OW33028   0.354   1.829   8.835  0.4927 -0.0166 -0.2260
 7131SOL    HW133029   0.330   1.871   8.752  0.4499  0.4773  0.0411
 7131SOL    HW233030   0.416   1.896   8.863 -1.9282  1.8520  0.6972
 7132SOL     OW33031   1.479   3.160  16.391  0.1611 -0.4894 -0.2918
 7132SOL    HW133032   1.511   3.247  16.364 -1.7049  0.0170 -0.8613
 7132SOL    HW233033   1.513   3.106  16.319 -0.3216 -0.2613 -0.6932
 7133SOL     OW33034   2.829   2.246   3.008 -0.1176 -0.0469  0.0780
 7133SOL    HW133035   2.757   2.248   3.071  0.3646  2.0353  0.5491
 7133SOL    HW233036   2.896   2.283   3.066 -1.7607  2.1095  0.5811
 7134SOL     OW33037   3.027   2.417   9.341 -0.2037 -0.4140 -0.2977
 7134SOL    HW133038   2.952   2.460   9.383 -0.7056 -2.4544  0.8832
 7134SOL    HW233039   3.092   2.389   9.406 -1.0616  0.6655  1.0297
 7135SOL     OW33040   3.761   4.052   1.893 -0.3549 -0.1115 -0.3399
 7135SOL    HW133041   3.677   4.011   1.913  1.4429 -2.4534  2.3098
 7135SOL    HW233042   3.778   4.039   1.800  0.3705 -0.5195 -0.1425
 7136SOL     OW33043   0.817   0.710   6.302  0.1519  0.0168  0.3693
 7136SOL    HW133044   0.905   0.737   6.277 -0.0775  1.1795  0.8007
 7136SOL    HW233045   0.769   0.754   6.232 -1.7265 -1.0890  0.9699
 7137SOL     OW33046   4.246   3.035   4.115  0.1017  0.5145 -0.1303
 7137SOL    HW133047   4.300   2.957   4.100 -0.3889 -0.3014  2.3791
 7137SOL    HW233048   4.240   3.034   4.210 -0.5908  0.7518 -0.1775
 7138SOL     OW33049   0.893   3.125   3.686 -0.2743 -0.3683 -0.0771
 7138SOL    HW133050   0.871   3.175   3.608 -0.2713  1.3533  1.0305
 7138SOL    HW233051   0.982   3.159   3.699 -0.1880 -0.9368  0.8293
 7139SOL     OW33052   2.205   1.034   7.419 -0.4021 -0.1076 -0.1949
 7139SOL    HW133053   2.218   1.089   7.496  0.4220  0.9164 -1.0499
 7139SOL    HW233054   2.118   1.064   7.391  0.9857  1.4882 -2.8727
 7140SOL     OW33055   3.880   2.528   4.909 -0.2045 -0.3796 -0.5623
 7140SOL    HW133056   3.834   2.609   4.886  1.2215  0.4469 -0.4967
 7140SOL    HW233057   3.949   2.511   4.844  1.2344 -1.6104  1.3117
 7141SOL     OW33058   4.081   0.056   5.485  0.6664 -0.3135  0.3070
 7141SOL    HW133059   4.054   4.707   5.475 -0.6020  0.3883 -2.5757
 7141SOL    HW233060   4.069   0.083   5.394 -0.1907 -0.9413  0.2410
 7142SOL     OW33061   2.668   3.445   5.439 -0.3801  0.7527 -0.0472
 7142SOL    HW133062   2.762   3.441   5.457 -0.5415 -0.3828  0.5190
 7142SOL    HW233063   2.664   3.451   5.344  0.3247 -2.0345 -0.2301
 7143SOL     OW33064   1.693   1.319   7.435 -0.2409 -0.1168  0.2498
 7143SOL    HW133065   1.729   1.253   7.494 -1.3490 -0.6965  0.2889
 7143SOL    HW233066   1.617   1.281   7.390 -0.2607  0.1676  0.0397
 7144SOL     OW33067   4.318   2.533   7.646  0.0884 -0.1560 -0.2500
 7144SOL    HW133068   4.313   2.614   7.595 -0.9018 -1.4027 -2.1473
 7144SOL    HW233069   4.371   2.480   7.587  0.6506  0.6729 -0.4851
 7145SOL     OW33070   1.507   0.035   0.543  0.0825 -0.1245  0.1984
 7145SOL    HW133071   1.523   0.072   0.456 -2.2975  2.5445  0.9065
 7145SOL    HW233072   1.475   0.111   0.593  0.7523 -1.3196  2.4332
 7146SOL     OW33073   4.140   3.637  14.985  0.0787  0.3130  0.3176
 7146SOL    HW133074   4.198   3.664  14.913  0.4334 -1.8768 -0.2204
 7146SOL    HW233075   4.110   3.718  15.027  2.9121  1.0677  0.8519
 7147SOL     OW33076   1.370   4.407   2.821 -0.0223 -0.2334  0.5883
 7147SOL    HW133077   1.419   4.372   2.894 -0.8322 -0.9031  0.8117
 7147SOL    HW233078   1.442   4.438   2.766  0.5818 -0.2451  1.3728
 7148SOL     OW33079   3.437   0.129  16.442 -0.3911 -0.6331 -0.0099
 7148SOL    HW133080   3.481   0.214  16.452 -2.8749  0.5323  0.8876
 7148SOL    HW233081   3.427   0.111  16.348 -1.6155  0.7449 -0.1321
 7149SOL     OW33082   0.147   0.712   9.157 -0.3806 -0.0940 -0.6815
 7149SOL    HW133083   0.055   0.696   9.137 -0.4995 -0.7281  0.4103
 7149SOL    HW233084   0.151   0.807   9.171 -1.2609 -0.3801  1.4438
 7150SOL     OW33085   1.197   0.156   4.568  0.2729 -0.5038 -0.2440
 7150SOL    HW133086   1.103   0.161   4.550  0.2432  1.0501  0.3704
 7150SOL    HW233087   1.238   0.142   4.483 -1.9321  1.1890 -1.5886
 7151SOL     OW33088   2.420   3.883   7.942  0.5893  0.3082  0.1204
 7151SOL    HW133089   2.444   3.835   7.863  0.3088  2.2672 -1.1689
 7151SOL    HW233090   2.480   3.957   7.943  0.9149  0.0714 -1.9784
 7152SOL     OW33091   2.604   4.409   6.453  0.0540 -0.1558  0.1846
 7152SOL    HW133092   2.617   4.491   6.406  1.1667 -0.4059  0.0584
 7152SOL    HW233093   2.509   4.416   6.463  0.0107  3.2452 -2.7781
 7153SOL     OW33094   3.740   3.132  14.268 -0.5412  0.0879 -0.5373
 7153SOL    HW133095   3.824   3.156  14.308 -1.6348  0.0289  1.7815
 7153SOL    HW233096   3.682   3.160  14.339  0.3720 -1.4884  0.8349
 7154SOL     OW33097   2.835   1.876   4.488 -0.1425  1.0910  0.5491
 7154SOL    HW133098   2.855   1.782   4.487 -2.7430  0.5666 -2.1642
 7154SOL    HW233099   2.839   1.889   4.583  1.0777  0.6467  0.5597
 7155SOL     OW33100   1.988   0.199  11.638  0.0070  0.0140  0.1954
 7155SOL    HW133101   2.022   0.118  11.600 -0.3480  0.1032 -0.3153
 7155SOL    HW233102   1.997   0.186  11.732  2.2473 -0.3667 -0.0763
 7156SOL     OW33103   3.075   4.491  17.060 -0.1022  0.5946 -0.2765
 7156SOL    HW133104   3.078   4.557  17.129  1.6776 -0.6262  0.8297
 7156SOL    HW233105   3.094   4.539  16.979  1.8334 -0.6711 -0.5848
 7157SOL     OW33106   3.675   3.688   0.418 -0.0551  0.6703 -0.0348
 7157SOL    HW133107   3.650   3.776   0.392  0.6515  0.8749 -0.0427
 7157SOL    HW233108   3.628   3.642   0.349  1.1528  0.4585 -0.7198
 7158SOL     OW33109   0.476   0.764  13.890  0.5115  0.3970 -0.0009
 7158SOL    HW133110   0.385   0.735  13.885  0.0667  1.7124  0.7222
 7158SOL    HW233111   0.476   0.768  13.985  0.3315  2.4978 -0.1043
 7159SOL     OW33112   3.351   3.775  12.572  0.1804 -0.4285  0.3537
 7159SOL    HW133113   3.427   3.776  12.513  0.4481  0.0037  0.7070
 7159SOL    HW233114   3.347   3.861  12.614 -0.2039 -0.2361 -0.0715
 7160SOL     OW33115   1.939   2.245   5.042 -0.0766  0.0684 -0.2273
 7160SOL    HW133116   1.957   2.155   5.016  1.6934  0.4654 -0.3545
 7160SOL    HW233117   2.004   2.265   5.109 -0.7183 -0.3204  0.5128
 7161SOL     OW33118   0.781   0.147  17.469 -0.2565  0.4820 -0.3014
 7161SOL    HW133119   0.766   0.192  17.552 -0.2965 -2.1504  1.1297
 7161SOL    HW233120   0.790   0.056  17.498 -2.5930  0.7219  1.2445
 7162SOL     OW33121   4.139   4.322  13.765 -0.0693 -0.5982  0.1349
 7162SOL    HW133122   4.222   4.300  13.809  0.2786  3.8237  1.6944
 7162SOL    HW233123   4.080   4.321  13.840  0.9769  2.8406  0.9831
 7163SOL     OW33124   1.219   1.727   5.115 -0.4513 -0.0265  0.4818
 7163SOL    HW133125   1.222   1.633   5.098 -2.8454  0.0846 -0.5088
 7163SOL    HW233126   1.167   1.761   5.042 -3.0124 -1.4242  1.6833
 7164SOL     OW33127   2.454   0.759   0.084  0.4790  0.1220  0.2361
 7164SOL    HW133128   2.484   0.850   0.084 -1.1701  0.6785  0.2301
 7164SOL    HW233129   2.449   0.754   0.180 -1.6234 -1.5869  0.0493
 7165SOL     OW33130   3.922   1.513  10.985 -0.0990  0.2168 -0.7640
 7165SOL    HW133131   3.940   1.487  11.075 -1.7723 -2.2943 -1.1372
 7165SOL    HW233132   3.888   1.428  10.957 -2.2122  0.1627  1.9088
 7166SOL     OW33133   4.019   2.626   5.468  0.2225  0.5082  0.0886
 7166SOL    HW133134   3.998   2.718   5.478 -1.1308  0.2570 -0.4250
 7166SOL    HW233135   3.959   2.611   5.395  0.3225  1.1674 -0.1285
 7167SOL     OW33136   1.684   1.244  16.435  0.0158 -0.5531 -0.5153
 7167SOL    HW133137   1.645   1.327  16.463  1.2971  1.0416 -3.4190
 7167SOL    HW233138   1.624   1.214  16.367 -0.3835  1.8432 -1.2270
 7168SOL     OW33139   1.779   1.103   6.070  0.4679  0.1663  0.2791
 7168SOL    HW133140   1.829   1.046   6.127 -0.2678 -0.9842 -0.2079
 7168SOL    HW233141   1.760   1.168   6.137  2.5202  2.3741 -1.2811
 7169SOL     OW33142   4.022   4.729   4.315  0.2734  0.0163  0.2689
 7169SOL    HW133143   3.955   0.052   4.337 -0.8967 -1.7261  1.8712
 7169SOL    HW233144   4.018   4.663   4.384 -0.0689 -1.1311 -0.8556
 7170SOL     OW33145   1.918   2.870   0.195  0.3714 -0.2996 -0.0279
 7170SOL    HW133146   1.850   2.856   0.261  1.3780  1.0821  1.3062
 7170SOL    HW233147   1.994   2.828   0.235 -1.5344 -2.1853  1.6126
 7171SOL     OW33148   2.318   0.407  15.541  0.4734  0.4148 -0.8448
 7171SOL    HW133149   2.243   0.362  15.504 -1.5880  0.8240  2.7891
 7171SOL    HW233150   2.288   0.408  15.632 -1.1272  3.0636 -1.4019
 7172SOL     OW33151   1.095   4.717   7.734  0.2884 -0.1590  0.2400
 7172SOL    HW133152   1.130   4.628   7.734 -0.5168 -0.4811  1.1325
 7172SOL    HW233153   1.136   0.010   7.655 -1.3756 -1.4616 -1.1957
 7173SOL     OW33154   2.266   2.567   4.768  0.2403  0.1728  0.5343
 7173SOL    HW133155   2.207   2.559   4.693  1.3840 -2.3026 -0.1041
 7173SOL    HW233156   2.352   2.549   4.729  0.4668 -1.5539  1.8868
 7174SOL     OW33157   3.978   2.838   6.247 -0.5724 -0.0682 -0.0939
 7174SOL    HW133158   3.894   2.836   6.200  0.9485  0.4443 -2.8487
 7174SOL    HW233159   3.965   2.765   6.307  0.1970 -1.7465 -1.9524
 7175SOL     OW33160   2.701   1.767   1.589  0.3464 -0.3565 -0.1070
 7175SOL    HW133161   2.746   1.734   1.666 -0.1864  1.3849  0.9687
 7175SOL    HW233162   2.771   1.800   1.532 -0.9081 -1.0171 -2.0321
 7176SOL     OW33163   2.341   0.712   2.371 -0.3424 -0.2613 -0.2405
 7176SOL    HW133164   2.271   0.665   2.326  0.4711 -1.1932 -0.5224
 7176SOL    HW233165   2.394   0.644   2.413  0.5373  0.6553  0.1441
 7177SOL     OW33166   0.690   2.980  10.370  0.5834 -0.1085  0.3249
 7177SOL    HW133167   0.597   2.992  10.350  0.2003 -0.2988  2.0422
 7177SOL    HW233168   0.713   2.921  10.297 -0.3823 -0.6860  0.4949
 7178SOL     OW33169   2.081   3.197   1.625 -0.0154  0.5793  0.3997
 7178SOL    HW133170   2.077   3.102   1.622  0.6361  0.5580  0.2760
 7178SOL    HW233171   2.158   3.218   1.677  2.2020 -1.7549 -1.9452
 7179SOL     OW33172   3.457   0.848   3.747 -0.5074 -0.2873  0.0645
 7179SOL    HW133173   3.435   0.763   3.784  0.1889 -0.9528 -1.0402
 7179SOL    HW233174   3.418   0.906   3.813 -0.9806 -1.5595  0.9076
 7180SOL     OW33175   3.093   1.583   2.842  0.3354  0.3136 -0.1641
 7180SOL    HW133176   3.103   1.575   2.937  1.6913  2.3195 -0.1490
 7180SOL    HW233177   3.058   1.672   2.834  1.0620  0.9777  4.1557
 7181SOL     OW33178   1.856   1.420  16.927 -0.1800  0.0588  0.2730
 7181SOL    HW133179   1.897   1.426  17.014 -1.2287  0.1846  0.7555
 7181SOL    HW233180   1.765   1.391  16.934  0.4285 -1.5109  1.6340
 7182SOL     OW33181   1.976   0.176   3.445 -0.3312  0.0841  0.1665
 7182SOL    HW133182   1.916   0.226   3.500 -0.4207  0.4307 -0.2463
 7182SOL    HW233183   1.990   0.090   3.485 -0.3693  1.6163  3.4735
 7183SOL     OW33184   2.866   3.508   3.948 -0.7570 -0.4264 -0.0204
 7183SOL    HW133185   2.884   3.440   3.883 -0.0666 -1.0214  0.7971
 7183SOL    HW233186   2.848   3.457   4.027  0.0007  2.0568  1.7429
 7184SOL     OW33187   3.953   0.361   8.087 -0.0890 -0.9634  0.3916
 7184SOL    HW133188   3.971   0.424   8.017  1.2798 -0.9784  0.7172
 7184SOL    HW233189   3.885   0.412   8.130 -0.1356 -1.9694  1.5145
 7185SOL     OW33190   4.497   4.461   9.335  0.3612 -0.8699  0.4702
 7185SOL    HW133191   4.457   4.511   9.405  0.2101 -1.7177  0.9901
 7185SOL    HW233192   4.443   4.383   9.343  1.1168 -1.4646 -0.1481
 7186SOL     OW33193   2.493   1.485  13.475 -1.1236  0.1141 -0.7092
 7186SOL    HW133194   2.435   1.439  13.536 -0.9208 -0.4133 -0.9096
 7186SOL    HW233195   2.528   1.562  13.520 -0.3036 -1.2812  1.0382
 7187SOL     OW33196   2.020   4.239   3.056  0.3188  0.1838  0.0700
 7187SOL    HW133197   2.079   4.306   3.093  1.2439 -1.4106  1.4598
 7187SOL    HW233198   1.982   4.212   3.139  0.3790  0.4565  0.1859
 7188SOL     OW33199   1.485   3.557   9.044  0.1343  0.3498 -0.4464
 7188SOL    HW133200   1.491   3.651   9.032  4.0873  0.4479  2.1685
 7188SOL    HW233201   1.395   3.539   9.016  0.9049 -2.6455 -0.9833
 7189SOL     OW33202   2.607   1.651   5.742 -0.3277  0.0993 -0.4870
 7189SOL    HW133203   2.671   1.612   5.801 -2.4394 -1.8385  0.5216
 7189SOL    HW233204   2.650   1.665   5.658 -1.4041 -1.1892 -1.2487
 7190SOL     OW33205   1.131   2.038   8.264  0.2500 -0.5613 -0.4880
 7190SOL    HW133206   1.050   2.080   8.292  1.1767  1.8192 -1.3838
 7190SOL    HW233207   1.118   1.949   8.298  0.3550 -0.9044 -1.3513
 7191SOL     OW33208   4.478   4.692   5.835 -0.4999  0.8676 -0.3188
 7191SOL    HW133209   4.395   4.664   5.874 -0.7798  0.0950 -1.4734
 7191SOL    HW233210   4.553   4.641   5.865 -0.2651  0.4676 -1.5774
 7192SOL     OW33211   0.484   1.641   9.165  0.4848 -0.0526  0.0788
 7192SOL    HW133212   0.506   1.646   9.258 -2.7798  0.1006  0.8531
 7192SOL    HW233213   0.422   1.713   9.163 -2.7032 -2.6924  2.4236
 7193SOL     OW33214   3.256   2.532   8.865  0.3779 -0.3989 -0.2340
 7193SOL    HW133215   3.189   2.475   8.827 -1.9726  1.4978  1.0916
 7193SOL    HW233216   3.213   2.542   8.950 -1.0574  0.6703 -1.0719
 7194SOL     OW33217   2.625   0.526  16.609 -0.6691 -0.4961  0.3074
 7194SOL    HW133218   2.587   0.593  16.666 -0.5465  1.0057 -1.3617
 7194SOL    HW233219   2.554   0.491  16.555 -0.6823 -0.8645  0.5679
 7195SOL     OW33220   4.085   4.367  13.495  0.6787 -0.2849  0.1262
 7195SOL    HW133221   4.088   4.279  13.457 -0.2784 -0.7051  1.0222
 7195SOL    HW233222   4.100   4.353  13.589  0.5659 -1.3085 -0.0156
 7196SOL     OW33223   1.326   3.415   3.255  0.3589 -0.4742 -0.1074
 7196SOL    HW133224   1.282   3.330   3.263 -2.4266  0.9757  0.0815
 7196SOL    HW233225   1.359   3.416   3.166 -0.4963 -1.0997 -0.4290
 7197SOL     OW33226   0.514   1.368   1.367  0.1894  0.0524  0.5039
 7197SOL    HW133227   0.484   1.379   1.277 -1.7935  2.5023  1.4650
 7197SOL    HW233228   0.575   1.440   1.383 -1.0334  1.4049 -0.9676
 7198SOL     OW33229   0.731   0.841   6.541  0.0407  0.2793  0.3357
 7198SOL    HW133230   0.720   0.936   6.530  1.6398  0.5127  0.7234
 7198SOL    HW233231   0.741   0.814   6.450 -1.4551 -1.1152  0.5831
 7199SOL     OW33232   1.209   2.333   4.358 -0.4099 -0.0360 -0.4201
 7199SOL    HW133233   1.207   2.251   4.308  2.2431  0.7953 -1.8942
 7199SOL    HW233234   1.235   2.395   4.290  1.7593  0.3159  0.7478
 7200SOL     OW33235   0.834   0.326   2.230 -0.0764 -0.0273 -0.0599
 7200SOL    HW133236   0.826   0.234   2.256 -1.7889 -0.5986 -2.6166
 7200SOL    HW233237   0.877   0.350   2.312 -0.9368 -1.5047  0.8364
 7201SOL     OW33238   3.530   0.734   6.080 -0.0302  0.0764 -0.5928
 7201SOL    HW133239   3.617   0.717   6.045  0.2921  0.9741 -0.2123
 7201SOL    HW233240   3.508   0.810   6.026 -1.8689  0.2946  0.4908
 7202SOL     OW33241   1.231   0.347   4.322  0.5024  0.1538  0.1875
 7202SOL    HW133242   1.252   0.260   4.290 -1.5042  0.1642 -1.1045
 7202SOL    HW233243   1.259   0.344   4.414 -0.0876  0.4223  0.3812
 7203SOL     OW33244   0.164   4.174   9.942 -0.2201  0.1867 -0.3508
 7203SOL    HW133245   0.215   4.096   9.963  1.7561  2.3423  2.7902
 7203SOL    HW233246   0.238   4.235   9.939 -0.1565  0.1193 -0.1222
 7204SOL     OW33247   1.394   3.858  11.423  0.1560 -0.1268  0.0245
 7204SOL    HW133248   1.309   3.891  11.453 -1.0496 -1.3040 -2.1155
 7204SOL    HW233249   1.456   3.883  11.491  0.3135  0.6332 -0.4066
 7205SOL     OW33250   4.069   3.983   6.235 -0.1486  0.6322 -0.4292
 7205SOL    HW133251   4.064   3.888   6.246 -1.3224  0.4848 -2.2350
 7205SOL    HW233252   3.979   3.994   6.205  0.5746  2.5227 -1.9520
 7206SOL     OW33253   0.013   3.527  13.558  0.7216 -0.4536  0.4055
 7206SOL    HW133254   4.696   3.584  13.608  1.2392 -0.7557  1.3437
 7206SOL    HW233255   0.097   3.519  13.603  0.1236 -2.3267  1.1702
 7207SOL     OW33256   4.473   4.309   8.145 -0.4846  0.5085  0.4559
 7207SOL    HW133257   4.552   4.268   8.110  0.2564  2.3846 -0.0645
 7207SOL    HW233258   4.461   4.389   8.094  0.6732  1.0768  1.0668
 7208SOL     OW33259   2.730   0.569   7.074  0.1795 -0.6978 -0.0775
 7208SOL    HW133260   2.653   0.626   7.081 -0.1152 -1.3136  1.5467
 7208SOL    HW233261   2.692   0.498   7.125  0.5524 -1.7231 -1.2187
 7209SOL     OW33262   3.652   3.047   2.723  0.2954 -0.4272 -0.4600
 7209SOL    HW133263   3.713   3.120   2.712  1.6476 -1.3987  0.5324
 7209SOL    HW233264   3.676   3.022   2.812 -0.1779 -0.1680 -0.2632
 7210SOL     OW33265   3.704   0.766   4.351  0.1331 -0.2320 -0.2627
 7210SOL    HW133266   3.794   0.798   4.338  0.6394 -2.2228 -1.8586
 7210SOL    HW233267   3.721   0.678   4.385 -2.1884 -0.2832  0.6919
 7211SOL     OW33268   3.549   4.423  11.260  0.1263 -0.0656  0.1908
 7211SOL    HW133269   3.560   4.422  11.355  3.6515 -1.2124 -0.2432
 7211SOL    HW233270   3.607   4.493  11.233  0.9833 -0.7001  0.3956
 7212SOL     OW33271   1.300   0.568   2.746 -0.1827  0.1824 -0.4126
 7212SOL    HW133272   1.250   0.622   2.686 -1.7353 -0.1680  0.5779
 7212SOL    HW233273   1.380   0.538   2.703 -0.3879  0.4823 -0.9999
 7213SOL     OW33274   0.626   2.962  13.861  0.1983  0.0407  0.6611
 7213SOL    HW133275   0.696   2.982  13.923  1.0339 -2.5312  0.5673
 7213SOL    HW233276   0.604   3.051  13.835  1.3858  0.0348 -0.3476
 7214SOL     OW33277   1.788   3.006   7.417 -0.1474  0.1818  0.2995
 7214SOL    HW133278   1.764   3.098   7.427  2.1962  0.7972  0.2138
 7214SOL    HW233279   1.870   3.016   7.465  1.6735 -1.4001 -2.5210
 7215SOL     OW33280   1.655   2.957  15.827  0.4606 -0.4544  0.1863
 7215SOL    HW133281   1.595   3.030  15.839  1.5892  0.4799  0.2121
 7215SOL    HW233282   1.630   2.917  15.744  0.0186 -1.5225  0.8432
 7216SOL     OW33283   1.727   1.826  13.521  0.2479  0.2616  0.7903
 7216SOL    HW133284   1.652   1.804  13.577 -0.9180 -1.2216 -1.3571
 7216SOL    HW233285   1.781   1.749  13.510 -2.8189 -1.4203 -2.5043
 7217SOL     OW33286   3.912   1.254   3.834  0.8845  0.2128 -0.4877
 7217SOL    HW133287   3.898   1.334   3.783 -3.4294  0.4029  0.9804
 7217SOL    HW233288   3.851   1.271   3.906 -0.7183 -0.2303 -1.7156
 7218SOL     OW33289   3.832   0.560   9.159 -0.2143 -0.5151 -0.4786
 7218SOL    HW133290   3.818   0.481   9.106 -0.4297 -0.3123 -0.7219
 7218SOL    HW233291   3.913   0.597   9.124 -0.5824 -1.4605 -2.2905
 7219SOL     OW33292   2.263   0.668  15.463  0.2912  0.3533 -0.1176
 7219SOL    HW133293   2.266   0.573  15.473 -0.0003  0.4571  0.9675
 7219SOL    HW233294   2.213   0.667  15.382  0.2808  0.1169 -0.1086
 7220SOL     OW33295   0.861   3.533   3.594 -0.3590  0.6947  0.4541
 7220SOL    HW133296   0.877   3.497   3.506  1.3088  2.7504 -0.0793
 7220SOL    HW233297   0.855   3.623   3.564 -0.3734  0.8773  1.0093
 7221SOL     OW33298   4.169   2.321   4.859  0.8245  0.4111  0.0373
 7221SOL    HW133299   4.260   2.311   4.828 -0.0926 -1.4707 -2.0508
 7221SOL    HW233300   4.159   2.412   4.886  0.6672  0.3552  0.1681
 7222SOL     OW33301   2.907   0.282   2.682  0.4977  0.0162 -0.2980
 7222SOL    HW133302   2.945   0.305   2.767 -0.4232 -1.9110  0.6120
 7222SOL    HW233303   2.945   0.350   2.626 -2.5874  0.7474 -1.5317
 7223SOL     OW33304   4.650   4.661  12.467  0.2773 -0.0960 -0.7926
 7223SOL    HW133305   4.638   4.566  12.465  0.0500 -0.0894  0.0389
 7223SOL    HW233306   4.609   4.674  12.553 -0.8943  0.6969 -1.4745
 7224SOL     OW33307   4.501   3.557   2.590 -0.0189 -0.5098 -0.5091
 7224SOL    HW133308   4.447   3.634   2.608  0.4327 -0.1766 -0.5987
 7224SOL    HW233309   4.478   3.497   2.661 -2.7113 -0.5325 -1.3919
 7225SOL     OW33310   4.303   4.256   5.195 -0.3230 -0.6353  0.4145
 7225SOL    HW133311   4.238   4.202   5.240 -0.6252  1.1933  2.2144
 7225SOL    HW233312   4.388   4.232   5.231 -0.2442 -1.7333 -0.5044
 7226SOL     OW33313   3.448   0.833  15.345 -0.1621  0.2112  1.1004
 7226SOL    HW133314   3.436   0.925  15.366 -0.6321  0.8161 -1.7282
 7226SOL    HW233315   3.476   0.796  15.429  0.0381 -1.1067  0.4688
 7227SOL     OW33316   2.849   0.628   6.769 -0.1232  0.2077 -0.3871
 7227SOL    HW133317   2.826   0.637   6.861  3.0026  1.5220  0.2514
 7227SOL    HW233318   2.881   0.538   6.759 -0.4895 -0.1137  1.2862
 7228SOL     OW33319   2.396   3.932   7.075 -0.0888 -0.3582 -0.0029
 7228SOL    HW133320   2.331   3.950   7.143  0.5937  3.9743 -0.4858
 7228SOL    HW233321   2.359   3.856   7.031 -0.7394 -1.1141  1.8554
 7229SOL     OW33322   3.957   0.401  17.684 -0.0973  0.1570  0.1546
 7229SOL    HW133323   3.951   0.418  17.590  0.1974 -0.5206  0.0175
 7229SOL    HW233324   3.906   0.478  17.712 -2.3721 -1.1854 -0.3142
 7230SOL     OW33325   2.198   2.723   3.671 -0.2618  0.3792 -0.0867
 7230SOL    HW133326   2.141   2.689   3.740 -0.3279  0.7266  0.0308
 7230SOL    HW233327   2.143   2.784   3.622  1.5847  2.4954  0.4571
 7231SOL     OW33328   0.497   1.517  13.320 -0.4289 -0.0954  0.4782
 7231SOL    HW133329   0.444   1.466  13.381 -1.2679 -0.4682 -0.5678
 7231SOL    HW233330   0.424   1.562  13.278 -0.6812 -1.4886 -0.5640
 7232SOL     OW33331   4.466   2.881   6.005  0.1197 -0.3285 -0.1751
 7232SOL    HW133332   4.521   2.921   6.072 -2.5383 -0.5967  2.1844
 7232SOL    HW233333   4.385   2.854   6.048 -0.5072  2.9094  0.6380
 7233SOL     OW33334   2.357   1.966   2.084 -0.1523 -0.1395 -0.1001
 7233SOL    HW133335   2.446   1.929   2.081  0.2891  0.9087 -0.0056
 7233SOL    HW233336   2.330   1.934   2.170 -0.5434 -1.0799 -0.5745
 7234SOL     OW33337   3.049   2.155   7.886 -0.2015 -0.3789 -0.0514
 7234SOL    HW133338   3.061   2.067   7.851 -2.6236 -0.8954  0.4726
 7234SOL    HW233339   3.006   2.140   7.970  3.0709  2.8470  2.2429
 7235SOL     OW33340   1.410   2.403   7.378 -0.0732 -0.4658  1.0245
 7235SOL    HW133341   1.502   2.405   7.351 -0.2408 -1.5535  0.4037
 7235SOL    HW233342   1.374   2.415   7.290 -0.0327 -1.0623  0.9302
 7236SOL     OW33343   0.110   3.763   6.963  0.2057 -0.0463 -0.6596
 7236SOL    HW133344   0.051   3.836   6.980  1.1226  0.9682 -1.9137
 7236SOL    HW233345   0.050   3.689   6.949 -0.3615  0.1121  0.8399
 7237SOL     OW33346   4.511   2.318  12.491 -0.4301  0.1588 -0.2567
 7237SOL    HW133347   4.479   2.227  12.490  0.0141 -0.0557  2.8421
 7237SOL    HW233348   4.424   2.357  12.483  0.2713  1.4524 -1.5348
 7238SOL     OW33349   2.994   4.020   2.126 -0.3157  0.0891 -0.4839
 7238SOL    HW133350   3.052   4.008   2.201 -1.4379  2.3472  0.7237
 7238SOL    HW233351   2.910   3.994   2.163  0.1967  0.4171  0.8948
 7239SOL     OW33352   2.876   1.210   2.439 -0.4852 -0.3594  1.1262
 7239SOL    HW133353   2.828   1.209   2.356  0.0384  2.2525  0.7716
 7239SOL    HW233354   2.865   1.115   2.449 -0.5142 -0.0825  3.5337
 7240SOL     OW33355   2.551   0.804   3.675 -0.0793 -0.0570 -0.2677
 7240SOL    HW133356   2.596   0.752   3.609 -0.0762 -1.0997  0.5416
 7240SOL    HW233357   2.544   0.745   3.750  1.3183 -1.2064 -1.0425
 7241SOL     OW33358   2.871   2.003   9.754  0.5432 -0.9135  0.5067
 7241SOL    HW133359   2.907   1.941   9.818  1.1233  0.5042  1.5511
 7241SOL    HW233360   2.780   1.972   9.753  0.8162 -1.6658 -0.8309
 7242SOL     OW33361   0.992   3.529   2.689  0.4683  0.4706 -0.2600
 7242SOL    HW133362   0.923   3.479   2.646  1.5491 -1.3727  0.1789
 7242SOL    HW233363   0.954   3.566   2.769  0.4575 -0.5346  0.1930
 7243SOL     OW33364   0.390   3.582  16.569 -0.3935  0.0613 -0.1293
 7243SOL    HW133365   0.364   3.567  16.478  1.4985 -1.9482 -0.3240
 7243SOL    HW233366   0.312   3.552  16.616 -0.3610 -0.1707 -0.2258
 7244SOL     OW33367   3.550   0.912  15.116 -0.1229 -0.6084 -0.2819
 7244SOL    HW133368   3.466   0.900  15.072 -0.4718  0.7833  0.0257
 7244SOL    HW233369   3.517   0.875  15.198  0.0015 -2.2539 -0.9745
 7245SOL     OW33370   3.359   3.192   4.193  0.5680 -0.4640 -0.0450
 7245SOL    HW133371   3.328   3.167   4.107 -0.6158  3.6923 -0.8502
 7245SOL    HW233372   3.328   3.127   4.255  0.6820 -1.4761 -1.0609
 7246SOL     OW33373   2.413   4.595  11.538 -0.1407 -0.0362 -0.8073
 7246SOL    HW133374   2.333   4.566  11.581  0.4092  0.5973  0.6334
 7246SOL    HW233375   2.413   4.535  11.463  0.0635  0.3969 -1.1580
 7247SOL     OW33376   2.191   1.222  15.690  0.3536 -0.4329  0.0237
 7247SOL    HW133377   2.224   1.271  15.766 -0.1947 -0.4809  0.2857
 7247SOL    HW233378   2.204   1.280  15.615  0.4791 -1.9887 -1.1509
 7248SOL     OW33379   2.640   4.367  13.917  0.0104  0.1451  0.2976
 7248SOL    HW133380   2.714   4.330  13.869 -1.5519 -2.5576 -0.0512
 7248SOL    HW233381   2.588   4.407  13.847 -1.1046 -1.0690  0.4260
 7249SOL     OW33382   0.453   3.451   5.028  0.5067  0.0060 -0.1844
 7249SOL    HW133383   0.495   3.425   5.111 -0.1831 -1.4301 -0.2750
 7249SOL    HW233384   0.424   3.538   5.054  0.2867  0.2933 -1.4274
 7250SOL     OW33385   1.697   3.802  12.326 -0.6110  0.1691 -0.1394
 7250SOL    HW133386   1.682   3.722  12.276  1.3111  0.0465 -0.5263
 7250SOL    HW233387   1.744   3.766  12.402  1.5362  1.6866 -0.7584
 7251SOL     OW33388   3.189   0.818   7.882  0.0051 -0.4565  0.1461
 7251SOL    HW133389   3.222   0.741   7.929 -0.3191  0.3507  1.6787
 7251SOL    HW233390   3.270   0.857   7.850 -0.4465  2.8253  3.1535
 7252SOL     OW33391   1.874   2.656   6.981 -0.0404 -0.3214 -0.0748
 7252SOL    HW133392   1.785   2.622   6.979  0.1850 -0.9126 -0.1341
 7252SOL    HW233393   1.889   2.664   7.075 -0.5937  0.3653 -0.0490
 7253SOL     OW33394   0.280   2.639   7.357  0.3010 -0.1469  0.3044
 7253SOL    HW133395   0.275   2.554   7.313 -0.4226  0.0633 -0.0058
 7253SOL    HW233396   0.350   2.676   7.303  1.1437 -2.6410 -0.3092
 7254SOL     OW33397   0.355   2.219   7.943 -0.6839 -0.3646  0.1075
 7254SOL    HW133398   0.383   2.152   8.005  1.4794 -0.2825 -0.8160
 7254SOL    HW233399   0.433   2.229   7.889 -0.5497 -1.1870  0.1496
 7255SOL     OW33400   2.762   1.423   6.248  0.4081  0.4273  0.0787
 7255SOL    HW133401   2.801   1.344   6.285  0.1570 -0.1045 -0.7673
 7255SOL    HW233402   2.842   1.473   6.235 -0.5489  1.6440 -1.2414
 7256SOL     OW33403   1.798   0.564   4.101 -0.1234  0.3898  0.1397
 7256SOL    HW133404   1.715   0.583   4.145  0.1785  0.5107  0.6680
 7256SOL    HW233405   1.764   0.519   4.024  0.1727 -1.8164  1.3132
 7257SOL     OW33406   2.568   0.333   3.386  0.2245 -0.5324 -0.1551
 7257SOL    HW133407   2.521   0.262   3.342 -1.6114  0.0865  0.7918
 7257SOL    HW233408   2.520   0.416   3.379 -0.6838 -1.0854 -0.5043
 7258SOL     OW33409   4.207   0.173   6.696 -0.3847 -0.0495 -0.2920
 7258SOL    HW133410   4.278   0.228   6.661  0.5286 -1.8087 -1.1770
 7258SOL    HW233411   4.143   0.243   6.711  0.6237  0.4343  1.8161
 7259SOL     OW33412   4.629   4.440   2.157 -0.1639  0.0670  0.1757
 7259SOL    HW133413   4.672   4.438   2.243 -1.3615  1.0415  0.8016
 7259SOL    HW233414   4.608   4.349   2.138 -3.8477  0.8255  0.5935
 7260SOL     OW33415   0.596   1.177   2.392  0.0072 -0.7336  0.1799
 7260SOL    HW133416   0.504   1.183   2.366  0.1609 -0.2324 -0.2613
 7260SOL    HW233417   0.629   1.122   2.321 -0.8911 -1.8245  0.6089
 7261SOL     OW33418   1.317   0.997  14.655  0.5384 -0.5341 -0.4288
 7261SOL    HW133419   1.384   0.938  14.621  0.7281 -1.1767  1.0702
 7261SOL    HW233420   1.370   1.064  14.697 -1.8570  0.0022  1.7703
 7262SOL     OW33421   3.658   2.608   1.592 -0.0477 -0.1588 -0.0139
 7262SOL    HW133422   3.600   2.592   1.666  1.5112 -0.6950  1.0731
 7262SOL    HW233423   3.595   2.645   1.529 -0.3644  1.6267  1.3457
 7263SOL     OW33424   4.407   3.073   9.431  0.0623  0.2318 -0.6396
 7263SOL    HW133425   4.401   3.048   9.524 -0.6466 -2.2144 -1.3333
 7263SOL    HW233426   4.395   3.167   9.444  0.5977  0.0868  0.8549
 7264SOL     OW33427   2.394   0.894   2.103  0.4231  0.1685 -0.4812
 7264SOL    HW133428   2.391   0.915   2.009 -0.2136 -0.1094 -0.5248
 7264SOL    HW233429   2.405   0.799   2.099  2.3235  0.3531  0.3567
 7265SOL     OW33430   3.041   3.271  16.218  0.3105  0.2683  0.0559
 7265SOL    HW133431   2.990   3.258  16.298 -1.6898  1.3319 -1.0472
 7265SOL    HW233432   3.121   3.314  16.248  0.6490 -0.1433 -0.2580
 7266SOL     OW33433   2.809   1.210  15.841  0.7418  0.2486  0.6384
 7266SOL    HW133434   2.791   1.118  15.861 -1.9884  0.9898  1.5995
 7266SOL    HW233435   2.903   1.200  15.827  1.0422  3.0432  0.6670
 7267SOL     OW33436   2.400   2.705   2.071 -0.0123 -0.1902  0.6469
 7267SOL    HW133437   2.481   2.653   2.069 -0.2468 -0.5662  0.9581
 7267SOL    HW233438   2.426   2.765   2.001 -2.5820 -0.5786 -0.6055
 7268SOL     OW33439   2.744   2.320  15.755 -0.2741 -0.6603  0.1431
 7268SOL    HW133440   2.740   2.415  15.767 -0.4168 -0.4008 -2.0178
 7268SOL    HW233441   2.675   2.310  15.690 -0.3273 -0.4814  0.1700
 7269SOL     OW33442   2.389   3.719   4.204 -0.6070  0.3523 -0.2378
 7269SOL    HW133443   2.450   3.703   4.277 -0.3565  0.2956 -0.4591
 7269SOL    HW233444   2.396   3.814   4.195 -0.6113  0.5428  1.6430
 7270SOL     OW33445   2.708   0.345  15.606 -0.1936  0.0498 -0.5170
 7270SOL    HW133446   2.793   0.307  15.630 -0.0542  0.8945  0.3415
 7270SOL    HW233447   2.696   0.307  15.519 -1.9009 -0.4582 -0.0528
 7271SOL     OW33448   2.782   0.169   8.235 -0.3155  0.3798  0.8028
 7271SOL    HW133449   2.748   0.182   8.323 -1.1964  0.2478  0.4832
 7271SOL    HW233450   2.867   0.212   8.245 -0.0590  0.5821 -2.1103
 7272SOL     OW33451   3.031   1.472   8.843  0.2815  0.3006 -0.5517
 7272SOL    HW133452   3.102   1.408   8.835 -0.1282 -0.3235  0.7697
 7272SOL    HW233453   3.020   1.495   8.751  1.9029 -0.3032 -0.9003
 7273SOL     OW33454   4.026   1.072   3.149  0.0890  0.0533  0.2100
 7273SOL    HW133455   3.974   0.998   3.181 -0.0421  0.7771  1.6834
 7273SOL    HW233456   4.024   1.067   3.054  0.6535  0.4147  0.1816
 7274SOL     OW33457   2.700   0.030   5.327  0.2265  0.8687  1.1461
 7274SOL    HW133458   2.758   0.058   5.398  1.8654  0.3736 -0.0043
 7274SOL    HW233459   2.665   0.114   5.298 -0.3314  0.2035 -0.0848
 7275SOL     OW33460   0.912   2.865   5.489  0.6113 -0.0620  0.5640
 7275SOL    HW133461   0.998   2.830   5.467  0.8381  0.6224  0.3433
 7275SOL    HW233462   0.906   2.933   5.421  0.6485 -0.7897 -0.1666
 7276SOL     OW33463   2.444   3.404   6.900  1.2481  0.1873  0.2804
 7276SOL    HW133464   2.443   3.378   6.993  0.1123 -0.7927 -0.0068
 7276SOL    HW233465   2.519   3.356   6.866  0.8176  0.4942 -1.0713
 7277SOL     OW33466   0.871   0.401   8.397  0.6721 -0.2062 -0.6399
 7277SOL    HW133467   0.843   0.347   8.471 -0.5623 -1.3873 -1.9660
 7277SOL    HW233468   0.791   0.454   8.406 -1.6065 -3.2253 -3.1284
 7278SOL     OW33469   4.552   0.768   4.709 -0.8774 -0.0124  0.2251
 7278SOL    HW133470   4.494   0.837   4.676  0.0619  0.4485 -0.4430
 7278SOL    HW233471   4.554   0.790   4.802 -2.7196 -0.0978  0.2890
 7279SOL     OW33472   1.822   4.610   3.016 -0.5181 -0.8443 -0.2809
 7279SOL    HW133473   1.811   4.671   2.944 -1.5232  1.4009  1.7745
 7279SOL    HW233474   1.739   4.635   3.058  0.1957 -0.6153  1.0022
 7280SOL     OW33475   1.536   4.006   2.047 -0.0030 -0.3142 -0.1856
 7280SOL    HW133476   1.460   4.000   1.990 -1.1336  3.8701  0.9335
 7280SOL    HW233477   1.533   3.920   2.090  0.0580  0.1335  0.7201
 7281SOL     OW33478   1.689   0.062   7.027 -0.2853 -0.3927  0.2066
 7281SOL    HW133479   1.729   4.734   6.975 -0.9799 -0.7219  0.1098
 7281SOL    HW233480   1.692   0.135   6.966  0.9114 -1.3292 -0.8375
 7282SOL     OW33481   3.088   0.145   2.142  0.3051  0.2922 -0.0062
 7282SOL    HW133482   3.030   0.221   2.152  1.4797  1.3757 -1.5160
 7282SOL    HW233483   3.054   0.091   2.071  1.1477 -2.4830  1.7231
 7283SOL     OW33484   0.608   1.916  13.579 -0.0617 -0.2265  0.4499
 7283SOL    HW133485   0.589   1.822  13.577 -0.0468 -0.2488  1.5276
 7283SOL    HW233486   0.702   1.913  13.560 -0.4187 -1.0655 -1.1509
 7284SOL     OW33487   2.629   0.791   6.726 -0.6353 -0.3136  0.4751
 7284SOL    HW133488   2.710   0.740   6.717  0.5779  2.2031 -2.4501
 7284SOL    HW233489   2.589   0.779   6.640 -2.5527  0.4579  1.2598
 7285SOL     OW33490   0.200   4.342   9.223 -0.0355  0.3605  0.2630
 7285SOL    HW133491   0.195   4.285   9.146 -0.3948  0.7632 -0.0152
 7285SOL    HW233492   0.279   4.313   9.267 -0.7072 -2.0008 -0.0874
 7286SOL     OW33493   2.668   3.241   1.146  0.0248 -0.4158  0.0592
 7286SOL    HW133494   2.755   3.251   1.184  0.3441 -1.9406 -0.2732
 7286SOL    HW233495   2.635   3.331   1.147  2.0188  0.3391 -3.3836
 7287SOL     OW33496   1.479   2.592   5.296  0.0295 -0.2904  0.3277
 7287SOL    HW133497   1.566   2.560   5.272 -0.5402 -2.6740  1.5124
 7287SOL    HW233498   1.513   2.681   5.304 -1.4961  0.3343 -0.1681
 7288SOL     OW33499   3.919   3.100   3.066  0.6285 -0.7632  0.1560
 7288SOL    HW133500   3.858   3.050   3.011  1.4746 -0.3332 -1.1864
 7288SOL    HW233501   3.858   3.120   3.137 -0.8342 -1.2390 -0.9486
 7289SOL     OW33502   1.386   0.046   7.564 -0.0728 -0.1162  0.3923
 7289SOL    HW133503   1.294   0.051   7.537  0.1623 -0.7402 -0.5372
 7289SOL    HW233504   1.418   4.712   7.514 -0.0552  0.3431 -0.2997
 7290SOL     OW33505   1.472   0.029   7.843 -0.9521  0.0129  0.0591
 7290SOL    HW133506   1.466   0.002   7.751 -0.8401 -0.2192  0.1192
 7290SOL    HW233507   1.467   4.690   7.894 -0.8663  0.3391  0.5901
 7291SOL     OW33508   4.419   3.980  11.336 -0.0764 -0.5508  0.4712
 7291SOL    HW133509   4.501   4.003  11.292 -0.1198  2.6703  2.0752
 7291SOL    HW233510   4.409   3.887  11.315 -1.4827 -0.3745  0.4166
 7292SOL     OW33511   1.198   1.922   6.428  0.3191  0.0117 -0.6722
 7292SOL    HW133512   1.117   1.906   6.477 -0.2869  0.9545 -1.3734
 7292SOL    HW233513   1.183   2.016   6.420 -0.7283 -0.1535 -0.7631
 7293SOL     OW33514   1.330   3.669  16.685 -0.1644  0.1054  0.2194
 7293SOL    HW133515   1.396   3.718  16.734  1.2809 -0.3637 -1.2924
 7293SOL    HW233516   1.258   3.730  16.671 -0.8307 -0.4265  1.3003
 7294SOL     OW33517   3.344   1.058   9.657 -0.4390  0.4966 -0.1493
 7294SOL    HW133518   3.420   1.004   9.681 -0.7050  0.5085  0.7193
 7294SOL    HW233519   3.356   1.117   9.732  1.4776  1.4652 -1.2040
 7295SOL     OW33520   1.252   3.959  12.369  0.4083  1.1708 -0.9891
 7295SOL    HW133521   1.337   3.956  12.413 -1.1777 -1.0776  1.9803
 7295SOL    HW233522   1.260   3.892  12.302  0.2767  0.9657 -0.8011
 7296SOL     OW33523   0.200   2.696   8.128  0.0111  0.4498 -0.2533
 7296SOL    HW133524   0.194   2.604   8.103  0.0459 -0.1040  1.7255
 7296SOL    HW233525   0.276   2.730   8.081 -0.9641  1.1370 -1.3307
 7297SOL     OW33526   2.694   2.007  10.920  0.3301 -0.1193  0.4401
 7297SOL    HW133527   2.666   2.077  10.979 -0.0147  0.4896 -0.4360
 7297SOL    HW233528   2.707   1.935  10.981  1.9627 -1.5042 -1.5554
 7298SOL     OW33529   0.022   4.352   6.145  0.5155  0.0323 -0.1790
 7298SOL    HW133530   0.092   4.295   6.173  0.8233  0.7002  0.4119
 7298SOL    HW233531   0.054   4.433   6.184  0.7665  0.0893 -0.5001
 7299SOL     OW33532   1.364   4.372   3.234  0.0460  0.3140  0.1487
 7299SOL    HW133533   1.275   4.340   3.221  0.7803 -1.5167 -0.4835
 7299SOL    HW233534   1.362   4.461   3.199  1.4390  0.1374 -0.3959
 7300SOL     OW33535   2.214   1.558   9.974  0.0823 -0.4393 -0.2230
 7300SOL    HW133536   2.227   1.485  10.035  1.1388  1.7467  2.1654
 7300SOL    HW233537   2.192   1.627  10.036  1.0668 -1.1276  0.8777
 7301SOL     OW33538   1.716   3.926   7.512  0.2718 -0.5925  0.3273
 7301SOL    HW133539   1.797   3.970   7.485 -1.1768  0.7773 -1.8572
 7301SOL    HW233540   1.735   3.914   7.605  0.2491 -1.6836  0.1886
 7302SOL     OW33541   1.167   1.229  13.161 -0.6271 -0.6020  0.0103
 7302SOL    HW133542   1.190   1.140  13.185  0.6593  0.3413  2.2847
 7302SOL    HW233543   1.245   1.275  13.193 -0.8438 -0.5222  0.4398
 7303SOL     OW33544   3.860   3.016   9.429  0.4542  0.8372  0.2838
 7303SOL    HW133545   3.891   3.074   9.360 -0.3523 -0.7441 -1.4268
 7303SOL    HW233546   3.766   3.036   9.427  0.7012  1.7956 -1.5751
 7304SOL     OW33547   0.631   4.303   7.738  0.4022  0.4304 -0.3786
 7304SOL    HW133548   0.697   4.245   7.699 -0.9232 -0.4128 -1.3459
 7304SOL    HW233549   0.557   4.252   7.706  0.9444 -0.1639 -0.6725
 7305SOL     OW33550   4.366   0.218   2.535  0.0079 -0.1506  0.4543
 7305SOL    HW133551   4.373   0.267   2.617  1.4676  1.5436 -0.6620
 7305SOL    HW233552   4.381   0.129   2.566  1.5269 -0.3974 -0.9470
 7306SOL     OW33553   3.279   3.929   7.188 -0.2330 -1.0528 -0.0776
 7306SOL    HW133554   3.281   3.847   7.237 -2.1058 -0.5434  0.8372
 7306SOL    HW233555   3.336   3.978   7.247 -1.1948  0.2083 -0.2204
 7307SOL     OW33556   2.543   0.453  15.825  0.7422 -0.5034  0.4004
 7307SOL    HW133557   2.450   0.453  15.805  0.4840 -0.6719  1.5607
 7307SOL    HW233558   2.578   0.450  15.736 -0.9257  2.1535 -0.3300
 7308SOL     OW33559   1.974   4.665   3.523 -0.1618 -0.2013 -0.6528
 7308SOL    HW133560   1.886   4.688   3.553  0.5906  0.0699  1.3744
 7308SOL    HW233561   1.966   4.578   3.485 -3.5308 -1.4476  2.9491
 7309SOL     OW33562   3.608   3.804   6.260  0.3536  0.1690  0.1592
 7309SOL    HW133563   3.570   3.741   6.199 -0.0981 -0.7948  1.4281
 7309SOL    HW233564   3.538   3.868   6.273 -1.5784 -1.8798 -0.2951
 7310SOL     OW33565   3.952   1.905   3.987  0.3991 -0.0337  0.0721
 7310SOL    HW133566   3.959   1.825   4.038 -1.6303  1.0154  2.0197
 7310SOL    HW233567   3.946   1.977   4.050  1.2022 -1.4058  1.7249
 7311SOL     OW33568   3.950   2.605   0.929  0.5460 -0.4494  0.0720
 7311SOL    HW133569   3.856   2.604   0.947  0.6946 -1.6814  0.7876
 7311SOL    HW233570   3.956   2.656   0.848 -1.5182 -0.0633  0.1496
 7312SOL     OW33571   1.305   0.100  10.323  0.2956 -0.5123  0.1957
 7312SOL    HW133572   1.276   0.191  10.321 -0.0495 -0.6175  0.3908
 7312SOL    HW233573   1.222   0.053  10.322  1.1374 -2.0621  1.9757
 7313SOL     OW33574   0.422   2.939   4.835  0.1361  0.1905 -0.2101
 7313SOL    HW133575   0.388   2.992   4.907  3.7504 -0.8359  2.2160
 7313SOL    HW233576   0.501   2.909   4.879 -0.1965  2.1555  1.7488
 7314SOL     OW33577   2.513   3.369   4.948 -0.0300 -0.6880  0.0862
 7314SOL    HW133578   2.572   3.418   5.004 -0.6393 -0.2621  0.3606
 7314SOL    HW233579   2.480   3.300   5.006 -1.3524  1.3690  1.8007
 7315SOL     OW33580   1.700   2.094   3.115  0.0058 -0.3550 -0.4367
 7315SOL    HW133581   1.735   2.081   3.027 -2.7302 -0.5886 -1.4684
 7315SOL    HW233582   1.682   2.188   3.124  0.8521 -0.3630  1.5324
 7316SOL     OW33583   3.693   0.496   5.456  0.3218 -0.0550  0.1913
 7316SOL    HW133584   3.696   0.583   5.496  4.8515 -0.4738  0.7478
 7316SOL    HW233585   3.786   0.473   5.462  0.8673  1.6989 -1.4008
 7317SOL     OW33586   3.592   3.082   8.643  0.2741  0.0335 -0.1119
 7317SOL    HW133587   3.532   3.134   8.697  0.9164  0.0960  0.5486
 7317SOL    HW233588   3.539   3.015   8.601 -1.6195  1.3660  0.1147
 7318SOL     OW33589   3.116   2.353   4.541  0.0869  0.1948  0.2324
 7318SOL    HW133590   3.120   2.264   4.506  0.4789  0.3477 -0.1232
 7318SOL    HW233591   3.058   2.336   4.615  1.1647  0.0758  1.0415
 7319SOL     OW33592   3.539   4.262   6.647  0.0616  0.3872 -0.5027
 7319SOL    HW133593   3.629   4.285   6.622  0.7489 -0.2648  1.4391
 7319SOL    HW233594   3.528   4.334   6.710 -2.2413 -1.8074  1.5574
 7320SOL     OW33595   4.172   1.177   8.112  0.4701  0.3531  1.0731
 7320SOL    HW133596   4.097   1.233   8.089 -0.1458 -0.6608  0.6451
 7320SOL    HW233597   4.173   1.124   8.032  1.4401  0.9130  0.7026
 7321SOL     OW33598   4.374   2.127  11.530  0.1238  0.3873  0.0612
 7321SOL    HW133599   4.397   2.143  11.438 -1.0240 -0.8951 -0.4456
 7321SOL    HW233600   4.455   2.086  11.559  0.7740  2.0449  0.5916
 7322SOL     OW33601   0.609   2.012   0.632 -0.0575 -0.0132 -0.0273
 7322SOL    HW133602   0.551   2.088   0.626 -0.5016 -0.0920  3.0694
 7322SOL    HW233603   0.540   1.946   0.623  0.0366 -0.3919  1.8624
 7323SOL     OW33604   4.396   2.584   4.666  0.0193  0.1883  0.8475
 7323SOL    HW133605   4.438   2.562   4.749  1.2035 -0.5881  0.0296
 7323SOL    HW233606   4.461   2.551   4.604  1.2052 -0.3751  2.3833
 7324SOL     OW33607   3.981   2.473   0.517 -0.1028 -0.2073 -0.5195
 7324SOL    HW133608   4.045   2.542   0.501 -0.0016 -0.4310 -1.0655
 7324SOL    HW233609   4.041   2.399   0.528 -0.8414 -0.6813  0.3636
 7325SOL     OW33610   2.485   1.863   7.788  0.0109 -0.4809 -0.0395
 7325SOL    HW133611   2.557   1.923   7.772  0.8563 -1.0897  1.4507
 7325SOL    HW233612   2.447   1.876   7.702  0.5658 -1.7132 -0.4683
 7326SOL     OW33613   4.097   2.025   1.759 -0.5120  0.1936  0.0204
 7326SOL    HW133614   4.070   2.116   1.756  0.5140  0.5249  0.7618
 7326SOL    HW233615   4.162   2.024   1.829  0.0148 -0.2323 -0.4774
 7327SOL     OW33616   2.328   3.255  14.478 -0.5157  0.8277  0.6531
 7327SOL    HW133617   2.420   3.230  14.469 -0.6323  0.2159  1.1815
 7327SOL    HW233618   2.284   3.186  14.428  1.8113 -0.5681  0.5302
 7328SOL     OW33619   3.918   4.663   8.677  0.0274 -0.0328 -0.1296
 7328SOL    HW133620   3.999   4.714   8.682  0.5527 -0.7157 -1.5938
 7328SOL    HW233621   3.880   4.670   8.765  1.7404 -2.1506  0.7838
 7329SOL     OW33622   0.595   0.461  11.604 -1.0542  0.8958 -0.3865
 7329SOL    HW133623   0.505   0.467  11.636 -1.2627  0.2210 -0.8415
 7329SOL    HW233624   0.618   0.553  11.590  0.0050  0.3192 -2.3650
 7330SOL     OW33625   1.289   2.639  14.411  0.5346 -0.4478  0.2090
 7330SOL    HW133626   1.244   2.595  14.483  2.8126  0.3260  2.1301
 7330SOL    HW233627   1.216   2.698  14.393  0.5893 -0.9978 -1.8211
 7331SOL     OW33628   3.758   1.797   0.606  0.0148  0.5639 -0.1051
 7331SOL    HW133629   3.746   1.865   0.539  1.9489  1.6876  0.6973
 7331SOL    HW233630   3.674   1.806   0.650 -0.7517  0.0082 -1.4361
 7332SOL     OW33631   1.833   1.656   6.283 -0.2419 -0.4635 -0.0364
 7332SOL    HW133632   1.811   1.613   6.365  0.3507  0.8906  0.8344
 7332SOL    HW233633   1.761   1.716   6.265 -1.4402 -1.4515  1.4643
 7333SOL     OW33634   4.201   0.328   4.569  0.0887 -0.1327 -0.3812
 7333SOL    HW133635   4.275   0.314   4.511 -0.1878 -0.0008 -0.7628
 7333SOL    HW233636   4.153   0.384   4.509 -0.7235  0.1938  0.5638
 7334SOL     OW33637   3.935   2.691   1.520  0.5951 -0.1896 -0.3893
 7334SOL    HW133638   3.947   2.733   1.605  2.3738 -1.8859  0.1995
 7334SOL    HW233639   3.871   2.622   1.539  1.9237 -1.3822 -0.2786
 7335SOL     OW33640   3.942   0.803   7.968 -0.0068 -0.2101 -0.4046
 7335SOL    HW133641   4.021   0.854   7.946  1.2785 -1.3272  1.5505
 7335SOL    HW233642   3.923   0.835   8.056  2.3292  0.5439 -0.1696
 7336SOL     OW33643   0.349   1.475   1.885 -0.0390 -0.8432  0.4635
 7336SOL    HW133644   0.320   1.440   1.801 -2.1155  0.4712  0.6300
 7336SOL    HW233645   0.265   1.500   1.924  0.9060 -2.0908  3.3331
 7337SOL     OW33646   3.356   3.669   3.008 -0.6637  0.3160  0.4237
 7337SOL    HW133647   3.371   3.758   3.040  0.4812  0.6983 -1.2101
 7337SOL    HW233648   3.265   3.663   3.038 -0.5085  1.2516  1.0947
 7338SOL     OW33649   0.878   1.626   7.932 -0.3352  0.4124  0.2163
 7338SOL    HW133650   0.885   1.653   8.024  0.7836 -3.6204  1.2793
 7338SOL    HW233651   0.827   1.701   7.900 -2.1755 -0.8591  0.1521
 7339SOL     OW33652   4.342   0.850   6.500  0.0730 -0.5011  0.2532
 7339SOL    HW133653   4.409   0.803   6.549  1.5984  0.3047 -1.0250
 7339SOL    HW233654   4.391   0.877   6.422  0.2992 -0.0759  0.5474
 7340SOL     OW33655   4.107   2.123   2.989 -0.2614 -0.5753 -0.3068
 7340SOL    HW133656   4.034   2.079   2.945  0.2196 -0.6068 -1.0829
 7340SOL    HW233657   4.118   2.192   2.922  0.6441 -1.2263 -0.8175
 7341SOL     OW33658   4.056   2.889   6.528  0.3979  0.5907  0.0037
 7341SOL    HW133659   3.963   2.911   6.520 -0.3782 -3.1975 -1.4854
 7341SOL    HW233660   4.071   2.906   6.621 -2.1826 -1.7383  0.8479
 7342SOL     OW33661   0.017   2.257  15.087  0.1019 -0.3583  0.0986
 7342SOL    HW133662   0.085   2.192  15.067 -0.4557 -0.4719 -1.4846
 7342SOL    HW233663   4.695   2.229  15.021  1.0711  1.1615 -1.4900
 7343SOL     OW33664   1.641   0.544  13.299 -0.1194  0.4328  0.3573
 7343SOL    HW133665   1.684   0.609  13.355  1.5878  0.0495 -0.5154
 7343SOL    HW233666   1.665   0.573  13.211  1.7984  0.8903  1.0232
 7344SOL     OW33667   2.091   2.526   1.397  0.6844 -0.3485  0.1365
 7344SOL    HW133668   2.045   2.455   1.353 -1.8137  0.5681  1.2372
 7344SOL    HW233669   2.154   2.554   1.332 -0.6640 -0.7866 -1.3708
 7345SOL     OW33670   2.141   2.398   7.192  0.0627 -0.3116  0.0998
 7345SOL    HW133671   2.105   2.380   7.105 -1.5270  0.3526  0.6283
 7345SOL    HW233672   2.233   2.381   7.172 -0.6446 -4.9645  0.8498
 7346SOL     OW33673   2.664   3.738   6.475 -0.8115 -0.1494  0.2377
 7346SOL    HW133674   2.731   3.699   6.531 -1.9860  1.6273  2.8928
 7346SOL    HW233675   2.710   3.758   6.393  0.7988 -0.0796  1.1639
 7347SOL     OW33676   0.446   4.725   2.817  0.4473 -0.0363 -0.1311
 7347SOL    HW133677   0.464   0.026   2.733 -0.3465  1.4354  0.4414
 7347SOL    HW233678   0.470   4.633   2.809  0.7827  0.1126 -0.8522
 7348SOL     OW33679   1.778   2.985   2.848  0.2142 -0.2955  0.4738
 7348SOL    HW133680   1.790   2.945   2.934 -1.2381  0.8021  1.2031
 7348SOL    HW233681   1.865   2.979   2.808 -0.0279 -0.1078 -0.0885
 7349SOL     OW33682   0.328   0.359   6.178 -0.4707 -0.3219 -0.2290
 7349SOL    HW133683   0.401   0.299   6.193  0.5696  1.3798  1.5427
 7349SOL    HW233684   0.383   0.438   6.180  1.9310 -2.0303  1.7484
 7350SOL     OW33685   3.376   3.745   7.367 -0.2187  0.0484 -0.1256
 7350SOL    HW133686   3.454   3.745   7.423  0.3788  2.3520 -0.9373
 7350SOL    HW233687   3.321   3.681   7.412 -1.0637  2.1401  1.8144
 7351SOL     OW33688   3.075   2.028   4.893  0.6066 -0.1919 -0.2984
 7351SOL    HW133689   3.135   2.059   4.961  0.0426 -1.4762  0.7833
 7351SOL    HW233690   3.133   2.023   4.817  0.6546  1.3629 -0.3799
 7352SOL     OW33691   2.052   1.168   6.916  0.6512 -0.3693  0.5282
 7352SOL    HW133692   2.125   1.193   6.972 -0.7145  2.0516  1.2116
 7352SOL    HW233693   2.022   1.247   6.872 -1.7907 -1.7280 -0.2674
 7353SOL     OW33694   2.985   3.401   6.710  0.3423 -0.2314  0.1452
 7353SOL    HW133695   3.008   3.489   6.681  0.1644 -0.5988 -1.0907
 7353SOL    HW233696   2.978   3.419   6.804  2.1338 -1.6483  0.5588
 7354SOL     OW33697   3.197   2.125  12.478 -0.3844  0.7062 -0.1786
 7354SOL    HW133698   3.290   2.122  12.500 -0.8049 -0.3780  1.4111
 7354SOL    HW233699   3.171   2.185  12.547 -0.0446 -0.8332  1.2840
 7355SOL     OW33700   4.419   4.378   2.738 -0.3613 -0.1065 -0.3688
 7355SOL    HW133701   4.494   4.326   2.710  1.1536  2.4111 -0.9758
 7355SOL    HW233702   4.449   4.467   2.718 -1.2764  0.6532  1.6103
 7356SOL     OW33703   0.913   3.128   7.967  0.4509  0.7163  0.4921
 7356SOL    HW133704   0.991   3.150   8.018 -0.8209  0.4313  2.5819
 7356SOL    HW233705   0.853   3.200   7.986 -0.3050 -0.1173  1.2723
 7357SOL     OW33706   0.079   3.100   8.453 -0.0161 -0.3547  0.0888
 7357SOL    HW133707   0.109   3.044   8.381  2.7052  1.8156 -0.4838
 7357SOL    HW233708   0.029   3.159   8.396 -0.4112  0.5051  1.3173
 7358SOL     OW33709   4.594   3.519  16.339  0.2615 -0.3953 -0.1254
 7358SOL    HW133710   4.594   3.449  16.405  0.8924  0.9446  1.2767
 7358SOL    HW233711   4.507   3.511  16.300 -1.3278  1.0540  3.1499
 7359SOL     OW33712   3.389   2.983   0.130  0.0154  0.4595  0.4646
 7359SOL    HW133713   3.331   2.915   0.164  1.1230 -0.6293  0.1407
 7359SOL    HW233714   3.340   3.063   0.150  1.0276  0.7759  1.6858
 7360SOL     OW33715   0.838   1.149   4.609  0.0534 -0.4262  0.0185
 7360SOL    HW133716   0.816   1.225   4.554 -1.0941 -1.9745 -1.6892
 7360SOL    HW233717   0.841   1.182   4.698 -1.2956  0.4428 -0.2482
 7361SOL     OW33718   4.178   1.316  10.779  0.3868 -0.0480  0.5048
 7361SOL    HW133719   4.100   1.263  10.794 -0.6967  1.7211  1.2078
 7361SOL    HW233720   4.208   1.281  10.695  0.0024 -1.3458  0.9023
 7362SOL     OW33721   0.016   1.836   6.135  0.1509 -0.0590  0.1991
 7362SOL    HW133722   0.000   1.885   6.216  0.2575  0.7797 -0.2822
 7362SOL    HW233723   0.111   1.822   6.133  0.0972 -0.2920 -0.4607
 7363SOL     OW33724   3.628   2.651   8.369 -0.1985  0.0768  0.0407
 7363SOL    HW133725   3.601   2.680   8.282 -1.7158  1.8583  1.1123
 7363SOL    HW233726   3.558   2.589   8.389 -0.3609  0.9135  2.0832
 7364SOL     OW33727   3.735   0.257   4.969 -0.3158  0.5353 -0.1590
 7364SOL    HW133728   3.666   0.293   4.913 -1.6931  0.0644  1.2475
 7364SOL    HW233729   3.789   0.237   4.893 -0.9551  0.0720 -0.4959
 7365SOL     OW33730   0.600   4.365   8.693  0.0900 -0.4118  0.2451
 7365SOL    HW133731   0.559   4.344   8.609 -0.1467 -2.3957  0.8609
 7365SOL    HW233732   0.671   4.425   8.669 -0.8866  0.4560 -0.4511
 7366SOL     OW33733   3.326   0.543   4.196  0.7727 -0.6348  0.1529
 7366SOL    HW133734   3.327   0.639   4.198  0.7168 -0.6896  2.3020
 7366SOL    HW233735   3.291   0.516   4.281 -1.1758  1.1896 -0.0604
 7367SOL     OW33736   1.682   2.264  16.017  0.0847 -0.1047  0.7634
 7367SOL    HW133737   1.696   2.179  16.058  1.3167  0.2560  1.1172
 7367SOL    HW233738   1.587   2.257  16.009  0.2104  1.1018 -1.7157
 7368SOL     OW33739   3.131   2.005   3.189 -0.0891 -0.0906  0.2072
 7368SOL    HW133740   3.179   2.078   3.228  0.2647 -1.5302  2.4895
 7368SOL    HW233741   3.116   1.948   3.265  0.0694 -0.3309  0.0556
 7369SOL     OW33742   3.125   4.441   9.469  0.2512  0.8751  0.1475
 7369SOL    HW133743   3.107   4.479   9.383  1.4332  1.1989  0.0394
 7369SOL    HW233744   3.203   4.391   9.444  0.1639 -0.4505  2.5998
 7370SOL     OW33745   3.244   4.426   7.146  0.2034  0.0034  0.1986
 7370SOL    HW133746   3.298   4.377   7.084  0.1848  1.0299 -0.6391
 7370SOL    HW233747   3.179   4.362   7.174  1.1139 -0.6868  0.7195
 7371SOL     OW33748   1.363   2.427   0.979  0.1570 -0.0370 -0.0360
 7371SOL    HW133749   1.435   2.397   1.034  0.8520 -1.4568 -1.7282
 7371SOL    HW233750   1.287   2.432   1.037 -0.1268  1.6583 -0.5586
 7372SOL     OW33751   4.530   0.159  15.716  0.1663 -0.0691  0.0609
 7372SOL    HW133752   4.619   0.194  15.713  0.0974  0.1394  0.4440
 7372SOL    HW233753   4.477   0.229  15.755  0.7400  0.2577  0.2544
 7373SOL     OW33754   2.041   2.256   8.221 -0.5372  0.8294 -0.3363
 7373SOL    HW133755   2.006   2.167   8.224 -1.9704  1.3916 -0.7001
 7373SOL    HW233756   2.096   2.270   8.299  1.1274  1.9943 -1.7251
 7374SOL     OW33757   3.934   3.692   8.810 -0.2523  0.1225  0.0041
 7374SOL    HW133758   3.841   3.711   8.797 -0.2405  0.1529 -0.0348
 7374SOL    HW233759   3.974   3.713   8.726 -0.1400 -0.0163  0.0231
 7375SOL     OW33760   4.361   2.506   9.408  0.0514 -0.4455 -0.0065
 7375SOL    HW133761   4.311   2.505   9.327 -1.3772 -1.5646  0.8765
 7375SOL    HW233762   4.445   2.528   9.369 -0.0598 -0.4795 -0.2667
 7376SOL     OW33763   3.362   4.730   9.009  0.2292  0.2740  0.2062
 7376SOL    HW133764   3.376   4.643   9.047 -2.2553 -0.1290  0.1715
 7376SOL    HW233765   3.311   4.712   8.930 -0.0649 -2.4958  1.0165
 7377SOL     OW33766   4.514   0.507   8.239 -0.3856 -0.1189  0.3058
 7377SOL    HW133767   4.419   0.522   8.237 -0.9200 -3.1197  2.6258
 7377SOL    HW233768   4.531   0.502   8.333  0.9299  0.6889  0.1054
 7378SOL     OW33769   2.930   1.519  17.749  0.1093 -0.5177  0.2615
 7378SOL    HW133770   3.007   1.576  17.751  1.0555 -1.6826 -2.1721
 7378SOL    HW233771   2.911   1.522  17.655  1.2433  1.9640  0.0972
 7379SOL     OW33772   1.715   4.705   8.189  0.2707  0.9351  0.2317
 7379SOL    HW133773   1.623   4.699   8.214  0.1387 -0.1877 -0.5162
 7379SOL    HW233774   1.717   4.657   8.106  2.5330 -0.0683  0.8842
 7380SOL     OW33775   4.070   3.370   7.904  0.2180 -0.5581 -0.3101
 7380SOL    HW133776   4.087   3.460   7.874 -2.6272 -0.7905 -2.6543
 7380SOL    HW233777   4.059   3.384   7.998  0.5258 -2.2755 -0.0302
 7381SOL     OW33778   3.067   2.565  13.245  0.3335 -0.2724  0.3575
 7381SOL    HW133779   3.148   2.581  13.294 -2.0763 -1.3878  4.7600
 7381SOL    HW233780   3.017   2.634  13.289  1.9196  1.2522 -0.2177
 7382SOL     OW33781   3.421   1.089  13.917 -0.1891 -0.2076 -0.1166
 7382SOL    HW133782   3.509   1.095  13.955  0.2737  0.3146 -1.2592
 7382SOL    HW233783   3.394   0.999  13.935  0.9570 -0.7263 -0.9297
 7383SOL     OW33784   1.868   4.448   7.822  0.3490  0.0207  0.4055
 7383SOL    HW133785   1.822   4.514   7.769 -0.0935  0.3020  1.1358
 7383SOL    HW233786   1.800   4.382   7.833  1.0287 -0.7150  0.1867
 7384SOL     OW33787   1.218   1.251   7.307  0.3117 -0.4112  0.3543
 7384SOL    HW133788   1.138   1.257   7.358  1.1479  0.1347  1.6048
 7384SOL    HW233789   1.186   1.227   7.220  0.7295 -2.4509  0.7660
 7385SOL     OW33790   4.145   4.051   2.214  0.1995 -0.6159  0.0843
 7385SOL    HW133791   4.083   4.045   2.141 -1.4042 -1.5038  1.5389
 7385SOL    HW233792   4.174   3.960   2.219  0.9475 -0.2222  2.7001
 7386SOL     OW33793   4.697   3.929   3.220  0.5136 -0.1395 -0.2312
 7386SOL    HW133794   4.710   4.023   3.234  1.6579 -0.4323  0.6297
 7386SOL    HW233795   4.613   3.906   3.261  1.8693 -1.2919  1.9102
 7387SOL     OW33796   2.027   1.140   8.637 -0.0335 -0.4598  0.4834
 7387SOL    HW133797   2.076   1.065   8.671  0.0652 -1.6577 -2.3254
 7387SOL    HW233798   2.076   1.147   8.555  1.4656 -0.1004  1.4198
 7388SOL     OW33799   0.625   2.341   9.433 -0.0684 -0.0027  0.4739
 7388SOL    HW133800   0.684   2.292   9.491  0.8699  0.4649 -0.1018
 7388SOL    HW233801   0.592   2.409   9.492  0.4467 -1.0346  1.9601
 7389SOL     OW33802   2.729   2.081   6.776 -0.2116 -0.4378 -0.5877
 7389SOL    HW133803   2.681   2.024   6.717  0.9796 -0.5045 -1.4944
 7389SOL    HW233804   2.819   2.066   6.749  0.0567  0.1191 -0.0170
 7390SOL     OW33805   0.028   0.491   3.528 -0.6036 -0.6881 -0.2920
 7390SOL    HW133806   0.081   0.424   3.483  0.3992  0.6204 -1.0825
 7390SOL    HW233807   4.710   0.510   3.456 -0.4968  1.7334  0.2473
 7391SOL     OW33808   1.251   0.254   7.910 -0.4201  0.8930 -0.0768
 7391SOL    HW133809   1.217   0.168   7.936 -1.5728  0.6749 -2.2869
 7391SOL    HW233810   1.339   0.250   7.947  0.6381  0.8078 -2.6290
 7392SOL     OW33811   1.822   3.395  17.552 -0.5541  0.0110  0.1854
 7392SOL    HW133812   1.755   3.327  17.555 -0.8789  0.2085 -2.5376
 7392SOL    HW233813   1.864   3.364  17.472 -0.7579 -0.4606  0.2598
 7393SOL     OW33814   1.440   3.061   7.275 -0.0049  0.0302 -0.1038
 7393SOL    HW133815   1.383   3.031   7.345 -0.0176  1.2266  0.4026
 7393SOL    HW233816   1.528   3.052   7.312  0.1693 -0.6302 -0.6763
 7394SOL     OW33817   2.526   4.137  16.339  0.2756  0.1148 -0.1050
 7394SOL    HW133818   2.570   4.222  16.342  1.6492 -0.5515 -2.2139
 7394SOL    HW233819   2.491   4.119  16.426 -0.3972  0.8534 -0.2227
 7395SOL     OW33820   3.540   1.108  15.433  0.1979 -0.7852 -0.2991
 7395SOL    HW133821   3.626   1.098  15.473  0.7671  3.2121 -0.4766
 7395SOL    HW233822   3.560   1.150  15.350 -1.1142  0.1306 -0.1724
 7396SOL     OW33823   1.523   2.212  14.908  0.2622  0.1348  0.1975
 7396SOL    HW133824   1.453   2.265  14.946 -1.1553 -1.9772  0.5273
 7396SOL    HW233825   1.502   2.126  14.944 -0.3977 -1.1147 -3.1815
 7397SOL     OW33826   3.442   0.555   3.796 -0.7783  0.2094  0.4699
 7397SOL    HW133827   3.527   0.567   3.838 -0.2674 -0.7560 -0.2967
 7397SOL    HW233828   3.400   0.486   3.847  1.2624 -1.3303  0.0466
 7398SOL     OW33829   1.830   3.264  17.148  0.0227  0.6070 -0.6231
 7398SOL    HW133830   1.753   3.214  17.124 -0.5801  0.2954  2.0140
 7398SOL    HW233831   1.820   3.343  17.094  2.3512  0.5739 -1.1427
 7399SOL     OW33832   4.721   2.212   3.665  0.3280  0.0477 -0.3055
 7399SOL    HW133833   4.655   2.233   3.731 -0.1227  2.1913 -1.4190
 7399SOL    HW233834   0.000   2.125   3.697  0.9501  0.7541  1.1892
 7400SOL     OW33835   3.219   2.858  10.700 -0.3406  0.5451  0.7465
 7400SOL    HW133836   3.223   2.785  10.639 -1.0258 -0.9526  2.4925
 7400SOL    HW233837   3.150   2.908  10.657 -1.0209 -1.7330 -0.7841
 7401SOL     OW33838   3.154   2.737   1.621  0.2492  0.2589 -0.4339
 7401SOL    HW133839   3.107   2.819   1.636  1.6757  1.0098  0.0199
 7401SOL    HW233840   3.213   2.728   1.696  0.0021  1.6145 -0.0798
 7402SOL     OW33841   4.226   4.077  11.753  0.4723  0.0983 -0.0716
 7402SOL    HW133842   4.247   3.991  11.788  0.6227  0.1140 -0.1237
 7402SOL    HW233843   4.277   4.076  11.672  1.7369 -1.8684  0.7651
 7403SOL     OW33844   3.253   3.223   0.219 -0.0694 -0.0716 -0.6411
 7403SOL    HW133845   3.275   3.301   0.270 -2.5078 -0.2061  0.6079
 7403SOL    HW233846   3.207   3.273   0.151 -0.8934 -0.0121 -0.0350
 7404SOL     OW33847   1.724   4.723   3.626 -0.0798  0.1539  0.0685
 7404SOL    HW133848   1.706   0.062   3.578 -1.4551 -1.0191 -1.4223
 7404SOL    HW233849   1.648   4.677   3.589  1.2930 -2.4073  0.4636
 7405SOL     OW33850   2.132   1.455   1.784  0.1221  0.1051  0.2019
 7405SOL    HW133851   2.212   1.504   1.768  1.2426 -1.8165 -0.1044
 7405SOL    HW233852   2.069   1.519   1.753  0.1504 -0.3494 -0.7705
 7406SOL     OW33853   0.276   3.086  16.403  0.2570 -0.0594  0.5074
 7406SOL    HW133854   0.236   3.049  16.482 -0.5521  1.8270  0.9652
 7406SOL    HW233855   0.211   3.047  16.344 -0.3705  0.0501  1.1247
 7407SOL     OW33856   4.439   4.490   8.595 -0.7343  0.3098  0.0096
 7407SOL    HW133857   4.521   4.519   8.555 -1.1285 -0.9109 -1.6578
 7407SOL    HW233858   4.464   4.515   8.684 -0.4627  1.1949 -0.3150
 7408SOL     OW33859   4.175   1.617   2.965  0.2767  0.2507 -0.2641
 7408SOL    HW133860   4.188   1.629   3.059  1.2919 -0.9744 -0.2369
 7408SOL    HW233861   4.130   1.533   2.972  0.2915  0.2956  0.3192
 7409SOL     OW33862   3.234   3.002   8.431 -0.3633 -0.0897 -0.6010
 7409SOL    HW133863   3.194   3.013   8.517  0.9585 -1.2098  0.1460
 7409SOL    HW233864   3.301   2.936   8.450 -2.1188 -1.5458  0.5443
 7410SOL     OW33865   1.278   4.737   6.666 -0.6168 -0.2981  0.5008
 7410SOL    HW133866   1.357   0.042   6.640 -0.2742 -0.9965  0.2970
 7410SOL    HW233867   1.220   0.069   6.683 -0.0576  0.6905 -1.8663
 7411SOL     OW33868   2.394   4.262  10.604  0.7568 -0.2825 -0.3616
 7411SOL    HW133869   2.327   4.328  10.623 -0.9790 -2.0410 -0.3599
 7411SOL    HW233870   2.438   4.262  10.689 -1.5506  1.6362  0.8338
 7412SOL     OW33871   3.948   2.280  16.241 -0.2092 -0.0306  0.9427
 7412SOL    HW133872   4.008   2.354  16.230 -0.7593  0.1316 -0.9151
 7412SOL    HW233873   3.928   2.290  16.334 -0.6641 -1.1546  0.9612
 7413SOL     OW33874   4.529   2.580  12.785 -0.6689  0.4741  0.7206
 7413SOL    HW133875   4.521   2.666  12.745  1.6793  0.0955 -0.5620
 7413SOL    HW233876   4.600   2.594  12.848  1.2576 -1.2528 -1.0618
 7414SOL     OW33877   2.285   2.057   1.111  0.0023 -0.3382  0.1643
 7414SOL    HW133878   2.272   2.144   1.150 -0.0715  0.0422 -0.7076
 7414SOL    HW233879   2.197   2.037   1.080 -1.0000  1.3855  1.9079
 7415SOL     OW33880   1.055   1.624   5.540 -0.1860 -0.5822 -0.3748
 7415SOL    HW133881   1.146   1.602   5.560 -0.2689  0.0427  0.7265
 7415SOL    HW233882   1.055   1.652   5.449  0.7454  1.1512  0.1640
 7416SOL     OW33883   1.218   2.969   5.604  0.5821  0.0203 -0.1533
 7416SOL    HW133884   1.240   2.941   5.515 -1.3349  1.5775 -1.1210
 7416SOL    HW233885   1.241   3.062   5.603 -1.0341  0.4338  1.3588
 7417SOL     OW33886   1.955   1.118  16.452  0.0987 -0.7580 -0.1516
 7417SOL    HW133887   1.943   1.090  16.542 -3.6297 -1.9199 -1.0129
 7417SOL    HW233888   1.886   1.185  16.454  0.8402  0.1007 -3.2773
 7418SOL     OW33889   3.725   1.003   9.420  0.1389 -0.0537  0.4062
 7418SOL    HW133890   3.688   1.021   9.506  0.2592 -0.5649  0.5634
 7418SOL    HW233891   3.737   0.908   9.411 -0.8248 -0.1225 -0.1168
 7419SOL     OW33892   1.762   2.292   5.308  0.2269 -0.5175 -0.6813
 7419SOL    HW133893   1.780   2.257   5.221  0.8682 -2.9871  0.4540
 7419SOL    HW233894   1.801   2.379   5.297 -0.0405 -0.4965 -1.4488
 7420SOL     OW33895   0.298   1.873  14.530  0.1723 -0.1709  0.4770
 7420SOL    HW133896   0.206   1.896  14.514  0.2961  2.3219  3.1948
 7420SOL    HW233897   0.324   1.860  14.439  0.2478 -1.2900  0.6620
 7421SOL     OW33898   2.555   3.977   2.432  0.0989 -0.5754  0.4954
 7421SOL    HW133899   2.521   4.060   2.398 -0.1568 -1.1245 -0.5506
 7421SOL    HW233900   2.481   3.919   2.447 -1.9275  2.3046  1.8031
 7422SOL     OW33901   4.657   3.845   6.726  0.0461 -0.1248  0.5370
 7422SOL    HW133902   0.006   3.828   6.750 -0.2702 -3.1070 -0.4107
 7422SOL    HW233903   4.646   3.922   6.782  0.1411  1.1986 -1.2648
 7423SOL     OW33904   2.327   0.482   5.967  0.4632 -0.0415 -0.5877
 7423SOL    HW133905   2.236   0.452   5.969  0.8905 -1.4829 -1.9553
 7423SOL    HW233906   2.368   0.396   5.976  0.7679  0.3264  1.4699
 7424SOL     OW33907   1.040   2.336   3.105 -0.2453  0.4790 -0.2145
 7424SOL    HW133908   1.050   2.313   3.197 -0.0009  0.5801 -0.2164
 7424SOL    HW233909   1.131   2.328   3.075  0.3547 -0.5138  1.8859
 7425SOL     OW33910   3.188   0.311  12.250 -0.3404 -0.6717  0.1503
 7425SOL    HW133911   3.216   0.269  12.330 -0.4471 -2.0862 -0.5644
 7425SOL    HW233912   3.158   0.397  12.282 -2.9550 -0.5755 -2.5073
 7426SOL     OW33913   4.338   1.674   7.506  0.2146 -0.6884  0.3352
 7426SOL    HW133914   4.400   1.608   7.536  0.0780  0.7368  3.7378
 7426SOL    HW233915   4.388   1.700   7.429  0.2117 -0.8476  0.2790
 7427SOL     OW33916   3.488   1.471   0.165  0.4297 -0.2265 -0.1838
 7427SOL    HW133917   3.395   1.477   0.141 -0.2403  0.7399  2.6214
 7427SOL    HW233918   3.518   1.387   0.129 -0.8832 -0.9470  0.3731
 7428SOL     OW33919   1.893   1.075   3.577 -0.3055  0.1953  0.1845
 7428SOL    HW133920   1.843   1.072   3.659  0.4360 -1.5784  0.5728
 7428SOL    HW233921   1.945   1.154   3.583 -0.8987  0.6452 -0.4773
 7429SOL     OW33922   2.343   3.474   0.664  0.3525  0.0512 -0.3242
 7429SOL    HW133923   2.388   3.444   0.584  0.5441  0.8668 -0.5320
 7429SOL    HW233924   2.295   3.395   0.684  0.7274 -0.5442 -1.7667
 7430SOL     OW33925   0.556   2.443   5.044 -0.3863 -0.1752 -0.5225
 7430SOL    HW133926   0.495   2.500   5.091  1.6343 -0.4576  2.4178
 7430SOL    HW233927   0.637   2.489   5.063  1.2159 -2.8666 -0.8022
 7431SOL     OW33928   1.018   0.104   3.343 -0.5718  0.0042  0.4528
 7431SOL    HW133929   1.072   0.095   3.265  0.1703 -1.2478  1.1109
 7431SOL    HW233930   1.075   0.070   3.412 -3.0783  0.4286  2.7566
 7432SOL     OW33931   2.359   2.426  16.051 -0.0511 -0.6896  0.2841
 7432SOL    HW133932   2.283   2.437  16.109  1.0056 -0.4840  1.6197
 7432SOL    HW233933   2.306   2.431  15.971 -0.0993 -0.2556  0.3450
 7433SOL     OW33934   0.386   3.552  14.084 -0.2454  0.2370 -0.0052
 7433SOL    HW133935   0.378   3.461  14.114  0.3897  0.0668 -0.3625
 7433SOL    HW233936   0.469   3.553  14.036 -0.1494 -3.0888  0.0917
 7434SOL     OW33937   0.865   0.408   0.898  0.2668  0.4077  0.2993
 7434SOL    HW133938   0.802   0.338   0.916 -0.7873  0.6576 -2.4876
 7434SOL    HW233939   0.842   0.465   0.971  1.9274  0.2222  0.9665
 7435SOL     OW33940   0.020   1.765  15.786  0.5505 -0.2217  0.3002
 7435SOL    HW133941   0.080   1.839  15.772  0.8944 -0.6178 -0.2893
 7435SOL    HW233942   4.707   1.762  15.708 -2.2452  2.9783  2.1397
 7436SOL     OW33943   4.736   4.435  17.553 -0.3280 -0.1893  0.4002
 7436SOL    HW133944   4.728   4.343  17.579 -1.8632 -0.0300  0.5149
 7436SOL    HW233945   4.654   4.472  17.587 -1.5298 -1.1687 -1.4087
 7437SOL     OW33946   0.835   2.212   7.863 -0.0595 -0.3233  0.2766
 7437SOL    HW133947   0.919   2.176   7.892  1.1184  2.3523  0.1140
 7437SOL    HW233948   0.786   2.212   7.945 -2.5183  0.5042 -1.1870
 7438SOL     OW33949   3.370   4.309   3.605  0.0131  0.3080 -0.4368
 7438SOL    HW133950   3.326   4.274   3.527  2.0003  0.7306 -1.7458
 7438SOL    HW233951   3.322   4.385   3.636  1.9172  1.4732 -0.3844
 7439SOL     OW33952   3.639   1.000   7.552  0.2666  0.0963 -0.3707
 7439SOL    HW133953   3.670   1.074   7.501 -0.0884  1.1040  0.8848
 7439SOL    HW233954   3.596   0.957   7.477  0.3952  2.4149 -1.7739
 7440SOL     OW33955   0.517   0.562   6.169 -0.6157 -0.5323 -0.5112
 7440SOL    HW133956   0.574   0.553   6.092 -0.3170 -0.3113 -0.3149
 7440SOL    HW233957   0.552   0.645   6.201  0.0335 -0.7506 -0.6514
 7441SOL     OW33958   1.352   3.551   2.149  0.6251  0.1266  0.2902
 7441SOL    HW133959   1.315   3.493   2.217  0.7200  0.9101  1.0113
 7441SOL    HW233960   1.418   3.490   2.115  0.0885 -0.1683 -0.2279
 7442SOL     OW33961   2.750   1.114   7.336  0.3619 -0.9784  0.0275
 7442SOL    HW133962   2.803   1.185   7.300 -1.4231  0.1466 -0.4021
 7442SOL    HW233963   2.807   1.044   7.304  0.2811 -0.7513 -0.6013
 7443SOL     OW33964   0.759   4.664  11.804  0.2255 -0.0729  0.4067
 7443SOL    HW133965   0.696   4.721  11.847  1.3078  1.4679 -0.0722
 7443SOL    HW233966   0.843   4.701  11.830 -0.8852  2.6529  0.0935
 7444SOL     OW33967   0.785   0.432   4.015 -0.1366 -0.0788  0.2745
 7444SOL    HW133968   0.723   0.446   4.086 -0.8953  1.7871 -0.7418
 7444SOL    HW233969   0.786   0.339   3.993 -2.6692  0.0028 -0.1965
 7445SOL     OW33970   3.124   2.657   7.011 -0.2752  0.1238 -0.2595
 7445SOL    HW133971   3.069   2.618   6.942 -0.6554  0.5116 -0.1698
 7445SOL    HW233972   3.088   2.745   7.022 -1.6236 -0.3826 -0.5068
 7446SOL     OW33973   3.073   2.682  15.300  0.6206 -0.0754  0.4044
 7446SOL    HW133974   3.004   2.620  15.275  0.9436 -0.9635  1.7623
 7446SOL    HW233975   3.092   2.656  15.390 -4.7963 -0.2239  1.5255
 7447SOL     OW33976   1.654   1.021   8.504  0.4288  0.2944  0.1795
 7447SOL    HW133977   1.582   0.981   8.457 -1.4974  1.1445  2.3819
 7447SOL    HW233978   1.611   1.096   8.546  2.1997  1.6398 -0.3886
 7448SOL     OW33979   3.868   3.395   7.581  0.2162 -0.3659  0.0431
 7448SOL    HW133980   3.851   3.326   7.518 -1.2951 -1.2125  1.3785
 7448SOL    HW233981   3.823   3.351   7.653  0.6740 -2.3783 -0.8941
 7449SOL     OW33982   3.789   4.318   4.936 -0.6517  0.6183  0.1686
 7449SOL    HW133983   3.766   4.404   4.970  0.2470  1.8872 -2.4645
 7449SOL    HW233984   3.729   4.310   4.863  0.5289 -2.1333 -0.5120
 7450SOL     OW33985   3.580   1.020  12.873 -0.0710  0.4265 -0.1355
 7450SOL    HW133986   3.573   1.034  12.779 -0.7677  0.9188 -0.0015
 7450SOL    HW233987   3.652   1.077  12.901 -0.2989 -0.1167  1.5720
 7451SOL     OW33988   0.206   4.082   7.027  0.0104  0.4463 -0.0302
 7451SOL    HW133989   0.300   4.060   7.025  0.3999  2.0548  0.5680
 7451SOL    HW233990   0.182   4.084   7.119 -1.4983 -0.5864 -0.4149
 7452SOL     OW33991   1.739   0.818   2.167  0.0915 -0.2012 -0.1385
 7452SOL    HW133992   1.833   0.804   2.159  0.2820  0.3624  0.9780
 7452SOL    HW233993   1.699   0.752   2.112  0.0132 -0.1401 -0.1545
 7453SOL     OW33994   4.176   3.563   6.448  0.6786 -0.5661  0.2899
 7453SOL    HW133995   4.212   3.591   6.532 -0.1543  0.3852  0.3263
 7453SOL    HW233996   4.152   3.475   6.477 -0.1494  0.0737  1.5321
 7454SOL     OW33997   0.840   0.211   9.548 -0.0873  0.3375 -0.6987
 7454SOL    HW133998   0.840   0.307   9.544 -2.8735  0.3961  0.2814
 7454SOL    HW233999   0.747   0.198   9.530 -0.6182  1.3815  1.2875
 7455SOL     OW34000   2.393   2.314  13.443  0.1448 -0.1086 -0.1944
 7455SOL    HW134001   2.443   2.383  13.399 -0.2189 -0.1529 -0.6844
 7455SOL    HW234002   2.465   2.266  13.485 -0.4286 -0.7298  0.0776
 7456SOL     OW34003   1.597   2.811  14.116  0.0296 -0.0517  0.0223
 7456SOL    HW134004   1.511   2.808  14.075  0.0890  0.4009 -0.1368
 7456SOL    HW234005   1.636   2.737  14.070 -0.5510  0.4265 -1.2512
 7457SOL     OW34006   0.657   4.441   5.559  0.1689  0.3347  0.2466
 7457SOL    HW134007   0.678   4.457   5.651 -0.3545  2.0952  0.0493
 7457SOL    HW234008   0.642   4.532   5.536  1.1046  1.0833  2.5861
 7458SOL     OW34009   4.413   2.183   8.282 -0.0270 -0.6666  0.6317
 7458SOL    HW134010   4.417   2.159   8.190 -0.4015  1.1445  0.1424
 7458SOL    HW234011   4.499   2.221   8.300 -0.9497 -0.0318  3.6138
 7459SOL     OW34012   2.786   3.938   4.864  0.0493 -0.2951 -0.4619
 7459SOL    HW134013   2.701   3.904   4.836  0.5050 -0.1909 -2.0121
 7459SOL    HW234014   2.793   4.011   4.802  0.0028 -0.1555 -0.3033
 7460SOL     OW34015   0.510   4.408  17.164 -0.0813 -0.2329  0.0189
 7460SOL    HW134016   0.423   4.376  17.141 -1.0876  0.7027  2.4973
 7460SOL    HW234017   0.529   4.361  17.246 -0.5860 -1.2633 -0.4510
 7461SOL     OW34018   3.869   4.358  11.324 -0.6438  0.5468  0.0069
 7461SOL    HW134019   3.836   4.269  11.337 -0.2112  0.2141 -1.1861
 7461SOL    HW234020   3.879   4.379  11.416  0.7324 -0.3951  0.0738
 7462SOL     OW34021   1.777   1.855   5.485  0.0789  0.0436 -0.3852
 7462SOL    HW134022   1.798   1.815   5.401  3.0992  0.9624 -0.0758
 7462SOL    HW234023   1.866   1.856   5.521  0.1142 -1.5123 -0.4689
 7463SOL     OW34024   0.709   0.210  17.726 -0.1599  0.3140  0.1495
 7463SOL    HW134025   0.643   0.141  17.728  0.7589 -0.6026 -2.0810
 7463SOL    HW234026   0.739   0.216   0.052  2.7783 -0.7789 -0.7525
 7464SOL     OW34027   0.508   2.123  12.001 -0.0685 -0.0472  0.1437
 7464SOL    HW134028   0.433   2.179  11.981 -0.1164 -0.0065  0.4348
 7464SOL    HW234029   0.463   2.039  12.008  1.2580 -0.6453  1.3869
 7465SOL     OW34030   1.590   0.441   5.144  0.1648  0.9208 -0.6091
 7465SOL    HW134031   1.631   0.358   5.168  0.8749  0.4524 -3.3998
 7465SOL    HW234032   1.609   0.438   5.050 -0.1715  0.5216 -0.6641
 7466SOL     OW34033   0.952   1.543   9.542  0.0646  0.4862  0.2001
 7466SOL    HW134034   0.943   1.505   9.630 -1.2363  3.1152  1.2134
 7466SOL    HW234035   0.894   1.618   9.554  0.3682  0.8849 -0.8701
 7467SOL     OW34036   1.333   0.785   4.841 -0.3288  0.1997  0.0899
 7467SOL    HW134037   1.302   0.734   4.916  0.5976  2.2702  1.8707
 7467SOL    HW234038   1.379   0.856   4.886 -2.4385  2.2775 -0.9891
 7468SOL     OW34039   2.691   0.498   3.064 -0.0648 -0.0548 -0.2143
 7468SOL    HW134040   2.647   0.435   3.006 -0.1688 -0.2116  0.0359
 7468SOL    HW234041   2.619   0.517   3.123  1.4540  2.7704  0.7065
 7469SOL     OW34042   4.595   4.132   5.749 -0.1914  0.0309 -0.0824
 7469SOL    HW134043   4.560   4.218   5.725 -0.7970  0.7097  3.2714
 7469SOL    HW234044   4.569   4.131   5.841  0.8437  0.9748  0.2344
 7470SOL     OW34045   1.271   3.376   7.039 -0.0391  0.1711  0.6364
 7470SOL    HW134046   1.261   3.314   6.967  2.7466  1.2149 -0.6637
 7470SOL    HW234047   1.349   3.345   7.085  1.5941  0.0624 -2.1838
 7471SOL     OW34048   3.078   4.344   4.792  0.3353  0.2824 -0.0258
 7471SOL    HW134049   3.081   4.251   4.812  4.0197  1.3701  4.2063
 7471SOL    HW234050   2.995   4.370   4.832  0.2081  1.0263 -0.7704
 7472SOL     OW34051   0.411   1.275   3.915 -0.2219  0.1369  0.2518
 7472SOL    HW134052   0.438   1.294   3.825  0.7212  0.1432  0.5351
 7472SOL    HW234053   0.378   1.186   3.906 -0.1088  0.2241 -0.9973
 7473SOL     OW34054   2.182   1.225  11.254 -0.7038 -0.2007  0.2364
 7473SOL    HW134055   2.121   1.152  11.264 -0.2523 -0.8023 -1.5048
 7473SOL    HW234056   2.182   1.266  11.341  0.4554 -0.9616  0.6028
 7474SOL     OW34057   2.050   2.361   9.383 -0.0223  0.2379  0.1716
 7474SOL    HW134058   2.145   2.361   9.400  0.0494 -0.3164 -0.2384
 7474SOL    HW234059   2.053   2.268   9.364  0.1646  0.0606  1.0877
 7475SOL     OW34060   1.968   2.928  11.988  0.6766  0.3725  0.3770
 7475SOL    HW134061   2.030   2.903  12.056 -0.2607 -0.4781  0.9002
 7475SOL    HW234062   2.000   2.860  11.928  0.9168  2.1482 -1.5276
 7476SOL     OW34063   0.285   3.127   8.638 -0.1014 -0.0800 -0.2338
 7476SOL    HW134064   0.255   3.055   8.695 -2.4862  1.1665  0.0668
 7476SOL    HW234065   0.222   3.123   8.566  0.5862  0.2402 -0.8522
 7477SOL     OW34066   0.408   0.439   7.925 -0.2049  0.2149 -0.1537
 7477SOL    HW134067   0.335   0.407   7.871  0.7296 -1.1949 -0.5589
 7477SOL    HW234068   0.475   0.381   7.890  0.5948 -1.2367  3.8267
 7478SOL     OW34069   3.492   4.043   5.462 -0.2832 -0.3733 -0.0166
 7478SOL    HW134070   3.517   3.989   5.387  0.8061  0.9172 -0.5787
 7478SOL    HW234071   3.577   4.046   5.507 -0.8844 -2.9214  1.2658
 7479SOL     OW34072   0.203   3.754   4.900  0.0842  0.1429  0.2648
 7479SOL    HW134073   0.279   3.768   4.956  1.7907 -0.2753 -1.9602
 7479SOL    HW234074   0.180   3.665   4.926  0.1484 -0.0456 -0.3347
 7480SOL     OW34075   0.527   0.627   7.124  0.2630  0.3631 -0.3235
 7480SOL    HW134076   0.514   0.532   7.118 -0.6755  0.4610  0.1676
 7480SOL    HW234077   0.613   0.641   7.084  0.6333 -0.2145  0.2611
 7481SOL     OW34078   4.481   4.420   3.860 -0.1255  0.5092  0.0014
 7481SOL    HW134079   4.411   4.397   3.799 -0.0594 -0.4766  0.3016
 7481SOL    HW234080   4.540   4.466   3.801  0.1004  0.3539  0.1109
 7482SOL     OW34081   1.716   0.499  17.180 -0.3656 -0.4705 -0.6968
 7482SOL    HW134082   1.790   0.445  17.207  0.9927  1.0003 -1.5036
 7482SOL    HW234083   1.763   0.546  17.112 -1.3338 -0.1214 -1.1248
 7483SOL     OW34084   4.090   4.653   2.001 -0.3852  0.6660 -0.0306
 7483SOL    HW134085   4.154   4.651   1.930 -2.1895 -0.7394 -1.6188
 7483SOL    HW234086   4.125   4.730   2.046  0.4649  0.8514 -1.0205
 7484SOL     OW34087   2.116   2.091   3.789  0.4967 -0.3600 -0.2038
 7484SOL    HW134088   2.025   2.119   3.774  0.4706  1.6856  3.5871
 7484SOL    HW234089   2.161   2.112   3.708 -2.0610 -0.3118 -1.6181
 7485SOL     OW34090   1.976   1.966  11.060  0.3910 -0.1712  0.4084
 7485SOL    HW134091   1.967   1.922  10.975  0.7965  1.4031 -0.4427
 7485SOL    HW234092   1.911   1.933  11.122  1.0424  0.0366  1.1896
 7486SOL     OW34093   3.313   0.966   8.129  0.1091 -0.1366  0.4974
 7486SOL    HW134094   3.271   0.975   8.044 -0.3215  1.5877  0.9037
 7486SOL    HW234095   3.310   0.870   8.133  1.2942 -0.1867  0.2649
 7487SOL     OW34096   4.611   3.139  17.320 -0.0266  0.7318 -0.2855
 7487SOL    HW134097   4.696   3.098  17.304 -0.7437 -0.9780  0.3555
 7487SOL    HW234098   4.649   3.220  17.354 -0.3479  1.0402 -0.6558
 7488SOL     OW34099   3.472   4.052  12.717 -0.2413  0.4984 -0.0163
 7488SOL    HW134100   3.394   4.085  12.673  1.0584  1.6048 -1.4867
 7488SOL    HW234101   3.445   4.030  12.806 -1.6656 -4.3399 -1.6334
 7489SOL     OW34102   2.869   3.773  12.495  0.4652  0.1853 -0.0476
 7489SOL    HW134103   2.955   3.732  12.496  0.8177  0.9393  0.3924
 7489SOL    HW234104   2.870   3.812  12.408 -1.6465  0.1327 -0.1042
 7490SOL     OW34105   2.789   3.926   2.294 -1.0640 -0.1424 -0.0196
 7490SOL    HW134106   2.712   3.942   2.349  0.7357  1.7549  1.9403
 7490SOL    HW234107   2.848   3.875   2.349  0.7878  3.8823  1.7442
 7491SOL     OW34108   0.287   3.714   2.353  0.0070 -0.5091 -0.0442
 7491SOL    HW134109   0.195   3.736   2.344 -0.5763 -2.7526  0.4726
 7491SOL    HW234110   0.313   3.794   2.306 -2.8230 -0.5825 -1.6866
 7492SOL     OW34111   0.184   0.966   8.711  0.5593  0.0871 -0.0510
 7492SOL    HW134112   0.225   1.029   8.651  1.7312  0.0293  0.6750
 7492SOL    HW234113   0.220   0.992   8.796  0.4000  1.1139 -0.2938
 7493SOL     OW34114   1.252   4.479   7.800 -0.4024 -0.5422 -0.0765
 7493SOL    HW134115   1.238   4.384   7.796 -2.0291 -0.3131  0.3064
 7493SOL    HW234116   1.346   4.483   7.779 -0.7446  1.9096 -1.0566
 7494SOL     OW34117   1.766   2.943  17.436 -0.0991  0.1815 -0.2069
 7494SOL    HW134118   1.859   2.966  17.437 -0.5784  2.0930  1.1839
 7494SOL    HW234119   1.726   3.023  17.471 -1.4762 -0.3604 -0.5548
 7495SOL     OW34120   2.238   3.831   1.134  0.0227  0.3060 -0.0903
 7495SOL    HW134121   2.210   3.889   1.063 -1.0297 -0.3668 -0.2274
 7495SOL    HW234122   2.150   3.800   1.159  0.3710 -2.0640 -1.7775
 7496SOL     OW34123   0.499   2.322   6.786  0.0597 -0.2688  0.2821
 7496SOL    HW134124   0.570   2.385   6.795  0.4487 -1.0158  2.2702
 7496SOL    HW234125   0.473   2.328   6.694  2.6872 -0.0300 -0.4502
 7497SOL     OW34126   2.375   0.894  12.297  0.3462 -0.1603 -1.0695
 7497SOL    HW134127   2.280   0.896  12.284  0.4828 -1.6237 -2.1781
 7497SOL    HW234128   2.416   0.855  12.221 -2.9520  1.0720 -3.4820
 7498SOL     OW34129   0.391   3.945   7.186  0.2376 -0.1041 -0.1016
 7498SOL    HW134130   0.346   3.876   7.235  0.0959 -0.3319 -0.5575
 7498SOL    HW234131   0.483   3.919   7.183 -0.4540 -2.5321 -0.4384
 7499SOL     OW34132   1.981   0.848  12.962  0.4309 -0.1910  0.1519
 7499SOL    HW134133   2.026   0.764  12.974  1.3462  0.0892 -1.3543
 7499SOL    HW234134   1.910   0.839  13.026 -0.0012  0.2680 -0.2681
 7500SOL     OW34135   4.354   1.410   8.958 -0.3183 -0.4801 -0.0896
 7500SOL    HW134136   4.437   1.403   8.911 -0.4533 -0.1397 -0.3798
 7500SOL    HW234137   4.298   1.453   8.894 -0.3905  1.6028  1.3750
 7501SOL     OW34138   2.246   1.435  13.166  0.0670 -0.1072  0.2066
 7501SOL    HW134139   2.277   1.473  13.084  1.5965 -0.8820  0.4356
 7501SOL    HW234140   2.235   1.517  13.214  0.7312 -1.0151  1.9368
 7502SOL     OW34141   3.075   4.185   8.755 -0.1850  0.4731 -0.1385
 7502SOL    HW134142   3.038   4.274   8.756 -0.1044  0.4952  1.2979
 7502SOL    HW234143   3.001   4.136   8.790  1.8372 -2.5021 -0.0786
 7503SOL     OW34144   3.478   0.525   7.069 -0.2321 -0.2345  0.3951
 7503SOL    HW134145   3.520   0.527   7.155 -0.6062 -1.5706  0.6021
 7503SOL    HW234146   3.477   0.619   7.048 -0.3227 -0.0233  1.3157
 7504SOL     OW34147   4.690   4.328   2.874  0.2222  0.1044  0.2303
 7504SOL    HW134148   0.003   4.356   2.946 -1.9751  0.7065  1.6855
 7504SOL    HW234149   4.612   4.378   2.897  0.5791  0.6691  0.2012
 7505SOL     OW34150   2.962   1.616   4.752  0.4588  0.5240 -0.6956
 7505SOL    HW134151   2.948   1.679   4.681  1.3743 -1.1865 -2.3929
 7505SOL    HW234152   3.034   1.564   4.717  0.6764  0.7836 -0.6343
 7506SOL     OW34153   0.132   0.505   4.100  0.1587 -0.5846 -0.5723
 7506SOL    HW134154   0.116   0.549   4.183  1.7508  0.9190 -1.0896
 7506SOL    HW234155   0.048   0.458   4.092  0.0878 -0.1396 -2.5138
 7507SOL     OW34156   3.183   2.710   4.215  0.1360 -0.6050  0.1577
 7507SOL    HW134157   3.163   2.704   4.121  2.6274 -0.0331 -0.3873
 7507SOL    HW234158   3.189   2.617   4.236  3.0964 -0.0188  1.7531
 7508SOL     OW34159   3.257   2.259   5.820  0.2842 -0.0596 -0.1223
 7508SOL    HW134160   3.302   2.187   5.775 -0.7374 -0.1507 -0.9993
 7508SOL    HW234161   3.169   2.256   5.783  0.7144 -0.1144 -1.1299
 7509SOL     OW34162   3.726   1.375   6.769 -0.0090  0.0007  0.1975
 7509SOL    HW134163   3.732   1.323   6.688  1.6883  0.6772 -0.1208
 7509SOL    HW234164   3.794   1.440   6.751 -0.6764  0.5670 -0.2805
 7510SOL     OW34165   2.121   4.082   5.056  0.4651  0.2968  0.7270
 7510SOL    HW134166   2.137   4.025   4.980  0.7571  0.0479  0.9748
 7510SOL    HW234167   2.068   4.149   5.013  0.9034  1.5883  2.1937
 7511SOL     OW34168   2.843   2.435   8.973  0.2782  0.1065  0.1271
 7511SOL    HW134169   2.751   2.416   8.990  0.7252 -1.8269  0.3973
 7511SOL    HW234170   2.879   2.349   8.952  1.5731  1.3811 -2.8253
 7512SOL     OW34171   0.794   1.986   1.988  0.4014 -0.2673 -0.3622
 7512SOL    HW134172   0.708   2.007   1.950  0.3632 -1.1067 -0.7403
 7512SOL    HW234173   0.785   1.891   1.984  1.8216 -0.4483  0.5267
 7513SOL     OW34174   2.882   1.645   2.500  0.1981  0.6379  0.8505
 7513SOL    HW134175   2.851   1.572   2.446 -0.0090  0.9351  0.5660
 7513SOL    HW234176   2.803   1.687   2.533 -1.0558 -0.7667 -0.3603
 7514SOL     OW34177   1.421   2.223  16.002  0.0543 -0.3108 -0.2302
 7514SOL    HW134178   1.359   2.288  15.969 -0.3093 -1.0185 -0.9388
 7514SOL    HW234179   1.372   2.200  16.081 -0.3953  1.8220  0.1294
 7515SOL     OW34180   2.333   2.742   9.521 -0.0592 -0.4373 -0.7606
 7515SOL    HW134181   2.414   2.691   9.522 -0.1188 -0.5188 -0.1776
 7515SOL    HW234182   2.335   2.775   9.611  0.3088  0.3917 -1.0710
 7516SOL     OW34183   3.986   2.607   8.540 -0.2676  0.1225  0.3719
 7516SOL    HW134184   4.042   2.572   8.610 -1.3080  0.5804  1.4220
 7516SOL    HW234185   3.905   2.604   8.590 -1.1667  1.8917 -1.0058
 7517SOL     OW34186   0.665   0.099   7.230 -0.2478  0.1928 -0.0482
 7517SOL    HW134187   0.613   0.052   7.164  0.7742 -2.0648  0.7466
 7517SOL    HW234188   0.744   0.117   7.179 -0.1816  2.1028  0.7164
 7518SOL     OW34189   3.501   0.912   2.968 -0.0103  0.2050  0.7309
 7518SOL    HW134190   3.456   0.961   3.038 -4.0489 -0.6035 -1.2766
 7518SOL    HW234191   3.566   0.866   3.021 -0.1848  0.1044  0.8581
 7519SOL     OW34192   2.097   2.409   6.573 -0.0084  0.7728  0.0398
 7519SOL    HW134193   2.191   2.416   6.586 -0.0954 -0.5553  1.4244
 7519SOL    HW234194   2.090   2.413   6.478 -0.0982 -1.7295 -0.0745
 7520SOL     OW34195   3.498   1.986   3.503  0.2025  0.1631 -0.3569
 7520SOL    HW134196   3.546   1.914   3.545  1.7183  0.5938 -1.3468
 7520SOL    HW234197   3.499   1.953   3.413  0.9937  0.1620 -0.3512
 7521SOL     OW34198   2.580   0.001   6.282 -0.1332  0.0957 -0.2611
 7521SOL    HW134199   2.530   0.062   6.336 -0.3870  0.0481 -0.4398
 7521SOL    HW234200   2.661   0.049   6.268  1.6446 -3.1500 -0.9842
 7522SOL     OW34201   2.310   0.389   7.178  0.1617  0.1606 -0.3161
 7522SOL    HW134202   2.217   0.408   7.182  0.0073  0.0445 -3.1620
 7522SOL    HW234203   2.350   0.447   7.243  2.7590 -1.7536 -0.1793
 7523SOL     OW34204   1.328   1.223   4.486 -0.0026 -0.2845  0.0331
 7523SOL    HW134205   1.316   1.309   4.525  0.5183  0.0278 -0.5055
 7523SOL    HW234206   1.324   1.247   4.393  2.8520 -2.3403 -0.6369
 7524SOL     OW34207   3.120   0.905   4.098 -0.1623  0.5359 -0.3982
 7524SOL    HW134208   3.098   0.908   4.192  1.2830  1.0167 -0.0807
 7524SOL    HW234209   3.105   0.998   4.081  0.3712  0.3823 -1.6329
 7525SOL     OW34210   2.181   3.909   9.418  0.2224 -0.2171 -0.3472
 7525SOL    HW134211   2.088   3.932   9.409  0.3827  0.3456 -0.5306
 7525SOL    HW234212   2.183   3.828   9.367 -1.4744 -0.2539 -0.3860
 7526SOL     OW34213   0.751   2.800   3.525 -0.0201 -0.1858  0.1856
 7526SOL    HW134214   0.764   2.727   3.585 -0.9544 -1.1980 -0.8564
 7526SOL    HW234215   0.839   2.834   3.505 -0.9390  1.8676 -0.3868
 7527SOL     OW34216   1.480   0.425  17.318  0.2068  0.0818  0.4326
 7527SOL    HW134217   1.427   0.502  17.298 -0.4117 -0.6441 -0.7636
 7527SOL    HW234218   1.569   0.459  17.309  0.8117 -1.5911  0.1887
 7528SOL     OW34219   1.837   0.611   9.138 -0.4346 -0.3594  0.5943
 7528SOL    HW134220   1.912   0.665   9.162  0.6084 -0.7319 -1.8613
 7528SOL    HW234221   1.828   0.552   9.212  2.1086 -0.6358  0.6662
 7529SOL     OW34222   3.951   1.924   4.676 -0.4004  0.3315 -0.2678
 7529SOL    HW134223   3.873   1.979   4.689 -1.0373 -0.6939  0.2274
 7529SOL    HW234224   4.023   1.985   4.662 -0.0844  0.4061  1.7122
 7530SOL     OW34225   2.933   0.579   0.907 -0.3094 -0.1162 -0.0305
 7530SOL    HW134226   2.964   0.491   0.883 -1.5458 -0.4073 -0.5334
 7530SOL    HW234227   3.015   0.629   0.908 -0.2848 -0.1691  0.9061
 7531SOL     OW34228   1.427   1.571   1.163 -0.2574 -0.1312 -0.6361
 7531SOL    HW134229   1.341   1.596   1.196  1.0660  1.5772  1.5138
 7531SOL    HW234230   1.447   1.495   1.217  0.2414  0.1311 -0.4496
 7532SOL     OW34231   3.111   4.185  15.928 -0.2502  0.2191 -0.2022
 7532SOL    HW134232   3.194   4.170  15.883 -1.1083 -0.7443 -1.4629
 7532SOL    HW234233   3.061   4.193  15.847  0.2543  1.0052 -0.4342
 7533SOL     OW34234   2.901   0.146   3.805 -0.0003  0.0106 -0.3781
 7533SOL    HW134235   2.819   0.097   3.812 -0.7526  1.0675 -1.5471
 7533SOL    HW234236   2.907   0.186   3.892  0.2947 -1.3265  0.2041
 7534SOL     OW34237   2.596   1.308   4.943  0.6440 -0.5518  0.4896
 7534SOL    HW134238   2.664   1.293   5.008 -1.4665  1.4347  3.1371
 7534SOL    HW234239   2.644   1.367   4.885 -0.0404  0.6183  1.1287
 7535SOL     OW34240   3.955   1.584  12.325  0.6466 -0.6642 -0.0971
 7535SOL    HW134241   3.960   1.597  12.419  1.3090  1.6975 -0.4724
 7535SOL    HW234242   3.919   1.495  12.326  1.8854 -1.1914 -2.0617
 7536SOL     OW34243   2.561   1.666  16.596  0.3914  0.6160  0.0400
 7536SOL    HW134244   2.520   1.731  16.654 -1.2637 -2.0496  1.8423
 7536SOL    HW234245   2.551   1.586  16.647  0.3132  0.7207  0.1906
 7537SOL     OW34246   0.684   2.760   3.273 -0.1011 -0.3988 -0.1233
 7537SOL    HW134247   0.635   2.841   3.262  0.0759 -0.1849  0.6642
 7537SOL    HW234248   0.727   2.761   3.358  0.7946  1.3626 -0.5935
 7538SOL     OW34249   1.136   3.275   7.348  0.2771 -0.2771  0.2593
 7538SOL    HW134250   1.068   3.334   7.382  1.9899  1.4686  0.6227
 7538SOL    HW234251   1.152   3.304   7.259 -0.1430 -1.8996 -0.3412
 7539SOL     OW34252   4.394   2.863   8.931 -0.3171 -0.1887  0.2309
 7539SOL    HW134253   4.308   2.904   8.924 -0.4254 -0.2109  1.3794
 7539SOL    HW234254   4.401   2.831   8.841  0.9607  0.8814 -0.0549
 7540SOL     OW34255   3.088   4.328  10.905 -0.0115  0.1466 -0.7498
 7540SOL    HW134256   3.041   4.357  10.983  1.8828 -1.1945  0.9145
 7540SOL    HW234257   3.174   4.358  10.934 -1.3875  1.7043  1.7897
 7541SOL     OW34258   2.985   3.800  12.989 -0.1408  0.4512  0.0779
 7541SOL    HW134259   2.929   3.827  13.062  1.1096  1.1217  0.7859
 7541SOL    HW234260   2.917   3.767  12.930 -0.6461  0.2845  0.7513
 7542SOL     OW34261   0.821   1.942  15.071  0.2146 -0.4046  0.3947
 7542SOL    HW134262   0.877   1.868  15.094  2.0610  0.9182  0.1486
 7542SOL    HW234263   0.734   1.906  15.052  0.2095  0.2799 -0.8557
 7543SOL     OW34264   1.001   0.337   6.300  0.2642 -0.4448 -0.2842
 7543SOL    HW134265   1.030   0.385   6.378 -0.2984  0.1427 -0.4391
 7543SOL    HW234266   0.907   0.352   6.308  0.1190 -1.5533  0.1550
 7544SOL     OW34267   4.315   1.694  12.366  0.3751  0.6419  0.0259
 7544SOL    HW134268   4.310   1.790  12.361 -2.0311  0.5327  0.3221
 7544SOL    HW234269   4.296   1.666  12.276  1.9570 -0.8649  0.1725
 7545SOL     OW34270   0.808   1.321   3.079 -0.2878 -0.6589 -0.7654
 7545SOL    HW134271   0.803   1.413   3.054 -0.1448 -0.1840  0.9291
 7545SOL    HW234272   0.830   1.284   2.993 -0.7263 -1.0189 -0.7282
 7546SOL     OW34273   0.086   4.462   5.474  0.2073 -0.1762  0.0014
 7546SOL    HW134274   0.013   4.517   5.446  1.0130  1.9269  1.9918
 7546SOL    HW234275   0.134   4.453   5.392 -1.0917  1.0738 -0.8913
 7547SOL     OW34276   2.273   2.703  14.031 -0.5980 -0.1014  0.4150
 7547SOL    HW134277   2.215   2.633  14.062  2.1606 -2.2558  0.7564
 7547SOL    HW234278   2.330   2.704  14.108 -0.8396 -1.4868  0.6158
 7548SOL     OW34279   4.076   3.821   3.640  0.4323  0.0668  0.1645
 7548SOL    HW134280   3.990   3.783   3.621 -0.6395  2.0373  1.0601
 7548SOL    HW234281   4.048   3.866   3.721  3.9263 -0.1713  1.4937
 7549SOL     OW34282   2.727   1.765   9.604  0.0143 -0.0182 -0.0042
 7549SOL    HW134283   2.811   1.726   9.580  0.8574  1.8029  0.0079
 7549SOL    HW234284   2.720   1.789   9.512 -0.3870  0.6535  0.1986
 7550SOL     OW34285   1.549   0.962  16.009  0.5543  0.2375  0.1366
 7550SOL    HW134286   1.523   0.887  15.955  1.6629 -0.4575  0.5746
 7550SOL    HW234287   1.464   0.989  16.045  0.4649 -3.0059  2.3544
 7551SOL     OW34288   0.290   3.234  17.234 -0.1543 -0.8477 -0.3561
 7551SOL    HW134289   0.196   3.249  17.243  0.1577  0.7929  0.0217
 7551SOL    HW234290   0.329   3.321  17.224  1.1117 -1.1353  2.0781
 7552SOL     OW34291   4.701   0.573   9.594  0.1190  0.2836 -0.0900
 7552SOL    HW134292   0.036   0.622   9.564 -0.2651  2.1314  1.8807
 7552SOL    HW234293   4.650   0.633   9.648  0.7507  0.6371  0.1223
 7553SOL     OW34294   1.846   2.893  13.192  0.2776  0.6069 -0.2349
 7553SOL    HW134295   1.840   2.823  13.257  1.0791 -0.2823 -1.1220
 7553SOL    HW234296   1.840   2.846  13.109  3.9477 -1.3222  0.6048
 7554SOL     OW34297   1.869   4.074   5.850 -0.1135 -0.7826  0.3535
 7554SOL    HW134298   1.884   3.983   5.824  1.7123 -0.5609  0.6570
 7554SOL    HW234299   1.947   4.097   5.901 -0.5190  0.1141  0.5624
 7555SOL     OW34300   3.445   1.382   1.804  0.5375 -0.2684  0.4922
 7555SOL    HW134301   3.534   1.352   1.785  0.0945 -1.1794 -0.1685
 7555SOL    HW234302   3.425   1.414   1.716  1.7662 -0.7023  0.0445
 7556SOL     OW34303   2.536   1.331  13.239  0.1500 -0.7301  0.3380
 7556SOL    HW134304   2.446   1.304  13.220 -0.2401  1.0902 -0.4119
 7556SOL    HW234305   2.527   1.373  13.325  1.5337 -1.1521  0.6927
 7557SOL     OW34306   1.055   2.603   6.557 -0.0942 -0.1165 -0.3343
 7557SOL    HW134307   1.092   2.688   6.533 -0.4244  0.2369  0.4049
 7557SOL    HW234308   0.968   2.627   6.589 -0.3018 -1.6098  0.2450
 7558SOL     OW34309   0.577   0.738   5.556 -0.4789 -0.3542 -0.3930
 7558SOL    HW134310   0.622   0.656   5.534 -2.3588 -0.6831 -2.9335
 7558SOL    HW234311   0.504   0.693   5.599 -0.6158  0.0623 -0.1920
 7559SOL     OW34312   1.695   0.049   0.760  0.4434 -0.4008  0.7522
 7559SOL    HW134313   1.607   0.034   0.725 -0.3609  0.9707  2.2030
 7559SOL    HW234314   1.681   0.040   0.854 -0.2065 -1.3156  0.5761
 7560SOL     OW34315   2.451   1.488   5.979  0.1722 -0.6306  0.3689
 7560SOL    HW134316   2.516   1.420   5.960  2.0493  0.6612  2.0818
 7560SOL    HW234317   2.369   1.453   5.944 -0.1400  0.4062  0.0712
 7561SOL     OW34318   3.568   0.182   4.517  0.4389  0.0503 -0.9772
 7561SOL    HW134319   3.629   0.193   4.589  0.8984  1.3637 -1.5754
 7561SOL    HW234320   3.527   0.268   4.514 -0.6953 -0.3806  1.4840
 7562SOL     OW34321   1.269   2.494  13.661 -0.0012 -0.2516  0.3041
 7562SOL    HW134322   1.202   2.460  13.602 -0.0815 -0.1480  0.3364
 7562SOL    HW234323   1.349   2.460  13.621 -0.5823  1.9148 -2.6806
 7563SOL     OW34324   3.903   1.425   7.219  0.1741  0.0506  0.2196
 7563SOL    HW134325   3.976   1.442   7.159 -0.2831 -0.1051 -0.3828
 7563SOL    HW234326   3.887   1.332   7.205  2.0819 -0.5550  2.1252
 7564SOL     OW34327   0.921   1.584   4.413  0.3029  0.0789 -0.2735
 7564SOL    HW134328   0.864   1.507   4.416  0.6688 -0.2115 -0.7780
 7564SOL    HW234329   0.897   1.619   4.327 -1.1640 -2.0297 -0.7328
 7565SOL     OW34330   2.465   4.066   2.053 -0.2440  0.7623 -0.5756
 7565SOL    HW134331   2.443   4.129   2.121  0.2871 -2.2397  2.4137
 7565SOL    HW234332   2.468   3.987   2.108 -2.8859 -0.0941 -1.6603
 7566SOL     OW34333   2.428   0.965   5.917  0.2888  0.3664 -0.6382
 7566SOL    HW134334   2.381   0.967   6.000 -1.4186  1.2797 -1.6335
 7566SOL    HW234335   2.499   0.901   5.921  2.1813  2.4333 -1.1837
 7567SOL     OW34336   0.647   3.115   0.288 -0.2524  0.2613  0.2364
 7567SOL    HW134337   0.611   3.155   0.209  1.4204 -0.8828 -1.0784
 7567SOL    HW234338   0.731   3.161   0.293  0.0017 -0.2264  0.3826
 7568SOL     OW34339   1.147   3.202   3.529  0.0492  0.8482  0.1018
 7568SOL    HW134340   1.184   3.279   3.572  0.5830  0.0765  1.0432
 7568SOL    HW234341   1.215   3.186   3.463 -0.5674  1.4345 -0.6639
 7569SOL     OW34342   2.367   2.982   5.813 -0.0644  0.3283 -0.4276
 7569SOL    HW134343   2.274   3.002   5.826 -0.1174  0.9536 -1.7732
 7569SOL    HW234344   2.374   2.933   5.895 -1.5707  0.5501 -0.1597
 7570SOL     OW34345   4.541   2.948   4.903 -0.3350  0.1723  0.3597
 7570SOL    HW134346   4.546   2.891   4.980 -2.1774 -0.3870  0.0561
 7570SOL    HW234347   4.533   3.035   4.943 -1.0402  0.0986  0.3740
 7571SOL     OW34348   1.414   0.033   8.220 -0.1900  0.4788 -0.3209
 7571SOL    HW134349   1.413   0.058   8.312  0.5600 -1.4765  0.2097
 7571SOL    HW234350   1.324   0.048   8.193 -0.5880 -0.5904  0.4214
 7572SOL     OW34351   1.494   0.501   2.555  0.4727  0.3941  0.1212
 7572SOL    HW134352   1.410   0.495   2.510  0.5497  0.3946 -0.0240
 7572SOL    HW234353   1.551   0.439   2.509  1.7852  2.4580 -1.0238
 7573SOL     OW34354   2.026   1.335   9.041  0.0243 -0.3536 -0.1006
 7573SOL    HW134355   2.109   1.307   9.079 -0.5567 -2.7158 -0.5814
 7573SOL    HW234356   2.041   1.328   8.947 -0.5780 -1.4577 -0.1129
 7574SOL     OW34357   2.025   3.333   4.193  0.0917  0.2285  0.5664
 7574SOL    HW134358   1.991   3.336   4.104  2.2241  1.0418 -0.2306
 7574SOL    HW234359   2.099   3.394   4.188 -0.7092  1.3387  2.3350
 7575SOL     OW34360   1.951   2.513   4.157 -0.2937 -0.2239  0.1202
 7575SOL    HW134361   1.958   2.492   4.250 -0.7424 -2.5758 -0.3790
 7575SOL    HW234362   2.041   2.537   4.135 -0.9277  0.7894 -1.3940
 7576SOL     OW34363   1.801   1.035   3.948  0.9366  0.0648  0.0707
 7576SOL    HW134364   1.840   1.113   3.988  2.2596 -0.6729  0.2139
 7576SOL    HW234365   1.824   0.966   4.011 -0.6037 -1.1984 -0.7366
 7577SOL     OW34366   3.637   3.126   0.574 -0.0494 -0.3795 -0.3282
 7577SOL    HW134367   3.697   3.136   0.500 -1.5657  0.5682 -1.4126
 7577SOL    HW234368   3.683   3.193   0.625  0.0791 -0.1068 -0.8074
 7578SOL     OW34369   1.471   2.314   1.527  0.2548 -0.0153  0.0952
 7578SOL    HW134370   1.409   2.385   1.545  1.1182  1.0187 -1.0466
 7578SOL    HW234371   1.470   2.270   1.612 -2.9712  1.6875  0.9652
 7579SOL     OW34372   3.252   2.959   4.317 -0.5768  0.1696 -0.6523
 7579SOL    HW134373   3.200   2.947   4.396  0.6594 -0.1236  0.0997
 7579SOL    HW234374   3.245   2.869   4.285  0.1355  0.4902 -1.7150
 7580SOL     OW34375   3.621   1.139  13.636  0.1323 -0.4970 -0.2531
 7580SOL    HW134376   3.715   1.149  13.621  0.5184 -1.0852  1.7578
 7580SOL    HW234377   3.616   1.192  13.715 -1.7529 -0.4032 -0.4451
 7581SOL     OW34378   2.996   0.302   1.410 -0.2457 -0.4363  0.1200
 7581SOL    HW134379   2.946   0.220   1.416 -0.6188 -0.1339  1.1238
 7581SOL    HW234380   2.957   0.323   1.325  0.7281 -1.2227 -0.5152
 7582SOL     OW34381   4.118   0.115   1.646  0.4616 -0.0292 -0.0512
 7582SOL    HW134382   4.153   0.078   1.565 -0.5546 -2.2323  0.5210
 7582SOL    HW234383   4.036   0.067   1.655  1.2069 -1.1533  0.8389
 7583SOL     OW34384   1.080   3.654  15.376 -0.0733  0.3750  0.6658
 7583SOL    HW134385   1.155   3.656  15.316  0.6782 -1.9157  1.5196
 7583SOL    HW234386   1.052   3.563  15.361 -1.4110  0.6993  1.2126
 7584SOL     OW34387   4.644   2.275   9.375  0.5857  0.5486  0.3606
 7584SOL    HW134388   4.605   2.354   9.411 -3.1848 -0.7066 -0.9546
 7584SOL    HW234389   4.652   2.220   9.453 -0.4738 -0.0610  0.0415
 7585SOL     OW34390   3.902   1.355   9.724 -0.2096 -0.0385  0.3073
 7585SOL    HW134391   3.948   1.276   9.750  2.6051  1.1590 -1.1149
 7585SOL    HW234392   3.892   1.350   9.629  1.8323 -1.3372  0.1819
 7586SOL     OW34393   4.193   3.994   4.078 -0.1780 -0.6489 -0.0908
 7586SOL    HW134394   4.155   4.007   4.165  1.2631 -0.1143  0.4539
 7586SOL    HW234395   4.155   4.070   4.033  0.0566 -0.7190 -0.4035
 7587SOL     OW34396   4.415   0.346  13.188 -0.5059 -0.1517  0.3769
 7587SOL    HW134397   4.471   0.319  13.261  0.3073  1.1851  0.2523
 7587SOL    HW234398   4.363   0.266  13.179 -3.5170  1.8368  0.5576
 7588SOL     OW34399   3.917   3.593   0.494 -0.1798 -0.9459 -0.6342
 7588SOL    HW134400   3.970   3.589   0.414 -0.0960 -0.0766 -0.6220
 7588SOL    HW234401   3.839   3.624   0.448 -0.7268 -0.6019  0.5327
 7589SOL     OW34402   2.885   4.661   8.826 -0.1135  0.2230 -0.2844
 7589SOL    HW134403   2.906   4.724   8.757  1.9803  0.3511  0.4593
 7589SOL    HW234404   2.909   4.694   8.912 -2.2797  0.4544  0.2155
 7590SOL     OW34405   2.143   3.112   5.834  0.3521  0.3485 -0.2108
 7590SOL    HW134406   2.191   3.187   5.868  1.1687 -0.3383  0.1400
 7590SOL    HW234407   2.052   3.134   5.853  0.8418  2.4871 -0.3843
 7591SOL     OW34408   2.167   3.869  16.803 -0.3054 -0.1667  0.2035
 7591SOL    HW134409   2.256   3.895  16.828  0.4075 -0.3220 -2.1446
 7591SOL    HW234410   2.118   3.864  16.885  0.8245  2.6199  1.0614
 7592SOL     OW34411   3.256   2.845   2.515 -0.6002 -0.5376 -0.5388
 7592SOL    HW134412   3.260   2.854   2.611  0.0678  1.8615 -0.7920
 7592SOL    HW234413   3.190   2.776   2.509  0.9342 -1.9802 -0.8831
 7593SOL     OW34414   3.023   1.980  10.125  0.4261  0.6346 -0.0899
 7593SOL    HW134415   3.000   1.916  10.058 -0.6257 -0.1010  0.9840
 7593SOL    HW234416   3.052   1.922  10.195 -0.0471 -0.8724 -1.1577
 7594SOL     OW34417   4.357   0.315   8.973  0.2045 -0.3981  0.1454
 7594SOL    HW134418   4.407   0.264   8.909 -0.5156  0.3364 -1.0141
 7594SOL    HW234419   4.407   0.307   9.054  1.8558 -1.6884 -1.0031
 7595SOL     OW34420   0.875   4.477  11.206 -0.5559  0.2081 -0.5275
 7595SOL    HW134421   0.888   4.572  11.209  0.7070  0.0452 -0.8070
 7595SOL    HW234422   0.805   4.464  11.269 -0.2429  2.7439  0.3568
 7596SOL     OW34423   2.619   1.460   7.094  0.0073  0.5536  0.1445
 7596SOL    HW134424   2.544   1.520   7.088  1.0093  1.6494 -1.5715
 7596SOL    HW234425   2.594   1.381   7.046 -1.7004  0.5745  0.9845
 7597SOL     OW34426   0.400   3.063  14.025  0.7702 -0.6215 -0.2371
 7597SOL    HW134427   0.360   2.996  14.081  2.4743 -0.1693  1.5595
 7597SOL    HW234428   0.487   3.033  13.998  0.5409 -1.4070 -0.1202
 7598SOL     OW34429   1.685   0.183   2.478  0.3421 -0.1674  0.2323
 7598SOL    HW134430   1.648   0.135   2.404 -0.0765  0.2390  0.1770
 7598SOL    HW234431   1.672   0.121   2.550  0.5473  0.8204  1.1128
 7599SOL     OW34432   0.700   0.236   6.924 -0.2233  0.1686  0.0576
 7599SOL    HW134433   0.699   0.155   6.873  2.2363  0.1250  0.0773
 7599SOL    HW234434   0.716   0.304   6.859  1.9951 -1.3834 -1.0061
 7600SOL     OW34435   0.718   4.468  12.996 -0.2783 -0.7489 -0.2661
 7600SOL    HW134436   0.656   4.479  13.068  0.1944  1.6836 -0.2316
 7600SOL    HW234437   0.794   4.432  13.043 -1.5293 -3.8725 -0.6605
 7601SOL     OW34438   1.747   1.642   9.216  0.3430 -0.1395 -0.0086
 7601SOL    HW134439   1.742   1.635   9.121 -1.6606  0.3831  0.0638
 7601SOL    HW234440   1.709   1.559   9.242 -1.4879  0.1305 -1.8214
 7602SOL     OW34441   2.671   2.943   6.797  0.4676  0.0187  0.4896
 7602SOL    HW134442   2.631   2.861   6.769 -0.3817  0.6328 -0.0933
 7602SOL    HW234443   2.717   2.971   6.718 -3.2892  0.6248 -1.4918
 7603SOL     OW34444   1.857   0.057   2.807  0.4603 -0.4238  0.0645
 7603SOL    HW134445   1.770   0.060   2.768  0.7311 -0.9840 -0.5809
 7603SOL    HW234446   1.910   0.045   2.728 -0.1641  0.2078 -0.4464
 7604SOL     OW34447   0.742   3.511   6.193 -0.3053  0.6386 -0.0893
 7604SOL    HW134448   0.739   3.606   6.205  0.8638  0.5389  1.0133
 7604SOL    HW234449   0.725   3.475   6.280  0.3878  0.2163 -0.1238
 7605SOL     OW34450   2.538   0.670   5.950  0.9504 -0.1794 -0.1838
 7605SOL    HW134451   2.594   0.630   5.884  1.7826  2.5908 -1.1624
 7605SOL    HW234452   2.454   0.641   5.914  1.5593  0.2384 -1.9432
 7606SOL     OW34453   0.428   2.683   3.642 -0.1299 -0.6426  0.2851
 7606SOL    HW134454   0.353   2.659   3.697 -1.8199  1.1997 -1.1873
 7606SOL    HW234455   0.477   2.602   3.629  0.0837 -0.6169  0.9505
 7607SOL     OW34456   1.369   3.179  11.224  0.5309  0.6983 -0.0710
 7607SOL    HW134457   1.431   3.109  11.206  2.2765  1.5792  2.4544
 7607SOL    HW234458   1.322   3.146  11.301 -0.7251  1.2943 -0.5804
 7608SOL     OW34459   2.989   3.524  14.017 -0.2235 -0.6859 -0.3705
 7608SOL    HW134460   2.978   3.435  14.051 -2.8148 -0.0650  0.4537
 7608SOL    HW234461   2.942   3.522  13.934 -0.0361 -1.0160 -0.4723
 7609SOL     OW34462   2.047   4.192   1.393  0.0137 -0.6068  0.4507
 7609SOL    HW134463   2.100   4.264   1.357 -3.3039  1.4641 -0.2384
 7609SOL    HW234464   2.093   4.118   1.353  1.0863  1.5255 -2.2151
 7610SOL     OW34465   0.737   0.278   5.357 -0.2004  0.1159 -0.0983
 7610SOL    HW134466   0.749   0.184   5.371 -0.9274 -0.0097 -0.3279
 7610SOL    HW234467   0.644   0.289   5.336 -0.2561  0.3466  0.2737
 7611SOL     OW34468   3.255   1.885   2.829  0.3605  0.0030 -0.4488
 7611SOL    HW134469   3.213   1.845   2.753 -0.8465  1.1215 -0.3698
 7611SOL    HW234470   3.292   1.961   2.783 -0.2594 -0.7688 -2.2307
 7612SOL     OW34471   0.809   2.298  16.332 -0.1400 -0.3680 -0.5940
 7612SOL    HW134472   0.805   2.392  16.346 -0.9861 -0.3298 -1.0955
 7612SOL    HW234473   0.836   2.301  16.241 -1.4497 -0.0452 -0.9731
 7613SOL     OW34474   2.422   0.041   9.524 -0.2173  0.5443  0.1595
 7613SOL    HW134475   2.444   0.107   9.589 -1.4191  1.9185 -0.8234
 7613SOL    HW234476   2.499   0.054   9.469 -0.0673 -0.5752  0.0984
 7614SOL     OW34477   3.766   2.610  12.927 -0.3023  0.7621  0.5006
 7614SOL    HW134478   3.847   2.562  12.945  0.6418  2.6670  1.3599
 7614SOL    HW234479   3.709   2.580  12.998 -0.2971 -0.3926  0.0164
 7615SOL     OW34480   3.453   0.374   8.421 -0.3056  0.1973 -0.1034
 7615SOL    HW134481   3.456   0.317   8.344  3.0010  1.4747 -0.8905
 7615SOL    HW234482   3.509   0.326   8.481  0.9806 -2.8561 -3.7018
 7616SOL     OW34483   1.719   1.554  12.700  0.1024 -0.1217 -0.7256
 7616SOL    HW134484   1.770   1.557  12.619 -0.2359 -0.3098 -0.9433
 7616SOL    HW234485   1.631   1.583  12.675 -0.4985  0.2447  1.8310
 7617SOL     OW34486   2.135   3.679  16.002 -0.2562  0.1910 -0.1862
 7617SOL    HW134487   2.159   3.602  15.952 -1.0005  0.2199 -0.5878
 7617SOL    HW234488   2.208   3.737  15.980  0.2364 -0.1597  0.5355
 7618SOL     OW34489   1.289   0.289  16.985  0.1000  0.1836  0.0689
 7618SOL    HW134490   1.362   0.346  17.011  0.7673 -0.8265  0.4111
 7618SOL    HW234491   1.286   0.288  16.890 -1.0159  1.8088  0.0777
 7619SOL     OW34492   0.526   4.142  11.016  0.6092  0.0348 -0.6595
 7619SOL    HW134493   0.476   4.062  11.000 -0.7119  0.4109  1.4586
 7619SOL    HW234494   0.605   4.113  10.970  0.4614 -0.0766 -0.8420
 7620SOL     OW34495   3.616   1.337   2.917  0.2451  0.1546 -0.3426
 7620SOL    HW134496   3.532   1.381   2.924 -0.3840 -1.3589  1.5832
 7620SOL    HW234497   3.583   1.252   2.889 -0.7408  0.3549  0.2089
 7621SOL     OW34498   0.995   4.194   7.736 -0.3865  0.1587  0.0211
 7621SOL    HW134499   0.999   4.164   7.826  0.6568  2.7140  0.8260
 7621SOL    HW234500   0.992   4.111   7.687  0.7645  0.0025  0.2241
 7622SOL     OW34501   0.571   0.187  14.014 -0.2209 -0.6043 -0.1969
 7622SOL    HW134502   0.532   0.242  14.081 -1.5536  0.1748 -1.5989
 7622SOL    HW234503   0.495   0.177  13.957 -1.4650  0.5398  1.2829
 7623SOL     OW34504   1.811   1.714   6.596 -0.0440  0.7253  0.5112
 7623SOL    HW134505   1.883   1.769   6.565  0.0827  0.9255  1.1658
 7623SOL    HW234506   1.819   1.699   6.690  0.0865 -0.8304  0.2594
 7624SOL     OW34507   4.123   4.311   4.019  0.0044  0.2246  0.2714
 7624SOL    HW134508   4.042   4.260   4.023  0.0077  0.1570 -0.4147
 7624SOL    HW234509   4.083   4.388   4.059 -0.7792  0.7587 -1.5012
 7625SOL     OW34510   0.136   3.971   8.073 -0.3880  0.9344 -0.5994
 7625SOL    HW134511   0.072   3.904   8.050  0.4353 -0.0377 -0.0529
 7625SOL    HW234512   0.087   4.018   8.140  0.0556  0.3953  0.1054
 7626SOL     OW34513   1.947   2.639   6.618 -0.1288  0.6583 -0.0574
 7626SOL    HW134514   1.960   2.554   6.576  0.5398  0.6390  0.1923
 7626SOL    HW234515   1.851   2.645   6.616 -0.1402  0.1652 -0.8953
 7627SOL     OW34516   0.066   3.497  12.481  0.0029  0.0214 -0.7182
 7627SOL    HW134517   0.096   3.407  12.497 -2.7755 -0.5980  0.9450
 7627SOL    HW234518   4.727   3.499  12.533  0.3994  3.4663 -0.2170
 7628SOL     OW34519   2.385   2.000  12.778 -0.4286 -0.0325 -1.0010
 7628SOL    HW134520   2.474   2.011  12.812 -1.5924  2.7275  1.1198
 7628SOL    HW234521   2.354   1.926  12.829 -2.5817  1.6675  0.1505
 7629SOL     OW34522   2.297   3.029   2.694  0.0285 -0.0965 -0.0294
 7629SOL    HW134523   2.350   3.001   2.619  1.6419  0.8198  0.7637
 7629SOL    HW234524   2.285   3.124   2.683 -2.0703 -0.4782 -1.1025
 7630SOL     OW34525   2.258   3.238   1.037 -0.1692  0.2141 -0.3979
 7630SOL    HW134526   2.198   3.300   1.078  0.7424 -0.7592  2.4159
 7630SOL    HW234527   2.264   3.177   1.111 -3.7846  0.5320  0.1943
 7631SOL     OW34528   1.651   3.184   3.184 -0.0002 -0.1253  0.3695
 7631SOL    HW134529   1.584   3.116   3.199 -1.0844  0.6996 -0.7743
 7631SOL    HW234530   1.641   3.199   3.090  0.0594  0.1613  0.4112
 7632SOL     OW34531   1.501   3.155   7.705  0.1456  0.1777 -0.3754
 7632SOL    HW134532   1.453   3.171   7.623  1.3519 -0.6140 -1.2432
 7632SOL    HW234533   1.583   3.116   7.674  0.0402 -0.7475  0.5209
 7633SOL     OW34534   3.194   0.499   6.133 -0.0690 -0.9150 -0.4648
 7633SOL    HW134535   3.268   0.472   6.078  1.2852  0.6685  0.5824
 7633SOL    HW234536   3.169   0.580   6.088 -0.4429 -2.8679 -3.7746
 7634SOL     OW34537   4.739   2.265  16.416  0.0507 -0.6329  0.3111
 7634SOL    HW134538   0.069   2.204  16.429  0.3943 -0.2499  0.2187
 7634SOL    HW234539   0.025   2.333  16.476  0.1182  0.7503 -1.2722
 7635SOL     OW34540   4.662   2.372   4.143 -0.3874 -0.1548 -0.2478
 7635SOL    HW134541   4.737   2.337   4.191  0.4640  1.1205 -0.6321
 7635SOL    HW234542   4.600   2.391   4.212 -2.5878  0.2774 -2.3519
 7636SOL     OW34543   0.315   3.596   4.647 -0.4162 -0.4306 -0.9077
 7636SOL    HW134544   0.249   3.633   4.705  0.4962  2.7375 -1.8965
 7636SOL    HW234545   0.269   3.581   4.564 -2.8059 -0.3605  0.4115
 7637SOL     OW34546   0.903   4.436   0.520  0.7311 -0.0291 -0.1598
 7637SOL    HW134547   0.967   4.494   0.560  1.5042  0.3630 -1.9632
 7637SOL    HW234548   0.923   4.438   0.427 -1.6723 -1.2231 -0.7039
 7638SOL     OW34549   2.124   0.102   5.946 -0.0463 -0.0075  0.1416
 7638SOL    HW134550   2.210   0.121   5.984  0.0719 -1.5048  0.6163
 7638SOL    HW234551   2.077   0.185   5.936  2.7464  1.3967 -1.2696
 7639SOL     OW34552   1.740   3.613   7.819  0.4242 -0.1437 -0.1651
 7639SOL    HW134553   1.691   3.531   7.811 -0.6491  0.3880  1.0246
 7639SOL    HW234554   1.755   3.613   7.913  1.6479 -1.2020 -0.3542
 7640SOL     OW34555   2.811   3.413  16.627  0.0577 -0.5507 -0.1772
 7640SOL    HW134556   2.792   3.329  16.670  0.6021 -0.3843  0.3812
 7640SOL    HW234557   2.856   3.387  16.546 -0.6202 -1.6194 -0.2093
 7641SOL     OW34558   1.456   4.420   6.876 -0.2117 -0.3457 -0.1791
 7641SOL    HW134559   1.535   4.426   6.930  0.0188  3.6144 -0.9865
 7641SOL    HW234560   1.494   4.364   6.809 -1.3762 -0.2539 -0.9226
 7642SOL     OW34561   1.527   3.612   3.906  0.1054  0.6910 -0.3623
 7642SOL    HW134562   1.560   3.700   3.886 -2.6120  1.4804 -1.3579
 7642SOL    HW234563   1.436   3.623   3.879 -0.7161 -2.6234  1.0860
 7643SOL     OW34564   4.033   4.543   4.104 -0.0446  0.0194 -0.1790
 7643SOL    HW134565   3.940   4.519   4.109 -0.0843  0.5452  1.5261
 7643SOL    HW234566   4.045   4.609   4.172  0.1694  0.4605 -0.6443
 7644SOL     OW34567   3.615   2.294   6.325 -0.3709 -0.6049 -0.7203
 7644SOL    HW134568   3.538   2.247   6.296  0.0731 -2.9361  1.8917
 7644SOL    HW234569   3.671   2.287   6.248  2.2350  0.2636  1.0648
 7645SOL     OW34570   1.519   3.831  17.151 -0.2650 -0.0789  0.9856
 7645SOL    HW134571   1.431   3.865  17.138 -0.2447 -0.7723 -0.9621
 7645SOL    HW234572   1.563   3.912  17.177  0.8969 -0.4347  0.1469
 7646SOL     OW34573   0.226   0.707   4.544 -0.6108  0.0485  0.1673
 7646SOL    HW134574   0.270   0.623   4.552  2.1799  1.7105  2.1898
 7646SOL    HW234575   0.246   0.733   4.634  1.1064  0.8992 -0.4777
 7647SOL     OW34576   2.109   4.645   6.848  0.3490  0.0589 -0.4747
 7647SOL    HW134577   2.091   4.554   6.873  0.5203  0.0773 -0.2784
 7647SOL    HW234578   2.117   4.677   6.938  1.0461 -2.9901  0.5490
 7648SOL     OW34579   0.034   1.856   6.584  0.0099 -0.0005 -0.0679
 7648SOL    HW134580   0.021   1.945   6.618 -2.2650 -0.0544 -0.7964
 7648SOL    HW234581   0.127   1.839   6.566 -0.1262 -0.5715 -0.2385
 7649SOL     OW34582   0.130   1.972   5.837  0.2763 -0.1532 -0.1424
 7649SOL    HW134583   0.192   1.936   5.900 -1.3775 -0.1528  1.5091
 7649SOL    HW234584   0.058   1.964   5.900  0.2547  0.5751 -0.0811
 7650SOL     OW34585   1.052   2.542   7.748  0.1017 -0.3213 -0.0520
 7650SOL    HW134586   1.101   2.460   7.746  2.9717  1.4013  0.0587
 7650SOL    HW234587   1.125   2.603   7.752  0.4973 -0.7250 -1.2999
 7651SOL     OW34588   3.784   2.843   6.830  0.7263  0.4797  0.0141
 7651SOL    HW134589   3.866   2.835   6.879  0.1779  1.3175  1.0740
 7651SOL    HW234590   3.729   2.815   6.903 -1.2469  0.7554 -1.3510
 7652SOL     OW34591   1.750   4.075   6.177  0.1644  0.2222  0.1979
 7652SOL    HW134592   1.663   4.052   6.210 -0.3899  1.5389 -0.3314
 7652SOL    HW234593   1.735   4.123   6.096 -0.3819  0.7980  0.6275
 7653SOL     OW34594   3.473   4.609   5.437 -0.5416 -0.1944  0.5375
 7653SOL    HW134595   3.504   4.658   5.513  2.9276  0.5234 -1.3089
 7653SOL    HW234596   3.400   4.559   5.471 -1.2836  0.1157 -0.5997
 7654SOL     OW34597   0.843   4.300   8.057  0.2753 -0.4389 -0.0555
 7654SOL    HW134598   0.798   4.216   8.056  2.3293 -1.5522 -0.1552
 7654SOL    HW234599   0.771   4.354   8.024  0.3008  0.0325  0.6443
 7655SOL     OW34600   3.745   3.690   2.978  0.2024  0.0967 -0.5047
 7655SOL    HW134601   3.822   3.692   3.036  0.2221 -0.8997 -0.4970
 7655SOL    HW234602   3.704   3.771   3.009  0.8916  0.6448 -0.9971
 7656SOL     OW34603   2.290   0.003   8.908 -0.3664 -0.4299 -0.7613
 7656SOL    HW134604   2.308   0.093   8.880 -4.2671  1.0091  1.3553
 7656SOL    HW234605   2.363   4.705   8.860  2.2065  2.3603  0.7584
 7657SOL     OW34606   1.046   1.123   4.941  0.2121 -0.0800  0.5123
 7657SOL    HW134607   1.132   1.139   4.902 -0.3179 -2.1666 -1.5771
 7657SOL    HW234608   0.989   1.184   4.895  0.3294 -0.6098 -0.3488
 7658SOL     OW34609   2.596   2.602   9.517  0.0285 -0.3171  0.1105
 7658SOL    HW134610   2.666   2.604   9.452 -0.1628  0.7640 -0.0636
 7658SOL    HW234611   2.585   2.508   9.527 -0.7749 -0.0923  1.2838
 7659SOL     OW34612   4.416   3.919  11.960  0.4711  0.5120  0.9977
 7659SOL    HW134613   4.346   3.857  11.980 -0.7937  1.7664  0.4590
 7659SOL    HW234614   4.450   3.940  12.047 -0.3328  1.3346  1.1161
 7660SOL     OW34615   1.061   1.774   8.442  0.4295  0.4256  0.3452
 7660SOL    HW134616   1.103   1.812   8.520 -1.3468  1.9600  0.5660
 7660SOL    HW234617   1.096   1.685   8.443  0.8338  0.5703 -1.9893
 7661SOL     OW34618   2.454   0.657   3.013  0.4791  0.4723  0.6518
 7661SOL    HW134619   2.407   0.588   3.060  1.5368 -1.1869 -0.7416
 7661SOL    HW234620   2.413   0.655   2.926  0.1059  0.0031  0.8396
 7662SOL     OW34621   2.346   4.555   1.943 -0.0125 -0.0945  0.1935
 7662SOL    HW134622   2.251   4.551   1.948 -0.0249 -0.2605 -0.1244
 7662SOL    HW234623   2.367   4.510   1.861  0.3045  1.3162 -0.5090
 7663SOL     OW34624   1.317   4.224   6.311  0.0619 -0.4720 -0.4091
 7663SOL    HW134625   1.321   4.317   6.335 -1.3068  0.4639 -3.9014
 7663SOL    HW234626   1.227   4.208   6.339  0.0337 -1.4465 -1.0481
 7664SOL     OW34627   1.892   4.417   6.729  0.6025 -0.0384 -0.5416
 7664SOL    HW134628   1.961   4.377   6.677 -0.6928 -0.8650 -1.6306
 7664SOL    HW234629   1.844   4.338   6.754 -1.1192  1.1569 -0.0595
 7665SOL     OW34630   3.348   4.108  12.060 -0.1365  0.5627 -0.1152
 7665SOL    HW134631   3.426   4.119  12.114 -0.1406 -0.5406  0.1095
 7665SOL    HW234632   3.381   4.117  11.970  0.2796 -1.0823 -0.1230
 7666SOL     OW34633   2.951   2.479  14.273 -0.4817  0.0731  0.0914
 7666SOL    HW134634   2.903   2.415  14.220 -0.6007  0.8174 -0.7139
 7666SOL    HW234635   2.941   2.455  14.365  0.9279 -0.4162  0.1104
 7667SOL     OW34636   0.524   4.126   1.593 -0.1438 -0.1135 -0.5164
 7667SOL    HW134637   0.564   4.114   1.507  1.2504 -0.3181  0.1770
 7667SOL    HW234638   0.591   4.097   1.654 -0.4248  0.8845  0.2784
 7668SOL     OW34639   1.251   4.022  14.764  0.7017 -0.5199 -0.3604
 7668SOL    HW134640   1.308   4.040  14.689 -2.3846  1.0965 -2.3112
 7668SOL    HW234641   1.284   4.090  14.822 -1.5661 -0.2691  0.6573
 7669SOL     OW34642   1.508   2.973   4.221 -0.1707  0.0136  0.1221
 7669SOL    HW134643   1.544   2.926   4.296  0.1903  0.7107  0.3837
 7669SOL    HW234644   1.584   2.971   4.163 -0.2221 -1.4800  0.0942
 7670SOL     OW34645   2.087   0.282   0.172 -0.2983  0.0842 -0.5088
 7670SOL    HW134646   2.108   0.322   0.088 -0.6736 -2.2268 -1.6785
 7670SOL    HW234647   2.145   0.206   0.173  1.3585  1.3571 -0.3228
 7671SOL     OW34648   0.721   4.493   6.374 -0.1360  0.0740 -0.6564
 7671SOL    HW134649   0.723   4.407   6.416  0.0549 -0.3552 -1.5456
 7671SOL    HW234650   0.690   4.472   6.286 -0.5328  1.6626 -0.8968
 7672SOL     OW34651   3.972   3.855   5.886  0.2432  0.0606 -0.5847
 7672SOL    HW134652   4.040   3.867   5.951 -2.6442  1.8426  2.1014
 7672SOL    HW234653   4.014   3.783   5.838  0.9318  1.3126 -1.8439
 7673SOL     OW34654   3.970   4.380   5.266  0.5973 -0.1241  0.8977
 7673SOL    HW134655   3.960   4.285   5.263 -0.1960  0.0192 -1.3574
 7673SOL    HW234656   3.885   4.405   5.302  0.6973  0.3578  0.8031
 7674SOL     OW34657   1.119   2.658   5.439 -0.0846 -0.0945 -0.4202
 7674SOL    HW134658   1.172   2.678   5.517 -1.1948  1.0907  0.0381
 7674SOL    HW234659   1.137   2.565   5.426  0.0941  0.1663 -2.0563
 7675SOL     OW34660   4.051   2.220   5.760 -0.2451 -0.7014 -0.7118
 7675SOL    HW134661   4.100   2.298   5.785 -1.3057 -0.2722  0.0366
 7675SOL    HW234662   4.124   2.160   5.746  0.8759  0.2438  1.0990
 7676SOL     OW34663   1.918   4.505   1.384  0.0076  0.0230 -0.5703
 7676SOL    HW134664   1.881   4.423   1.352 -0.9496 -0.1502  0.9576
 7676SOL    HW234665   1.924   4.496   1.479 -0.2132 -0.1451 -0.5733
 7677SOL     OW34666   4.118   2.175   8.740 -0.3723  1.0094 -0.4537
 7677SOL    HW134667   4.141   2.083   8.725  0.4997  1.4923 -2.0819
 7677SOL    HW234668   4.185   2.224   8.692  0.6646 -0.3511 -0.4006
 7678SOL     OW34669   2.455   0.801   5.614  0.0725 -0.4071  0.1121
 7678SOL    HW134670   2.376   0.755   5.585 -0.3497 -0.1189  0.8121
 7678SOL    HW234671   2.421   0.871   5.669  3.5710  1.9283 -0.7268
 7679SOL     OW34672   1.695   4.448  15.242 -0.3209  0.4537 -0.1553
 7679SOL    HW134673   1.695   4.373  15.183 -3.8486 -0.5599  1.1438
 7679SOL    HW234674   1.681   4.526  15.189  2.1081  2.1017  1.6004
 7680SOL     OW34675   2.816   4.495   5.439  0.3506 -0.5920 -0.3614
 7680SOL    HW134676   2.908   4.522   5.434  0.4809 -1.0779 -0.6040
 7680SOL    HW234677   2.794   4.446   5.359 -1.5477 -1.9011  0.9594
 7681SOL     OW34678   0.146   4.588  12.377  0.2280 -0.7869 -0.1992
 7681SOL    HW134679   0.085   4.636  12.432  0.6192 -0.5224  0.0011
 7681SOL    HW234680   0.130   4.628  12.292  0.1907  0.4606  0.4042
 7682SOL     OW34681   3.669   1.223   5.468  0.0140  0.1666 -0.0261
 7682SOL    HW134682   3.755   1.260   5.487  0.8655 -1.3646 -0.9419
 7682SOL    HW234683   3.683   1.129   5.480 -3.1560 -0.2068  0.7320
 7683SOL     OW34684   0.378   3.571  10.407 -0.1607  0.4918 -0.0441
 7683SOL    HW134685   0.448   3.505  10.403  1.1423  1.8995 -0.3739
 7683SOL    HW234686   0.418   3.622  10.477  1.6808 -0.7320 -0.2168
 7684SOL     OW34687   2.749   0.249   7.313 -0.3089 -0.3827  0.4779
 7684SOL    HW134688   2.842   0.267   7.329  0.2969 -1.7163 -1.5175
 7684SOL    HW234689   2.705   0.330   7.338 -1.0127 -1.5091  2.9303
 7685SOL     OW34690   2.018   4.255   2.638  0.2350 -0.0996  0.9101
 7685SOL    HW134691   1.988   4.191   2.574 -0.1464 -0.1720  1.1665
 7685SOL    HW234692   1.936   4.296   2.666 -0.5853 -1.1778  0.0881
 7686SOL     OW34693   0.223   0.655  13.882  0.0565 -0.3812 -0.6310
 7686SOL    HW134694   0.219   0.581  13.943  0.2712 -0.6820 -0.9767
 7686SOL    HW234695   0.147   0.638  13.826 -1.8640  1.5167  1.4266
 7687SOL     OW34696   3.515   1.795   2.440  0.3028 -0.1228 -0.5581
 7687SOL    HW134697   3.543   1.717   2.392  1.3827 -0.6491  0.8955
 7687SOL    HW234698   3.592   1.793   2.497 -1.8390 -0.3558  2.2915
 7688SOL     OW34699   4.557   1.392   4.803 -0.1709  0.4760 -0.9168
 7688SOL    HW134700   4.626   1.330   4.778 -1.3933 -0.5915 -1.6363
 7688SOL    HW234701   4.514   1.347   4.876  3.8579 -1.2019  0.4261
 7689SOL     OW34702   0.106   2.117   6.702  0.1714  0.0899  0.0663
 7689SOL    HW134703   0.104   2.174   6.625 -0.9509  0.6266  0.4881
 7689SOL    HW234704   0.061   2.163   6.772 -1.1140  0.9670 -1.3298
 7690SOL     OW34705   1.862   2.188   3.662  0.1784  0.3750 -0.2173
 7690SOL    HW134706   1.836   2.159   3.574  2.6048  0.2710 -0.9202
 7690SOL    HW234707   1.781   2.205   3.710 -0.4622 -1.8194 -0.5193
 7691SOL     OW34708   2.823   4.491   8.263  0.4905 -0.5197  0.1384
 7691SOL    HW134709   2.852   4.450   8.182  0.0253 -0.4321 -0.0752
 7691SOL    HW234710   2.728   4.488   8.251  0.2301 -0.6629  2.3525
 7692SOL     OW34711   1.367   2.467  12.424  0.3973  0.5845  0.0177
 7692SOL    HW134712   1.434   2.399  12.424 -1.4765 -1.2383  0.1478
 7692SOL    HW234713   1.292   2.421  12.461  1.0232  0.2278  0.8667
 7693SOL     OW34714   2.801   2.881   2.390  0.1185 -0.4421 -0.4157
 7693SOL    HW134715   2.746   2.880   2.311  2.0538 -0.7808 -1.7502
 7693SOL    HW234716   2.856   2.957   2.375  0.0037 -0.4853 -1.0400
 7694SOL     OW34717   0.525   4.663  14.106  0.6173  0.0188 -0.6454
 7694SOL    HW134718   0.558   4.594  14.164 -0.4589  0.5790  0.6295
 7694SOL    HW234719   0.608   4.707  14.088 -0.1732  0.6319 -2.7545
 7695SOL     OW34720   3.878   2.683   3.652  0.3504 -0.3043 -0.2596
 7695SOL    HW134721   3.879   2.624   3.576  1.8049 -0.5448 -0.0677
 7695SOL    HW234722   3.794   2.726   3.640 -0.1165 -1.6788 -2.0186
 7696SOL     OW34723   2.264   2.709   9.052  0.3679 -1.0718  0.2108
 7696SOL    HW134724   2.279   2.698   8.958 -2.4217  1.4441 -0.5535
 7696SOL    HW234725   2.171   2.687   9.056 -0.3223  2.0266  1.2804
 7697SOL     OW34726   4.664   2.938   2.284  0.1702  0.3604  0.8178
 7697SOL    HW134727   4.646   2.850   2.316  0.5435  0.2880  0.8330
 7697SOL    HW234728   4.570   2.957   2.283  0.0419 -0.2375  1.5307
 7698SOL     OW34729   4.593   0.075   3.383  0.5115 -0.1718 -0.1374
 7698SOL    HW134730   4.626   0.042   3.299 -0.5119 -2.4286  0.3430
 7698SOL    HW234731   4.506   0.104   3.355  0.7819  0.3888 -0.3884
 7699SOL     OW34732   3.851   4.104   5.327 -0.5765  0.3366  0.5885
 7699SOL    HW134733   3.806   4.029   5.288  1.8168 -0.7674  0.0079
 7699SOL    HW234734   3.827   4.091   5.419  4.7581 -1.3549  1.7336
 7700SOL     OW34735   1.334   1.464   9.676 -0.5554 -0.3266  0.5921
 7700SOL    HW134736   1.336   1.540   9.617  1.2862 -0.1172  0.9211
 7700SOL    HW234737   1.246   1.457   9.713 -0.0927 -2.1818  1.3245
 7701SOL     OW34738   4.520   3.333   3.589  0.3598  0.0728 -0.2709
 7701SOL    HW134739   4.569   3.262   3.628 -0.2807  0.4597  1.2250
 7701SOL    HW234740   4.564   3.348   3.505  0.4668  0.8052 -0.0812
 7702SOL     OW34741   3.926   2.163   4.977 -0.5553  0.1460 -0.0295
 7702SOL    HW134742   4.007   2.202   4.942  1.2806 -2.3116  1.5183
 7702SOL    HW234743   3.895   2.234   5.033  1.8138  0.2001  1.1997
 7703SOL     OW34744   3.930   4.138  14.445  0.1630 -0.0962  0.0317
 7703SOL    HW134745   4.019   4.104  14.456 -0.0693 -0.4932  0.6724
 7703SOL    HW234746   3.944   4.225  14.406 -1.3619 -0.8223 -2.1175
 7704SOL     OW34747   1.388   0.517   5.291 -0.0566  0.0027  0.0466
 7704SOL    HW134748   1.429   0.596   5.328 -0.4977 -0.4361  1.4875
 7704SOL    HW234749   1.453   0.480   5.232 -0.3157 -1.8548  0.9353
 7705SOL     OW34750   4.317   3.375   2.481 -0.1446 -0.1874  0.1861
 7705SOL    HW134751   4.410   3.396   2.481 -0.0134 -0.7803  1.2837
 7705SOL    HW234752   4.274   3.460   2.491  0.3185  0.2098 -1.0968
 7706SOL     OW34753   0.348   3.874  13.285 -0.6377  0.2004 -0.6996
 7706SOL    HW134754   0.424   3.917  13.246  1.2166 -2.1919  0.2783
 7706SOL    HW234755   0.382   3.786  13.269 -0.5705  0.7887 -3.7052
 7707SOL     OW34756   4.725   2.562   7.322 -0.1983 -0.0860  0.2577
 7707SOL    HW134757   0.010   2.582   7.411 -0.1871  0.6697  0.0859
 7707SOL    HW234758   0.032   2.480   7.313 -0.2023 -0.3917  3.2573
 7708SOL     OW34759   3.660   1.454   9.647  0.1762  0.0741 -0.3175
 7708SOL    HW134760   3.741   1.414   9.677  0.8518  1.6429 -0.0683
 7708SOL    HW234761   3.683   1.546   9.643 -2.1181  0.6392 -0.9046
 7709SOL     OW34762   4.411   1.613  10.236 -0.1179  0.4919 -0.1490
 7709SOL    HW134763   4.363   1.530  10.234  1.8260 -0.5883 -2.0037
 7709SOL    HW234764   4.433   1.617  10.143  1.9205  1.4885  0.3750
 7710SOL     OW34765   3.838   3.157   8.477  0.3844 -0.1904  0.1234
 7710SOL    HW134766   3.833   3.085   8.414  0.9863 -0.3915  0.3079
 7710SOL    HW234767   3.748   3.142   8.507  0.0351 -2.1967 -1.9733
 7711SOL     OW34768   1.808   0.412  17.603 -0.4003 -0.2975  0.3094
 7711SOL    HW134769   1.853   0.336  17.639 -0.0012 -0.0565  0.3107
 7711SOL    HW234770   1.879   0.458  17.559  0.3863 -1.0075  0.8542
 7712SOL     OW34771   3.984   1.375  11.211 -0.5142  0.4427  0.2108
 7712SOL    HW134772   4.056   1.326  11.250 -0.8763 -0.4538 -0.2646
 7712SOL    HW234773   3.956   1.414  11.294 -0.9250  1.0017 -0.1924
 7713SOL     OW34774   2.961   0.899   2.407 -0.4892  0.7654 -0.2016
 7713SOL    HW134775   2.897   0.835   2.374 -0.2904  0.7934 -0.6388
 7713SOL    HW234776   3.016   0.838   2.456  1.4211  1.5703 -1.3753
 7714SOL     OW34777   0.751   2.968   4.034 -0.5642 -0.6674 -0.2817
 7714SOL    HW134778   0.705   3.031   4.089 -0.7665 -2.1011  1.1748
 7714SOL    HW234779   0.681   2.909   4.008 -2.9656  0.8268  2.8425
 7715SOL     OW34780   4.412   4.234   2.466 -0.1766 -0.0821  0.2067
 7715SOL    HW134781   4.436   4.313   2.514 -1.3361 -0.3467  1.2214
 7715SOL    HW234782   4.375   4.279   2.390 -0.0921 -1.0749 -0.4305
 7716SOL     OW34783   2.859   3.637  15.392 -0.2302 -0.7996 -0.1643
 7716SOL    HW134784   2.851   3.568  15.325  2.1331 -1.0399 -0.2145
 7716SOL    HW234785   2.791   3.696  15.361  0.5923 -0.1443 -0.7492
 7717SOL     OW34786   3.587   4.448   2.622  0.4553 -0.3206  0.0295
 7717SOL    HW134787   3.596   4.531   2.669 -1.9363  0.6602 -1.2302
 7717SOL    HW234788   3.493   4.436   2.626 -0.0367  2.8931 -1.5834
 7718SOL     OW34789   1.193   1.327  13.563 -0.0149  0.0667  0.3731
 7718SOL    HW134790   1.102   1.304  13.582 -0.3722  1.0572 -0.1389
 7718SOL    HW234791   1.209   1.361  13.651 -1.0941 -2.4978  1.5397
 7719SOL     OW34792   1.003   1.207  10.134 -0.4511 -0.1462  0.4789
 7719SOL    HW134793   0.946   1.149  10.185 -1.7710  0.1819 -0.6091
 7719SOL    HW234794   0.936   1.228  10.070 -1.8252  1.2262  2.3510
 7720SOL     OW34795   3.595   3.243   7.027  0.6674  0.6868  0.2487
 7720SOL    HW134796   3.523   3.230   6.965  0.1675 -0.6736  1.1048
 7720SOL    HW234797   3.546   3.261   7.107  0.6578  1.2933  0.1059
 7721SOL     OW34798   2.285   3.189   1.808  0.2970 -0.2781 -0.3852
 7721SOL    HW134799   2.246   3.130   1.872 -0.8916  0.9294 -0.0003
 7721SOL    HW234800   2.370   3.220   1.841  0.0548 -0.9366  0.8521
 7722SOL     OW34801   1.925   1.976   1.730 -0.1031 -0.1370 -0.0197
 7722SOL    HW134802   1.876   2.039   1.782  3.4073  2.3012  0.3229
 7722SOL    HW234803   2.008   1.978   1.778 -0.5704  0.4033  0.7461
 7723SOL     OW34804   3.421   0.147   9.322 -0.1794  0.3445  0.5131
 7723SOL    HW134805   3.507   0.190   9.322  0.6536 -1.3315 -1.6747
 7723SOL    HW234806   3.437   0.057   9.349 -1.1249  0.2300  0.6867
 7724SOL     OW34807   0.007   1.899   5.215  0.1603 -0.0090  0.1504
 7724SOL    HW134808   0.002   1.820   5.160  0.9724  2.4170 -3.4155
 7724SOL    HW234809   0.018   1.970   5.153 -0.9479 -1.0201 -1.2074
 7725SOL     OW34810   0.889   1.880  13.525  0.0593  0.3068 -0.0576
 7725SOL    HW134811   0.953   1.816  13.555 -0.7504 -0.4674  0.0078
 7725SOL    HW234812   0.941   1.953  13.490 -1.2823  1.0941 -0.3992
 7726SOL     OW34813   4.548   4.738   6.493 -0.4071 -0.0828 -0.1835
 7726SOL    HW134814   4.485   4.729   6.565 -1.1713 -2.1299 -1.1119
 7726SOL    HW234815   4.489   4.707   6.425 -1.9129  2.1141  0.0895
 7727SOL     OW34816   0.120   1.600   6.368  0.0620 -0.0293 -0.0258
 7727SOL    HW134817   0.178   1.675   6.359 -1.8530  1.0544 -3.5217
 7727SOL    HW234818   0.035   1.636   6.395  1.1528  2.1676  0.4369
 7728SOL     OW34819   0.725   2.787   1.704  0.0360 -0.1091  0.7130
 7728SOL    HW134820   0.805   2.826   1.670  0.9807 -0.9510  1.9942
 7728SOL    HW234821   0.712   2.855   1.769 -0.6137  1.0151 -0.5983
 7729SOL     OW34822   1.189   0.719   6.644  0.1466  0.2265 -0.5914
 7729SOL    HW134823   1.169   0.782   6.575 -0.0565  1.2740  0.4299
 7729SOL    HW234824   1.098   0.700   6.668  0.1488  0.6411 -0.2532
 7730SOL     OW34825   3.644   0.908  11.363  0.1463  0.0881  0.0694
 7730SOL    HW134826   3.565   0.957  11.344 -0.4394 -0.1595  1.9131
 7730SOL    HW234827   3.611   0.834  11.414  1.0129  0.2831  0.9216
 7731SOL     OW34828   2.800   2.256   6.476 -0.0160 -0.3418  0.1075
 7731SOL    HW134829   2.801   2.198   6.552  0.2274  0.9404  1.0808
 7731SOL    HW234830   2.872   2.219   6.423  0.4183 -0.3687  0.7129
 7732SOL     OW34831   2.528   3.808   4.913  0.1405 -0.1479  0.4633
 7732SOL    HW134832   2.480   3.732   4.945 -1.4853  0.3603 -0.7522
 7732SOL    HW234833   2.514   3.865   4.989 -4.3379 -0.6728  0.0304
 7733SOL     OW34834   1.586   3.001  11.211  0.0415  0.0783 -0.0166
 7733SOL    HW134835   1.622   2.912  11.219 -0.5884 -0.2994 -1.2405
 7733SOL    HW234836   1.669   3.048  11.216  0.8063 -1.0920 -1.4410
 7734SOL     OW34837   2.257   2.122   2.818 -0.2945  0.0357 -0.2561
 7734SOL    HW134838   2.239   2.033   2.789 -1.9167  0.4732 -0.6205
 7734SOL    HW234839   2.246   2.169   2.735 -1.1258  0.3643  0.0387
 7735SOL     OW34840   1.487   2.856  10.866  0.0801  0.6818 -0.2821
 7735SOL    HW134841   1.473   2.880  10.958 -1.6449 -0.2993 -0.2839
 7735SOL    HW234842   1.453   2.767  10.871  0.2606  0.7174  1.5176
 7736SOL     OW34843   3.819   2.368   2.561  0.3634  0.3943 -0.4151
 7736SOL    HW134844   3.730   2.334   2.548  0.0345  0.3170  2.1001
 7736SOL    HW234845   3.870   2.288   2.545  0.1134  0.4077 -1.2669
 7737SOL     OW34846   1.481   4.142   3.309 -0.1724 -0.7077  0.3149
 7737SOL    HW134847   1.448   4.229   3.286 -0.0040 -0.8277 -0.4008
 7737SOL    HW234848   1.483   4.164   3.402 -0.5052  2.7643 -0.5060
 7738SOL     OW34849   2.504   0.208   7.112  0.2195  0.2367  0.2221
 7738SOL    HW134850   2.534   0.171   7.195 -0.3203 -1.5124 -0.3738
 7738SOL    HW234851   2.422   0.251   7.135  1.5602  1.9385  1.8422
 7739SOL     OW34852   1.263   0.186   9.186 -1.1083  0.0712  0.3131
 7739SOL    HW134853   1.309   0.265   9.159  1.6731 -2.4693 -2.4305
 7739SOL    HW234854   1.328   0.116   9.176 -0.7398  0.6012 -1.1580
 7740SOL     OW34855   0.144   2.046   8.211  0.0258 -0.3110 -0.0621
 7740SOL    HW134856   0.059   2.085   8.189 -0.6801 -1.9116 -0.2061
 7740SOL    HW234857   0.125   2.044   8.305 -1.3472 -0.0308 -0.3388
 7741SOL     OW34858   0.453   2.997   2.152 -0.2448  0.4174 -0.1888
 7741SOL    HW134859   0.548   2.989   2.167 -0.1483  1.3560 -0.3331
 7741SOL    HW234860   0.418   2.935   2.217  2.2134 -2.3152 -1.4590
 7742SOL     OW34861   4.696   3.895  11.527  0.3764 -0.7006 -0.1931
 7742SOL    HW134862   0.046   3.891  11.554  0.5293 -0.9451 -0.7638
 7742SOL    HW234863   4.651   3.827  11.577 -0.7368 -0.7955 -1.3133
 7743SOL     OW34864   4.258   0.213   2.978  0.1674  0.0270  0.2172
 7743SOL    HW134865   4.343   0.251   2.953 -0.0589  0.0658 -0.5125
 7743SOL    HW234866   4.287   0.125   3.002  2.3335  0.5733 -0.3719
 7744SOL     OW34867   3.711   4.360   4.236  0.5270  0.3113  0.0701
 7744SOL    HW134868   3.739   4.269   4.238 -0.8284 -0.1124 -0.0442
 7744SOL    HW234869   3.695   4.378   4.328 -1.7654  0.5958 -0.3815
 7745SOL     OW34870   3.974   2.564   8.280  0.1249  0.3470  0.5373
 7745SOL    HW134871   3.987   2.593   8.370 -2.5587  0.1585  0.9800
 7745SOL    HW234872   3.997   2.646   8.237 -1.7152 -0.0360 -1.1688
 7746SOL     OW34873   1.844   0.557   2.324  0.1522 -0.2588 -0.0299
 7746SOL    HW134874   1.772   0.614   2.297  0.2414  0.0400  0.3657
 7746SOL    HW234875   1.855   0.608   2.404  1.4001  1.2889 -1.1618
 7747SOL     OW34876   4.450   3.459   7.712 -0.1003  0.1177 -0.2595
 7747SOL    HW134877   4.519   3.399   7.738 -0.3015 -0.1827 -0.4188
 7747SOL    HW234878   4.381   3.399   7.685 -1.0941  1.4958 -0.7848
 7748SOL     OW34879   1.869   3.298   3.286 -0.4209  0.0760 -0.1421
 7748SOL    HW134880   1.788   3.260   3.252  1.4634 -2.9058 -1.2647
 7748SOL    HW234881   1.917   3.219   3.310  0.2806  0.1987 -1.1813
 7749SOL     OW34882   2.986   0.645   9.359  0.5898 -0.3950  0.1300
 7749SOL    HW134883   2.977   0.720   9.301  2.1138 -1.2158 -1.1792
 7749SOL    HW234884   2.952   0.572   9.307 -0.6991 -1.8046  2.9722
 7750SOL     OW34885   3.176   0.705  14.903  0.5790  1.0891 -0.3959
 7750SOL    HW134886   3.197   0.649  14.829 -0.8193  1.6097 -1.1828
 7750SOL    HW234887   3.088   0.680  14.932 -0.6524  1.9899 -3.3608
 7751SOL     OW34888   3.188   0.223  15.003  0.1369 -0.0789  0.6231
 7751SOL    HW134889   3.227   0.140  15.029  0.1014  0.0814  1.1964
 7751SOL    HW234890   3.208   0.231  14.910  0.6493 -0.5123  0.6991
 7752SOL     OW34891   0.146   2.939  16.611  0.0589  1.1063  0.2631
 7752SOL    HW134892   0.154   2.858  16.660 -1.0373  0.7783 -0.0966
 7752SOL    HW234893   0.106   2.917  16.527 -1.3833  1.6484  0.8123
 7753SOL     OW34894   2.659   3.026   3.431  0.6230 -0.2659 -0.0022
 7753SOL    HW134895   2.714   2.960   3.475 -0.3910 -2.4290 -1.9919
 7753SOL    HW234896   2.592   2.980   3.381  1.2113 -0.8648 -0.2492
 7754SOL     OW34897   4.217   1.736   6.877 -0.2324 -0.3146  0.5215
 7754SOL    HW134898   4.246   1.827   6.887 -1.4608  0.1707 -0.3235
 7754SOL    HW234899   4.293   1.692   6.839 -1.1097  0.2102 -1.8726
 7755SOL     OW34900   1.663   3.111   2.158 -0.7039 -0.4230 -0.5286
 7755SOL    HW134901   1.758   3.122   2.150 -0.7809  0.9794  0.5605
 7755SOL    HW234902   1.635   3.092   2.069  0.3374 -2.9526 -0.3222
 7756SOL     OW34903   4.606   1.428   6.625 -0.0499 -0.3905 -0.2533
 7756SOL    HW134904   4.594   1.523   6.634 -1.4095 -0.5027 -0.8977
 7756SOL    HW234905   4.656   1.413   6.705 -3.2251 -0.6319  1.6918
 7757SOL     OW34906   1.369   1.498   2.879  0.3145  0.2764  0.2336
 7757SOL    HW134907   1.355   1.558   2.953  0.2540 -0.5037  0.8515
 7757SOL    HW234908   1.413   1.422   2.917 -0.0090 -0.3716 -0.7063
 7758SOL     OW34909   3.231   3.392   3.838 -0.3486  0.4157  0.1955
 7758SOL    HW134910   3.180   3.325   3.885  1.4561 -0.3108  1.1317
 7758SOL    HW234911   3.280   3.329   3.786 -0.9806  0.2653 -0.2187
 7759SOL     OW34912   3.684   1.409  12.547  0.2464  0.2930 -0.1702
 7759SOL    HW134913   3.681   1.464  12.625  3.2179  1.2982 -0.7836
 7759SOL    HW234914   3.755   1.347  12.562  2.2436  2.2496 -1.6845
 7760SOL     OW34915   3.862   2.362   1.477  0.0295 -0.0153 -0.5019
 7760SOL    HW134916   3.780   2.337   1.518  0.3074  1.7910  1.1647
 7760SOL    HW234917   3.843   2.381   1.385  1.5199 -0.4334 -0.9048
 7761SOL     OW34918   3.230   2.106   3.886 -0.5704  0.4379 -0.1282
 7761SOL    HW134919   3.300   2.116   3.951 -0.3465  0.4043 -0.3648
 7761SOL    HW234920   3.238   2.189   3.839  1.0719  0.1911 -0.3096
 7762SOL     OW34921   0.424   3.218   6.687  0.3118  0.2281  0.1420
 7762SOL    HW134922   0.371   3.143   6.660 -0.2380  1.6883 -2.7624
 7762SOL    HW234923   0.414   3.280   6.615 -0.5652 -0.2638 -0.1624
 7763SOL     OW34924   0.770   1.962   4.390 -0.3385  0.0494  0.1526
 7763SOL    HW134925   0.860   1.942   4.365 -0.3762 -0.4531  0.4055
 7763SOL    HW234926   0.742   2.022   4.321  0.2411  0.5266  0.3362
 7764SOL     OW34927   3.107   1.415   9.748  0.5474  0.1598 -0.0436
 7764SOL    HW134928   3.201   1.411   9.763  0.7739 -0.8483 -1.7481
 7764SOL    HW234929   3.085   1.324   9.731  1.1210 -0.2999  1.6367
 7765SOL     OW34930   1.288   1.353   6.770  0.1971  0.5113 -0.9269
 7765SOL    HW134931   1.245   1.294   6.831 -0.6629  1.9473 -0.1430
 7765SOL    HW234932   1.330   1.416   6.828 -0.8285 -0.4934  0.8913
 7766SOL     OW34933   0.811   3.216   1.907 -0.0244 -0.0182  0.1079
 7766SOL    HW134934   0.769   3.183   1.827 -1.2929  1.4286  0.1668
 7766SOL    HW234935   0.791   3.307   1.884 -0.4933 -0.8269 -2.6573
 7767SOL     OW34936   1.924   1.386  14.220 -0.0362 -0.0726 -0.1469
 7767SOL    HW134937   1.910   1.294  14.201 -2.3287  0.3106 -0.2651
 7767SOL    HW234938   1.890   1.385  14.309  1.0367 -2.8061  0.2273
 7768SOL     OW34939   0.993   2.716   7.371 -0.7943  0.7092 -0.5411
 7768SOL    HW134940   0.915   2.700   7.424  1.3727 -1.8143  1.8922
 7768SOL    HW234941   0.999   2.811   7.368 -1.3568  0.7850  0.8179
 7769SOL     OW34942   1.729   3.641  17.558  0.9232  0.2213 -0.1900
 7769SOL    HW134943   1.640   3.627  17.590  1.4833 -3.4402 -0.2524
 7769SOL    HW234944   1.757   3.550  17.548  1.0564  0.4435 -1.9274
 7770SOL     OW34945   2.053   1.022   2.033 -0.2724 -0.0136 -0.4897
 7770SOL    HW134946   2.073   1.096   1.976 -0.4736  1.5010  1.4044
 7770SOL    HW234947   2.004   1.062   2.105  2.2769 -1.0972  1.8251
 7771SOL     OW34948   3.861   0.395   2.293 -0.0664  0.1532 -0.1891
 7771SOL    HW134949   3.833   0.339   2.221 -0.0087  1.4419 -1.2109
 7771SOL    HW234950   3.862   0.327   2.360  0.8979  1.1468  0.7987
 7772SOL     OW34951   0.463   0.709   7.898 -0.0680  0.0498  0.0237
 7772SOL    HW134952   0.545   0.721   7.947  0.9323 -0.2730 -1.5581
 7772SOL    HW234953   0.460   0.613   7.901  0.3117  0.0281 -0.2652
 7773SOL     OW34954   4.151   3.747   4.268 -0.1469  0.9306 -0.4436
 7773SOL    HW134955   4.074   3.796   4.240 -1.2984 -3.0562 -4.2811
 7773SOL    HW234956   4.223   3.778   4.212  1.2594  0.8302  1.2913
 7774SOL     OW34957   3.834   4.073   9.590 -0.0246  0.1493  0.1934
 7774SOL    HW134958   3.834   4.154   9.640 -0.5613  0.0164  0.4031
 7774SOL    HW234959   3.928   4.064   9.574  0.2955  0.7795  1.7606
 7775SOL     OW34960   2.587   0.354  10.422  0.2964 -0.4717  0.2160
 7775SOL    HW134961   2.609   0.422  10.360  2.8278  0.4663  2.1696
 7775SOL    HW234962   2.492   0.364  10.434 -0.0816 -1.2893 -2.1486
 7776SOL     OW34963   1.541   3.918   5.381 -0.6349 -0.2402  0.3359
 7776SOL    HW134964   1.608   3.865   5.425  0.5539  0.9687 -0.0279
 7776SOL    HW234965   1.571   3.924   5.291  2.0762 -2.2634  1.1166
 7777SOL     OW34966   2.639   1.738   7.331  0.4163  0.1141  0.8938
 7777SOL    HW134967   2.590   1.684   7.392  1.6017  2.3042  3.7924
 7777SOL    HW234968   2.631   1.828   7.364 -1.3443  0.2645  0.0672
 7778SOL     OW34969   2.490   0.183   8.568 -0.0124 -0.2013 -0.4108
 7778SOL    HW134970   2.421   0.201   8.505 -0.4489 -4.8892 -1.2249
 7778SOL    HW234971   2.446   0.109   8.610  0.8237 -0.3924  0.1369
 7779SOL     OW34972   0.264   1.838   9.126 -0.5425 -0.3634  0.2660
 7779SOL    HW134973   0.266   1.934   9.118  3.3009 -0.1752  3.6759
 7779SOL    HW234974   0.238   1.809   9.038 -0.5184  0.2875  0.0438
 7780SOL     OW34975   4.192   4.237  10.819 -0.3271 -0.4085  0.3489
 7780SOL    HW134976   4.233   4.229  10.905 -1.7387  2.4305  1.2980
 7780SOL    HW234977   4.221   4.326  10.799 -0.3852 -0.8996 -1.9067
 7781SOL     OW34978   0.202   0.464  15.553 -0.5728 -0.1238  0.0590
 7781SOL    HW134979   0.234   0.534  15.496 -1.5524  0.8776  0.7324
 7781SOL    HW234980   0.282   0.416  15.572  0.4182  0.7506 -1.9020
 7782SOL     OW34981   2.958   3.151   0.386  0.0540  0.7853 -0.3117
 7782SOL    HW134982   3.002   3.091   0.327 -0.2149  0.3909 -0.1113
 7782SOL    HW234983   2.912   3.088   0.442  3.0385 -2.0760 -1.0792
 7783SOL     OW34984   3.643   3.223   7.741 -0.0478  0.6274  0.1494
 7783SOL    HW134985   3.687   3.201   7.823 -0.5837  0.7703  0.4753
 7783SOL    HW234986   3.622   3.137   7.706  0.7844  0.0020  1.1743
 7784SOL     OW34987   1.411   1.038   1.254 -0.2042 -0.2208  0.2302
 7784SOL    HW134988   1.340   1.025   1.318  0.1240  2.4887  1.1483
 7784SOL    HW234989   1.383   0.967   1.197  3.1050 -1.2171 -0.1108
 7785SOL     OW34990   0.349   0.463   9.478 -0.1087  0.2060 -0.3863
 7785SOL    HW134991   0.338   0.464   9.383 -1.6885  1.3492 -0.1885
 7785SOL    HW234992   0.275   0.404   9.497  0.3481 -0.9018 -2.1037
 7786SOL     OW34993   2.093   4.061  12.758  0.5569  0.6171  0.0747
 7786SOL    HW134994   2.168   4.011  12.724  1.2406  1.0490  0.9545
 7786SOL    HW234995   2.058   3.999  12.821  1.6107  1.7534  1.7776
 7787SOL     OW34996   4.250   0.660   2.665  0.1479  0.1329 -0.1997
 7787SOL    HW134997   4.225   0.678   2.574 -1.8562  1.1891  0.5556
 7787SOL    HW234998   4.231   0.746   2.703 -1.0431 -0.8621  1.4144
 7788SOL     OW34999   3.921   4.513  10.953  0.9435 -0.4373  0.0118
 7788SOL    HW135000   3.903   4.554  10.868  1.1483 -1.1064 -0.3593
 7788SOL    HW235001   3.853   4.537  11.016  1.5341 -1.1414  0.9177
 7789SOL     OW35002   0.483   3.630   7.278  0.2296 -0.0384 -0.2888
 7789SOL    HW135003   0.408   3.604   7.225  0.9548  1.9393 -2.2610
 7789SOL    HW235004   0.438   3.662   7.356  1.2593  0.5149  0.0930
 7790SOL     OW35005   0.461   1.285   7.561 -0.3238  0.6052 -0.0134
 7790SOL    HW135006   0.437   1.364   7.513 -0.7968  0.3874 -0.1292
 7790SOL    HW235007   0.391   1.222   7.543  0.6350  0.3913 -2.9220
 7791SOL     OW35008   2.265   2.051   3.092  0.3582 -0.5867  0.0367
 7791SOL    HW135009   2.256   2.079   3.001  0.7097  2.0030  0.7960
 7791SOL    HW235010   2.262   2.136   3.134  0.0911 -1.1294  1.1224
 7792SOL     OW35011   2.470   3.903   5.160  0.0553 -0.4630 -0.1810
 7792SOL    HW135012   2.394   3.901   5.218 -1.7039  1.0256 -2.4138
 7792SOL    HW235013   2.532   3.946   5.218 -1.0934  0.1792  0.5882
 7793SOL     OW35014   3.604   0.737   8.935 -0.3675 -0.1970  0.1216
 7793SOL    HW135015   3.619   0.675   8.864 -0.3812  0.0704 -0.1166
 7793SOL    HW235016   3.509   0.729   8.928 -0.2615 -1.9404  0.6617
 7794SOL     OW35017   3.583   3.441   5.349  0.5112  0.0980 -0.0869
 7794SOL    HW135018   3.586   3.478   5.261  1.0903 -0.6687 -0.3928
 7794SOL    HW235019   3.663   3.387   5.356 -1.6413 -2.7868  2.5214
 7795SOL     OW35020   3.867   2.410   2.856 -0.0691  0.0996  0.4884
 7795SOL    HW135021   3.895   2.402   2.765  2.1730 -0.9072  1.2762
 7795SOL    HW235022   3.901   2.330   2.896  0.7286  0.8190  1.2634
 7796SOL     OW35023   0.771   2.253   3.484  0.2109  0.8494 -0.7612
 7796SOL    HW135024   0.833   2.263   3.556  1.4553 -2.0513 -1.3996
 7796SOL    HW235025   0.828   2.214   3.417 -0.8652 -0.3324 -0.9970
 7797SOL     OW35026   1.340   0.224   1.162  0.2506  0.0691  0.0270
 7797SOL    HW135027   1.398   0.169   1.110  0.9593  1.1517 -0.3477
 7797SOL    HW235028   1.251   0.217   1.127 -0.2976 -2.8749  2.0144
 7798SOL     OW35029   3.339   2.796   1.798  0.0433  0.0451  0.6784
 7798SOL    HW135030   3.429   2.829   1.793  0.8974 -2.5073 -1.4113
 7798SOL    HW235031   3.298   2.882   1.796  3.0077  1.4470  0.9700
 7799SOL     OW35032   2.622   3.076   5.485  0.4395  0.2916  0.3148
 7799SOL    HW135033   2.661   3.061   5.572  2.3300 -2.8874 -1.0611
 7799SOL    HW235034   2.701   3.056   5.435  1.1590  0.0886  1.5349
 7800SOL     OW35035   0.208   1.028  10.568 -0.2293  0.1022  0.2909
 7800SOL    HW135036   0.214   1.116  10.530 -0.8851  0.0597  0.0866
 7800SOL    HW235037   0.217   0.973  10.490  0.6781  0.4479  0.1520
 7801SOL     OW35038   0.677   0.602   8.397  0.5720  0.0555 -0.2882
 7801SOL    HW135039   0.663   0.691   8.366  0.2019  0.9028  2.3087
 7801SOL    HW235040   0.587   0.580   8.424  0.4321 -1.5271 -2.0557
 7802SOL     OW35041   3.990   1.235   6.432  0.3903  0.2454 -0.8059
 7802SOL    HW135042   4.041   1.162   6.466  0.0540 -0.1420 -1.1391
 7802SOL    HW235043   4.006   1.218   6.340 -2.3576  1.7544 -1.5674
 7803SOL     OW35044   2.805   1.043   8.376 -0.1682  0.7827 -0.0878
 7803SOL    HW135045   2.862   1.071   8.305  0.9729 -0.5898  0.2977
 7803SOL    HW235046   2.748   0.993   8.318 -1.3875 -0.3842  2.1278
 7804SOL     OW35047   0.686   2.637   2.081  0.0276  0.0010  0.0634
 7804SOL    HW135048   0.650   2.597   2.002 -0.2904  0.5081 -0.0489
 7804SOL    HW235049   0.694   2.725   2.045  1.5583 -0.1802 -0.0438
 7805SOL     OW35050   0.546   3.418  16.735 -0.1880  0.2442  0.6517
 7805SOL    HW135051   0.525   3.469  16.657  0.3639  0.8868  0.9238
 7805SOL    HW235052   0.533   3.332  16.696  0.7899  0.8538 -1.0247
 7806SOL     OW35053   1.146   4.458  10.575 -0.4093 -0.1851  0.1989
 7806SOL    HW135054   1.213   4.526  10.572 -0.1224 -0.4737 -0.0858
 7806SOL    HW235055   1.081   4.503  10.628 -0.3303 -0.6604  0.7103
 7807SOL     OW35056   2.629   1.274  10.085 -0.2934  0.0755 -0.5497
 7807SOL    HW135057   2.710   1.301  10.043  0.2735 -0.1845  0.3599
 7807SOL    HW235058   2.590   1.361  10.090  1.6945  0.8508  1.4863
 7808SOL     OW35059   0.112   1.285   7.546 -0.1251  0.1768  0.0541
 7808SOL    HW135060   0.102   1.373   7.583 -1.3665 -0.0546  0.2775
 7808SOL    HW235061   0.061   1.300   7.466 -3.3375 -3.8190  1.3920
 7809SOL     OW35062   2.258   4.057   6.083  0.2621  0.2252 -0.2919
 7809SOL    HW135063   2.224   4.021   6.165  0.5681  1.4237  0.3749
 7809SOL    HW235064   2.200   4.132   6.070  1.2923  1.4274  1.8943
 7810SOL     OW35065   1.048   3.365  11.098  0.3290  0.6875 -0.2164
 7810SOL    HW135066   1.093   3.397  11.021 -0.3695 -1.5600 -1.5629
 7810SOL    HW235067   0.968   3.418  11.098  0.0122  0.2136  1.3171
 7811SOL     OW35068   2.875   2.474  15.207  0.1972  1.0416 -0.0382
 7811SOL    HW135069   2.925   2.398  15.178  0.7155  1.0941  0.7189
 7811SOL    HW235070   2.857   2.502  15.117 -2.8924  1.6006  0.7525
 7812SOL     OW35071   1.668   3.270   0.287 -0.0658 -0.1030  0.5384
 7812SOL    HW135072   1.713   3.262   0.203  1.2988 -1.1627  1.3755
 7812SOL    HW235073   1.735   3.315   0.339  1.8248  0.0456 -2.0139
 7813SOL     OW35074   0.795   2.886  10.582 -0.5510 -0.1803  0.7757
 7813SOL    HW135075   0.764   2.920  10.497  0.3780  0.5059  0.7149
 7813SOL    HW235076   0.720   2.832  10.606 -0.9156 -0.4817 -1.0222
 7814SOL     OW35077   0.722   3.855   4.302 -0.1543 -0.0084  0.5118
 7814SOL    HW135078   0.763   3.778   4.262  0.5448  1.5509 -1.7212
 7814SOL    HW235079   0.632   3.823   4.312 -0.0642 -0.4580 -0.1126
 7815SOL     OW35080   4.152   2.546   8.764  0.2531 -0.1012 -0.0302
 7815SOL    HW135081   4.072   2.510   8.801  1.4249 -0.7234  1.9106
 7815SOL    HW235082   4.220   2.512   8.822 -0.9211 -2.1339  0.1622
 7816SOL     OW35083   1.797   2.267   5.582 -0.3148 -0.0764  0.3269
 7816SOL    HW135084   1.806   2.271   5.487  1.5540 -3.8082  0.3636
 7816SOL    HW235085   1.885   2.253   5.616 -0.1442  1.0142  0.3441
 7817SOL     OW35086   3.129   1.794   5.174 -0.2566 -0.6950  0.6309
 7817SOL    HW135087   3.209   1.780   5.122  0.3431  2.5757  0.6972
 7817SOL    HW235088   3.067   1.728   5.142  1.0160 -1.3384 -0.5278
 7818SOL     OW35089   0.334   1.030   4.705 -0.0366  0.1275 -0.1836
 7818SOL    HW135090   0.246   1.019   4.741 -0.2706  2.9805  0.0719
 7818SOL    HW235091   0.375   0.980   4.775  1.1075  0.9122 -0.2975
 7819SOL     OW35092   2.178   2.607   2.207 -0.2347  0.1938 -0.4155
 7819SOL    HW135093   2.233   2.547   2.256 -0.1197 -0.1113 -0.9214
 7819SOL    HW235094   2.245   2.643   2.148  0.0167  1.5078  0.6739
 7820SOL     OW35095   1.980   3.789   8.225 -0.0586  0.1817  0.6617
 7820SOL    HW135096   2.035   3.800   8.147 -0.2999 -2.3461  0.1339
 7820SOL    HW235097   1.991   3.872   8.271 -0.4000  1.6851 -1.9366
 7821SOL     OW35098   3.402   2.250   6.059 -0.2074 -0.3031 -0.0420
 7821SOL    HW135099   3.415   2.345   6.059  0.2641 -0.3641 -0.7697
 7821SOL    HW235100   3.363   2.246   5.971 -1.2965 -2.0171  0.5202
 7822SOL     OW35101   2.099   0.131   9.755  0.1386  0.0192  0.1723
 7822SOL    HW135102   2.136   0.145   9.668 -0.1722 -0.3092 -0.0130
 7822SOL    HW235103   2.112   0.036   9.756  0.7067  0.0985  0.5279
 7823SOL     OW35104   1.083   2.968   3.127  0.6919 -0.0484 -0.0475
 7823SOL    HW135105   0.994   2.935   3.112  0.2160  0.7499  1.0197
 7823SOL    HW235106   1.111   2.987   3.038  1.8907 -0.9228  0.1423
 7824SOL     OW35107   4.608   0.599   7.456  0.2717  0.2475 -0.3388
 7824SOL    HW135108   4.620   0.688   7.423  1.5053  0.4420  0.6481
 7824SOL    HW235109   4.514   0.579   7.460  0.4346 -0.4530 -0.0328
 7825SOL     OW35110   3.469   3.929   9.445  0.8746  0.7622  0.5700
 7825SOL    HW135111   3.521   3.958   9.520 -0.3873  0.4275  1.5699
 7825SOL    HW235112   3.382   3.959   9.469  0.2974 -1.6479  1.5285
 7826SOL     OW35113   3.464   1.588   7.171 -0.1836  0.2494  0.1849
 7826SOL    HW135114   3.544   1.591   7.223 -0.2016  1.2108  0.1439
 7826SOL    HW235115   3.498   1.631   7.093  0.1473  0.2560  0.3326
 7827SOL     OW35116   3.085   0.235   4.937 -0.0349  0.5776 -0.5255
 7827SOL    HW135117   3.036   0.244   5.018 -2.0866 -0.3725 -1.6501
 7827SOL    HW235118   3.028   0.169   4.898  0.6668 -1.5279  2.0156
 7828SOL     OW35119   1.477   4.631   5.303 -0.0274  0.4189 -0.0668
 7828SOL    HW135120   1.419   4.678   5.362 -2.4403 -2.2926 -0.2682
 7828SOL    HW235121   1.407   4.588   5.254 -0.0382 -2.3381  2.3992
 7829SOL     OW35122   0.954   2.154   5.812 -0.3441 -0.4040 -0.2435
 7829SOL    HW135123   1.016   2.134   5.743  1.1155  2.3699  0.2559
 7829SOL    HW235124   0.940   2.248   5.799  0.3430 -0.4120 -0.9942
 7830SOL     OW35125   3.227   0.985   8.759 -0.3227  0.8823 -0.4603
 7830SOL    HW135126   3.135   0.979   8.785  0.3078 -1.2253  1.3031
 7830SOL    HW235127   3.222   1.012   8.667  1.1921  0.7692 -0.5744
 7831SOL     OW35128   0.624   3.275   7.568 -0.2131  0.1668  0.3998
 7831SOL    HW135129   0.619   3.345   7.504 -1.0088 -0.8885 -0.6774
 7831SOL    HW235130   0.719   3.264   7.574  0.3319  3.7984 -1.4383
 7832SOL     OW35131   1.430   1.093   3.245  0.5073 -0.1725  0.3097
 7832SOL    HW135132   1.390   1.146   3.315  0.2721  1.6695 -1.2172
 7832SOL    HW235133   1.373   1.017   3.247 -1.0067  0.9559  0.1431
 7833SOL     OW35134   4.563   1.640  12.286  0.8953 -0.0391 -0.1203
 7833SOL    HW135135   4.489   1.665  12.341  0.2877  0.4237 -1.1390
 7833SOL    HW235136   4.553   1.546  12.278  1.1519 -0.1646  1.0262
 7834SOL     OW35137   4.401   3.828   2.464  0.0313  0.1438  0.2813
 7834SOL    HW135138   4.372   3.880   2.539  0.9588  1.7000 -0.4346
 7834SOL    HW235139   4.324   3.776   2.441  1.8266 -3.7451  3.1131
 7835SOL     OW35140   1.555   4.588  11.828 -0.4281  0.4503 -0.6553
 7835SOL    HW135141   1.460   4.576  11.821 -0.1504 -1.1234 -1.6005
 7835SOL    HW235142   1.555   4.509  11.883 -0.4912 -0.4735 -1.9733
 7836SOL     OW35143   1.363   1.451  16.121  0.1216 -0.7434 -0.3832
 7836SOL    HW135144   1.297   1.495  16.175  0.5592  0.8820 -1.1852
 7836SOL    HW235145   1.441   1.452  16.176 -0.5358  0.4465  0.5404
 7837SOL     OW35146   4.516   3.408  12.859  0.5711  0.1543  0.1163
 7837SOL    HW135147   4.422   3.396  12.847  0.4564  1.2206  0.0104
 7837SOL    HW235148   4.531   3.478  12.796 -0.8956  1.5740  1.3752
 7838SOL     OW35149   4.231   4.302   2.265  0.1694 -0.0538 -0.4788
 7838SOL    HW135150   4.202   4.211   2.254 -0.1987 -0.2009  1.7883
 7838SOL    HW235151   4.165   4.351   2.216 -0.5388  2.6499  3.1817
 7839SOL     OW35152   1.565   2.465   3.872 -0.3388 -0.0294  0.3462
 7839SOL    HW135153   1.500   2.512   3.924 -0.5038  0.0668  0.0525
 7839SOL    HW235154   1.513   2.400   3.824 -0.3995  0.4692 -0.2683
 7840SOL     OW35155   3.260   0.108   4.219  0.6468 -0.4644  0.1247
 7840SOL    HW135156   3.174   0.149   4.228  0.9345  0.2358 -0.2820
 7840SOL    HW235157   3.288   0.113   4.310 -0.0458  1.7369  0.2131
 7841SOL     OW35158   3.808   2.449   8.084 -0.2385  0.0156 -0.1089
 7841SOL    HW135159   3.820   2.365   8.129 -0.4100 -0.4470 -0.9463
 7841SOL    HW235160   3.848   2.509   8.148 -0.8459  0.2704  0.0345
 7842SOL     OW35161   4.053   3.780   2.590  0.5096  0.0272  0.0698
 7842SOL    HW135162   3.981   3.744   2.643 -2.0596  1.0735 -2.7527
 7842SOL    HW235163   4.077   3.850   2.652 -1.0503  1.4612 -0.9552
 7843SOL     OW35164   3.311   2.240   4.145 -0.2506  0.1064  0.5368
 7843SOL    HW135165   3.310   2.325   4.189  0.8417  0.1606  0.4522
 7843SOL    HW235166   3.396   2.234   4.102 -0.6364  0.2840 -0.2668
 7844SOL     OW35167   3.859   1.369   3.067  0.4223 -0.2524 -0.6890
 7844SOL    HW135168   3.841   1.298   3.128  3.1864 -0.5057 -0.1492
 7844SOL    HW235169   3.781   1.364   3.012 -1.1137  2.8592  1.1881
 7845SOL     OW35170   4.079   2.950   2.069  0.0075  0.0594  0.1524
 7845SOL    HW135171   4.107   2.911   2.152 -0.3052  0.1973  0.3241
 7845SOL    HW235172   4.059   2.868   2.025 -1.6418  0.2268  0.5828
 7846SOL     OW35173   0.913   4.034   5.597 -0.3491 -0.0079  0.0920
 7846SOL    HW135174   1.007   4.049   5.606 -0.3817  0.0646  0.2895
 7846SOL    HW235175   0.896   4.104   5.533 -1.0872  0.0198  0.3112
 7847SOL     OW35176   3.561   0.228   8.989  0.1555 -0.1217  0.3929
 7847SOL    HW135177   3.538   0.308   9.037 -0.0179  0.0271  0.0640
 7847SOL    HW235178   3.530   0.157   9.045  0.7014  0.2390  1.1564
 7848SOL     OW35179   0.367   4.036   7.950 -0.8777  0.5491  0.4605
 7848SOL    HW135180   0.420   4.027   8.030 -1.0020  0.5776  0.5456
 7848SOL    HW235181   0.279   4.014   7.980 -0.7227  2.4724  2.3557
 7849SOL     OW35182   2.205   2.089   6.844 -0.5292 -0.5103  0.1202
 7849SOL    HW135183   2.238   2.173   6.813  1.1860 -0.2793  2.5530
 7849SOL    HW235184   2.278   2.030   6.824  0.6273  2.1222 -3.3371
 7850SOL     OW35185   3.868   1.553   5.461 -0.1828 -0.1631  0.0075
 7850SOL    HW135186   3.941   1.552   5.399 -0.7556 -0.5169 -0.6506
 7850SOL    HW235187   3.873   1.462   5.489  0.0458 -0.0639  0.2927
 7851SOL     OW35188   1.038   0.897   1.061 -0.7303  0.4350 -0.2428
 7851SOL    HW135189   1.069   0.981   1.094 -0.0957 -0.9783  2.7441
 7851SOL    HW235190   1.122   0.866   1.026 -0.2934 -0.8590  1.9484
 7852SOL     OW35191   2.913   2.803   1.779  0.0098 -0.1634  0.3698
 7852SOL    HW135192   2.831   2.839   1.811 -1.0118 -2.7512  0.6706
 7852SOL    HW235193   2.961   2.877   1.742 -0.5996  0.4484  0.8142
 7853SOL     OW35194   3.467   3.122   4.577  0.5238 -0.7414 -0.4724
 7853SOL    HW135195   3.427   3.183   4.638 -0.0620 -2.2248  0.6390
 7853SOL    HW235196   3.396   3.082   4.526  0.1213 -2.2514  1.2688
 7854SOL     OW35197   0.287   3.209   6.094  0.9895 -0.3311 -0.1531
 7854SOL    HW135198   0.231   3.218   6.171 -0.7830  0.2465 -1.5095
 7854SOL    HW235199   0.224   3.208   6.022 -3.9220  2.8883  4.0607
 7855SOL     OW35200   2.158   0.836   3.877  0.4675 -0.2494  0.3496
 7855SOL    HW135201   2.186   0.837   3.786  0.1496 -0.6997  0.2470
 7855SOL    HW235202   2.213   0.909   3.905  1.3909 -0.6513 -0.4017
 7856SOL     OW35203   4.357   2.815   7.742 -0.2984  0.0516 -0.1021
 7856SOL    HW135204   4.448   2.819   7.772 -0.0724 -0.6507 -0.6908
 7856SOL    HW235205   4.366   2.820   7.647  0.3998  0.4090 -0.0178
 7857SOL     OW35206   0.840   4.213  17.479 -0.2133  0.0283 -0.1638
 7857SOL    HW135207   0.828   4.250  17.566  0.1429 -1.2069  0.4213
 7857SOL    HW235208   0.757   4.215  17.432  0.9396 -2.0875 -2.3306
 7858SOL     OW35209   0.437   0.306   5.355 -0.1359 -0.4587  0.3254
 7858SOL    HW135210   0.403   0.379   5.406  0.6136  0.3640 -0.3551
 7858SOL    HW235211   0.403   0.233   5.406 -1.1371 -0.3442 -0.1730
 7859SOL     OW35212   2.182   0.292   3.326  0.4339 -0.0057  0.2278
 7859SOL    HW135213   2.255   0.230   3.326 -0.1778 -0.7397  0.6791
 7859SOL    HW235214   2.104   0.247   3.359  1.1853 -0.8213  0.9050
 7860SOL     OW35215   2.295   1.560   4.494  0.0569 -0.2678 -0.3602
 7860SOL    HW135216   2.375   1.606   4.470 -0.5508  0.4263 -1.0301
 7860SOL    HW235217   2.329   1.478   4.530 -1.8760  0.0882  2.3170
 7861SOL     OW35218   4.302   1.848   5.668  0.2334 -0.0238 -0.1955
 7861SOL    HW135219   4.299   1.941   5.692  0.4356 -0.5145  1.7189
 7861SOL    HW235220   4.395   1.834   5.689  0.6051 -0.6516 -2.1874
 7862SOL     OW35221   4.581   1.535   2.896  0.2966  0.1726 -0.4167
 7862SOL    HW135222   4.502   1.581   2.925  0.0596 -0.9608  0.7349
 7862SOL    HW235223   4.570   1.556   2.803 -0.7644  1.8602  0.0855
 7863SOL     OW35224   3.054   4.484  15.741 -0.3842  0.0330  0.2906
 7863SOL    HW135225   3.082   4.395  15.719 -3.9756 -0.9280 -0.3203
 7863SOL    HW235226   3.017   4.473  15.828 -3.1941  0.0012 -0.9064
 7864SOL     OW35227   3.321   1.917  10.159 -0.1438 -0.0050  0.0605
 7864SOL    HW135228   3.259   1.857  10.201 -2.0843  3.3046  1.9821
 7864SOL    HW235229   3.333   1.980  10.230  0.3073  0.5233 -0.5000
 7865SOL     OW35230   1.616   4.715   2.308 -0.5974 -0.1341 -0.6816
 7865SOL    HW135231   1.642   4.623   2.306  2.0688  0.5838  0.1768
 7865SOL    HW235232   1.556   4.723   2.234 -1.2337 -1.2317 -0.2756
 7866SOL     OW35233   2.718   0.075   6.708 -0.0315  0.3670 -0.5009
 7866SOL    HW135234   2.641   0.088   6.763 -1.2511 -2.5621 -1.5380
 7866SOL    HW235235   2.782   0.081   6.779 -1.6728  0.1347  0.9899
 7867SOL     OW35236   2.175   4.008   8.039 -0.1129  0.2395  0.4259
 7867SOL    HW135237   2.240   3.943   8.011 -0.4051 -0.8164  2.2313
 7867SOL    HW235238   2.113   4.011   7.965 -0.0355 -1.5054  0.2884
 7868SOL     OW35239   4.004   2.927   5.258 -0.0315 -0.4047 -0.0174
 7868SOL    HW135240   4.018   2.878   5.177 -1.1573 -1.9938  0.7233
 7868SOL    HW235241   4.080   2.984   5.265 -2.2361  2.4215  0.9293
 7869SOL     OW35242   1.363   3.155   2.770 -0.4975  0.1142 -0.2695
 7869SOL    HW135243   1.306   3.227   2.744  1.1270  0.4344 -3.0086
 7869SOL    HW235244   1.306   3.093   2.815 -1.3708  1.4511  0.4510
 7870SOL     OW35245   2.904   4.591   1.699  0.6863  0.0882  0.4017
 7870SOL    HW135246   2.821   4.555   1.669  0.2386  1.1328  0.3748
 7870SOL    HW235247   2.958   4.602   1.621 -0.2985 -0.4248 -0.3443
 7871SOL     OW35248   0.494   2.962   4.556  0.1800 -0.2657  0.5494
 7871SOL    HW135249   0.554   2.893   4.585 -0.6798 -0.9932  0.5744
 7871SOL    HW235250   0.448   2.992   4.635  0.6266  1.8029  0.0334
 7872SOL     OW35251   3.437   2.597   7.646 -0.3395  0.3073  0.0193
 7872SOL    HW135252   3.509   2.539   7.671  0.3472  1.0419 -0.2512
 7872SOL    HW235253   3.439   2.648   7.727  0.8548  0.5841 -0.1785
 7873SOL     OW35254   4.708   1.928   2.224 -0.2447  0.1411 -0.0294
 7873SOL    HW135255   4.728   2.006   2.172  1.3126 -0.1479  0.1381
 7873SOL    HW235256   0.040   1.868   2.210 -0.1037  0.1752  0.5676
 7874SOL     OW35257   3.065   0.767   4.350 -0.5064  0.3429  0.4828
 7874SOL    HW135258   2.983   0.796   4.392 -2.7623 -1.3522 -2.7316
 7874SOL    HW235259   3.129   0.781   4.420  0.6155  1.5032 -0.7802
 7875SOL     OW35260   0.356   3.528   9.159  0.0985 -0.0135 -0.0300
 7875SOL    HW135261   0.274   3.487   9.130 -0.2766  0.8332 -0.1624
 7875SOL    HW235262   0.390   3.533   9.070  1.0091 -1.2058  0.2535
 7876SOL     OW35263   3.599   2.059   4.916 -0.1872  0.4562 -0.1866
 7876SOL    HW135264   3.600   1.979   4.863 -0.3079 -0.8084  1.6708
 7876SOL    HW235265   3.603   2.021   5.005 -1.4473 -1.3117 -0.8778
 7877SOL     OW35266   1.114   4.351   8.030  0.3811 -0.2164 -0.7653
 7877SOL    HW135267   1.020   4.336   8.024  0.3292 -0.0279 -0.4241
 7877SOL    HW235268   1.122   4.406   7.952  1.7223  0.5980 -0.0540
 7878SOL     OW35269   2.283   3.096   7.891  0.0056  0.1344 -0.4166
 7878SOL    HW135270   2.221   3.083   7.819  0.0402 -1.4004 -0.1529
 7878SOL    HW235271   2.358   3.060   7.843  0.5716  0.5539  0.1440
 7879SOL     OW35272   1.412   2.206   4.024  0.5750  0.1886  0.1567
 7879SOL    HW135273   1.458   2.262   4.086 -1.7684  1.7116  0.5168
 7879SOL    HW235274   1.330   2.197   4.071 -1.2364 -1.7957 -3.3305
 7880SOL     OW35275   0.815   1.668   4.154  0.1553  0.1811  0.1703
 7880SOL    HW135276   0.730   1.681   4.196 -0.0557 -0.2531 -0.1208
 7880SOL    HW235277   0.795   1.628   4.069  1.3351  1.0241 -0.4940
 7881SOL     OW35278   0.980   4.182   2.815  0.0046  0.2827  0.0359
 7881SOL    HW135279   0.972   4.096   2.774 -2.7151  0.3973  0.3053
 7881SOL    HW235280   0.996   4.237   2.738  1.5831  2.4951  1.9469
 7882SOL     OW35281   1.825   0.123   8.994 -0.5855  0.3147  0.1370
 7882SOL    HW135282   1.817   0.111   9.089 -0.2179 -0.2712  0.0950
 7882SOL    HW235283   1.877   0.046   8.972 -0.4175  0.2966  0.6064
 7883SOL     OW35284   4.133   3.443   2.081  0.2934 -0.3615 -0.0438
 7883SOL    HW135285   4.223   3.426   2.055 -0.7761 -3.8471 -1.5206
 7883SOL    HW235286   4.143   3.484   2.167  1.4256  3.0924 -1.8542
 7884SOL     OW35287   4.392   3.496   8.313 -0.1439  0.1527  0.3225
 7884SOL    HW135288   4.399   3.421   8.255  0.4228 -0.0583  0.6573
 7884SOL    HW235289   4.450   3.482   8.388 -0.2285  0.1644  0.3896
 7885SOL     OW35290   1.981   0.473   6.393  0.1675  0.0975  0.1222
 7885SOL    HW135291   1.960   0.381   6.410 -0.0623 -0.0554 -1.0039
 7885SOL    HW235292   1.996   0.466   6.299  1.9271  0.7348  0.3551
 7886SOL     OW35293   0.945   1.590  13.028  0.1391  0.2460  0.7635
 7886SOL    HW135294   0.968   1.502  12.996  1.0053  1.2324 -1.3272
 7886SOL    HW235295   0.892   1.614  12.951  0.0574 -1.5881  0.2520
 7887SOL     OW35296   4.017   2.445  10.556  0.1671  0.2073  0.1086
 7887SOL    HW135297   3.938   2.419  10.604  0.2313  1.4681  0.8861
 7887SOL    HW235298   3.999   2.534  10.528 -0.3883  0.2671  0.6508
 7888SOL     OW35299   1.524   0.120   6.059  0.1356  0.0237  0.5912
 7888SOL    HW135300   1.516   0.210   6.090 -0.2005  0.8001 -1.7594
 7888SOL    HW235301   1.446   0.082   6.101  1.8491 -2.3801  1.5538
 7889SOL     OW35302   3.632   0.631   8.690 -0.3885  0.4529  0.3174
 7889SOL    HW135303   3.658   0.723   8.686 -1.2122  0.7445  1.3916
 7889SOL    HW235304   3.633   0.601   8.600 -2.5113  1.7279 -0.1326
 7890SOL     OW35305   1.233   2.013  12.475  0.0126  0.1000 -0.1806
 7890SOL    HW135306   1.265   2.083  12.532  0.1854  1.0500 -1.4550
 7890SOL    HW235307   1.300   2.006  12.407 -0.0776 -0.6431 -0.2003
 7891SOL     OW35308   2.191   3.069   6.848  0.5810  0.0926  0.2690
 7891SOL    HW135309   2.183   3.053   6.754 -1.7377  0.8337  0.3457
 7891SOL    HW235310   2.251   3.002   6.882  0.5375 -0.0277  0.1081
 7892SOL     OW35311   0.706   4.501   6.801  0.0804 -0.6730  0.1766
 7892SOL    HW135312   0.695   4.508   6.896  1.2532  2.4941  0.0730
 7892SOL    HW235313   0.797   4.472   6.791  0.0711 -0.2469 -1.0603
 7893SOL     OW35314   1.351   2.276   6.583 -0.3122 -0.8700 -0.2708
 7893SOL    HW135315   1.297   2.288   6.662  1.2135 -0.1231  0.6523
 7893SOL    HW235316   1.378   2.186   6.600 -0.3010 -0.9375 -0.6601
 7894SOL     OW35317   2.935   4.389   3.191  1.0388 -0.5022  0.7221
 7894SOL    HW135318   2.942   4.467   3.136 -1.2222  0.2340  1.5017
 7894SOL    HW235319   2.893   4.434   3.265  0.6401  0.7796 -0.2828
 7895SOL     OW35320   1.765   3.420  11.441 -1.2156  0.0568 -0.3299
 7895SOL    HW135321   1.849   3.384  11.412 -0.5240  1.3189  0.1287
 7895SOL    HW235322   1.714   3.430  11.360 -2.9698  0.4503  0.8316
 7896SOL     OW35323   4.457   3.506   4.824 -0.1098  0.6806 -0.3018
 7896SOL    HW135324   4.378   3.452   4.834  1.1326 -0.7063  2.0826
 7896SOL    HW235325   4.527   3.444   4.801  0.0923  1.2778 -1.2676
 7897SOL     OW35326   4.240   0.486   8.191 -0.0600  0.2026 -0.7260
 7897SOL    HW135327   4.174   0.535   8.143  0.2837 -0.8551 -2.2496
 7897SOL    HW235328   4.180   0.450   8.257  1.3010 -0.9591 -0.1127
 7898SOL     OW35329   2.811   4.529   9.094 -0.3418 -0.3515  0.4907
 7898SOL    HW135330   2.821   4.624   9.095  2.1830 -0.6340  1.2660
 7898SOL    HW235331   2.897   4.504   9.060 -2.1542 -0.5715 -4.0215
 7899SOL     OW35332   2.995   3.739   6.803 -0.1068 -0.2949  0.2101
 7899SOL    HW135333   3.040   3.754   6.886 -1.4458  3.1595  0.2971
 7899SOL    HW235334   3.071   3.755   6.746 -1.3375 -0.8253 -1.5931
 7900SOL     OW35335   3.053   0.991   3.051  0.0956 -0.0903  0.1624
 7900SOL    HW135336   3.050   0.896   3.067  1.8770 -0.4019 -1.3501
 7900SOL    HW235337   3.011   0.989   2.965 -0.4810 -0.8449  0.4586
 7901SOL     OW35338   2.478   2.420  11.123  0.0610  0.0424  0.0912
 7901SOL    HW135339   2.491   2.425  11.028 -1.5044 -3.0460 -0.3098
 7901SOL    HW235340   2.487   2.327  11.147  1.1124 -0.3089 -1.6652
 7902SOL     OW35341   4.645   2.731   4.105  0.6849 -0.1294 -0.2194
 7902SOL    HW135342   4.623   2.678   4.181 -1.2587 -0.3502 -0.9291
 7902SOL    HW235343   4.740   2.732   4.110  0.6595 -0.1404  0.2430
 7903SOL     OW35344   2.409   4.587   9.121  0.1543 -0.2448 -0.1655
 7903SOL    HW135345   2.333   4.540   9.089  1.2859 -0.9016 -1.8762
 7903SOL    HW235346   2.474   4.517   9.132 -0.2736 -0.3017  2.1330
 7904SOL     OW35347   2.517   3.852  12.013 -0.0848 -0.0907  0.5518
 7904SOL    HW135348   2.494   3.944  12.005  2.4548  0.5807  0.9492
 7904SOL    HW235349   2.428   3.818  12.025 -0.3711  0.6896  0.5874
 7905SOL     OW35350   2.818   0.011  16.865  0.2510 -0.6955  0.3349
 7905SOL    HW135351   2.868   0.090  16.888 -1.7711  0.5079  0.7128
 7905SOL    HW235352   2.865   4.706  16.797  0.7599 -0.7371  0.7208
 7906SOL     OW35353   4.483   0.746   7.882 -0.1039 -0.0723 -0.1505
 7906SOL    HW135354   4.435   0.781   7.957  0.2151  1.1236 -0.5087
 7906SOL    HW235355   4.468   0.652   7.896 -2.5792  0.2521 -0.6210
 7907SOL     OW35356   3.408   0.553  13.516 -0.2063  0.0878 -0.1861
 7907SOL    HW135357   3.348   0.600  13.458 -0.8399  1.5024  1.5895
 7907SOL    HW235358   3.413   0.472  13.466 -1.0391 -0.6680  0.9508
 7908SOL     OW35359   4.651   3.245   0.825  0.1991 -0.3255 -0.5573
 7908SOL    HW135360   4.730   3.247   0.770  0.9419  2.3362  0.6215
 7908SOL    HW235361   4.605   3.319   0.785  3.0703  1.6459 -0.2459
 7909SOL     OW35362   1.214   1.163  15.973 -0.4780  0.1465 -0.3650
 7909SOL    HW135363   1.235   1.246  16.017  1.0746 -0.0133 -0.8328
 7909SOL    HW235364   1.265   1.097  16.019  0.7315  0.6957 -0.9174
 7910SOL     OW35365   3.830   1.976   9.380 -0.6589 -0.2183 -0.2383
 7910SOL    HW135366   3.883   1.973   9.459 -0.7437  0.4882 -0.1530
 7910SOL    HW235367   3.743   1.988   9.418 -0.3103 -1.4499  0.9273
 7911SOL     OW35368   2.283   1.199  17.214  0.0520 -0.4259 -0.4237
 7911SOL    HW135369   2.242   1.118  17.184 -3.2691  0.7555  0.9565
 7911SOL    HW235370   2.330   1.224  17.134  0.6430 -1.5185 -0.4176
 7912SOL     OW35371   2.240   3.151  13.002 -1.0588  0.5290  0.8014
 7912SOL    HW135372   2.262   3.214  13.072  3.9132 -1.4045  0.9699
 7912SOL    HW235373   2.170   3.102  13.045  0.1546 -0.3450  1.7773
 7913SOL     OW35374   2.078   2.564   5.178 -0.0526  0.8871 -0.5901
 7913SOL    HW135375   2.100   2.634   5.117 -0.1255 -0.0409 -1.6714
 7913SOL    HW235376   2.155   2.561   5.235  0.1938 -2.5016 -1.1340
 7914SOL     OW35377   0.276   2.930   4.088 -0.4893  0.5345  0.2381
 7914SOL    HW135378   0.337   2.999   4.063  4.0242 -2.3982  3.2237
 7914SOL    HW235379   0.269   2.949   4.181  1.5716 -0.7483  0.6489
 7915SOL     OW35380   2.861   1.609   4.475  0.0220  0.1616 -0.8263
 7915SOL    HW135381   2.853   1.524   4.519 -4.0477 -0.1092 -2.0441
 7915SOL    HW235382   2.839   1.597   4.382 -1.5809 -0.9028 -0.3225
 7916SOL     OW35383   1.655   4.345   8.177 -0.6483 -0.4415  0.4437
 7916SOL    HW135384   1.724   4.389   8.227  0.1929  0.0741 -1.1422
 7916SOL    HW235385   1.710   4.281   8.131  0.7199  0.0106  1.4338
 7917SOL     OW35386   3.252   2.065   3.529  0.3167  0.0188  0.3523
 7917SOL    HW135387   3.237   1.993   3.590  1.7056  0.8392  1.6832
 7917SOL    HW235388   3.347   2.053   3.536  0.3014 -0.6849 -0.8002
 7918SOL     OW35389   2.726   4.446   0.205  0.4106  0.0436  0.5010
 7918SOL    HW135390   2.767   4.518   0.157  0.0565  0.2290  0.4765
 7918SOL    HW235391   2.739   4.376   0.141  1.4247  2.6149 -2.1410
 7919SOL     OW35392   4.696   0.505  12.545  0.5933  0.1135  0.3992
 7919SOL    HW135393   4.673   0.561  12.620  2.3835 -1.8605  2.4326
 7919SOL    HW235394   4.642   0.542  12.475  1.3873  0.3514 -0.0791
 7920SOL     OW35395   4.208   1.639   4.737  0.0053  0.3382  0.0486
 7920SOL    HW135396   4.275   1.705   4.714  0.5664  0.2861  1.5668
 7920SOL    HW235397   4.267   1.565   4.723 -0.0698  0.3895 -0.5703
 7921SOL     OW35398   3.927   4.365   5.709  0.0062  0.0340 -0.1195
 7921SOL    HW135399   3.936   4.304   5.782 -0.3128  3.1183  2.5138
 7921SOL    HW235400   3.833   4.377   5.696 -0.0450 -0.4033 -0.1429
 7922SOL     OW35401   4.568   0.552   3.313 -0.4400 -0.0927 -0.1546
 7922SOL    HW135402   4.493   0.505   3.276 -0.8945 -0.1743  0.8742
 7922SOL    HW235403   4.526   0.615   3.370  1.3418 -0.2381  1.3319
 7923SOL     OW35404   2.661   3.319  14.186  0.1793 -0.1061  0.0769
 7923SOL    HW135405   2.643   3.398  14.237  2.8673  0.8957 -0.5478
 7923SOL    HW235406   2.590   3.322  14.121  0.9927 -1.9428 -0.8935
 7924SOL     OW35407   3.290   2.898   6.719  0.1559 -0.1592  0.2876
 7924SOL    HW135408   3.280   2.859   6.632  0.4485  0.7372 -0.1446
 7924SOL    HW235409   3.201   2.922   6.745 -0.4510  0.0897 -2.0218
 7925SOL     OW35410   2.611   0.276   2.930 -0.1417  0.4264  0.0394
 7925SOL    HW135411   2.529   0.240   2.964 -1.0762  0.8019 -1.8613
 7925SOL    HW235412   2.661   0.195   2.920 -0.6153  0.1319  0.0471
 7926SOL     OW35413   0.313   0.538   2.819 -0.6220  0.0641 -0.1499
 7926SOL    HW135414   0.232   0.515   2.774 -1.3870  0.2166  1.1511
 7926SOL    HW235415   0.367   0.570   2.747 -0.4088 -0.2838 -0.1440
 7927SOL     OW35416   0.577   2.899   6.711 -0.1620  0.1711  0.0927
 7927SOL    HW135417   0.515   2.904   6.784  0.4197  2.6120  0.4078
 7927SOL    HW235418   0.566   2.812   6.673 -0.6936 -0.3936  1.5414
 7928SOL     OW35419   0.904   2.259   1.960  0.2672 -0.1730  0.2757
 7928SOL    HW135420   0.952   2.213   1.891 -0.6379  0.6349 -0.8706
 7928SOL    HW235421   0.838   2.191   1.972 -0.8242  0.9034  0.4013
 7929SOL     OW35422   2.081   0.372   5.992  0.1827 -0.2772  0.5469
 7929SOL    HW135423   2.019   0.439   5.964 -0.7381 -0.9121  1.0881
 7929SOL    HW235424   2.036   0.346   6.073 -0.6995 -1.5585 -0.3552
 7930SOL     OW35425   3.081   2.051   4.444  0.4747 -0.0434  0.1008
 7930SOL    HW135426   3.092   2.068   4.350 -0.4445 -1.5649 -0.2849
 7930SOL    HW235427   3.008   1.988   4.439 -0.8486  1.5398 -0.4754
 7931SOL     OW35428   3.257   4.595  10.944  0.2365  0.2516 -0.0646
 7931SOL    HW135429   3.313   4.533  10.992  0.1511 -0.1163 -0.4381
 7931SOL    HW235430   3.212   4.632  11.020  0.1325 -0.1892  0.0902
 7932SOL     OW35431   3.036   1.587  13.391 -0.3993  0.2142  0.6668
 7932SOL    HW135432   2.942   1.574  13.400 -0.3655 -0.6414 -0.2932
 7932SOL    HW235433   3.079   1.511  13.353 -1.3322 -0.6256  1.3158
 7933SOL     OW35434   2.458   2.102  15.211  0.6305  0.1633 -0.4179
 7933SOL    HW135435   2.511   2.118  15.289  0.8727 -1.3974 -0.2597
 7933SOL    HW235436   2.366   2.117  15.232 -0.5421 -3.4569 -3.0439
 7934SOL     OW35437   0.663   3.698   8.709  0.0101  0.1125  0.4952
 7934SOL    HW135438   0.752   3.677   8.681 -0.0522 -0.0447  0.4151
 7934SOL    HW235439   0.675   3.777   8.761  2.6194 -1.3297  2.0664
 7935SOL     OW35440   2.265   3.362  14.922  0.3379  0.6653 -0.1473
 7935SOL    HW135441   2.238   3.371  14.831 -0.1156  2.0784  0.1197
 7935SOL    HW235442   2.360   3.377  14.922  0.3341  0.6924 -1.5998
 7936SOL     OW35443   0.600   2.972   8.106 -0.7639 -0.0845  0.2073
 7936SOL    HW135444   0.602   2.877   8.122  0.7430 -0.7465 -3.9145
 7936SOL    HW235445   0.677   3.003   8.153  0.1854  0.3969 -1.7110
 7937SOL     OW35446   4.712   2.134   3.399 -0.5412  0.1353 -0.1737
 7937SOL    HW135447   0.002   2.165   3.483  3.2294 -0.8297 -1.2849
 7937SOL    HW235448   4.659   2.061   3.429 -0.2349  1.2884  3.1664
 7938SOL     OW35449   0.444   2.903   2.682 -0.0920 -0.1175  0.3415
 7938SOL    HW135450   0.437   2.904   2.586  1.9505 -0.9545  0.1891
 7938SOL    HW235451   0.397   2.985   2.699  0.6208  0.6960 -1.4952
 7939SOL     OW35452   4.666   3.813   2.578  0.3303  0.0720 -0.0160
 7939SOL    HW135453   4.668   3.908   2.567  0.3841 -0.0838 -1.3373
 7939SOL    HW235454   4.578   3.790   2.547 -0.4167  1.7421  0.8750
 7940SOL     OW35455   0.059   1.219   4.039 -0.2644 -0.8014 -0.5801
 7940SOL    HW135456   0.050   1.129   4.069 -1.4531  0.0043  1.4271
 7940SOL    HW235457   0.028   1.204   3.949 -0.2826 -1.4661 -0.4641
 7941SOL     OW35458   3.098   1.566   3.108  0.1563  0.1078 -0.2002
 7941SOL    HW135459   3.072   1.585   3.198  2.3518 -1.0815  0.6560
 7941SOL    HW235460   3.169   1.627   3.089  1.8837 -2.1240 -0.8717
 7942SOL     OW35461   2.652   3.221   4.463  0.1435 -0.2234 -0.4617
 7942SOL    HW135462   2.626   3.269   4.542  0.0606  0.2255 -0.7638
 7942SOL    HW235463   2.747   3.214   4.475  0.0184 -0.1181  0.5928
 7943SOL     OW35464   4.208   2.127   7.979 -0.4858 -0.1304 -0.2395
 7943SOL    HW135465   4.175   2.194   8.039  0.0114 -1.6902  1.7919
 7943SOL    HW235466   4.191   2.178   7.900 -0.2906  1.7988  0.9336
 7944SOL     OW35467   0.050   0.608   8.249  0.2061 -0.5702 -0.0645
 7944SOL    HW135468   4.722   0.544   8.250  2.3533 -2.9214  1.6741
 7944SOL    HW235469   0.015   0.684   8.202 -0.8020 -2.2250 -1.9791
 7945SOL     OW35470   2.004   0.403  15.879  0.7589 -0.3297  0.1618
 7945SOL    HW135471   2.037   0.325  15.923  1.2399 -1.4864 -2.2480
 7945SOL    HW235472   1.963   0.441  15.957  0.3819 -0.4713  0.0339
 7946SOL     OW35473   4.726   3.034   7.654 -0.8747 -0.3124  0.2991
 7946SOL    HW135474   4.706   2.954   7.606  0.2853  1.6088 -3.3907
 7946SOL    HW235475   0.052   3.001   7.713 -0.6935  0.1117  0.3246
 7947SOL     OW35476   1.162   3.040   5.325 -0.1610  0.6173 -0.5231
 7947SOL    HW135477   1.071   3.052   5.352 -0.3504  0.8778 -1.2992
 7947SOL    HW235478   1.152   3.059   5.232 -0.4675  1.1125 -0.3850
 7948SOL     OW35479   2.825   0.217  10.428 -0.4434  0.0232  0.0151
 7948SOL    HW135480   2.744   0.264  10.407  0.5766  1.7501 -0.0145
 7948SOL    HW235481   2.799   0.136  10.385 -1.5367  0.5368 -0.3013
 7949SOL     OW35482   2.796   0.290  10.915 -0.2310 -0.3232 -0.1381
 7949SOL    HW135483   2.708   0.264  10.940 -0.8550  2.8457  0.8852
 7949SOL    HW235484   2.781   0.320  10.826  0.3646  3.0520  0.8803
 7950SOL     OW35485   3.293   1.957   7.306  0.2507  0.6775  0.4011
 7950SOL    HW135486   3.283   1.914   7.221  0.2959  0.4771  0.4986
 7950SOL    HW235487   3.216   2.014   7.307 -0.1739  0.1411 -1.9665
 7951SOL     OW35488   1.520   0.181   5.458  0.8809  0.9547 -0.1062
 7951SOL    HW135489   1.441   0.231   5.439  1.8059  2.3288 -0.3459
 7951SOL    HW235490   1.545   0.221   5.541  1.8535 -0.4528  0.2840
 7952SOL     OW35491   2.879   0.974   3.804 -0.1184  0.2497  0.1473
 7952SOL    HW135492   2.948   1.027   3.765 -1.5265  0.8915 -1.4866
 7952SOL    HW235493   2.866   0.910   3.735  0.9042  0.8672 -0.6111
 7953SOL     OW35494   0.507   1.049  11.274  0.6816  0.1022  0.0640
 7953SOL    HW135495   0.424   1.086  11.242 -0.5793 -3.4491 -0.7041
 7953SOL    HW235496   0.532   1.109  11.344  2.3066 -1.5225  0.8889
 7954SOL     OW35497   4.454   2.043   5.966  1.1478 -0.7630 -0.3466
 7954SOL    HW135498   4.398   2.089   5.903 -0.0796  0.7029  1.8337
 7954SOL    HW235499   4.393   2.031   6.038 -0.8748  0.6355 -1.8430
 7955SOL     OW35500   2.639   2.980   7.510 -0.5448  0.5533 -0.1901
 7955SOL    HW135501   2.653   3.066   7.548 -0.2936 -0.7039  2.5654
 7955SOL    HW235502   2.660   2.917   7.579  2.4070  0.3700 -1.2764
 7956SOL     OW35503   1.953   2.035   9.679  0.2117  0.6682  0.0840
 7956SOL    HW135504   1.867   2.067   9.655  0.1447  0.4379  0.0151
 7956SOL    HW235505   1.925   1.991   9.759 -1.3949 -1.1741 -1.4962
 7957SOL     OW35506   4.341   4.072   4.822 -0.9842 -1.0419 -0.3360
 7957SOL    HW135507   4.437   4.075   4.819 -0.8908 -1.9816  1.9474
 7957SOL    HW235508   4.330   4.050   4.914  0.1714 -0.9151 -0.1571
 7958SOL     OW35509   0.449   2.772   8.878 -0.0678  0.4083 -0.0245
 7958SOL    HW135510   0.480   2.763   8.788 -1.3919  1.1679 -0.5585
 7958SOL    HW235511   0.529   2.762   8.930  0.8135  1.8119 -1.1079
 7959SOL     OW35512   1.119   0.150   8.241 -0.4061  0.0987  0.6173
 7959SOL    HW135513   1.105   0.239   8.208 -0.4183 -0.7346 -1.6154
 7959SOL    HW235514   1.100   0.097   8.164  0.2750  0.4227  0.2285
 7960SOL     OW35515   1.752   0.133  15.067 -0.2279  0.1217  0.2118
 7960SOL    HW135516   1.688   0.066  15.044  0.8081 -0.2493 -1.5393
 7960SOL    HW235517   1.812   0.073  15.110 -1.1124 -2.2692 -1.9046
 7961SOL     OW35518   3.929   1.808   1.810 -0.0764 -0.4880 -0.0139
 7961SOL    HW135519   3.958   1.777   1.896 -1.1426  0.1217  0.5719
 7961SOL    HW235520   3.983   1.887   1.804 -2.4579  1.1426 -0.2400
 7962SOL     OW35521   1.275   3.239   4.641  0.3552  0.2589 -0.3429
 7962SOL    HW135522   1.370   3.240   4.627  0.4785 -2.2718  0.3914
 7962SOL    HW235523   1.233   3.235   4.554 -0.2468  1.3936 -0.1033
 7963SOL     OW35524   3.506   1.003  13.444  0.0824  0.5589 -0.1766
 7963SOL    HW135525   3.543   1.034  13.526  3.8021 -0.2681 -1.5367
 7963SOL    HW235526   3.479   0.919  13.482 -0.7273  0.9386  0.0783
 7964SOL     OW35527   2.097   2.527   6.848  0.6086 -0.0235  0.0073
 7964SOL    HW135528   2.070   2.570   6.767 -0.9722 -0.7045  0.1679
 7964SOL    HW235529   2.019   2.544   6.901 -1.6289  2.4129 -4.0826
 7965SOL     OW35530   3.679   3.774   8.797 -0.1998  0.1461 -0.1057
 7965SOL    HW135531   3.650   3.865   8.797  0.1548  0.2539  3.4564
 7965SOL    HW235532   3.637   3.748   8.879  0.1844  1.1149  0.3926
 7966SOL     OW35533   2.264   0.476   3.105  0.2811 -0.0237  0.3291
 7966SOL    HW135534   2.201   0.461   3.035  0.8121 -0.3211 -0.0843
 7966SOL    HW235535   2.251   0.398   3.160 -0.4951  0.0138  0.2060
 7967SOL     OW35536   0.813   2.742   8.502  0.0495  0.4162  0.1736
 7967SOL    HW135537   0.864   2.697   8.434 -0.7040 -1.0207  0.5530
 7967SOL    HW235538   0.876   2.790   8.556  0.9395 -3.1573  2.3637
 7968SOL     OW35539   3.692   4.684   9.548  0.2490  0.2003 -0.2895
 7968SOL    HW135540   3.745   0.003   9.495 -0.0009  0.8437  0.1999
 7968SOL    HW235541   3.637   4.739   9.604  0.3124 -0.4746  0.4314
 7969SOL     OW35542   3.150   0.885  15.606 -0.0487  0.6977  0.0270
 7969SOL    HW135543   3.072   0.940  15.610 -0.6971 -0.3683  1.9689
 7969SOL    HW235544   3.147   0.853  15.696 -1.6366 -2.2645 -1.0935
 7970SOL     OW35545   2.276   3.071   1.247  0.3635 -0.2441 -0.3379
 7970SOL    HW135546   2.226   2.992   1.268 -0.9394  1.0116  1.1842
 7970SOL    HW235547   2.327   3.079   1.327 -2.0549  1.9446  0.9498
 7971SOL     OW35548   1.515   0.448   1.784 -0.2940 -0.4342  0.3525
 7971SOL    HW135549   1.480   0.379   1.728 -2.2262  0.0499  0.9626
 7971SOL    HW235550   1.494   0.528   1.736 -0.9867  0.8245  2.7886
 7972SOL     OW35551   0.285   3.914   2.114  0.5453 -0.2144  0.5118
 7972SOL    HW135552   0.272   3.867   2.032  0.2502 -0.4315  0.6821
 7972SOL    HW235553   0.361   3.968   2.093  0.3991  0.3426  1.4063
 7973SOL     OW35554   1.504   0.648   9.278  0.7969 -0.1515  0.5996
 7973SOL    HW135555   1.555   0.713   9.326  0.6214  1.1808 -1.0128
 7973SOL    HW235556   1.448   0.706   9.227 -0.6412 -0.9867  1.2376
 7974SOL     OW35557   4.539   0.038   1.035 -0.1750  0.0652  0.5046
 7974SOL    HW135558   4.613   0.004   0.985  0.4821  4.2530 -1.3974
 7974SOL    HW235559   4.530   0.130   1.009  0.7624  0.5122  1.7920
 7975SOL     OW35560   4.157   4.056  11.395 -0.3177 -0.4357 -0.1905
 7975SOL    HW135561   4.145   4.141  11.354 -1.4919 -0.3621  0.3044
 7975SOL    HW235562   4.249   4.031  11.382 -0.3419 -0.4395 -0.3583
 7976SOL     OW35563   0.358   1.291   3.385  0.3542  0.6265 -0.8942
 7976SOL    HW135564   0.378   1.203   3.351  1.3717  0.6988 -0.4961
 7976SOL    HW235565   0.354   1.343   3.305 -1.1290 -0.9845 -1.8768
 7977SOL     OW35566   3.912   0.749   7.494 -0.2708 -0.7294  0.4071
 7977SOL    HW135567   3.995   0.749   7.446  0.0884  0.5368  1.0274
 7977SOL    HW235568   3.907   0.838   7.529 -2.4405 -1.4373  1.8984
 7978SOL     OW35569   1.881   2.854   8.043 -0.5341 -0.3448  0.5220
 7978SOL    HW135570   1.886   2.776   8.098  1.3437 -1.3666 -1.0984
 7978SOL    HW235571   1.848   2.923   8.100  0.0691  0.8759 -0.5988
 7979SOL     OW35572   3.126   4.259   5.174  0.2997 -0.0154 -0.1678
 7979SOL    HW135573   3.214   4.229   5.151  0.1950  1.1296 -2.0778
 7979SOL    HW235574   3.110   4.214   5.257  0.8257  1.7201  0.8761
 7980SOL     OW35575   3.990   3.321   3.763 -0.4311 -0.0744 -0.7839
 7980SOL    HW135576   4.077   3.302   3.729 -0.8996  1.1588 -2.7081
 7980SOL    HW235577   3.964   3.402   3.719 -0.3763  1.3912  1.8732
 7981SOL     OW35578   3.802   4.326   2.716 -0.2878  0.0487  0.6714
 7981SOL    HW135579   3.723   4.370   2.685  0.2378 -0.5271 -1.4888
 7981SOL    HW235580   3.767   4.247   2.758 -3.2968 -0.1036 -2.1048
 7982SOL     OW35581   3.848   4.268  13.612 -0.3206 -0.2780 -0.2459
 7982SOL    HW135582   3.929   4.316  13.625 -0.1645 -0.6816  0.2957
 7982SOL    HW235583   3.881   4.184  13.644 -0.9902 -1.9050 -3.7161
 7983SOL     OW35584   3.057   2.148  13.448  0.2188 -0.6226  0.0945
 7983SOL    HW135585   3.108   2.185  13.376  0.7286  0.5235  1.0523
 7983SOL    HW235586   2.968   2.167  13.419  1.4212  2.4386 -1.6319
 7984SOL     OW35587   0.399   1.560   4.728 -0.1685 -0.0432  0.2772
 7984SOL    HW135588   0.438   1.575   4.642 -0.2271 -0.3978  0.1883
 7984SOL    HW235589   0.336   1.488   4.713  1.9245 -1.6820 -0.6807
 7985SOL     OW35590   2.475   0.085  17.045  0.3128 -0.6743 -0.1634
 7985SOL    HW135591   2.538   0.017  17.070  1.0657  0.0305 -0.1344
 7985SOL    HW235592   2.510   0.129  16.967 -0.1663 -0.7859 -0.4405
 7986SOL     OW35593   3.378   2.495  15.405  0.9252 -0.4359  0.3118
 7986SOL    HW135594   3.355   2.481  15.314 -1.3064  0.4240  0.7428
 7986SOL    HW235595   3.297   2.517  15.451 -0.9640  1.3411 -3.9325
 7987SOL     OW35596   4.703   0.435   3.083  0.0406 -0.3154 -0.3484
 7987SOL    HW135597   0.052   0.414   3.101 -0.1798 -0.2108  0.9062
 7987SOL    HW235598   4.679   0.476   3.166 -1.4889 -3.0752  0.5765
 7988SOL     OW35599   3.625   3.048   2.303  0.4545 -0.2921 -0.1693
 7988SOL    HW135600   3.707   3.088   2.274  1.1646 -3.5673 -2.6712
 7988SOL    HW235601   3.603   2.988   2.231  1.5864 -0.7834 -0.0960
 7989SOL     OW35602   1.320   3.301   6.279  0.1781  0.2918  0.1020
 7989SOL    HW135603   1.411   3.272   6.274  0.6945  1.9158  0.0457
 7989SOL    HW235604   1.307   3.321   6.372 -0.4551 -2.3792  0.6172
 7990SOL     OW35605   0.279   2.595  10.104 -0.1991 -0.3911 -0.0386
 7990SOL    HW135606   0.361   2.641  10.087 -0.4190 -0.3374 -0.9806
 7990SOL    HW235607   0.266   2.610  10.197 -1.4278 -0.7486 -0.1537
 7991SOL     OW35608   3.691   1.458   7.760  0.1153  0.7686 -0.0990
 7991SOL    HW135609   3.774   1.412   7.770  0.5952  0.6099 -4.6699
 7991SOL    HW235610   3.622   1.392   7.768 -0.6105  1.8435  2.3341
 7992SOL     OW35611   1.140   2.749   5.745  0.7073  0.3504 -0.0797
 7992SOL    HW135612   1.159   2.840   5.720  0.7518  0.3788  0.0595
 7992SOL    HW235613   1.201   2.724   5.815  1.3754  1.2086 -0.3429
 7993SOL     OW35614   0.348   1.524  15.104  0.0783 -0.5196  0.0949
 7993SOL    HW135615   0.332   1.619  15.103 -2.8531 -1.0167 -0.1265
 7993SOL    HW235616   0.263   1.493  15.136  1.0201 -2.4639  0.6874
 7994SOL     OW35617   0.914   2.453   2.129  0.0107 -0.5179  0.1322
 7994SOL    HW135618   0.835   2.507   2.136 -0.4173 -1.4628  2.2844
 7994SOL    HW235619   0.889   2.383   2.068 -2.2071  0.8697 -0.5588
 7995SOL     OW35620   2.128   0.074   1.835  0.0173 -0.4227  0.3780
 7995SOL    HW135621   2.116   4.723   1.858 -1.3613 -0.7819 -1.8057
 7995SOL    HW235622   2.176   0.060   1.754 -0.3669 -0.7131  0.1980
 7996SOL     OW35623   1.283   0.291  16.704  0.1657  0.2975  0.4229
 7996SOL    HW135624   1.311   0.311  16.615  0.6401 -1.4060  0.1822
 7996SOL    HW235625   1.192   0.306  16.679  0.2648 -1.2051 -0.8481
 7997SOL     OW35626   1.303   2.484  12.711  0.1995  0.3136 -0.3018
 7997SOL    HW135627   1.334   2.523  12.630 -0.0365  1.2380  0.0513
 7997SOL    HW235628   1.382   2.435  12.733 -0.1576  0.4349  1.2517
 7998SOL     OW35629   0.912   0.913  14.435 -0.0710  0.3607  0.3551
 7998SOL    HW135630   0.976   0.984  14.424  0.1639  0.5569  2.9889
 7998SOL    HW235631   0.973   0.844  14.463  1.8401  1.6767 -0.5334
 7999SOL     OW35632   3.946   1.173  10.778  0.0725 -0.0332  0.4665
 7999SOL    HW135633   3.940   1.082  10.748  0.0923  0.9775 -2.5921
 7999SOL    HW235634   3.876   1.170  10.844 -2.4772  2.1460 -2.1409
 8000SOL     OW35635   0.527   0.125  12.988 -0.0351  0.0027 -0.1841
 8000SOL    HW135636   0.619   0.104  12.973 -0.5685 -2.2849 -0.2992
 8000SOL    HW235637   0.526   0.176  13.069  0.5874  1.8683 -1.3561
 8001SOL     OW35638   1.760   2.037   3.413 -0.0785  0.0632 -0.0968
 8001SOL    HW135639   1.732   2.039   3.321 -1.0118 -1.0129  0.1635
 8001SOL    HW235640   1.855   2.040   3.403  0.0794 -2.2647  0.7144
 8002SOL     OW35641   2.717   1.347  16.069 -0.0686 -0.7334 -0.1370
 8002SOL    HW135642   2.746   1.319  15.982  3.0901 -1.2433  1.0773
 8002SOL    HW235643   2.622   1.359  16.068 -0.0169 -0.1593  1.3235
 8003SOL     OW35644   0.016   0.398   9.774 -0.2507  0.1410 -0.0552
 8003SOL    HW135645   4.668   0.373   9.795 -0.4888  1.9892  1.1560
 8003SOL    HW235646   4.739   0.451   9.697 -1.1137  1.7971  1.2997
 8004SOL     OW35647   0.959   2.894  10.801 -0.7984  0.4049 -0.1398
 8004SOL    HW135648   0.871   2.862  10.781 -1.1372  2.3268 -1.7579
 8004SOL    HW235649   1.007   2.842  10.737 -1.2513 -2.0689  1.5212
 8005SOL     OW35650   0.797   0.808   0.966  0.4338 -0.4513  0.2256
 8005SOL    HW135651   0.781   0.886   0.912  3.3775  0.8076  1.1384
 8005SOL    HW235652   0.892   0.815   0.980  0.5812 -1.1656 -0.4810
 8006SOL     OW35653   4.464   0.673   2.967 -0.0047  0.1807  0.8670
 8006SOL    HW135654   4.459   0.605   3.035  1.8730  1.2805  2.1009
 8006SOL    HW235655   4.379   0.716   2.977  0.4285  1.5939 -1.5670
 8007SOL     OW35656   2.424   2.739   6.387 -0.0538  0.0728 -0.4253
 8007SOL    HW135657   2.419   2.645   6.375 -0.8333 -0.2439  2.2931
 8007SOL    HW235658   2.332   2.762   6.374  0.2087 -0.0450 -2.3824
 8008SOL     OW35659   3.114   3.947  16.670 -0.2533 -0.3783  0.0555
 8008SOL    HW135660   3.109   4.017  16.736 -1.4468  0.4584 -0.9101
 8008SOL    HW235661   3.045   3.957  16.605  0.9946  2.7399 -0.8140
 8009SOL     OW35662   1.300   2.446  16.827  0.1237 -0.0159 -0.4832
 8009SOL    HW135663   1.228   2.496  16.790  1.5787  1.9702 -0.6227
 8009SOL    HW235664   1.294   2.478  16.917 -1.4171  0.4141 -0.7495
 8010SOL     OW35665   3.346   4.069  16.208  0.4851  0.2856  0.3492
 8010SOL    HW135666   3.393   4.121  16.142  1.1382  0.3034  0.8365
 8010SOL    HW235667   3.272   4.128  16.221  0.4738  0.4157 -0.2910
 8011SOL     OW35668   0.638   4.568   8.343 -0.2648 -0.0605  0.2638
 8011SOL    HW135669   0.656   4.657   8.373 -1.2138  0.0815  0.3957
 8011SOL    HW235670   0.611   4.587   8.253  1.4549 -3.5357 -0.9886
 8012SOL     OW35671   1.860   3.416  12.431 -0.5691 -0.4894 -0.3139
 8012SOL    HW135672   1.907   3.351  12.378 -2.3005 -3.1152  1.3908
 8012SOL    HW235673   1.795   3.451  12.370 -0.3826 -1.3782 -1.0187
 8013SOL     OW35674   0.835   2.468   5.094  0.3257 -0.3286  0.1970
 8013SOL    HW135675   0.855   2.509   5.178  0.2584 -1.3290  0.7047
 8013SOL    HW235676   0.904   2.403   5.090  1.5668  0.8233  2.9825
 8014SOL     OW35677   3.236   3.659   8.582 -0.0673  0.6722  0.1270
 8014SOL    HW135678   3.285   3.735   8.551  1.2134  0.6270  2.0539
 8014SOL    HW235679   3.152   3.691   8.550 -0.4136  0.1974  0.5645
 8015SOL     OW35680   3.066   0.061  17.727  0.6007  0.3081  0.5237
 8015SOL    HW135681   3.127   0.049   0.034  2.1263 -0.0542 -0.8127
 8015SOL    HW235682   2.983   0.026  17.761  0.0873  1.1458  0.1126
 8016SOL     OW35683   1.926   1.956  11.477 -0.1491  0.5005  0.1400
 8016SOL    HW135684   1.967   1.869  11.476 -0.7063  0.2488 -0.4397
 8016SOL    HW235685   1.988   2.004  11.532  0.3410  0.2675 -0.2085
 8017SOL     OW35686   4.295   4.480  16.426 -0.3229  0.1503  0.2784
 8017SOL    HW135687   4.369   4.533  16.454 -1.0322  0.7972  0.9041
 8017SOL    HW235688   4.218   4.536  16.430 -0.8527 -0.7017  2.0475
 8018SOL     OW35689   0.837   2.633   7.618  0.0700 -0.9003  0.4912
 8018SOL    HW135690   0.914   2.614   7.672  2.0609  1.2800 -1.5485
 8018SOL    HW235691   0.811   2.723   7.638 -3.4453 -1.9936  0.7812
 8019SOL     OW35692   1.829   1.486   4.904  0.0440  0.1227  0.6823
 8019SOL    HW135693   1.820   1.490   4.809  0.1124 -1.4908  0.6036
 8019SOL    HW235694   1.910   1.436   4.910  0.1742  0.4187  1.3360
 8020SOL     OW35695   4.094   1.106   4.118 -0.3937 -0.2290  0.4611
 8020SOL    HW135696   4.178   1.058   4.118  0.9836  2.1928 -0.3136
 8020SOL    HW235697   4.078   1.115   4.211  1.3774  1.9484  0.5564
 8021SOL     OW35698   4.463   0.109   7.932  0.3299  0.5653 -0.1740
 8021SOL    HW135699   4.530   0.167   7.896  0.2528  0.7890  0.0485
 8021SOL    HW235700   4.418   0.080   7.852  0.4943 -0.7865  0.2223
 8022SOL     OW35701   4.683   1.071   3.545 -0.3826  0.1624 -0.5012
 8022SOL    HW135702   0.014   1.017   3.513  1.0733  1.5998  0.3927
 8022SOL    HW235703   4.610   1.036   3.495  0.3427 -1.1252 -0.6475
 8023SOL     OW35704   2.059   1.758   8.381 -0.1351  0.0773 -0.0701
 8023SOL    HW135705   2.040   1.702   8.305  0.6179 -1.0103  0.5425
 8023SOL    HW235706   2.008   1.839   8.375  1.3399  1.0878  1.2236
 8024SOL     OW35707   3.387   4.170   5.227  0.7379 -0.6585  0.1980
 8024SOL    HW135708   3.407   4.161   5.321  0.4570 -0.6177  0.2616
 8024SOL    HW235709   3.458   4.226   5.195 -0.9798  1.0489 -0.5670
 8025SOL     OW35710   3.327   4.582   7.382 -0.1440  0.0480 -0.2486
 8025SOL    HW135711   3.411   4.536   7.392 -1.4601 -1.9272  1.4854
 8025SOL    HW235712   3.295   4.538   7.303 -1.6146 -1.0282  0.9680
 8026SOL     OW35713   0.969   0.708   0.460  0.1944 -0.6310 -0.2324
 8026SOL    HW135714   1.042   0.701   0.522  1.7641  1.3039 -1.8619
 8026SOL    HW235715   0.993   0.792   0.420 -2.6422  1.2115  1.9103
 8027SOL     OW35716   3.382   3.240   9.246  0.4194 -0.6580 -0.6503
 8027SOL    HW135717   3.333   3.255   9.326 -0.5181  1.9766 -1.7090
 8027SOL    HW235718   3.459   3.191   9.275  0.1746 -1.4444 -1.3453
 8028SOL     OW35719   0.508   1.033  11.787 -0.2474 -0.1174 -0.5098
 8028SOL    HW135720   0.569   1.047  11.859 -0.2680  1.2055 -0.7520
 8028SOL    HW235721   0.491   1.127  11.780 -0.3888 -0.0228  1.1923
 8029SOL     OW35722   0.353   0.655   8.982 -0.4257  0.2284 -0.2914
 8029SOL    HW135723   0.274   0.663   9.037  0.0347 -0.7037  0.4997
 8029SOL    HW235724   0.346   0.569   8.942  0.1452 -0.3346  0.8189
 8030SOL     OW35725   3.953   3.952   2.082 -0.3136 -0.8609  0.0525
 8030SOL    HW135726   3.974   3.867   2.044  1.0426 -1.3154  1.8435
 8030SOL    HW235727   3.887   3.983   2.019  1.3572  0.0426 -1.2524
 8031SOL     OW35728   0.145   3.380   9.086 -0.5629  0.2815  0.4775
 8031SOL    HW135729   0.094   3.299   9.081  0.7743 -0.4974 -0.5224
 8031SOL    HW235730   0.069   3.431   9.059 -0.8075 -0.8615 -0.9925
 8032SOL     OW35731   2.916   3.944   3.783  0.6564 -0.2306 -0.0482
 8032SOL    HW135732   2.971   3.876   3.822  0.0776 -0.3225  0.6285
 8032SOL    HW235733   2.986   3.988   3.737  1.7344 -1.5388  0.3227
 8033SOL     OW35734   4.616   0.338   4.040  0.5747  0.6744  0.2184
 8033SOL    HW135735   4.530   0.312   4.006 -0.6552  1.0850  3.0044
 8033SOL    HW235736   4.658   0.252   4.033  0.6129  0.7766 -0.7377
 8034SOL     OW35737   4.365   4.690   6.704  0.2209 -0.0682  0.5231
 8034SOL    HW135738   4.378   4.676   6.798 -1.1957 -0.1833  0.6938
 8034SOL    HW235739   4.295   0.013   6.691  0.0411 -0.3113  0.2698
 8035SOL     OW35740   1.280   0.727   2.518  0.3529  0.0713  1.0431
 8035SOL    HW135741   1.214   0.797   2.524 -0.5791 -0.9620  2.9402
 8035SOL    HW235742   1.283   0.708   2.424 -1.4128 -0.3622  1.0777
 8036SOL     OW35743   1.843   3.885   3.075 -0.5394 -0.0503  0.2974
 8036SOL    HW135744   1.891   3.916   3.151  1.2006 -0.8702 -0.4579
 8036SOL    HW235745   1.754   3.918   3.088 -0.3987 -0.5476  2.4407
 8037SOL     OW35746   1.447   2.626   2.716 -0.4733 -0.3497 -0.1892
 8037SOL    HW135747   1.481   2.712   2.739 -0.6607 -0.2628 -0.2385
 8037SOL    HW235748   1.471   2.577   2.795 -0.1562 -0.4496 -0.3446
 8038SOL     OW35749   0.054   2.301  11.687  0.0760  0.1406  0.2991
 8038SOL    HW135750   0.038   2.240  11.759  2.6431 -0.9164 -0.0344
 8038SOL    HW235751   0.146   2.323  11.699  0.1036  0.2999 -0.2192
 8039SOL     OW35752   2.000   0.680   7.707 -0.2612  0.3802 -0.3145
 8039SOL    HW135753   1.926   0.627   7.736 -0.6308 -0.7028 -3.2335
 8039SOL    HW235754   2.050   0.619   7.653  0.7805  1.6018 -0.7131
 8040SOL     OW35755   2.989   2.249   5.709 -0.1974  0.3665  0.0781
 8040SOL    HW135756   2.943   2.252   5.626 -1.7649 -3.0694  0.8417
 8040SOL    HW235757   2.959   2.334   5.743  0.2468  1.3037 -1.8372
 8041SOL     OW35758   4.257   4.159   3.362  0.0502 -0.2728  0.0754
 8041SOL    HW135759   4.164   4.139   3.369 -0.1750 -0.0727 -2.3975
 8041SOL    HW235760   4.254   4.207   3.279  2.4793  0.4445  0.3985
 8042SOL     OW35761   4.191   0.479  16.271  0.8660  0.2802  0.2486
 8042SOL    HW135762   4.139   0.508  16.345  0.4297  0.7564 -0.2504
 8042SOL    HW235763   4.205   0.559  16.221 -0.0980  1.0025  1.1517
 8043SOL     OW35764   2.021   4.323   8.010  0.5987  0.2148  0.1699
 8043SOL    HW135765   2.019   4.229   7.990  0.9496 -0.4066  2.9743
 8043SOL    HW235766   1.966   4.367   7.945 -1.4283  0.4270  2.0100
 8044SOL     OW35767   4.696   1.301  10.003 -0.2479 -0.1552 -0.6171
 8044SOL    HW135768   4.616   1.349   9.982  0.0881  0.5110 -0.3887
 8044SOL    HW235769   4.681   1.228  10.063  0.0349 -0.7947 -1.3316
 8045SOL     OW35770   2.319   4.643   0.913  0.3564  0.5815  0.1229
 8045SOL    HW135771   2.376   4.705   0.867 -1.0279  0.2811 -2.0333
 8045SOL    HW235772   2.277   4.603   0.836  2.0791 -1.0151  0.0007
 8046SOL     OW35773   3.966   0.225   9.259 -0.8429  0.5595 -0.6717
 8046SOL    HW135774   3.920   0.217   9.343  0.1785  1.4558 -0.0340
 8046SOL    HW235775   4.026   0.297   9.277 -0.1894 -0.0446 -0.3895
 8047SOL     OW35776   4.228   0.765   8.380  0.8901  0.0168  0.0802
 8047SOL    HW135777   4.177   0.820   8.439  0.7088 -2.2018  1.9790
 8047SOL    HW235778   4.177   0.684   8.386  1.7863 -0.2447  4.1093
 8048SOL     OW35779   1.155   2.669   7.118 -0.1333 -0.6766 -0.0387
 8048SOL    HW135780   1.144   2.685   7.212  0.5629  0.2354 -0.1167
 8048SOL    HW235781   1.207   2.747   7.099 -0.2925 -1.0730 -2.0685
 8049SOL     OW35782   3.960   0.154   6.959 -0.4415 -0.1638 -0.2184
 8049SOL    HW135783   3.982   0.236   6.913  1.3551  0.1385  1.1981
 8049SOL    HW235784   3.877   0.140   6.914 -0.1418 -1.5207 -0.3531
 8050SOL     OW35785   1.316   0.097   4.324  0.1609  0.0203 -0.5512
 8050SOL    HW135786   1.382   0.045   4.277 -0.7456 -0.9304 -0.7760
 8050SOL    HW235787   1.247   0.031   4.335 -0.0782  0.5519  1.0765
 8051SOL     OW35788   0.210   1.530  13.263  0.0452 -0.4221 -0.2994
 8051SOL    HW135789   0.141   1.531  13.330 -0.0926  1.4842 -0.4689
 8051SOL    HW235790   0.181   1.596  13.200  1.7554  0.2131 -0.4263
 8052SOL     OW35791   4.194   3.216   5.868  0.1524 -0.0461 -0.0643
 8052SOL    HW135792   4.161   3.175   5.788 -1.0265 -0.7617  0.7728
 8052SOL    HW235793   4.125   3.194   5.932 -0.5362 -0.5180 -0.9633
 8053SOL     OW35794   1.500   2.544   4.876  0.1454  0.3859 -0.1587
 8053SOL    HW135795   1.407   2.560   4.857 -0.2786 -0.6246  1.0496
 8053SOL    HW235796   1.488   2.454   4.907 -1.0565  0.1108 -1.3721
 8054SOL     OW35797   4.683   2.179   8.073  0.2967 -0.6281 -0.1532
 8054SOL    HW135798   4.687   2.241   8.000 -2.5401  0.6651  0.8105
 8054SOL    HW235799   4.615   2.118   8.044 -1.6874  1.5153  0.0411
 8055SOL     OW35800   3.821   0.347  10.976  0.0368 -0.3375  0.0660
 8055SOL    HW135801   3.895   0.286  10.976 -0.8454 -1.4185  1.5445
 8055SOL    HW235802   3.815   0.379  11.066  3.0458 -0.8785  0.4489
 8056SOL     OW35803   4.516   2.517   1.444 -0.2458  0.0342 -0.1415
 8056SOL    HW135804   4.446   2.578   1.466  0.8752  1.5263 -0.7020
 8056SOL    HW235805   4.460   2.448   1.410 -0.9267 -0.2817  1.6191
 8057SOL     OW35806   1.858   4.455   4.405 -0.7315 -0.1565  0.3346
 8057SOL    HW135807   1.941   4.468   4.360 -0.6878 -0.4753  0.3204
 8057SOL    HW235808   1.890   4.468   4.494  0.7149  1.9320 -0.5062
 8058SOL     OW35809   3.590   3.026   7.351  0.0828 -0.4459  0.2395
 8058SOL    HW135810   3.648   2.950   7.352  2.7832  1.6058 -0.1243
 8058SOL    HW235811   3.509   2.989   7.386 -1.1676  0.4959 -1.6554
 8059SOL     OW35812   1.190   2.142   9.072  0.4629  0.3392  0.3963
 8059SOL    HW135813   1.284   2.124   9.061  0.8571  1.4209  1.9828
 8059SOL    HW235814   1.175   2.217   9.015 -0.7118 -2.3265 -2.8180
 8060SOL     OW35815   4.395   1.309   4.599 -0.5111  0.3875  0.0068
 8060SOL    HW135816   4.467   1.288   4.540 -0.9895  0.5895 -0.6489
 8060SOL    HW235817   4.445   1.368   4.656 -0.1351  0.3527 -0.2836
 8061SOL     OW35818   0.565   3.600   8.305  0.1000  0.2666 -0.0357
 8061SOL    HW135819   0.617   3.671   8.342  0.3993  0.1538 -0.2345
 8061SOL    HW235820   0.490   3.651   8.274  0.9697  1.6939  0.2132
 8062SOL     OW35821   1.167   3.305   5.763  0.1773  0.0574 -0.3716
 8062SOL    HW135822   1.223   3.316   5.686  2.1138  2.5438  1.3959
 8062SOL    HW235823   1.200   3.375   5.819 -0.1563 -1.3756  1.6257
 8063SOL     OW35824   0.639   3.917  17.454 -0.2880 -0.6883 -0.0097
 8063SOL    HW135825   0.708   3.853  17.468 -0.2336 -0.4253  0.9628
 8063SOL    HW235826   0.598   3.911  17.541  1.5735 -1.3472  0.8119
 8064SOL     OW35827   2.047   0.669   6.528  0.7322 -0.3118  0.1221
 8064SOL    HW135828   2.137   0.637   6.516  1.0705  0.4583  0.6074
 8064SOL    HW235829   2.005   0.594   6.486 -1.6143  0.8269  0.4853
 8065SOL     OW35830   1.963   4.074   6.587  0.2998 -0.2075  0.0436
 8065SOL    HW135831   1.983   4.026   6.507  0.1314 -0.8168  0.3653
 8065SOL    HW235832   1.998   4.007   6.647  0.3704  0.1214  0.3715
 8066SOL     OW35833   2.785   3.730   0.543 -0.0451  0.6856  0.3994
 8066SOL    HW135834   2.735   3.730   0.462  1.2151 -1.0703 -0.3665
 8066SOL    HW235835   2.872   3.701   0.514 -0.2602 -0.5500  0.9773
 8067SOL     OW35836   4.009   2.745   1.268  0.1177  0.2526 -0.3823
 8067SOL    HW135837   4.065   2.802   1.320  0.7608  0.3635 -1.1900
 8067SOL    HW235838   3.955   2.702   1.335 -1.9110  2.1807 -0.7653
 8068SOL     OW35839   2.343   4.551   4.116  0.5962 -0.1651  0.5076
 8068SOL    HW135840   2.297   4.627   4.081  0.1822 -1.0767 -0.9341
 8068SOL    HW235841   2.347   4.584   4.206  0.0162 -0.2991  0.5852
 8069SOL     OW35842   2.693   0.513   8.164  0.6119 -0.5819  0.0850
 8069SOL    HW135843   2.726   0.590   8.117 -0.3063 -1.2915 -1.7523
 8069SOL    HW235844   2.723   0.449   8.099  0.6088 -3.1607  2.6090
 8070SOL     OW35845   3.337   3.843   3.221  0.4552 -0.4921  0.2524
 8070SOL    HW135846   3.308   3.824   3.311 -0.4673 -1.6253 -0.2906
 8070SOL    HW235847   3.319   3.937   3.223 -2.0254 -0.9678 -0.2472
 8071SOL     OW35848   3.039   0.286   3.576 -0.2129 -0.8606  0.0520
 8071SOL    HW135849   3.129   0.286   3.609  0.1531 -1.4945 -0.9468
 8071SOL    HW235850   3.002   0.250   3.656  3.8598 -0.4849  2.1322
 8072SOL     OW35851   0.189   4.547   5.248 -0.0821  0.0781  0.4152
 8072SOL    HW135852   0.187   4.610   5.175 -1.3151  2.0063  2.1469
 8072SOL    HW235853   0.282   4.523   5.252 -0.3091 -0.9079 -0.0892
 8073SOL     OW35854   3.990   3.684   0.733  0.5431  0.0393 -0.1042
 8073SOL    HW135855   3.990   3.597   0.772 -1.6787 -0.8776 -2.1224
 8073SOL    HW235856   3.972   3.654   0.643 -0.5097 -1.2790  0.5436
 8074SOL     OW35857   0.929   3.595  13.476 -0.4422  0.5762  0.5240
 8074SOL    HW135858   0.982   3.618  13.552  1.3958  1.3826 -0.9840
 8074SOL    HW235859   0.948   3.663  13.410  0.2451 -0.7461 -0.6349
 8075SOL     OW35860   3.459   3.576   4.363 -0.1034  0.5229  0.4889
 8075SOL    HW135861   3.508   3.603   4.286 -0.7583 -2.0774 -0.8130
 8075SOL    HW235862   3.493   3.487   4.366  0.2266  0.6425  0.2855
 8076SOL     OW35863   0.224   3.468  13.126 -0.0961  0.0979 -0.4937
 8076SOL    HW135864   0.160   3.406  13.089  1.2419 -2.9836  2.3189
 8076SOL    HW235865   0.304   3.418  13.110  0.1818  0.4963 -0.3425
 8077SOL     OW35866   2.565   1.701  11.039 -0.0075  0.2742 -0.2258
 8077SOL    HW135867   2.549   1.612  11.070  0.2559  0.6037  0.8644
 8077SOL    HW235868   2.628   1.730  11.105 -0.2314 -0.4523  0.3067
 8078SOL     OW35869   2.913   2.291   2.154  0.3051 -0.4108  0.1621
 8078SOL    HW135870   2.940   2.251   2.071  0.3861 -1.5226  0.7183
 8078SOL    HW235871   2.955   2.223   2.207  0.0087 -0.7525 -0.0353
 8079SOL     OW35872   2.055   0.385   8.208 -0.2906 -0.0971  0.3541
 8079SOL    HW135873   1.976   0.351   8.166 -0.2745 -0.4633  0.6196
 8079SOL    HW235874   2.094   0.425   8.130  0.0847  0.8059  1.0100
 8080SOL     OW35875   1.614   1.393   5.745 -0.1877 -0.3875 -0.1440
 8080SOL    HW135876   1.573   1.314   5.781 -0.8311  0.0671  0.1172
 8080SOL    HW235877   1.561   1.411   5.667  1.4226  2.2993 -0.6223
 8081SOL     OW35878   2.318   2.427   5.028  0.2995  0.3334  0.1384
 8081SOL    HW135879   2.232   2.452   4.995  0.0854  0.0092  0.4436
 8081SOL    HW235880   2.379   2.494   4.997  1.6311 -0.0870  1.8018
 8082SOL     OW35881   1.818   3.573   1.312 -0.4334 -0.4287 -0.1109
 8082SOL    HW135882   1.791   3.483   1.330  2.3908 -0.5156  3.6779
 8082SOL    HW235883   1.755   3.630   1.357 -0.6975 -1.1611  0.4470
 8083SOL     OW35884   3.511   3.392   3.363 -0.2333  0.1644  0.7837
 8083SOL    HW135885   3.490   3.364   3.273  0.4508 -0.9535  0.9766
 8083SOL    HW235886   3.522   3.484   3.342 -1.3301 -0.3987 -2.3783
 8084SOL     OW35887   4.123   0.442   9.342 -0.4485  0.2487  1.3498
 8084SOL    HW135888   4.184   0.491   9.287 -2.7540  2.2487  0.6199
 8084SOL    HW235889   4.083   0.504   9.402 -0.2885  1.9173 -0.2697
 8085SOL     OW35890   0.977   4.362   6.117  0.0174  0.1079  0.3185
 8085SOL    HW135891   1.006   4.275   6.144  0.9369  0.5861  0.8519
 8085SOL    HW235892   0.888   4.355   6.151  0.5084  1.5174  1.8923
 8086SOL     OW35893   3.389   1.083   3.152 -0.0462  0.2844  0.0013
 8086SOL    HW135894   3.427   1.075   3.239  0.0577  1.0028  0.0227
 8086SOL    HW235895   3.320   1.145   3.171  0.2747  0.3535  0.9175
 8087SOL     OW35896   3.537   1.996   6.486  0.0230 -0.4858 -0.2487
 8087SOL    HW135897   3.621   2.038   6.470 -0.0442  0.4520  1.8026
 8087SOL    HW235898   3.508   1.969   6.399 -1.2686 -0.3954  0.1540
 8088SOL     OW35899   3.130   4.383  12.539  0.4109  0.3917  0.0370
 8088SOL    HW135900   3.161   4.294  12.521 -2.3406 -0.6092  0.2392
 8088SOL    HW235901   3.147   4.395  12.632 -0.7946 -1.4202  0.5013
 8089SOL     OW35902   1.595   0.425   8.562  0.2780  0.0121  0.3892
 8089SOL    HW135903   1.643   0.399   8.641 -0.0495  0.0312  0.5946
 8089SOL    HW235904   1.589   0.517   8.586  0.8330  0.1973 -0.1632
 8090SOL     OW35905   1.705   1.098   0.212  0.1391 -0.0031 -0.1614
 8090SOL    HW135906   1.656   1.039   0.155  2.6958 -2.0220 -0.2992
 8090SOL    HW235907   1.646   1.086   0.285 -0.2593  0.3261 -0.4290
 8091SOL     OW35908   2.232   3.456   1.722 -1.1288 -0.1663  0.1142
 8091SOL    HW135909   2.294   3.512   1.677  0.2577 -1.3484  0.5635
 8091SOL    HW235910   2.289   3.384   1.750 -0.0724  1.0487  1.1070
 8092SOL     OW35911   3.887   0.406   6.108  0.0646  0.2729  0.1517
 8092SOL    HW135912   3.904   0.338   6.042 -2.5552 -0.6169  0.3782
 8092SOL    HW235913   3.798   0.383   6.134 -0.4723  0.8296 -1.2095
 8093SOL     OW35914   3.736   0.938   8.548 -0.0340 -0.0367 -0.2589
 8093SOL    HW135915   3.666   0.988   8.588 -1.4910 -1.8296 -0.5875
 8093SOL    HW235916   3.817   0.961   8.594 -0.8736  1.4509  0.4669
 8094SOL     OW35917   1.194   4.046  10.106  0.1149  0.0247 -0.0410
 8094SOL    HW135918   1.143   4.055  10.186  0.1677  0.4633 -0.0603
 8094SOL    HW235919   1.273   4.090  10.136  0.9728 -1.1859 -0.5233
 8095SOL     OW35920   3.064   1.078  10.789  0.3438  0.4247 -0.2002
 8095SOL    HW135921   3.134   1.027  10.830 -2.0632 -4.1369 -1.8157
 8095SOL    HW235922   3.045   1.146  10.854 -2.4355 -0.6551  0.1324
 8096SOL     OW35923   1.156   1.512   7.054  0.0532  0.0702 -0.3022
 8096SOL    HW135924   1.176   1.588   7.000  3.0003 -0.4247  0.0827
 8096SOL    HW235925   1.231   1.504   7.113  0.8092  1.2478 -1.1165
 8097SOL     OW35926   3.453   4.542  13.013 -0.9385  0.2802 -0.0696
 8097SOL    HW135927   3.535   4.496  12.997 -2.2916 -2.4358  0.7391
 8097SOL    HW235928   3.443   4.524  13.107  4.7023  1.3620  0.7582
 8098SOL     OW35929   3.973   2.969   4.123 -0.3590  0.0321 -0.0209
 8098SOL    HW135930   3.997   2.884   4.159  0.9988  0.3163 -0.2746
 8098SOL    HW235931   4.058   2.997   4.090 -1.1838  1.3178 -1.0946
 8099SOL     OW35932   1.178   3.924   0.902  0.1162  0.3239  0.2908
 8099SOL    HW135933   1.181   3.850   0.840 -0.2224  0.1992  0.4294
 8099SOL    HW235934   1.212   3.879   0.979 -0.2034  0.1742  0.3412
 8100SOL     OW35935   2.972   4.089   0.958 -0.5375  0.1535  0.2852
 8100SOL    HW135936   2.993   4.012   0.905 -2.1296 -1.2564  1.6801
 8100SOL    HW235937   2.907   4.050   1.016  0.0131  0.7380  1.3010
 8101SOL     OW35938   2.994   4.039   0.034 -0.7080  0.1359  0.5265
 8101SOL    HW135939   3.044   4.110  17.758  0.6394 -1.2130 -0.1733
 8101SOL    HW235940   2.971   3.986  17.723 -0.9539  1.1883 -0.1326
 8102SOL     OW35941   4.699   2.538   7.633 -0.2857 -0.1176 -0.2882
 8102SOL    HW135942   4.697   2.474   7.704  0.8986  2.1138  1.7426
 8102SOL    HW235943   4.722   2.623   7.670  0.6012 -0.3068 -0.3969
 8103SOL     OW35944   1.966   0.320   4.049  0.1130 -0.3285 -1.0478
 8103SOL    HW135945   1.907   0.395   4.043 -0.9040 -0.9499  1.3099
 8103SOL    HW235946   1.909   0.248   4.074 -1.6816  1.5120  0.1359
 8104SOL     OW35947   1.568   2.511   1.181  0.2938 -0.1592  0.4581
 8104SOL    HW135948   1.637   2.545   1.125  1.7217 -0.5746  1.9672
 8104SOL    HW235949   1.579   2.553   1.266 -1.2919  0.8507  0.1689
 8105SOL     OW35950   3.018   1.145   4.012 -0.5092  0.6788  0.3706
 8105SOL    HW135951   2.974   1.112   3.934 -0.6553 -0.0143  0.7375
 8105SOL    HW235952   3.095   1.189   3.977  0.7952 -1.0003  1.1135
 8106SOL     OW35953   0.706   4.547  15.151 -0.0857  0.6206 -0.1416
 8106SOL    HW135954   0.797   4.561  15.126 -0.2738  0.0868 -1.1358
 8106SOL    HW235955   0.706   4.498  15.233 -3.1034 -0.2683 -0.6650
 8107SOL     OW35956   0.982   1.049   2.647 -0.3147 -0.8543 -0.8333
 8107SOL    HW135957   0.887   1.064   2.642 -0.3958 -1.2264 -0.3569
 8107SOL    HW235958   1.013   1.081   2.562  1.1339 -2.9867 -1.1078
 8108SOL     OW35959   0.136   3.291   4.648 -0.2333 -0.0905 -0.3122
 8108SOL    HW135960   0.216   3.298   4.701 -1.4030  1.4173  1.2834
 8108SOL    HW235961   0.167   3.276   4.559 -0.7932  1.3194 -0.7541
 8109SOL     OW35962   0.061   4.038  12.331 -0.0429 -0.6710 -0.2342
 8109SOL    HW135963   0.119   4.028  12.406  0.1848 -1.0615 -0.4617
 8109SOL    HW235964   0.053   4.133  12.323 -1.2219 -0.7490  0.0680
 8110SOL     OW35965   2.885   0.225   0.925  0.1735 -0.9607 -0.3478
 8110SOL    HW135966   2.837   0.277   0.860 -0.0810  0.8097  1.2784
 8110SOL    HW235967   2.944   0.169   0.874  2.7619  1.2311  0.2250
 8111SOL     OW35968   3.213   3.545  17.225 -0.4266  0.2033 -0.3439
 8111SOL    HW135969   3.138   3.489  17.244 -0.4693 -0.2126 -1.6890
 8111SOL    HW235970   3.178   3.581  17.143 -0.3812 -0.0769 -0.4842
 8112SOL     OW35971   4.449   0.985   4.569  0.3844 -0.2796  0.4481
 8112SOL    HW135972   4.402   1.069   4.568 -0.0055 -0.5012  0.0027
 8112SOL    HW235973   4.532   1.013   4.528 -0.2413 -0.3092 -0.8572
 8113SOL     OW35974   2.291   0.553   2.808  0.1732  0.1324  0.2261
 8113SOL    HW135975   2.319   0.469   2.771  1.6670  1.9154 -2.6725
 8113SOL    HW235976   2.202   0.522   2.827 -1.2693  2.1815 -3.2374
 8114SOL     OW35977   2.614   0.912   7.769  0.4007  0.0367  0.4342
 8114SOL    HW135978   2.631   0.959   7.688  1.3428  0.1422  0.6937
 8114SOL    HW235979   2.548   0.856   7.727  0.8568  0.3691 -0.7210
 8115SOL     OW35980   4.207   1.407   8.465 -0.5010 -0.8346 -0.2343
 8115SOL    HW135981   4.144   1.431   8.397  1.2363  0.3585 -1.4151
 8115SOL    HW235982   4.175   1.326   8.504  0.4654 -0.8339  0.5617
 8116SOL     OW35983   4.023   3.895  15.341  0.0302 -0.2390  0.0630
 8116SOL    HW135984   4.065   3.902  15.426  2.2651  1.8808 -1.2156
 8116SOL    HW235985   3.956   3.963  15.343 -1.7017 -1.9329 -0.2205
 8117SOL     OW35986   4.035   3.367   2.983  0.5962 -0.5178  0.7091
 8117SOL    HW135987   3.973   3.408   3.044 -0.6231 -0.5306 -0.5400
 8117SOL    HW235988   4.000   3.278   2.984 -1.7334  0.3536 -3.0620
 8118SOL     OW35989   2.073   1.179   5.171 -0.4328 -0.1361 -0.0298
 8118SOL    HW135990   2.109   1.090   5.166  0.5871  0.4369 -2.6558
 8118SOL    HW235991   1.982   1.161   5.194 -0.9204  0.4208 -1.5770
 8119SOL     OW35992   3.051   2.196   1.944 -0.0634 -0.0339  0.3864
 8119SOL    HW135993   3.078   2.270   1.890 -0.1006 -0.4808 -0.2510
 8119SOL    HW235994   3.125   2.167   1.997 -0.6285 -1.2090  0.5496
 8120SOL     OW35995   0.499   0.938   6.756  0.0128 -0.1736 -0.5017
 8120SOL    HW135996   0.501   1.031   6.733 -0.3067  1.0009  4.3397
 8120SOL    HW235997   0.505   0.949   6.851  1.8322  2.3766 -0.8915
 8121SOL     OW35998   4.447   3.447  13.188  0.0540  0.6738  0.2882
 8121SOL    HW135999   4.382   3.429  13.256 -1.0754 -0.2017 -1.0093
 8121SOL    HW236000   4.525   3.429  13.240  1.3283  1.0388 -1.5151
 8122SOL     OW36001   3.189   1.059   2.318 -0.1001  0.0306  0.0480
 8122SOL    HW136002   3.151   1.146   2.302 -2.3244 -0.9989 -0.3578
 8122SOL    HW236003   3.111   1.004   2.324  0.3769 -0.6494  0.0167
 8123SOL     OW36004   0.992   3.990  12.355 -0.7970 -0.6561  0.2130
 8123SOL    HW136005   0.952   3.987  12.441  1.3765 -1.9109  1.1762
 8123SOL    HW236006   1.086   3.981  12.372 -0.2875  2.0816 -1.1197
 8124SOL     OW36007   0.503   3.370  16.251 -0.1850  0.0931 -0.3575
 8124SOL    HW136008   0.595   3.393  16.260  0.2417 -1.9279  0.5444
 8124SOL    HW236009   0.513   3.288  16.202 -2.4273 -1.0012  1.0023
 8125SOL     OW36010   3.508   3.836  10.540  1.1165 -0.1542  0.0865
 8125SOL    HW136011   3.468   3.865  10.458 -2.5864  1.0249  2.3098
 8125SOL    HW236012   3.500   3.920  10.584  0.9875  0.7438 -1.6534
 8126SOL     OW36013   1.327   0.321  14.125 -0.0385 -0.4256 -0.2424
 8126SOL    HW136014   1.422   0.330  14.114  0.1827 -2.1930  0.1923
 8126SOL    HW236015   1.291   0.404  14.094  1.0365  0.9565  2.2322
 8127SOL     OW36016   3.686   4.255  11.890 -0.2024 -0.1042 -0.2302
 8127SOL    HW136017   3.617   4.192  11.869  0.8513 -0.4919 -2.5311
 8127SOL    HW236018   3.743   4.238  11.816 -1.1606  0.5495 -1.1088
 8128SOL     OW36019   0.935   2.832  12.285 -0.1928 -0.1750  0.1825
 8128SOL    HW136020   0.936   2.753  12.339 -1.4920  0.7137  1.4778
 8128SOL    HW236021   0.973   2.801  12.202 -1.0364 -0.1989 -0.1918
 8129SOL     OW36022   1.857   2.815   5.933  0.6692 -0.3756 -0.1566
 8129SOL    HW136023   1.816   2.733   5.960  3.4680 -1.6073  0.4094
 8129SOL    HW236024   1.950   2.794   5.919  0.5756 -0.8637 -0.0422
 8130SOL     OW36025   2.396   4.201   2.280 -0.1743  0.0432 -0.1677
 8130SOL    HW136026   2.336   4.260   2.236 -0.3558  0.7469  1.0143
 8130SOL    HW236027   2.450   4.268   2.323  0.2594 -2.2491  2.8653
 8131SOL     OW36028   3.976   0.881   3.923 -0.3351  0.0962 -0.0871
 8131SOL    HW136029   3.985   0.976   3.924  2.2641 -0.1466 -3.7852
 8131SOL    HW236030   3.892   0.882   3.877  0.0534  2.0058 -0.7330
 8132SOL     OW36031   0.099   1.063   6.671 -0.1193  0.2588  0.4463
 8132SOL    HW136032   0.090   0.968   6.677  1.3788  0.0828  0.0161
 8132SOL    HW236033   0.009   1.092   6.684 -0.3678 -0.8727  1.2259
 8133SOL     OW36034   2.520   3.439   7.435 -0.0668 -0.6321 -0.3324
 8133SOL    HW136035   2.445   3.444   7.376  0.1451  2.2496 -0.3442
 8133SOL    HW236036   2.582   3.392   7.380 -0.0409  0.6803 -1.3955
 8134SOL     OW36037   0.563   4.202   6.917 -0.0743  0.0839  0.1943
 8134SOL    HW136038   0.597   4.237   6.999 -0.7400  0.7670  0.1869
 8134SOL    HW236039   0.637   4.146   6.893 -1.3961 -1.0794 -1.1649
 8135SOL     OW36040   2.024   1.804   2.968  0.1418 -0.5106  0.1850
 8135SOL    HW136041   2.052   1.749   2.894 -1.4034 -0.5285 -0.3869
 8135SOL    HW236042   2.026   1.890   2.925  2.6008 -0.6765 -0.0732
 8136SOL     OW36043   3.069   2.790  13.776 -0.0534 -0.1083 -0.2363
 8136SOL    HW136044   3.037   2.700  13.777  0.5372 -0.3304 -1.3569
 8136SOL    HW236045   3.140   2.790  13.712 -0.1530 -0.3603 -0.3449
 8137SOL     OW36046   2.634   1.432  12.381 -0.1053  0.2067  0.1655
 8137SOL    HW136047   2.611   1.503  12.442 -2.1289 -0.0362 -0.3058
 8137SOL    HW236048   2.543   1.417  12.356  0.0253  0.6966 -0.5975
 8138SOL     OW36049   1.790   2.007   2.891  0.8704  0.9315 -0.3316
 8138SOL    HW136050   1.717   1.950   2.865 -1.0878  1.6680  3.6950
 8138SOL    HW236051   1.841   1.996   2.810  1.7909 -2.3761  0.6810
 8139SOL     OW36052   1.309   3.086  10.859 -0.0025 -0.0822 -0.6222
 8139SOL    HW136053   1.349   2.999  10.849  1.4035  0.5504 -0.5958
 8139SOL    HW236054   1.312   3.121  10.770 -1.4370 -0.0745 -0.6614
 8140SOL     OW36055   0.119   3.759   8.814 -0.0688 -0.1555 -0.3935
 8140SOL    HW136056   0.078   3.805   8.741  3.1871  1.0535 -1.4781
 8140SOL    HW236057   0.210   3.773   8.788  0.1883  0.0896  0.6494
 8141SOL     OW36058   3.310   1.090   0.176  0.1263  0.5373  0.0351
 8141SOL    HW136059   3.249   1.023   0.146 -0.9120  0.8583  1.4292
 8141SOL    HW236060   3.311   1.086   0.272 -0.7294 -1.7817 -0.0594
 8142SOL     OW36061   0.682   0.810   5.085  0.7778 -0.1510  0.5448
 8142SOL    HW136062   0.686   0.822   5.180 -3.0156  0.1555  0.6648
 8142SOL    HW236063   0.763   0.855   5.059  0.5432  0.9215  1.6805
 8143SOL     OW36064   0.639   4.338   2.635  0.3909  0.4131  0.1032
 8143SOL    HW136065   0.578   4.398   2.678  0.2806 -0.7364  1.5661
 8143SOL    HW236066   0.618   4.256   2.679 -1.9643  1.9482  1.8332
 8144SOL     OW36067   0.885   0.111   1.260  0.7633  0.1384 -0.2420
 8144SOL    HW136068   0.842   0.026   1.266 -0.4177  0.6951 -0.7993
 8144SOL    HW236069   0.871   0.145   1.348  0.7876  1.0177 -0.5778
 8145SOL     OW36070   2.197   1.060   4.696  0.1768 -0.1573 -0.0569
 8145SOL    HW136071   2.269   1.105   4.741 -1.3129  2.5470 -0.3668
 8145SOL    HW236072   2.122   1.117   4.712 -0.1990 -1.1941  1.8749
 8146SOL     OW36073   1.130   2.316   3.888 -0.1973 -0.4285  0.3242
 8146SOL    HW136074   1.076   2.259   3.943 -0.2188  1.5714  2.3726
 8146SOL    HW236075   1.171   2.375   3.951  1.6098 -0.6054 -0.6821
 8147SOL     OW36076   0.227   2.355   8.799 -0.7201  0.3097 -0.6479
 8147SOL    HW136077   0.247   2.266   8.772 -1.3955 -0.0719  0.1189
 8147SOL    HW236078   0.287   2.371   8.872  0.2289  0.3297 -1.4321
 8148SOL     OW36079   1.577   3.941   7.893 -0.3168 -0.2512  0.4735
 8148SOL    HW136080   1.627   3.894   7.826 -2.7336 -2.4601  0.1916
 8148SOL    HW236081   1.576   3.874   7.962 -1.9111  1.3411  2.0203
 8149SOL     OW36082   2.481   1.756  10.785 -0.0712 -0.0462 -0.4932
 8149SOL    HW136083   2.390   1.778  10.804 -1.2399 -2.2181 -3.5055
 8149SOL    HW236084   2.511   1.742  10.875 -1.8821  0.4627  0.1865
 8150SOL     OW36085   4.037   3.858  15.061  0.1924 -0.1065  0.2311
 8150SOL    HW136086   4.029   3.948  15.031  2.8153  0.7101  1.9901
 8150SOL    HW236087   4.029   3.878  15.154 -0.7721 -0.7512  0.2903
 8151SOL     OW36088   0.272   2.685   2.195 -0.3013  0.2172  0.5175
 8151SOL    HW136089   0.265   2.589   2.203  0.5877 -0.0029 -1.2381
 8151SOL    HW236090   0.183   2.704   2.224  0.7608  3.0194  1.9103
 8152SOL     OW36091   2.774   2.247   4.450  0.2263  0.1333 -0.2664
 8152SOL    HW136092   2.821   2.230   4.368  0.3091  0.6342 -0.3271
 8152SOL    HW236093   2.684   2.221   4.429  0.0719  0.0461  0.5343
 8153SOL     OW36094   3.237   3.214   5.300  0.5710 -0.3991  0.4038
 8153SOL    HW136095   3.258   3.304   5.325  0.0441 -0.2750  0.4072
 8153SOL    HW236096   3.307   3.186   5.241  0.7777 -1.8699  1.3317
 8154SOL     OW36097   2.333   3.735   8.384 -0.2354  0.3715  0.1610
 8154SOL    HW136098   2.316   3.647   8.419 -0.5207  0.1777 -0.4681
 8154SOL    HW236099   2.348   3.722   8.291  0.0185 -0.6023  0.3352
 8155SOL     OW36100   4.599   1.655   4.765 -0.4960 -0.5504 -0.4498
 8155SOL    HW136101   4.540   1.661   4.690 -0.6235 -0.4364 -0.3391
 8155SOL    HW236102   4.606   1.562   4.789  1.1545 -0.6155 -1.1466
 8156SOL     OW36103   0.643   1.849  12.870  0.2447 -0.1804  0.0638
 8156SOL    HW136104   0.665   1.783  12.935  1.7757  0.4355  0.1791
 8156SOL    HW236105   0.638   1.793  12.793  0.8158 -1.9334  1.3102
 8157SOL     OW36106   1.304   2.449   8.193  0.2297  0.3432  0.4344
 8157SOL    HW136107   1.256   2.438   8.111  0.4429  4.0699 -0.1913
 8157SOL    HW236108   1.311   2.544   8.199  0.4604  0.3867 -0.5525
 8158SOL     OW36109   4.694   2.702   2.945 -0.4398 -0.4919  0.4255
 8158SOL    HW136110   4.698   2.623   2.892 -0.5285 -0.9017  1.0374
 8158SOL    HW236111   4.637   2.747   2.883 -0.1165  0.0146  0.4887
 8159SOL     OW36112   1.676   3.024  16.191 -0.3891  0.1279 -0.3194
 8159SOL    HW136113   1.639   3.079  16.121 -0.0026  1.3768  0.4541
 8159SOL    HW236114   1.628   2.944  16.170  0.7636 -0.9390  1.1316
 8160SOL     OW36115   2.696   3.367   6.578  0.3408  0.7372 -0.9649
 8160SOL    HW136116   2.734   3.453   6.594 -0.6868  0.7585  1.2412
 8160SOL    HW236117   2.720   3.317   6.656  0.4951  3.0296  0.4525
 8161SOL     OW36118   3.375   1.676   9.980  0.0883  0.0426  0.3205
 8161SOL    HW136119   3.331   1.757  10.006  1.4309  0.8095  0.2385
 8161SOL    HW236120   3.460   1.702  10.016  0.9662  0.6428 -2.2061
 8162SOL     OW36121   1.344   1.382   9.351  0.1748  0.1840  0.2513
 8162SOL    HW136122   1.351   1.429   9.434 -0.7768  1.3334 -0.3239
 8162SOL    HW236123   1.378   1.294   9.367  0.7086  0.2116 -0.7296
 8163SOL     OW36124   3.855   4.615   4.767  0.5393  0.3798  0.4147
 8163SOL    HW136125   3.890   4.569   4.844 -0.1428 -0.3709  0.2725
 8163SOL    HW236126   3.774   4.568   4.748 -0.0350  1.5441  0.0168
 8164SOL     OW36127   2.176   0.889   5.652  0.2218  0.0927 -0.2886
 8164SOL    HW136128   2.088   0.854   5.637  0.3525 -0.8643  1.2540
 8164SOL    HW236129   2.186   0.852   5.739 -1.1631  1.1926  0.3495
 8165SOL     OW36130   3.068   4.004   7.375 -0.7429 -0.1134 -0.2278
 8165SOL    HW136131   3.047   3.912   7.395 -1.2650 -0.5144 -2.6124
 8165SOL    HW236132   3.001   4.048   7.427  1.4340  0.8479  1.7398
 8166SOL     OW36133   3.430   2.914  15.584 -0.3418 -0.3534 -0.0016
 8166SOL    HW136134   3.449   2.834  15.632 -1.4146 -0.0507  0.9410
 8166SOL    HW236135   3.460   2.898  15.494 -0.5020  0.6679 -0.2422
 8167SOL     OW36136   0.228   4.154   7.329  0.5035 -0.5475  0.3918
 8167SOL    HW136137   0.318   4.136   7.303  0.7722 -0.0709  0.9907
 8167SOL    HW236138   0.195   4.065   7.343  1.0695 -0.3119  3.1948
 8168SOL     OW36139   3.356   2.917   3.834 -0.0817 -0.0421  0.0122
 8168SOL    HW136140   3.325   2.839   3.879  0.2441  0.6629  1.4673
 8168SOL    HW236141   3.443   2.916   3.874  0.0554  0.2550 -0.2812
 8169SOL     OW36142   3.795   2.215   3.915  0.2616 -0.2410 -0.2071
 8169SOL    HW136143   3.852   2.292   3.908  0.6746 -0.6491 -1.3577
 8169SOL    HW236144   3.821   2.177   3.998 -1.8880 -1.0110  0.1095
 8170SOL     OW36145   2.125   3.447  17.520  0.3414 -0.8260  0.1003
 8170SOL    HW136146   2.077   3.385  17.466 -0.3769  0.2108 -0.4422
 8170SOL    HW236147   2.147   3.390  17.594 -0.0519 -0.7927  0.2446
 8171SOL     OW36148   3.627   2.875  14.376  0.2620  0.1833 -0.0828
 8171SOL    HW136149   3.532   2.862  14.373  0.4275 -0.2011 -3.2494
 8171SOL    HW236150   3.637   2.959  14.331  2.2832  0.5784  1.0991
 8172SOL     OW36151   2.729   4.100   0.350 -0.5668  0.1440 -0.5567
 8172SOL    HW136152   2.709   4.011   0.323 -2.2039  0.1033  0.7913
 8172SOL    HW236153   2.722   4.148   0.267  1.2805 -0.6536 -1.1674
 8173SOL     OW36154   0.925   2.494  15.834 -0.1824  1.0102 -0.3093
 8173SOL    HW136155   0.949   2.533  15.750 -1.5276 -1.2477 -1.7585
 8173SOL    HW236156   0.900   2.571  15.885 -2.3681 -0.0623  0.2416
 8174SOL     OW36157   1.845   4.443   8.359  0.3288 -0.0931  0.3412
 8174SOL    HW136158   1.770   4.486   8.399  1.2152  0.2796  1.6043
 8174SOL    HW236159   1.900   4.413   8.432  1.2563 -1.0722 -0.7506
 8175SOL     OW36160   3.666   2.194   0.721 -0.1291 -0.4922 -0.6384
 8175SOL    HW136161   3.591   2.249   0.698  0.0345 -0.4298 -1.0352
 8175SOL    HW236162   3.623   2.109   0.712  0.3095 -0.6730 -1.0526
 8176SOL     OW36163   0.480   0.196   3.569 -0.1692 -0.5533  0.2175
 8176SOL    HW136164   0.486   0.118   3.625  0.7874 -0.5883  0.0676
 8176SOL    HW236165   0.439   0.154   3.493 -2.0010 -0.8029  1.3472
 8177SOL     OW36166   4.524   0.589   4.284 -0.3704  0.9815  0.1384
 8177SOL    HW136167   4.611   0.550   4.296 -0.1929  1.4155  0.2708
 8177SOL    HW236168   4.523   0.603   4.190 -0.0898 -2.2224 -0.3440
 8178SOL     OW36169   4.035   3.423   8.174 -0.1559  0.0625 -0.0099
 8178SOL    HW136170   4.080   3.386   8.250 -0.2526  0.7562  0.3822
 8178SOL    HW236171   4.008   3.511   8.200 -0.1087 -0.3177  1.3291
 8179SOL     OW36172   0.345   4.620  13.906  0.1514  0.3779 -0.6240
 8179SOL    HW136173   0.287   4.591  13.976  0.2652  1.1337 -0.2184
 8179SOL    HW236174   0.424   4.657  13.945  1.4196 -1.4980 -1.3705
 8180SOL     OW36175   1.174   1.247  16.317  0.4963  0.2376  0.2786
 8180SOL    HW136176   1.164   1.310  16.388  0.0413  1.4305 -0.8472
 8180SOL    HW236177   1.180   1.170  16.374 -2.0411  1.3410  2.0664
 8181SOL     OW36178   3.253   3.803   2.166  0.0372  0.2493  0.0388
 8181SOL    HW136179   3.339   3.799   2.207 -0.3420  0.8722  0.8828
 8181SOL    HW236180   3.203   3.781   2.245  1.1665  0.3949  0.7910
 8182SOL     OW36181   1.886   0.872   3.397 -0.2504  0.6355 -0.2149
 8182SOL    HW136182   1.798   0.899   3.371  0.7153  2.4149 -1.6301
 8182SOL    HW236183   1.895   0.921   3.478 -3.8872  0.4184  0.2957
 8183SOL     OW36184   0.338   2.143   3.577  0.7015 -0.4222 -0.7073
 8183SOL    HW136185   0.379   2.107   3.498 -0.2116 -0.4555 -1.1788
 8183SOL    HW236186   0.407   2.198   3.613  0.5916 -1.5504  1.2119
 8184SOL     OW36187   3.302   0.031  12.144 -0.3614 -0.2579  0.0382
 8184SOL    HW136188   3.305   0.072  12.231  1.1967 -3.6410  1.5943
 8184SOL    HW236189   3.388   0.056  12.111  0.0217 -1.6026  0.0076
 8185SOL     OW36190   2.077   3.851   7.032  0.3728  0.0029 -0.1275
 8185SOL    HW136191   2.134   3.774   7.028 -0.9878 -0.9828 -0.4555
 8185SOL    HW236192   2.017   3.823   7.101  0.6397 -1.4397 -0.4855
 8186SOL     OW36193   3.218   4.524   3.654 -0.4098 -0.0778 -0.0468
 8186SOL    HW136194   3.216   4.544   3.561 -1.3432  1.2773  0.2713
 8186SOL    HW236195   3.154   4.583   3.693 -1.9714  0.6903 -3.8463
 8187SOL     OW36196   1.384   3.917   3.659  0.0764  0.1196 -0.0324
 8187SOL    HW136197   1.420   4.004   3.639  2.6407 -0.9634 -0.1758
 8187SOL    HW236198   1.302   3.944   3.701 -0.1152  0.5484 -0.6894
 8188SOL     OW36199   3.955   0.223   5.234  0.3959  0.4590  0.4679
 8188SOL    HW136200   4.014   0.232   5.160 -1.2471 -1.7048 -1.1353
 8188SOL    HW236201   3.886   0.289   5.225  0.3028  0.3773  0.5780
 8189SOL     OW36202   0.286   4.355   2.102 -0.5973  0.1476 -0.1605
 8189SOL    HW136203   0.235   4.286   2.145 -3.1568  2.5989  0.7104
 8189SOL    HW236204   0.260   4.436   2.145 -0.4231  1.2419 -2.1240
 8190SOL     OW36205   1.265   3.647   3.785  0.3597 -0.4187 -0.0670
 8190SOL    HW136206   1.260   3.739   3.760 -0.5412 -0.2064  0.8667
 8190SOL    HW236207   1.175   3.621   3.766  0.3535 -1.7199  1.7174
 8191SOL     OW36208   0.834   0.845  16.816 -0.3025  0.2936  0.0117
 8191SOL    HW136209   0.763   0.887  16.863  0.7674  1.2036  0.8225
 8191SOL    HW236210   0.857   0.767  16.867 -0.8714  0.6059  0.7370
 8192SOL     OW36211   1.749   2.420   6.324  0.1402 -0.3677 -0.1569
 8192SOL    HW136212   1.775   2.331   6.347 -2.3891 -0.9949  0.3098
 8192SOL    HW236213   1.654   2.413   6.319  0.0600  0.2267  0.3955
 8193SOL     OW36214   3.483   1.239   9.824 -0.1130  0.6178 -0.1335
 8193SOL    HW136215   3.476   1.231   9.919  1.3652  0.0015 -0.0694
 8193SOL    HW236216   3.506   1.330   9.804  0.4509  0.0732 -1.9838
 8194SOL     OW36217   0.154   3.677  13.290  0.6727  0.4506  0.4934
 8194SOL    HW136218   0.177   3.594  13.248  0.0733 -0.0271  1.1073
 8194SOL    HW236219   0.242   3.711  13.309  1.3809  0.5114 -2.8372
 8195SOL     OW36220   1.197   1.919  14.448 -0.0084  0.1819  0.2565
 8195SOL    HW136221   1.142   1.851  14.408  1.1461 -2.0687  2.4962
 8195SOL    HW236222   1.145   1.941  14.526  0.8296  0.7692  0.6546
 8196SOL     OW36223   0.228   3.353  16.330  0.0508 -0.1295  0.4927
 8196SOL    HW136224   0.212   3.262  16.352 -2.2576 -0.6115 -3.2922
 8196SOL    HW236225   0.324   3.350  16.326  0.0991 -0.3101  1.9232
 8197SOL     OW36226   3.281   0.421   2.059  0.1328 -0.2339 -0.1569
 8197SOL    HW136227   3.362   0.380   2.029 -0.4665 -0.4912 -1.4021
 8197SOL    HW236228   3.213   0.380   2.006 -1.2335  1.2609  0.4465
 8198SOL     OW36229   2.639   2.197   8.553 -0.2533 -0.6625 -0.0454
 8198SOL    HW136230   2.596   2.195   8.467 -2.9924 -1.1567  1.3571
 8198SOL    HW236231   2.608   2.280   8.588  1.8559 -0.8902  2.3919
 8199SOL     OW36232   2.272   0.065   1.337 -0.1193 -0.5287  0.0408
 8199SOL    HW136233   2.324   0.018   1.403 -0.3153 -0.4459  0.2521
 8199SOL    HW236234   2.319   0.146   1.318  2.0976 -2.0126 -0.8925
 8200SOL     OW36235   0.831   3.015   6.750  0.1178 -0.5048 -0.3361
 8200SOL    HW136236   0.737   2.998   6.760  0.4004 -1.6847  0.2833
 8200SOL    HW236237   0.843   3.013   6.655  1.2253  0.6488 -0.2272
 8201SOL     OW36238   2.679   0.598   1.027 -0.1035  0.1238 -0.2174
 8201SOL    HW136239   2.771   0.610   1.006  0.6478 -0.0880  2.9081
 8201SOL    HW236240   2.647   0.613   0.938  1.2096 -2.4694 -1.1177
 8202SOL     OW36241   2.194   1.503   8.338  0.4099  0.2358 -0.8579
 8202SOL    HW136242   2.139   1.556   8.281  0.2614 -0.9016 -1.7602
 8202SOL    HW236243   2.273   1.557   8.350  1.8437 -1.8515 -0.8147
 8203SOL     OW36244   4.446   0.999   9.106  0.3651 -0.1143 -0.2792
 8203SOL    HW136245   4.356   0.997   9.074  0.4754 -2.8458 -0.3741
 8203SOL    HW236246   4.489   1.040   9.031  1.6135 -2.1970 -0.6810
 8204SOL     OW36247   4.542   2.160   7.354 -0.2840 -0.4127 -0.1155
 8204SOL    HW136248   4.579   2.072   7.359 -1.4081 -0.9276 -0.9597
 8204SOL    HW236249   4.458   2.140   7.314 -0.1101 -4.7289  1.6968
 8205SOL     OW36250   1.570   3.452   8.709 -0.2395 -0.7431 -0.1804
 8205SOL    HW136251   1.554   3.381   8.647 -0.0776 -0.3602 -0.6574
 8205SOL    HW236252   1.617   3.520   8.662 -0.3116  0.4268  1.4506
 8206SOL     OW36253   1.176   1.335   3.966 -0.4117 -0.2054 -0.3394
 8206SOL    HW136254   1.184   1.415   3.915  1.5454  0.4709  1.0040
 8206SOL    HW236255   1.167   1.271   3.896 -0.6200 -0.4821 -0.0584
 8207SOL     OW36256   1.739   4.144   4.846  0.2203  0.2061  0.1171
 8207SOL    HW136257   1.674   4.183   4.788  0.1830 -3.4006 -2.2782
 8207SOL    HW236258   1.701   4.158   4.933 -0.7369 -1.0867 -0.1028
 8208SOL     OW36259   3.410   3.717   3.830 -0.2730 -0.0531  0.3873
 8208SOL    HW136260   3.342   3.669   3.783  1.3864 -0.7845 -1.2319
 8208SOL    HW236261   3.484   3.657   3.827  0.4334  0.8522  0.0040
 8209SOL     OW36262   0.862   0.050   7.420  0.2178  0.2095  0.0420
 8209SOL    HW136263   0.776   0.070   7.384  0.2545 -0.9570 -0.6805
 8209SOL    HW236264   0.840   4.707   7.458 -2.1402  0.9354  0.3177
 8210SOL     OW36265   0.118   4.640   7.499  0.4496 -0.3400  0.3402
 8210SOL    HW136266   0.145   4.582   7.427 -2.2561 -1.6381  0.3389
 8210SOL    HW236267   0.189   4.704   7.497  0.0836  0.1150  2.4220
 8211SOL     OW36268   2.332   4.075   3.556 -0.2017 -0.3410  0.4240
 8211SOL    HW136269   2.304   4.079   3.465 -0.0825 -0.3303  0.3884
 8211SOL    HW236270   2.334   3.979   3.554 -0.4844 -0.3367  0.0469
 8212SOL     OW36271   2.678   3.796   3.152 -0.3473 -0.1938 -0.2657
 8212SOL    HW136272   2.673   3.845   3.070  0.4394  0.4390  0.0587
 8212SOL    HW236273   2.673   3.868   3.215 -2.1943 -0.2158 -0.3942
 8213SOL     OW36274   1.817   4.637  10.499 -0.2946  0.0597 -0.3878
 8213SOL    HW136275   1.881   4.708  10.488 -1.2147  0.8308 -0.8111
 8213SOL    HW236276   1.831   4.590  10.417 -1.2591  0.4984 -0.8075
 8214SOL     OW36277   0.448   2.836  16.060  0.1742  1.0136  0.2683
 8214SOL    HW136278   0.394   2.914  16.046  2.1558  2.4255  0.5817
 8214SOL    HW236279   0.390   2.762  16.040  1.0318  0.4901 -0.2682
 8215SOL     OW36280   0.649   3.483  10.872  0.2431  0.4117  0.7019
 8215SOL    HW136281   0.702   3.474  10.951 -1.0952 -2.0749  1.2968
 8215SOL    HW236282   0.580   3.540  10.905  0.8121  0.9339  0.9940
 8216SOL     OW36283   1.066   3.493   0.798  0.1059 -0.2478  0.2580
 8216SOL    HW136284   1.004   3.504   0.727  0.3503 -0.6116 -0.0105
 8216SOL    HW236285   1.145   3.531   0.760  0.0648  0.9857  1.3990
 8217SOL     OW36286   0.305   1.030   3.814  0.1203  0.4782 -0.7011
 8217SOL    HW136287   0.226   0.976   3.817  0.4437 -0.0999 -2.7296
 8217SOL    HW236288   0.371   0.972   3.775  0.2682 -1.1465  1.9226
 8218SOL     OW36289   1.982   1.403   6.792 -0.1230  0.0795 -0.0486
 8218SOL    HW136290   2.036   1.468   6.838 -1.0380  0.8996 -0.1185
 8218SOL    HW236291   1.965   1.453   6.712 -0.8452 -0.7745 -0.4220
 8219SOL     OW36292   3.650   1.066   2.740 -0.0904 -0.2025 -0.1281
 8219SOL    HW136293   3.629   1.021   2.658  0.1223 -1.2320  0.3792
 8219SOL    HW236294   3.607   1.013   2.807  0.4824  0.1122  0.4777
 8220SOL     OW36295   0.468   3.609   3.839  0.7790  0.1470  0.3999
 8220SOL    HW136296   0.481   3.597   3.745 -0.4274 -0.5874  0.3351
 8220SOL    HW236297   0.452   3.517   3.862 -0.2949  0.3518  0.4761
 8221SOL     OW36298   4.071   0.581   3.721  0.1345 -0.1591 -0.6257
 8221SOL    HW136299   4.161   0.563   3.695  0.2232 -0.2440 -0.2593
 8221SOL    HW236300   4.061   0.516   3.792 -0.3675  3.3317  2.4795
 8222SOL     OW36301   0.615   3.449  15.268  0.5653 -0.8172 -0.3271
 8222SOL    HW136302   0.594   3.541  15.286 -1.2183 -1.8034  2.7104
 8222SOL    HW236303   0.668   3.442  15.348  0.3087  0.4568 -0.0500
 8223SOL     OW36304   0.024   0.306  15.742  0.1626  0.2331  0.5321
 8223SOL    HW136305   0.113   0.308  15.708  0.6611 -1.0455  1.7616
 8223SOL    HW236306   0.012   0.398  15.765  1.1834  0.4605  0.1246
 8224SOL     OW36307   0.997   4.393   0.270 -0.3432  0.1393 -0.6439
 8224SOL    HW136308   1.009   4.298   0.258 -2.0144  0.2878 -3.5144
 8224SOL    HW236309   1.087   4.424   0.275 -1.8462  4.0037  1.9431
 8225SOL     OW36310   4.274   4.425  15.220 -0.5490  0.0755  0.1493
 8225SOL    HW136311   4.257   4.345  15.270 -1.7170 -0.7217 -1.4948
 8225SOL    HW236312   4.206   4.418  15.152 -1.0856  0.7146  0.6192
 8226SOL     OW36313   4.369   3.461   2.821  0.3701 -0.0227 -0.5416
 8226SOL    HW136314   4.424   3.424   2.890 -0.9076 -0.0131  0.4721
 8226SOL    HW236315   4.323   3.520   2.880  2.0386 -0.4259  1.1521
 8227SOL     OW36316   1.093   4.249  11.160 -0.1212  0.2510 -0.2240
 8227SOL    HW136317   1.139   4.237  11.243  1.5905  1.8934 -0.9296
 8227SOL    HW236318   1.036   4.325  11.161  0.2157  0.5073 -0.3341
 8228SOL     OW36319   3.673   0.925   2.485 -0.1531  0.9404 -0.7515
 8228SOL    HW136320   3.661   0.859   2.417  2.1727 -1.0105  0.7635
 8228SOL    HW236321   3.698   0.998   2.428  2.0642  0.8549  0.1386
 8229SOL     OW36322   1.792   1.084   8.784  0.1618 -0.0737  0.5843
 8229SOL    HW136323   1.868   1.098   8.728 -0.5389 -0.6945 -0.5147
 8229SOL    HW236324   1.767   1.163   8.831  2.3792  2.1504 -2.0303
 8230SOL     OW36325   0.042   4.314   8.387 -1.0357 -0.1222  0.1295
 8230SOL    HW136326   0.107   4.316   8.458  1.2625  4.4561 -2.0594
 8230SOL    HW236327   4.734   4.395   8.396  0.5753  0.9381 -0.4180
 8231SOL     OW36328   0.238   2.502   6.163  0.1757  0.3335  0.3036
 8231SOL    HW136329   0.307   2.558   6.127  0.8575 -1.0380 -0.5405
 8231SOL    HW236330   0.215   2.434   6.099  2.0102  0.8968 -0.9488
 8232SOL     OW36331   2.457   0.754   0.402  0.0659  0.0467 -0.6743
 8232SOL    HW136332   2.392   0.752   0.472  1.4745 -3.9307  0.4991
 8232SOL    HW236333   2.541   0.727   0.439 -0.6312 -0.5685  0.4378
 8233SOL     OW36334   3.590   2.327   7.449  0.2930  0.6587 -0.0092
 8233SOL    HW136335   3.498   2.328   7.421  0.2412 -3.4376  0.0074
 8233SOL    HW236336   3.607   2.235   7.469 -1.1502  0.4257  0.2059
 8234SOL     OW36337   0.582   2.570   7.212 -0.0781 -0.0093  0.0158
 8234SOL    HW136338   0.531   2.490   7.222  0.1434 -0.2869 -1.0726
 8234SOL    HW236339   0.606   2.605   7.298 -2.1294 -2.0197  1.4104
 8235SOL     OW36340   0.166   3.536  14.257 -0.0226 -0.0026 -0.3850
 8235SOL    HW136341   0.250   3.553  14.214 -0.2616 -0.6766 -1.1319
 8235SOL    HW236342   0.131   3.477  14.190 -1.8066 -0.7540  1.2143
 8236SOL     OW36343   1.571   0.241   4.294  0.3557 -0.0709  0.7904
 8236SOL    HW136344   1.537   0.168   4.242 -3.0338 -0.0446  2.9823
 8236SOL    HW236345   1.570   0.306   4.224 -3.5575 -0.5479  0.4314
 8237SOL     OW36346   2.960   4.216   7.787  0.4328 -0.6717 -0.3133
 8237SOL    HW136347   2.867   4.238   7.790  0.8427  1.6764 -4.2070
 8237SOL    HW236348   2.978   4.225   7.693  0.6362 -1.1706 -0.3225
 8238SOL     OW36349   1.330   2.403   4.593 -0.3831 -0.3400  0.1115
 8238SOL    HW136350   1.287   2.371   4.513 -0.0277  1.9634 -1.0069
 8238SOL    HW236351   1.338   2.320   4.639  1.4398 -1.0092 -1.3959
 8239SOL     OW36352   2.792   0.303   8.015  0.6123 -0.3318  0.1421
 8239SOL    HW136353   2.806   0.227   8.071  1.0755 -0.0243  0.4502
 8239SOL    HW236354   2.754   0.258   7.940  0.6757  0.1102 -0.1570
 8240SOL     OW36355   0.779   3.300  16.503 -0.2017  0.7101 -0.1393
 8240SOL    HW136356   0.760   3.358  16.429 -1.4823  0.2265 -0.1952
 8240SOL    HW236357   0.832   3.348  16.566  0.0308 -1.5643  1.3896
 8241SOL     OW36358   0.123   4.719  12.141 -0.1482  0.1798 -0.1671
 8241SOL    HW136359   0.208   0.020  12.130 -0.1065  0.4169  1.0956
 8241SOL    HW236360   0.075   0.015  12.068  0.3959 -1.7817 -1.5679
 8242SOL     OW36361   1.878   0.815  13.717  0.0652 -0.6511  0.1270
 8242SOL    HW136362   1.883   0.795  13.811 -3.1714  2.1045  0.8927
 8242SOL    HW236363   1.829   0.740  13.686 -0.6273 -0.5068  0.8569
 8243SOL     OW36364   0.106   3.120   9.479 -0.3370 -0.3291 -0.3248
 8243SOL    HW136365   0.033   3.129   9.539 -2.2423  2.3013 -3.0438
 8243SOL    HW236366   0.057   3.134   9.398 -2.6747 -0.2446  1.1195
 8244SOL     OW36367   2.000   0.931  16.262  0.0434  0.1005 -0.2250
 8244SOL    HW136368   1.909   0.901  16.265  1.0607 -2.6458  2.6796
 8244SOL    HW236369   1.994   0.999  16.330 -0.3875  1.2402 -1.3914
 8245SOL     OW36370   1.916   0.960   8.381  0.0868  0.2901  0.2286
 8245SOL    HW136371   1.860   0.987   8.455  1.1572  1.1588  0.7278
 8245SOL    HW236372   1.926   1.048   8.345  3.8518  0.7521  2.3522
 8246SOL     OW36373   3.572   3.302   9.520  0.1227 -0.1706  0.5318
 8246SOL    HW136374   3.598   3.219   9.561 -3.1211 -1.5974 -0.3145
 8246SOL    HW236375   3.607   3.358   9.590  0.5195 -0.0366  0.2240
 8247SOL     OW36376   3.139   4.729   0.504  0.0292 -0.4344 -0.1856
 8247SOL    HW136377   3.140   4.668   0.578 -1.8263 -0.7957 -0.4602
 8247SOL    HW236378   3.207   0.045   0.539 -0.5061 -0.1316  0.3555
 8248SOL     OW36379   4.732   1.650   1.181  0.1252 -0.2541  0.7630
 8248SOL    HW136380   0.036   1.571   1.153  2.3237  0.1459  3.3275
 8248SOL    HW236381   4.658   1.618   1.233  1.2605 -3.2516  0.5446
 8249SOL     OW36382   4.658   3.191   9.302  0.0656 -0.2128 -0.5793
 8249SOL    HW136383   4.563   3.187   9.295  0.0109  0.8946 -0.3950
 8249SOL    HW236384   4.673   3.176   9.209 -0.3770  1.3425 -0.8997
 8250SOL     OW36385   3.686   3.472  11.237  0.0425 -0.3813 -0.5539
 8250SOL    HW136386   3.600   3.446  11.270  0.2051  0.2206  0.3575
 8250SOL    HW236387   3.744   3.436  11.304  0.2385 -0.7045 -0.9011
 8251SOL     OW36388   0.658   4.065  14.312 -0.0624  0.0942 -0.1252
 8251SOL    HW136389   0.590   4.132  14.313  0.0994  0.2547  0.4233
 8251SOL    HW236390   0.736   4.121  14.309  0.3716 -0.5093 -0.0711
 8252SOL     OW36391   1.841   0.540   7.023  0.0067 -0.0129  0.4331
 8252SOL    HW136392   1.919   0.572   6.979 -1.5753 -0.5074 -2.6781
 8252SOL    HW236393   1.768   0.593   6.991 -0.5206 -0.5778  0.6816
 8253SOL     OW36394   2.133   2.277   1.757 -0.2053  0.0088 -0.0650
 8253SOL    HW136395   2.149   2.183   1.766 -2.5444 -0.4599 -0.9320
 8253SOL    HW236396   2.173   2.301   1.841  1.9319  0.9863 -1.3640
 8254SOL     OW36397   2.854   1.042  11.109  0.3449 -0.2136  0.2973
 8254SOL    HW136398   2.921   0.975  11.091 -0.6005 -0.5057 -2.1980
 8254SOL    HW236399   2.830   1.065  11.019 -2.6233 -1.8104  0.6888
 8255SOL     OW36400   2.235   4.342   3.214 -0.6173 -0.0073 -0.1235
 8255SOL    HW136401   2.243   4.274   3.281  0.3850  0.5713  0.3432
 8255SOL    HW236402   2.317   4.390   3.223  1.0175 -2.6288 -1.0445
 8256SOL     OW36403   0.961   3.209   2.881 -0.0934  0.1071 -0.9343
 8256SOL    HW136404   1.033   3.236   2.824  2.1350  0.3282  1.9705
 8256SOL    HW236405   0.930   3.134   2.830 -0.5775  1.2828 -2.3570
 8257SOL     OW36406   0.400   4.224   9.337 -0.1459  0.4200 -0.2358
 8257SOL    HW136407   0.479   4.247   9.385 -0.9200  0.0318  1.2173
 8257SOL    HW236408   0.405   4.130   9.353 -1.2269  0.6912  1.6623
 8258SOL     OW36409   0.280   0.315  12.930  0.5520  0.0213  0.0443
 8258SOL    HW136410   0.359   0.301  12.982 -0.1145  1.1083  1.3376
 8258SOL    HW236411   0.205   0.275  12.976 -0.1452  1.3344  0.0408
 8259SOL     OW36412   3.994   0.969   8.237  0.1913 -0.1696  0.3897
 8259SOL    HW136413   4.056   1.041   8.224  0.7627 -0.7280  0.0169
 8259SOL    HW236414   3.910   1.003   8.204  2.2943  2.9761 -1.7387
 8260SOL     OW36415   4.467   3.754   4.880 -0.1229 -0.0372 -0.1324
 8260SOL    HW136416   4.471   3.660   4.868  2.4441 -0.1454  1.5456
 8260SOL    HW236417   4.549   3.765   4.928  0.8829  0.4784 -1.9621
 8261SOL     OW36418   0.772   3.577   3.254  0.0074  0.1244  0.1009
 8261SOL    HW136419   0.685   3.609   3.233  0.1302  0.8827  0.7735
 8261SOL    HW236420   0.786   3.504   3.192 -1.3751 -0.3344  0.3393
 8262SOL     OW36421   2.438   3.136   1.462 -0.4020 -0.7806  0.1736
 8262SOL    HW136422   2.465   3.226   1.443 -1.2168 -0.4087  0.7897
 8262SOL    HW236423   2.453   3.143   1.556  1.7327  0.5429 -0.2767
 8263SOL     OW36424   4.329   2.642   8.018 -0.3345 -0.2274 -0.2429
 8263SOL    HW136425   4.265   2.573   8.003  0.3158 -0.9383  0.2322
 8263SOL    HW236426   4.309   2.705   7.949  0.0623  2.0892  1.7256
 8264SOL     OW36427   2.588   3.562  14.287 -0.0839 -0.1158 -0.0712
 8264SOL    HW136428   2.549   3.622  14.223 -0.7053  1.7188  2.0482
 8264SOL    HW236429   2.648   3.620  14.333  0.2929  0.1037 -0.8241
 8265SOL     OW36430   3.805   1.437   0.988  0.4702 -0.2960 -0.4993
 8265SOL    HW136431   3.872   1.479   1.042 -0.9189  0.9375  0.2464
 8265SOL    HW236432   3.771   1.519   0.953  1.5441  0.1923 -0.4070
 8266SOL     OW36433   0.948   3.541   8.219 -0.2448 -0.4642  0.7949
 8266SOL    HW136434   0.906   3.469   8.266 -0.9019  0.5044  1.6861
 8266SOL    HW236435   0.942   3.607   8.288  3.6549  1.6403 -0.8717
 8267SOL     OW36436   3.207   4.708   8.773 -0.4559 -0.1969 -0.3522
 8267SOL    HW136437   3.193   4.657   8.693 -1.6830  2.6554 -1.9571
 8267SOL    HW236438   3.141   0.035   8.774 -0.1119  0.0991  2.2734
 8268SOL     OW36439   2.774   0.228   8.553 -0.0755  0.1300  0.3012
 8268SOL    HW136440   2.806   0.184   8.632  0.9496 -1.4890 -1.0290
 8268SOL    HW236441   2.679   0.219   8.559  0.0467  0.3976  2.7895
 8269SOL     OW36442   1.382   2.172  12.624  0.5295  0.1851  0.2753
 8269SOL    HW136443   1.450   2.143  12.565 -0.1084  0.9944 -0.8537
 8269SOL    HW236444   1.426   2.195  12.706  0.7813 -3.4386  1.1354
 8270SOL     OW36445   1.260   0.473   3.444  0.3336  0.0719  0.2112
 8270SOL    HW136446   1.268   0.438   3.532  1.9540  1.9057  0.7870
 8270SOL    HW236447   1.164   0.473   3.434  0.3977  1.1108 -0.3899
 8271SOL     OW36448   1.882   4.509   5.453 -0.2642 -0.4256 -0.0382
 8271SOL    HW136449   1.828   4.479   5.380  0.0862 -1.4447  0.1281
 8271SOL    HW236450   1.943   4.436   5.464 -1.4648 -1.2485  1.1880
 8272SOL     OW36451   0.426   4.444   2.805  0.8085  0.2103 -0.7100
 8272SOL    HW136452   0.463   4.423   2.891  1.8521  0.7572 -1.0293
 8272SOL    HW236453   0.351   4.385   2.799  0.8537 -0.1867  2.5554
 8273SOL     OW36454   0.859   4.253   2.519  0.0021  0.6434 -0.0484
 8273SOL    HW136455   0.785   4.294   2.564 -0.3148 -0.4376  0.4236
 8273SOL    HW236456   0.867   4.333   2.467  0.7419 -0.4077 -1.5577
 8274SOL     OW36457   3.351   2.658  13.011  0.3964 -0.0260  0.2505
 8274SOL    HW136458   3.336   2.721  12.940 -0.6838 -1.2413 -0.5896
 8274SOL    HW236459   3.356   2.716  13.088  0.2198  0.9757 -0.4919
 8275SOL     OW36460   1.406   0.386   9.840 -0.1763 -0.3961 -0.4367
 8275SOL    HW136461   1.388   0.326   9.913 -3.9442  0.0907 -0.9768
 8275SOL    HW236462   1.456   0.452   9.887  1.0688 -1.1938 -0.6318
 8276SOL     OW36463   4.485   4.401   5.441  0.0416  0.0781  0.5910
 8276SOL    HW136464   4.500   4.391   5.535 -1.4543  0.7034  0.9005
 8276SOL    HW236465   4.509   4.317   5.403  1.5865  0.3279  1.0133
 8277SOL     OW36466   4.661   0.928   7.435 -0.0527  0.3865  0.2055
 8277SOL    HW136467   0.001   0.887   7.408 -1.1092 -1.3099 -0.4457
 8277SOL    HW236468   4.653   0.989   7.362 -0.5644  0.8269  0.6213
 8278SOL     OW36469   3.991   1.579   9.051 -0.3224  0.0993 -0.7450
 8278SOL    HW136470   3.981   1.667   9.016  1.0874  0.5428 -0.0160
 8278SOL    HW236471   4.074   1.587   9.099 -0.3828 -0.1542 -0.5940
 8279SOL     OW36472   3.224   1.414  17.731  0.2225  1.0491 -0.0651
 8279SOL    HW136473   3.181   1.479  17.674 -0.2963 -0.1533 -1.0508
 8279SOL    HW236474   3.307   1.416  17.684 -0.1643  0.3196 -0.7865
 8280SOL     OW36475   0.679   4.333   1.830  0.1800  0.1211 -0.0676
 8280SOL    HW136476   0.681   4.393   1.905  1.8821  0.0497 -0.0547
 8280SOL    HW236477   0.665   4.249   1.874 -1.6526  0.7826  0.6069
 8281SOL     OW36478   1.836   0.294   2.254  0.1316 -0.5919 -0.6743
 8281SOL    HW136479   1.869   0.375   2.294 -0.0459 -0.3329 -1.0423
 8281SOL    HW236480   1.778   0.261   2.322 -0.0972 -1.1895 -1.1601
 8282SOL     OW36481   4.433   1.186   8.605  0.5652 -0.0795 -0.4143
 8282SOL    HW136482   4.451   1.117   8.669  2.4375  0.8435  0.0449
 8282SOL    HW236483   4.346   1.155   8.579 -0.5269 -0.4755  3.6876
 8283SOL     OW36484   3.485   2.863   9.107 -0.1520 -0.2395  0.1682
 8283SOL    HW136485   3.511   2.836   9.195 -0.5186  0.9505  0.6296
 8283SOL    HW236486   3.394   2.834   9.119 -1.1555  1.4741 -3.2668
 8284SOL     OW36487   2.650   1.315   3.349 -0.0650 -0.5008 -0.2194
 8284SOL    HW136488   2.708   1.329   3.424  1.5075 -0.5515 -1.4198
 8284SOL    HW236489   2.603   1.236   3.373 -1.1638 -0.5460 -2.5557
 8285SOL     OW36490   4.721   0.339   1.048 -0.5152 -0.6252 -0.0690
 8285SOL    HW136491   4.696   0.302   0.963 -0.9902 -0.8138  0.1482
 8285SOL    HW236492   4.707   0.272   1.115  2.1724 -0.5500  0.5534
 8286SOL     OW36493   3.514   1.250   5.044  0.1760  0.0427 -0.2612
 8286SOL    HW136494   3.598   1.211   5.069 -1.3673 -1.6702  2.2269
 8286SOL    HW236495   3.448   1.193   5.081 -0.6595 -0.2974 -2.2692
 8287SOL     OW36496   2.667   0.700  11.848  0.0853 -0.0377  0.2368
 8287SOL    HW136497   2.723   0.768  11.811  0.7049 -0.3415  0.6168
 8287SOL    HW236498   2.620   0.667  11.771 -0.8741  0.3804  0.6492
 8288SOL     OW36499   0.147   2.826   5.083 -0.3188  0.1914  0.3846
 8288SOL    HW136500   0.225   2.819   5.139 -1.1369 -1.3726  1.3158
 8288SOL    HW236501   0.136   2.921   5.089  0.4054  0.2685  0.5263
 8289SOL     OW36502   3.503   4.069   2.160  0.0629  0.1303 -0.4045
 8289SOL    HW136503   3.572   4.116   2.206  2.0388 -0.9975 -2.2724
 8289SOL    HW236504   3.479   4.007   2.229 -1.2783 -0.3284 -1.2775
 8290SOL     OW36505   0.757   3.511   4.540  0.2463  0.2866 -0.1575
 8290SOL    HW136506   0.752   3.562   4.621 -0.1177  0.6421 -0.4036
 8290SOL    HW236507   0.683   3.451   4.550  0.7097  0.0008  1.4138
 8291SOL     OW36508   0.851   2.034   5.181  0.2507  0.0654 -1.0545
 8291SOL    HW136509   0.789   1.964   5.201 -0.9890  1.6609  0.5267
 8291SOL    HW236510   0.889   2.060   5.264 -0.9909 -0.4014 -0.3435
 8292SOL     OW36511   4.226   1.975   5.098 -0.1424 -0.5410 -0.0426
 8292SOL    HW136512   4.176   1.948   5.021 -0.0704 -1.0217  0.0760
 8292SOL    HW236513   4.203   1.907   5.161  0.5657  0.4625  1.2979
 8293SOL     OW36514   4.603   0.074   2.764 -0.2614 -0.2533  0.5625
 8293SOL    HW136515   4.542   0.129   2.813  0.2080  0.1890  0.6497
 8293SOL    HW236516   4.676   0.104   2.818 -0.6819  0.5154  0.7132
 8294SOL     OW36517   0.093   0.000   0.974  0.3184  0.4498  0.6591
 8294SOL    HW136518   0.128   4.686   0.905 -2.1680  1.0772 -1.1248
 8294SOL    HW236519   0.103   4.689   1.053 -3.0840 -2.0986 -0.5847
 8295SOL     OW36520   3.075   0.643   3.567  0.0450  0.2292 -0.4029
 8295SOL    HW136521   3.026   0.688   3.499  1.1708 -1.5692 -2.4045
 8295SOL    HW236522   3.165   0.669   3.551 -0.1093 -0.5787 -2.5421
 8296SOL     OW36523   0.861   4.319  10.707 -0.2982  0.2513 -0.7813
 8296SOL    HW136524   0.894   4.389  10.763  2.6107  0.5822 -2.9048
 8296SOL    HW236525   0.795   4.374  10.664  0.2761 -0.2211 -2.2564
 8297SOL     OW36526   3.125   4.082   3.662  0.1722 -0.3758  0.0416
 8297SOL    HW136527   3.153   4.115   3.577 -1.6252  1.8111  0.3093
 8297SOL    HW236528   3.143   4.156   3.720 -1.6731  0.4854 -0.4811
 8298SOL     OW36529   2.296   3.555   5.979 -0.0924 -0.3587  0.0353
 8298SOL    HW136530   2.214   3.602   5.991 -0.3903 -1.0094  0.5291
 8298SOL    HW236531   2.338   3.624   6.031 -0.4439  0.5012 -0.8132
 8299SOL     OW36532   1.380   1.471   5.597  0.5587  0.3359 -0.3203
 8299SOL    HW136533   1.344   1.432   5.676  0.5300 -0.6680 -0.8329
 8299SOL    HW236534   1.349   1.409   5.531  1.1242 -0.3993  0.0975
 8300SOL     OW36535   2.450   4.411   0.972  0.2882  0.4739 -0.4674
 8300SOL    HW136536   2.415   4.497   0.948 -1.3477  0.3583  1.5845
 8300SOL    HW236537   2.410   4.361   0.901  1.5176 -2.4825  0.9165
 8301SOL     OW36538   3.427   1.051   2.196 -0.0642  0.1678  0.0790
 8301SOL    HW136539   3.343   1.023   2.233 -0.2025 -2.0892 -1.9320
 8301SOL    HW236540   3.400   1.128   2.146  1.4766  1.4968  1.3318
 8302SOL     OW36541   3.729   1.021   8.167  0.3031 -0.1474  0.2725
 8302SOL    HW136542   3.691   1.081   8.103 -2.1393 -1.5909  0.3618
 8302SOL    HW236543   3.715   1.074   8.245 -0.6074  1.8700 -1.2679
 8303SOL     OW36544   4.449   4.144   9.321 -0.1921  0.3572  0.7701
 8303SOL    HW136545   4.367   4.141   9.369  0.0446 -2.3124  1.0212
 8303SOL    HW236546   4.505   4.136   9.399 -1.7663 -2.0583  1.6383
 8304SOL     OW36547   4.336   0.613   5.297  0.7075  0.2304  0.5287
 8304SOL    HW136548   4.397   0.636   5.366  0.6795 -0.7726  0.8846
 8304SOL    HW236549   4.386   0.638   5.219  0.5882  0.0632  0.3986
 8305SOL     OW36550   3.273   3.143   2.360  0.2001  0.1364  0.3945
 8305SOL    HW136551   3.350   3.146   2.417  1.3958 -0.9720 -1.1856
 8305SOL    HW236552   3.272   3.051   2.335  2.8828  1.3895 -4.2685
 8306SOL     OW36553   0.556   4.583   5.986 -0.1343  0.2867  0.6696
 8306SOL    HW136554   0.518   4.502   6.019 -0.3367  0.5413  1.0542
 8306SOL    HW236555   0.559   4.638   6.064 -0.5203 -0.8779  1.4857
 8307SOL     OW36556   1.440   1.985  12.288  0.0262 -0.1208 -0.4880
 8307SOL    HW136557   1.459   2.064  12.238 -1.2703  1.0563  0.8879
 8307SOL    HW236558   1.532   1.959  12.300  0.1612  0.4350 -0.3247
 8308SOL     OW36559   0.285   0.725  16.172  0.4004  0.1315 -0.2790
 8308SOL    HW136560   0.215   0.686  16.120 -0.7774  1.5896  0.1935
 8308SOL    HW236561   0.263   0.817  16.158 -0.0032 -0.1803 -1.5960
 8309SOL     OW36562   4.388   2.662   1.885  0.0485 -0.1736 -0.2012
 8309SOL    HW136563   4.327   2.600   1.844 -0.1783 -0.2615  0.2687
 8309SOL    HW236564   4.466   2.654   1.831  0.4458  1.5653  0.1323
 8310SOL     OW36565   2.853   0.271  11.279 -0.0505 -0.1320 -0.0188
 8310SOL    HW136566   2.934   0.247  11.234  1.7224  4.0312  1.0138
 8310SOL    HW236567   2.879   0.336  11.343 -0.9193  0.2991 -0.1105
 8311SOL     OW36568   0.345   1.896   2.726 -0.5259  0.7116 -0.5571
 8311SOL    HW136569   0.269   1.896   2.785  1.0417  0.9174  1.4671
 8311SOL    HW236570   0.371   1.804   2.735  0.6274  0.9972 -1.0210
 8312SOL     OW36571   0.227   0.983  16.164 -0.4229  0.9143 -0.5381
 8312SOL    HW136572   0.208   1.035  16.242  1.2636  1.2189 -0.3203
 8312SOL    HW236573   0.259   1.054  16.108  1.7318 -0.1878 -0.7108
 8313SOL     OW36574   4.131   0.163   9.003  0.4496  0.4168 -0.1163
 8313SOL    HW136575   4.178   0.247   9.006 -0.8561  1.1552 -0.6666
 8313SOL    HW236576   4.071   0.173   9.076 -0.1634 -0.4423 -0.5039
 8314SOL     OW36577   0.534   3.097   0.515  0.2518 -0.1237  0.4368
 8314SOL    HW136578   0.582   3.124   0.437  0.1779 -4.4758 -1.1222
 8314SOL    HW236579   0.581   3.016   0.536  1.3763  0.5935  0.6755
 8315SOL     OW36580   4.583   0.133   1.590  0.5776  0.2344 -0.0609
 8315SOL    HW136581   4.619   0.198   1.529  1.5120  0.8750  1.1680
 8315SOL    HW236582   4.504   0.180   1.615  0.1630  0.2908 -1.4518
 8316SOL     OW36583   1.192   4.390   4.984  0.3831  0.0266  0.0178
 8316SOL    HW136584   1.272   4.434   4.955 -0.5684  1.0810 -1.0013
 8316SOL    HW236585   1.198   4.322   4.918  0.3403  1.2047 -1.2083
 8317SOL     OW36586   3.027   0.243   8.398 -0.0929  0.0206 -0.0125
 8317SOL    HW136587   3.090   0.306   8.435  1.2225 -1.2673 -0.0320
 8317SOL    HW236588   2.944   0.279   8.430 -1.9683 -4.0519 -0.2758
 8318SOL     OW36589   1.725   2.637  10.845 -0.4991  0.2995 -0.8178
 8318SOL    HW136590   1.673   2.618  10.923 -0.2350 -0.4787 -0.8317
 8318SOL    HW236591   1.742   2.731  10.851 -0.4770  0.2318  0.1872
 8319SOL     OW36592   1.148   1.727   2.641 -0.4801  0.0370  0.5820
 8319SOL    HW136593   1.114   1.683   2.563  0.5233  0.1958  0.0583
 8319SOL    HW236594   1.179   1.811   2.606 -3.6260  0.2017 -1.8471
 8320SOL     OW36595   4.563   4.551   8.832  0.1874 -0.0276 -0.0392
 8320SOL    HW136596   4.539   4.533   8.923  0.0993 -3.4250 -0.7321
 8320SOL    HW236597   4.634   4.615   8.840 -1.1806  1.5682 -0.7342
 8321SOL     OW36598   0.736   0.799   2.561  0.0681  0.3023 -0.4722
 8321SOL    HW136599   0.739   0.891   2.587  2.0394  0.4221 -1.1621
 8321SOL    HW236600   0.746   0.766   2.650  0.9172 -0.4705 -0.8591
 8322SOL     OW36601   3.386   4.662   3.208 -0.5780  0.2540 -0.2376
 8322SOL    HW136602   3.479   4.684   3.217 -1.1052  1.3381  2.6470
 8322SOL    HW236603   3.368   4.674   3.115 -0.4264  1.3367 -0.1249
 8323SOL     OW36604   1.745   2.351   2.794 -0.1270 -0.1876  0.2995
 8323SOL    HW136605   1.824   2.334   2.742 -0.0839  0.7743  0.0612
 8323SOL    HW236606   1.702   2.272   2.761  0.0217 -0.0938 -0.1291
 8324SOL     OW36607   3.305   0.287  15.786  0.5445 -0.2965 -0.6970
 8324SOL    HW136608   3.350   0.306  15.869  1.0545 -1.5430 -0.6824
 8324SOL    HW236609   3.229   0.236  15.814 -0.2917  1.8632  0.9530
 8325SOL     OW36610   2.764   3.196  10.968 -0.7811 -0.1409  0.2940
 8325SOL    HW136611   2.745   3.115  11.016  0.4222 -1.0283 -0.7318
 8325SOL    HW236612   2.850   3.183  10.928 -0.7067 -2.3603  1.1676
 8326SOL     OW36613   0.672   2.443   4.000  0.2130 -0.2222 -0.4339
 8326SOL    HW136614   0.694   2.360   4.041 -2.3680 -0.2833  0.8631
 8326SOL    HW236615   0.581   2.447   4.029  0.8290  0.6159  1.3796
 8327SOL     OW36616   0.815   4.231   5.434  0.6080  0.3662  0.2420
 8327SOL    HW136617   0.846   4.271   5.353 -0.6773 -1.7673 -1.2847
 8327SOL    HW236618   0.796   4.310   5.486 -0.8783 -1.3066  2.2830
 8328SOL     OW36619   2.776   4.511   6.155 -0.3304 -0.0299 -0.2807
 8328SOL    HW136620   2.780   4.592   6.206 -0.9564 -0.7289  0.8702
 8328SOL    HW236621   2.717   4.545   6.088 -0.2745  0.4785 -0.0718
 8329SOL     OW36622   1.428   1.797   2.345  0.5198 -0.3270 -0.0242
 8329SOL    HW136623   1.369   1.739   2.298  0.2683 -0.9147  1.0134
 8329SOL    HW236624   1.429   1.873   2.287 -3.4917 -0.0224  0.3361
 8330SOL     OW36625   2.591   0.346  17.131 -0.2960 -0.9387  0.2871
 8330SOL    HW136626   2.561   0.257  17.113 -0.3102 -1.0268  0.7526
 8330SOL    HW236627   2.596   0.371  17.038  2.2652 -0.8583  0.4365
 8331SOL     OW36628   2.626   1.295   5.975  0.0899  0.2629  0.6951
 8331SOL    HW136629   2.700   1.353   5.994  3.1472 -2.4667 -2.7872
 8331SOL    HW236630   2.643   1.257   5.888 -0.3669 -2.0574  1.6170
 8332SOL     OW36631   2.402   2.787   8.798 -0.1155 -0.0977 -0.0919
 8332SOL    HW136632   2.425   2.768   8.707 -1.0913  0.7768 -0.5269
 8332SOL    HW236633   2.484   2.812   8.840  0.5826 -0.4763 -1.2515
 8333SOL     OW36634   1.375   3.761   7.182  0.1336  0.6719  0.1294
 8333SOL    HW136635   1.281   3.740   7.178  0.4573 -0.6154 -0.6225
 8333SOL    HW236636   1.394   3.756   7.276 -0.0952  1.9263  0.2442
 8334SOL     OW36637   0.838   0.745   4.033  0.2931 -0.4009 -0.8084
 8334SOL    HW136638   0.743   0.738   4.043  0.3153 -0.8513 -0.9051
 8334SOL    HW236639   0.867   0.742   4.125  0.3909  2.6345 -0.7429
 8335SOL     OW36640   2.054   0.841   7.145 -0.2636 -0.1071  0.1517
 8335SOL    HW136641   2.037   0.931   7.172  1.9028  0.7025 -1.2590
 8335SOL    HW236642   2.008   0.850   7.061 -0.6590 -0.8420  0.2873
 8336SOL     OW36643   2.877   2.172   9.093 -0.4298  0.4889  0.3109
 8336SOL    HW136644   2.860   2.245   9.153 -1.0761  1.0076 -0.5073
 8336SOL    HW236645   2.972   2.172   9.093 -0.4161 -1.0299 -4.4578
 8337SOL     OW36646   0.153   3.543   4.439  0.4417 -0.5068 -0.2196
 8337SOL    HW136647   0.066   3.548   4.480  1.6468  1.0053  2.1992
 8337SOL    HW236648   0.148   3.463   4.387 -3.6658  0.8332 -1.8711
 8338SOL     OW36649   0.972   2.889   1.648  0.8195 -0.0997 -0.2319
 8338SOL    HW136650   1.014   2.963   1.692  0.2998 -2.3547  4.0634
 8338SOL    HW236651   1.028   2.823   1.689 -2.4552 -2.0244  1.1168
 8339SOL     OW36652   0.839   1.599  15.590 -0.0515  0.1422 -0.2005
 8339SOL    HW136653   0.907   1.555  15.538  0.5224  1.0288 -0.2063
 8339SOL    HW236654   0.857   1.549  15.669  0.8816  0.2281 -0.3622
 8340SOL     OW36655   1.223   2.870   0.898  0.4007  0.0471  0.1104
 8340SOL    HW136656   1.288   2.892   0.832  1.9566  1.5623  2.1238
 8340SOL    HW236657   1.209   2.946   0.954 -2.3595 -0.0926 -0.3893
 8341SOL     OW36658   0.041   3.209   5.960 -0.2418 -0.1864 -0.2889
 8341SOL    HW136659   4.699   3.182   5.924  0.1139 -1.1683 -0.3770
 8341SOL    HW236660   0.062   3.283   5.903 -0.4904  1.8722  2.2667
 8342SOL     OW36661   1.194   0.538   3.896  0.1123 -0.3905  0.7458
 8342SOL    HW136662   1.119   0.586   3.861 -0.2126 -0.6484  1.0902
 8342SOL    HW236663   1.164   0.531   3.986 -0.1348 -1.4957  0.5808
 8343SOL     OW36664   3.816   4.208  14.693 -0.2254  0.6808 -0.1038
 8343SOL    HW136665   3.859   4.162  14.621  0.0805 -2.2117  1.9304
 8343SOL    HW236666   3.739   4.239  14.647 -2.0767 -1.4144  1.5537
 8344SOL     OW36667   2.660   4.076   6.307 -0.4526  0.7854  0.2550
 8344SOL    HW136668   2.646   4.023   6.229  0.1012  1.7910 -0.5327
 8344SOL    HW236669   2.654   4.163   6.266  0.8641  0.9174  0.3432
 8345SOL     OW36670   0.473   3.708  10.615 -0.0031 -0.1658 -0.3649
 8345SOL    HW136671   0.563   3.732  10.593 -0.7808  0.3945 -2.9681
 8345SOL    HW236672   0.479   3.704  10.710  1.3041  0.7699 -0.4097
 8346SOL     OW36673   2.272   3.008  16.677  0.6155  0.4784 -0.4171
 8346SOL    HW136674   2.350   3.021  16.731  1.3436  0.1945 -1.3920
 8346SOL    HW236675   2.272   2.912  16.684  2.4790  0.5647  0.7161
 8347SOL     OW36676   3.577   3.638   5.538 -0.9676  0.0147 -0.1455
 8347SOL    HW136677   3.659   3.655   5.584 -1.3248  0.2804  0.3931
 8347SOL    HW236678   3.572   3.543   5.524 -1.3185 -0.1606  1.2031
 8348SOL     OW36679   2.326   1.241   6.416  0.1456  0.0161  0.7360
 8348SOL    HW136680   2.378   1.167   6.448  0.0548  0.6494  2.3362
 8348SOL    HW236681   2.359   1.257   6.327 -1.6843 -0.3336 -0.0093
 8349SOL     OW36682   3.704   2.783   7.388 -0.3369 -0.1428  0.1362
 8349SOL    HW136683   3.675   2.768   7.478  2.6266 -2.0472  0.7687
 8349SOL    HW236684   3.731   2.694   7.367  0.0986 -0.5129  2.2094
 8350SOL     OW36685   2.383   4.701  17.323  0.3267  0.0343  0.5471
 8350SOL    HW136686   2.373   4.648  17.244 -2.1148  2.3073 -0.6616
 8350SOL    HW236687   2.313   4.671  17.381  0.7422  0.5403  1.3015
 8351SOL     OW36688   4.009   3.544  12.766 -0.5997  0.7623  0.1689
 8351SOL    HW136689   3.924   3.546  12.723 -0.9573  0.6592  0.8790
 8351SOL    HW236690   3.997   3.478  12.834  0.2111  0.6803  0.2384
 8352SOL     OW36691   0.831   3.440   9.085 -0.6469 -0.0700  0.4057
 8352SOL    HW136692   0.793   3.400   9.007  1.6296  0.2409 -0.8452
 8352SOL    HW236693   0.876   3.361   9.115 -0.1965 -0.1075 -0.3790
 8353SOL     OW36694   3.797   3.272   2.773  0.3204  0.3147 -0.4679
 8353SOL    HW136695   3.881   3.319   2.775  0.8388 -0.6416  0.2853
 8353SOL    HW236696   3.733   3.334   2.740 -2.6360 -1.5094  1.8927
 8354SOL     OW36697   3.192   2.163   7.559 -0.1331 -0.0526  0.4201
 8354SOL    HW136698   3.125   2.227   7.537  0.0201 -0.1364 -0.3008
 8354SOL    HW236699   3.264   2.214   7.521 -0.9277  0.2793 -0.6558
 8355SOL     OW36700   0.460   1.579  16.820 -0.5020 -0.1085  0.8194
 8355SOL    HW136701   0.436   1.644  16.887 -0.8314 -0.3344  0.9194
 8355SOL    HW236702   0.547   1.547  16.842 -0.5999 -0.3981  0.7802
 8356SOL     OW36703   2.564   1.353   8.398  0.4206 -0.2885 -0.3254
 8356SOL    HW136704   2.519   1.271   8.419 -1.1139  0.9338  1.1594
 8356SOL    HW236705   2.588   1.337   8.307 -0.3539 -0.3683 -0.5227
 8357SOL     OW36706   1.807   0.114   9.301 -0.3418 -0.3071 -0.2918
 8357SOL    HW136707   1.780   0.031   9.338 -4.1322  2.2317  2.6020
 8357SOL    HW236708   1.791   0.160   9.383 -1.3922  0.4448 -0.9140
 8358SOL     OW36709   3.582   4.234   3.073 -0.3799  0.2462  0.5709
 8358SOL    HW136710   3.573   4.203   2.982 -1.4718 -1.9456  1.4384
 8358SOL    HW236711   3.604   4.327   3.065 -0.6093  0.1291 -1.6660
 8359SOL     OW36712   3.797   3.901   1.223  0.5905 -0.4104 -0.2373
 8359SOL    HW136713   3.875   3.846   1.212  1.7495  1.4789 -1.4242
 8359SOL    HW236714   3.827   3.987   1.250 -1.1812  0.5316 -1.2802
 8360SOL     OW36715   1.124   4.036   6.747 -0.1350  0.1399 -0.3364
 8360SOL    HW136716   1.122   4.098   6.674 -0.6512 -0.6039 -0.9629
 8360SOL    HW236717   1.215   4.031   6.775 -0.9568 -1.3248  2.0512
 8361SOL     OW36718   1.950   0.436  15.599  0.6839 -0.3939  0.4341
 8361SOL    HW136719   1.863   0.400  15.584  0.7441  0.5309 -2.1535
 8361SOL    HW236720   1.950   0.424  15.694 -0.4150  0.0467  0.4900
 8362SOL     OW36721   1.800   2.576   5.219 -0.0903  0.5276 -0.0764
 8362SOL    HW136722   1.891   2.572   5.190 -0.1898 -0.6998 -0.2019
 8362SOL    HW236723   1.799   2.661   5.264 -1.1575  1.6447 -2.2016
 8363SOL     OW36724   1.534   2.111  11.706  0.3087  0.0583 -0.7019
 8363SOL    HW136725   1.529   2.035  11.647 -1.9434 -2.2422  2.4463
 8363SOL    HW236726   1.630   2.117  11.705  0.0696  3.5555 -1.5000
 8364SOL     OW36727   0.074   2.507   1.214 -0.1617  0.7225 -0.0644
 8364SOL    HW136728   0.104   2.466   1.295  0.8164  1.7256  0.0815
 8364SOL    HW236729   4.740   2.558   1.243  2.1256  3.2802  1.5237
 8365SOL     OW36730   3.242   3.363   3.480 -0.0560 -0.0663 -0.2113
 8365SOL    HW136731   3.276   3.282   3.518  4.4615  1.5706 -0.7282
 8365SOL    HW236732   3.308   3.375   3.411  0.1895 -0.5177 -0.0545
 8366SOL     OW36733   1.674   3.252   7.403  0.2827 -0.6897  0.1081
 8366SOL    HW136734   1.601   3.289   7.353  0.3865  2.1012  2.0364
 8366SOL    HW236735   1.693   3.329   7.456  1.1523 -0.4383 -0.5801
 8367SOL     OW36736   0.195   0.513   5.930 -0.0766 -0.1879 -0.1452
 8367SOL    HW136737   0.179   0.476   6.016 -2.4812  1.5969  0.1941
 8367SOL    HW236738   0.114   0.483   5.888 -0.5169 -0.9315  1.2409
 8368SOL     OW36739   3.596   4.283  14.584  0.1178 -0.0003  0.6808
 8368SOL    HW136740   3.575   4.215  14.520 -2.1267  2.2170 -0.9689
 8368SOL    HW236741   3.524   4.343  14.566 -0.8523 -1.2435  0.3812
 8369SOL     OW36742   1.061   3.760   1.261 -1.2386 -0.1470  0.2269
 8369SOL    HW136743   1.063   3.812   1.342  2.2155 -0.4325  0.3383
 8369SOL    HW236744   1.144   3.797   1.228 -0.6971 -1.5817  0.0085
 8370SOL     OW36745   4.611   4.569   4.878 -0.6914 -0.8177 -0.0407
 8370SOL    HW136746   4.703   4.547   4.867 -0.6216  0.7640 -2.5253
 8370SOL    HW236747   4.575   4.485   4.907  0.0170 -1.0339  0.2154
 8371SOL     OW36748   2.089   1.751   8.848  0.0347 -0.0735  0.0816
 8371SOL    HW136749   2.178   1.784   8.863 -0.3216 -0.1069  2.2338
 8371SOL    HW236750   2.090   1.707   8.763  1.4418 -0.8100  0.4676
 8372SOL     OW36751   1.232   0.013   2.193  0.6295  0.0117 -0.1607
 8372SOL    HW136752   1.183   4.674   2.181  0.8455 -0.1119 -0.2136
 8372SOL    HW236753   1.315   4.724   2.158  0.9128  1.6349 -0.8964
 8373SOL     OW36754   2.931   0.654   6.243 -0.3097 -0.2239 -0.0007
 8373SOL    HW136755   2.880   0.727   6.208 -0.0334  0.2124  0.5012
 8373SOL    HW236756   2.954   0.600   6.167  1.4743  0.3569  0.1278
 8374SOL     OW36757   1.788   3.137   7.042 -0.3188  0.4897 -0.5257
 8374SOL    HW136758   1.862   3.135   7.103 -1.0377  0.0775  0.3304
 8374SOL    HW236759   1.791   3.053   6.996  0.5524  0.9882 -1.3779
 8375SOL     OW36760   0.342   0.157   9.267  0.0140 -0.5350  0.5239
 8375SOL    HW136761   0.354   0.252   9.267  0.1007 -0.5587 -2.2986
 8375SOL    HW236762   0.434   0.128   9.265  0.4636  0.9580 -0.6009
 8376SOL     OW36763   2.286   3.854  11.410  0.2341  0.3312 -0.0969
 8376SOL    HW136764   2.336   3.835  11.331 -0.0035  1.3248 -0.4799
 8376SOL    HW236765   2.358   3.883  11.466  0.1533  0.2560  0.0481
 8377SOL     OW36766   0.340   0.201   2.954  0.1866  0.1010  0.8211
 8377SOL    HW136767   0.413   0.263   2.959  0.5153 -0.2020 -0.3848
 8377SOL    HW236768   0.385   0.123   2.924  0.9253  0.7622  0.2310
 8378SOL     OW36769   2.541   3.356   2.983  0.1583  0.1644 -0.9222
 8378SOL    HW136770   2.564   3.266   3.007  1.2613  0.7441  0.1696
 8378SOL    HW236771   2.448   3.344   2.966  0.2029 -3.0295  1.0232
 8379SOL     OW36772   0.905   4.338  17.744 -0.5671 -0.5012 -0.6723
 8379SOL    HW136773   0.864   4.279   0.043 -1.1105  0.6093  0.0007
 8379SOL    HW236774   0.881   4.425   0.012 -0.5472  0.0264 -2.0276
 8380SOL     OW36775   2.745   0.873   8.156  0.5784 -0.1949  0.0956
 8380SOL    HW136776   2.655   0.847   8.133  1.5892 -3.4100 -0.2973
 8380SOL    HW236777   2.768   0.928   8.081  0.6656 -0.0909  0.1999
 8381SOL     OW36778   3.570   4.067   4.923 -0.0180 -0.6337  0.4492
 8381SOL    HW136779   3.586   3.980   4.960 -0.8101 -1.9284 -2.2836
 8381SOL    HW236780   3.566   4.118   5.004 -2.1817 -1.3687  0.8233
 8382SOL     OW36781   1.006   2.888   3.500 -0.0846 -0.1656  0.0518
 8382SOL    HW136782   1.025   2.959   3.560 -0.0367 -1.3778  1.4650
 8382SOL    HW236783   1.054   2.904   3.419  1.8526  1.2053  1.4832
 8383SOL     OW36784   1.339   3.110   7.911  0.2457  0.0098  0.7919
 8383SOL    HW136785   1.388   3.110   7.829 -2.0502  1.0269 -0.5816
 8383SOL    HW236786   1.306   3.020   7.909 -1.1769  0.5688 -0.9537
 8384SOL     OW36787   4.272   2.403   8.366  0.0700 -0.1420  0.4560
 8384SOL    HW136788   4.217   2.429   8.292 -1.0945  2.0876  2.1209
 8384SOL    HW236789   4.299   2.315   8.341 -0.0959 -0.1521  0.3053
 8385SOL     OW36790   2.937   0.456  11.451 -0.0745  0.1912  0.0583
 8385SOL    HW136791   2.980   0.533  11.413 -0.9859 -0.5588 -2.4421
 8385SOL    HW236792   2.951   0.477  11.543 -1.7271  0.6390  0.2049
 8386SOL     OW36793   3.954   0.267   8.557  0.3485  0.3313 -0.1049
 8386SOL    HW136794   4.030   0.214   8.581 -0.5564 -0.4805  0.9540
 8386SOL    HW236795   3.919   0.316   8.631  1.0025  0.7624 -0.0801
 8387SOL     OW36796   4.150   3.483   5.497  0.4203  0.0272  0.0809
 8387SOL    HW136797   4.080   3.423   5.525  0.3539  0.8310  1.6359
 8387SOL    HW236798   4.223   3.422   5.486  0.7934  0.4218  0.3884
 8388SOL     OW36799   3.474   4.608   5.159  0.3521 -0.4164 -0.0170
 8388SOL    HW136800   3.421   4.687   5.151  1.5464  0.2617 -1.4586
 8388SOL    HW236801   3.490   4.622   5.252  0.8235  0.0857 -0.1657
 8389SOL     OW36802   2.140   0.155   9.473 -0.4566  0.0747 -0.6995
 8389SOL    HW136803   2.093   0.122   9.397  0.2726 -0.4832 -0.9076
 8389SOL    HW236804   2.221   0.182   9.429  0.6159  0.8497  1.7506
 8390SOL     OW36805   2.407   3.304   4.349 -0.1041  0.1016 -0.1519
 8390SOL    HW136806   2.369   3.340   4.429 -1.4253  1.5613 -1.4435
 8390SOL    HW236807   2.480   3.262   4.395  0.8451  1.2791 -0.5828
 8391SOL     OW36808   0.050   4.161   1.887 -0.3980 -0.0563  0.1339
 8391SOL    HW136809   0.088   4.120   1.809  0.3314  0.3625  0.2682
 8391SOL    HW236810   0.070   4.251   1.862 -1.6576  0.3184  0.4994
 8392SOL     OW36811   3.199   4.527   8.566 -0.6828  0.1403 -0.2471
 8392SOL    HW136812   3.114   4.497   8.596 -0.9513 -1.2218 -2.3422
 8392SOL    HW236813   3.238   4.443   8.543 -0.4679  0.3225 -0.5482
 8393SOL     OW36814   1.468   0.929   5.056  0.2897 -0.4694  0.0332
 8393SOL    HW136815   1.536   0.995   5.041  1.2003 -1.5305 -0.5320
 8393SOL    HW236816   1.394   0.989   5.058  0.5955 -0.1646  1.6306
 8394SOL     OW36817   4.513   1.177   9.306  0.5801  0.1543  0.5190
 8394SOL    HW136818   4.428   1.176   9.351 -0.3066 -2.0562 -1.2083
 8394SOL    HW236819   4.503   1.102   9.248  1.6337 -0.1690  0.7590
 8395SOL     OW36820   1.305   3.960   1.885  0.2832 -0.2062 -0.3039
 8395SOL    HW136821   1.211   3.949   1.874  0.4146 -0.1905 -1.4470
 8395SOL    HW236822   1.329   3.869   1.868 -1.4607 -0.2648 -2.4544
 8396SOL     OW36823   3.575   4.464   3.723 -0.5955 -0.2137  0.9355
 8396SOL    HW136824   3.482   4.473   3.705 -0.4874 -0.7424  0.1181
 8396SOL    HW236825   3.594   4.462   3.817 -1.2777  0.5889  1.0918
 8397SOL     OW36826   2.475   2.482   1.020 -0.2148 -0.7858 -0.2184
 8397SOL    HW136827   2.517   2.494   0.935  0.0467 -1.2059 -0.1464
 8397SOL    HW236828   2.502   2.554   1.077  0.3594 -0.7865 -0.4869
 8398SOL     OW36829   4.156   2.240   0.192 -0.1211  0.4858  0.2828
 8398SOL    HW136830   4.170   2.236   0.287 -0.3544 -5.4411  0.0233
 8398SOL    HW236831   4.097   2.165   0.189  0.3533  0.1552 -0.7448
 8399SOL     OW36832   1.880   1.503   0.560  0.2561 -0.1941 -0.4662
 8399SOL    HW136833   1.966   1.528   0.527  0.8236 -2.3553 -0.6186
 8399SOL    HW236834   1.842   1.450   0.490 -0.3415 -0.8812  0.3714
 8400SOL     OW36835   4.605   4.123   3.823  0.8278 -0.4102 -0.0940
 8400SOL    HW136836   4.622   4.075   3.742  0.1437  0.9606 -1.0386
 8400SOL    HW236837   4.558   4.198   3.788  0.2534 -1.0640 -0.7310
 8401SOL     OW36838   3.915   1.376  14.831 -0.0061  0.0311 -0.1808
 8401SOL    HW136839   3.931   1.326  14.911 -0.9926  0.5129  0.3250
 8401SOL    HW236840   3.893   1.300  14.777  1.5663 -0.3488 -0.2754
 8402SOL     OW36841   4.584   0.448   2.339  0.0501  0.0681  0.5532
 8402SOL    HW136842   4.572   0.543   2.327 -1.7118 -0.2576 -0.3368
 8402SOL    HW236843   4.679   0.449   2.329  0.3243 -3.2337  3.1759
 8403SOL     OW36844   3.767   0.814   6.549  0.1646 -0.0696 -0.4762
 8403SOL    HW136845   3.722   0.881   6.497  3.0557  0.5100 -2.2428
 8403SOL    HW236846   3.857   0.835   6.524  0.1831  0.1111 -0.2657
 8404SOL     OW36847   0.552   0.216   8.223  0.0872  0.2489 -0.0466
 8404SOL    HW136848   0.596   0.288   8.177 -0.2976 -0.5568 -1.6759
 8404SOL    HW236849   0.470   0.265   8.217  0.0596  0.0340 -1.6107
 8405SOL     OW36850   2.883   2.211   3.813 -0.0680 -0.3716  0.1970
 8405SOL    HW136851   2.919   2.160   3.740 -0.8903 -1.5747  0.6199
 8405SOL    HW236852   2.859   2.136   3.868 -0.9661 -0.3465 -0.1568
 8406SOL     OW36853   3.581   1.592   3.288  0.3958  0.2019 -0.6118
 8406SOL    HW136854   3.562   1.517   3.232 -0.4566 -0.4067  0.5078
 8406SOL    HW236855   3.675   1.581   3.301  0.3580 -1.9306 -2.3013
 8407SOL     OW36856   2.531   3.380   1.430 -0.1070 -0.4313  0.0992
 8407SOL    HW136857   2.576   3.413   1.352  0.1927 -1.4628 -0.1607
 8407SOL    HW236858   2.577   3.424   1.501 -1.2754 -0.3368  0.7925
 8408SOL     OW36859   3.864   3.214   6.966  0.1080  0.5281 -0.0018
 8408SOL    HW136860   3.831   3.289   6.917 -0.1941  3.0924  4.1430
 8408SOL    HW236861   3.778   3.185   6.996 -1.1686  2.7582 -1.5646
 8409SOL     OW36862   3.638   4.546   8.701 -1.0028 -0.0522 -0.1681
 8409SOL    HW136863   3.586   4.624   8.719  0.0726  1.1421 -2.3175
 8409SOL    HW236864   3.726   4.581   8.713 -1.4628 -0.3750  4.2022
 8410SOL     OW36865   4.308   2.112  12.123 -0.4952 -0.5376 -0.3079
 8410SOL    HW136866   4.224   2.135  12.162 -0.9963  0.5132 -1.9921
 8410SOL    HW236867   4.360   2.192  12.129 -0.4843 -0.6063  0.4896
 8411SOL     OW36868   3.738   1.323  17.628 -0.0044  0.4052 -0.2654
 8411SOL    HW136869   3.710   1.249  17.682  1.3291 -0.0212 -0.1428
 8411SOL    HW236870   3.804   1.280  17.572 -0.9124 -0.0839 -0.9617
 8412SOL     OW36871   2.005   0.788  12.693  0.0213 -0.1795 -0.5881
 8412SOL    HW136872   1.933   0.814  12.752  0.2303 -1.8509  0.4006
 8412SOL    HW236873   2.023   0.718  12.756 -0.9147  0.9300  0.9340
 8413SOL     OW36874   4.211   2.882  15.309  0.0353  0.8284  0.5184
 8413SOL    HW136875   4.157   2.805  15.287  0.4483  0.4459  0.8463
 8413SOL    HW236876   4.286   2.865  15.252 -0.2263  1.8215 -0.1222
 8414SOL     OW36877   1.389   2.325   7.125  0.9027 -0.1405  0.7491
 8414SOL    HW136878   1.479   2.308   7.099  0.9005  2.0155 -0.6529
 8414SOL    HW236879   1.342   2.342   7.043 -0.1670  1.0388  1.6002
 8415SOL     OW36880   3.583   3.232   6.418 -0.2847  0.1931 -0.0536
 8415SOL    HW136881   3.530   3.184   6.481 -0.1717  2.0390  1.4362
 8415SOL    HW236882   3.618   3.298   6.478  1.5514  0.3499 -1.2989
 8416SOL     OW36883   3.472   3.330   5.866  0.7185  0.3349 -0.4860
 8416SOL    HW136884   3.384   3.340   5.831  0.2604  2.4924  1.2896
 8416SOL    HW236885   3.464   3.376   5.950  3.2468 -2.9253  1.5450
 8417SOL     OW36886   1.879   3.079   4.197 -0.2575  0.2756  0.3454
 8417SOL    HW136887   1.822   3.117   4.263 -0.6877 -0.3199  0.3121
 8417SOL    HW236888   1.930   3.159   4.180 -0.5776  0.4630  0.2723
 8418SOL     OW36889   3.879   4.104   8.478  0.1860  0.2421 -0.1753
 8418SOL    HW136890   3.970   4.125   8.458  0.1442 -0.6317 -1.2709
 8418SOL    HW236891   3.832   4.178   8.439  2.7473  1.9460  0.0176
 8419SOL     OW36892   4.535   1.422   6.078  0.0291  0.7576 -0.5387
 8419SOL    HW136893   4.581   1.403   6.160  0.1225 -0.0742 -0.7834
 8419SOL    HW236894   4.607   1.415   6.015  0.5124  1.6015 -0.0878
 8420SOL     OW36895   3.856   4.358   7.797 -0.0037 -0.4116  0.2692
 8420SOL    HW136896   3.952   4.361   7.791 -0.0630  1.2776  0.1501
 8420SOL    HW236897   3.841   4.323   7.885  0.6135  1.0836  0.9639
 8421SOL     OW36898   2.154   3.641   0.562  0.3045  0.2723  0.2040
 8421SOL    HW136899   2.154   3.695   0.642  0.7414  1.0012 -0.2927
 8421SOL    HW236900   2.213   3.569   0.584  0.6293 -0.1594 -2.1639
 8422SOL     OW36901   4.150   4.340   9.712  1.0341  0.1901  0.8675
 8422SOL    HW136902   4.126   4.252   9.743  0.6754  0.3478  1.0410
 8422SOL    HW236903   4.233   4.352   9.758  1.9650  1.8938 -1.2588
 8423SOL     OW36904   4.226   0.929   5.691  0.0460 -0.3468  0.4681
 8423SOL    HW136905   4.198   0.898   5.604  0.1414 -0.1152  0.3544
 8423SOL    HW236906   4.315   0.894   5.695  0.2836  0.5689  2.7976
 8424SOL     OW36907   4.060   2.887   8.634  0.7521  1.0155 -0.5853
 8424SOL    HW136908   4.030   2.912   8.547 -1.8153 -3.0072 -0.7959
 8424SOL    HW236909   4.015   2.803   8.636  1.0961  0.8767  1.6297
 8425SOL     OW36910   3.618   0.355  17.671 -0.3635  0.0568  0.6608
 8425SOL    HW136911   3.636   0.327  17.761 -0.5553  2.4998  1.4669
 8425SOL    HW236912   3.529   0.389  17.684 -0.1099  0.2911  1.8009
 8426SOL     OW36913   0.738   3.541  15.503  0.6319 -0.3086 -0.0307
 8426SOL    HW136914   0.789   3.621  15.497  1.3964 -0.8813 -1.0938
 8426SOL    HW236915   0.736   3.530  15.598  3.5834 -1.7026 -0.1627
 8427SOL     OW36916   0.133   3.793   1.897 -0.3560 -0.6829 -0.3928
 8427SOL    HW136917   0.089   3.752   1.971 -0.1967  1.0746  0.6703
 8427SOL    HW236918   0.068   3.809   1.829 -2.0507 -4.0028  0.4757
 8428SOL     OW36919   0.628   2.281   2.971  0.4745 -0.3899 -0.1167
 8428SOL    HW136920   0.593   2.369   2.978  1.4768 -0.1012  1.1655
 8428SOL    HW236921   0.684   2.279   3.048  1.5809  2.5416 -0.8309
 8429SOL     OW36922   2.279   0.522   3.579 -0.0963  0.8665 -0.0197
 8429SOL    HW136923   2.187   0.545   3.572  0.1732  1.3374 -1.9516
 8429SOL    HW236924   2.295   0.528   3.673 -3.5124  0.7625  0.5690
 8430SOL     OW36925   3.362   1.518   9.736 -0.3110 -0.8699 -0.3579
 8430SOL    HW136926   3.378   1.585   9.803 -0.8151  0.2633 -1.3722
 8430SOL    HW236927   3.398   1.549   9.653 -1.2512  1.2387  0.0161
 8431SOL     OW36928   3.452   0.585  13.811  0.7918 -0.4041  0.4929
 8431SOL    HW136929   3.440   0.578  13.717 -1.7363 -0.8946  0.8564
 8431SOL    HW236930   3.405   0.666  13.827  1.1167 -0.0078 -0.5664
 8432SOL     OW36931   1.016   0.337   0.220 -0.0242  0.0253  0.0284
 8432SOL    HW136932   1.022   0.396   0.145  0.1386  2.1014  1.6576
 8432SOL    HW236933   1.091   0.280   0.203 -0.3438  0.0675 -1.4417
 8433SOL     OW36934   4.617   3.269   7.791  0.6243  0.6679 -0.2357
 8433SOL    HW136935   4.612   3.256   7.885 -0.0536 -1.2148 -0.5407
 8433SOL    HW236936   4.647   3.185   7.757 -1.6500 -0.4128  0.4361
 8434SOL     OW36937   3.902   2.076   8.419 -0.2335  0.0271 -0.2124
 8434SOL    HW136938   3.962   2.002   8.426 -1.8149 -1.3700 -1.4772
 8434SOL    HW236939   3.820   2.026   8.411  0.1539 -0.2031 -2.5612
 8435SOL     OW36940   1.643   3.658   6.402 -0.4672 -0.0759  0.3362
 8435SOL    HW136941   1.549   3.675   6.404 -0.8170 -1.9587  0.2111
 8435SOL    HW236942   1.658   3.607   6.322  1.2292  1.9740 -0.6251
 8436SOL     OW36943   4.163   3.497  12.416  0.5005 -0.2059 -0.1837
 8436SOL    HW136944   4.095   3.444  12.375  0.2823 -0.5508  0.6422
 8436SOL    HW236945   4.129   3.581  12.384 -1.8979 -0.9905  0.3492
 8437SOL     OW36946   4.017   2.367   8.909 -0.0610  0.2210 -0.1829
 8437SOL    HW136947   4.032   2.282   8.868 -0.3946  0.6019 -1.0972
 8437SOL    HW236948   3.955   2.342   8.977 -0.0989  0.2309 -0.2143
 8438SOL     OW36949   2.138   3.033   4.915  0.0514 -0.4948  1.0468
 8438SOL    HW136950   2.225   3.022   4.955  1.3187  1.6424 -1.1392
 8438SOL    HW236951   2.157   3.078   4.833 -2.8177 -2.2066 -0.5592
 8439SOL     OW36952   4.574   4.461  12.652 -0.1446 -0.0870  0.1654
 8439SOL    HW136953   4.526   4.382  12.675 -0.8784 -0.1997 -1.7514
 8439SOL    HW236954   4.525   4.527  12.700  0.7338 -2.5649  4.4751
 8440SOL     OW36955   1.498   2.186  16.970 -0.5931  0.1553  0.1098
 8440SOL    HW136956   1.526   2.278  16.969  1.3491 -0.4485  0.7376
 8440SOL    HW236957   1.528   2.150  16.886 -0.6584 -2.9382  1.4357
 8441SOL     OW36958   2.632   3.226  14.706 -0.6508 -0.6910 -0.4099
 8441SOL    HW136959   2.692   3.153  14.723 -2.7476 -2.2307  0.3554
 8441SOL    HW236960   2.631   3.229  14.611  1.8874  0.1327 -0.4062
 8442SOL     OW36961   3.779   2.653   2.823  0.2873 -0.1014 -0.3159
 8442SOL    HW136962   3.715   2.628   2.756 -0.1986 -0.5183  0.3029
 8442SOL    HW236963   3.818   2.568   2.843  2.7668  1.1698  0.1877
 8443SOL     OW36964   3.336   4.330   9.340  0.2760 -0.6180 -0.1280
 8443SOL    HW136965   3.324   4.243   9.303 -2.0081 -0.1252 -0.5659
 8443SOL    HW236966   3.362   4.384   9.266 -0.4869 -0.2879 -0.1605
 8444SOL     OW36967   4.375   2.274   3.003  0.5248 -0.1090  0.1307
 8444SOL    HW136968   4.409   2.346   2.949  1.0194 -2.6163 -2.9028
 8444SOL    HW236969   4.345   2.320   3.082 -2.6385  1.7983 -2.1787
 8445SOL     OW36970   1.552   3.511   6.200  0.4364  0.0678  0.4750
 8445SOL    HW136971   1.538   3.516   6.105  0.2959  2.9512  0.6749
 8445SOL    HW236972   1.568   3.418   6.219 -1.0674  0.0560  1.6953
 8446SOL     OW36973   0.985   4.522  15.383 -0.2272  0.3008 -0.0853
 8446SOL    HW136974   0.921   4.529  15.453 -1.6393 -0.5705 -1.2965
 8446SOL    HW236975   0.956   4.444  15.336 -1.5864  1.4801 -1.1908
 8447SOL     OW36976   1.591   1.498  16.278  0.7029  0.0167  0.4002
 8447SOL    HW136977   1.649   1.466  16.209  1.0855  1.1794  0.1956
 8447SOL    HW236978   1.641   1.573  16.310  0.1655  0.8890 -0.8122
 8448SOL     OW36979   4.556   4.499  10.503 -0.3178 -0.2792 -0.6080
 8448SOL    HW136980   4.543   4.505  10.408 -0.2429 -1.5693 -0.6969
 8448SOL    HW236981   4.648   4.523  10.515 -0.2103 -1.7119  1.4378
 8449SOL     OW36982   1.622   3.850   2.693  0.1919  0.0870  0.0215
 8449SOL    HW136983   1.704   3.825   2.735  0.8706  1.0554 -0.7182
 8449SOL    HW236984   1.615   3.804   2.610 -1.8430  1.2216 -0.4436
 8450SOL     OW36985   0.147   2.440   4.981  0.8313  0.1984 -0.2094
 8450SOL    HW136986   0.073   2.492   5.012  2.2703  2.9300 -1.3644
 8450SOL    HW236987   0.206   2.507   4.947  0.9569 -0.2966 -0.9610
 8451SOL     OW36988   0.743   2.662   9.955 -0.2223 -0.4031  0.0763
 8451SOL    HW136989   0.803   2.682   9.883  0.4687 -1.5728  0.3190
 8451SOL    HW236990   0.747   2.567   9.941  0.7167 -0.4895  0.8882
 8452SOL     OW36991   2.267   1.378   5.224 -0.3648  0.0928  0.1219
 8452SOL    HW136992   2.188   1.324   5.233  0.2200 -0.3189  2.7265
 8452SOL    HW236993   2.337   1.312   5.225 -1.0674 -0.6781 -1.2311
 8453SOL     OW36994   4.117   4.062   5.257  0.2115 -0.0835 -0.3769
 8453SOL    HW136995   4.107   4.030   5.168  1.0889 -1.6824  0.1099
 8453SOL    HW236996   4.023   4.059   5.274  0.4833  0.0337  1.1810
 8454SOL     OW36997   1.193   1.735   8.143 -0.2938  0.6180 -0.2152
 8454SOL    HW136998   1.106   1.697   8.154 -0.9913  1.9580 -1.1943
 8454SOL    HW236999   1.189   1.744   8.048  1.6427  1.6544 -0.2064
 8455SOL     OW37000   3.884   1.412   5.144  0.5181  0.0072 -0.0180
 8455SOL    HW137001   3.908   1.503   5.159  1.6799 -0.7345  2.6710
 8455SOL    HW237002   3.881   1.400   5.049 -0.7071 -2.3808  0.3165
 8456SOL     OW37003   4.435   4.629  14.596 -0.1468  0.1093 -0.2898
 8456SOL    HW137004   4.397   4.674  14.671 -0.7142 -0.4762 -0.2327
 8456SOL    HW237005   4.529   4.649  14.603 -0.9186  3.0751  1.3106
 8457SOL     OW37006   1.148   2.969   9.664  0.1166 -0.7083  0.5234
 8457SOL    HW137007   1.068   2.918   9.678 -0.4241 -0.4739 -1.7549
 8457SOL    HW237008   1.201   2.912   9.720 -0.9660 -1.7580  0.4766
 8458SOL     OW37009   2.758   2.506  12.041 -0.7922  0.6207 -0.0553
 8458SOL    HW137010   2.744   2.553  12.123 -0.4443 -1.5111  1.2269
 8458SOL    HW237011   2.849   2.531  12.022 -1.1820  1.5523 -0.6803
 8459SOL     OW37012   2.907   4.049   8.931  0.3426 -0.4130  0.4873
 8459SOL    HW137013   2.870   3.962   8.917 -0.4271  0.2201 -1.3416
 8459SOL    HW237014   2.931   4.048   9.024  1.0013 -4.3798  0.2928
 8460SOL     OW37015   1.811   3.234   6.772  0.4245 -0.0968  0.2118
 8460SOL    HW137016   1.869   3.173   6.726 -0.9266 -1.1644 -0.0519
 8460SOL    HW237017   1.827   3.219   6.865  1.5536 -0.4885 -0.0472
 8461SOL     OW37018   3.214   3.582   4.005  0.6111 -0.5200 -0.2832
 8461SOL    HW137019   3.222   3.512   3.940  0.0601 -0.5744 -0.2954
 8461SOL    HW237020   3.168   3.525   4.067  0.0363 -0.4726 -0.6654
 8462SOL     OW37021   2.702   1.535   4.801  0.5452 -0.3151 -0.0098
 8462SOL    HW137022   2.797   1.546   4.790  0.4379  2.5487  2.0945
 8462SOL    HW237023   2.669   1.624   4.791  0.5118 -0.3747 -0.4274
 8463SOL     OW37024   3.702   2.819   2.495  0.6033  0.8198 -0.4571
 8463SOL    HW137025   3.664   2.898   2.535  0.9007 -0.8981  3.2465
 8463SOL    HW237026   3.623   2.769   2.473  1.2855 -1.3278  2.0207
 8464SOL     OW37027   4.682   3.826   1.704  0.0711 -0.3489 -0.6431
 8464SOL    HW137028   4.664   3.735   1.679 -1.0667  0.5137 -3.0102
 8464SOL    HW237029   4.658   3.872   1.624  1.3673  0.0046 -0.8320
 8465SOL     OW37030   3.420   3.296   3.121  0.3099  0.1774  0.0194
 8465SOL    HW137031   3.483   3.350   3.073  2.3753  0.4018  2.9963
 8465SOL    HW237032   3.342   3.282   3.068 -0.6551  0.7198  1.3225
 8466SOL     OW37033   3.929   0.260  13.666  0.1004  0.2928  0.1365
 8466SOL    HW137034   3.917   0.234  13.575  0.5353 -1.9880  0.7146
 8466SOL    HW237035   4.024   0.270  13.653  0.4564 -2.0949  0.7688
 8467SOL     OW37036   4.546   0.916   4.960  0.0284 -0.4077 -0.4283
 8467SOL    HW137037   4.608   0.989   4.956 -2.5715  1.6791 -2.2795
 8467SOL    HW237038   4.534   0.892   5.052 -1.1309  0.4233 -0.3705
 8468SOL     OW37039   2.918   2.726  12.088  0.2452  0.5326  0.9900
 8468SOL    HW137040   3.001   2.767  12.114  1.4126 -1.5329  0.5191
 8468SOL    HW237041   2.893   2.774  12.009  0.0889  0.4726  1.0033
 8469SOL     OW37042   3.148   1.213  17.025  0.5857 -0.1257 -0.1207
 8469SOL    HW137043   3.193   1.146  16.974  3.2856  1.2246  0.5018
 8469SOL    HW237044   3.067   1.218  16.974  1.5353  1.2688 -1.5182
 8470SOL     OW37045   3.543   4.111   3.715  0.0050 -0.5525  0.1498
 8470SOL    HW137046   3.465   4.087   3.765 -1.3195 -0.2564 -1.7776
 8470SOL    HW237047   3.499   4.177   3.663 -1.0889 -1.3333  0.0892
 8471SOL     OW37048   4.080   1.462   9.885  0.2470 -0.0884  0.6985
 8471SOL    HW137049   4.026   1.414   9.822  0.5335  3.6974 -2.4173
 8471SOL    HW237050   4.093   1.549   9.847 -1.3619 -0.9209 -1.7462
 8472SOL     OW37051   2.095   2.718  17.322  0.6845 -0.3310 -0.4228
 8472SOL    HW137052   2.152   2.787  17.289  1.1679 -0.4611  0.1298
 8472SOL    HW237053   2.121   2.645  17.265 -1.6818 -3.0770  1.9730
 8473SOL     OW37054   3.217   0.395   3.975 -0.1969 -0.7083  0.0198
 8473SOL    HW137055   3.143   0.349   4.013 -1.8745  1.3628 -0.7679
 8473SOL    HW237056   3.232   0.465   4.039 -2.3544 -1.3538  1.1971
 8474SOL     OW37057   4.166   3.676   2.385  0.0992 -0.2277  0.2632
 8474SOL    HW137058   4.088   3.670   2.331 -0.3420 -1.3471  1.0184
 8474SOL    HW237059   4.126   3.713   2.464  3.5652  3.3313  0.3785
 8475SOL     OW37060   2.039   0.814   4.342 -0.4409  0.3467 -0.1912
 8475SOL    HW137061   1.981   0.857   4.279 -0.6572  0.9416  0.4091
 8475SOL    HW237062   1.977   0.768   4.397  0.5489 -1.0033 -0.1961
 8476SOL     OW37063   1.881   1.503   4.619 -0.1502 -0.7720 -0.7915
 8476SOL    HW137064   1.949   1.539   4.562 -2.2331  1.4329 -1.8756
 8476SOL    HW237065   1.842   1.442   4.555 -0.9900 -0.1767 -0.8475
 8477SOL     OW37066   4.623   2.727   5.820 -0.8589  0.5732 -0.7262
 8477SOL    HW137067   4.581   2.791   5.879  0.1413 -0.2686  0.8954
 8477SOL    HW237068   4.705   2.719   5.870 -0.4056 -0.8271 -1.7028
 8478SOL     OW37069   1.824   4.401  10.308 -0.8313 -0.2127 -0.0794
 8478SOL    HW137070   1.736   4.380  10.275 -1.4127  2.2203 -0.0716
 8478SOL    HW237071   1.869   4.318  10.319  3.2775  2.0814  0.3459
 8479SOL     OW37072   4.094   2.070   6.926  0.2558  0.4081  0.2595
 8479SOL    HW137073   4.052   2.155   6.934  1.3515  1.1373 -1.6563
 8479SOL    HW237074   4.028   2.012   6.964  1.1750  0.1720  1.5190
 8480SOL     OW37075   0.149   4.733   9.424 -0.4063 -0.3924 -0.3364
 8480SOL    HW137076   0.094   4.658   9.402 -1.5652  0.1742  0.6161
 8480SOL    HW237077   0.192   4.740   9.339  1.1770 -0.4434  0.4575
 8481SOL     OW37078   2.691   2.166   2.442  0.1736 -0.1169  0.3839
 8481SOL    HW137079   2.781   2.174   2.476 -0.6163  0.2557  2.3923
 8481SOL    HW237080   2.686   2.071   2.438 -1.8263  0.0961 -1.8103
 8482SOL     OW37081   1.973   2.840  16.617 -0.0462 -0.1339 -0.3906
 8482SOL    HW137082   1.949   2.812  16.705 -0.6642 -0.7336 -0.7429
 8482SOL    HW237083   1.969   2.935  16.623 -2.3897 -0.1987 -0.8636
 8483SOL     OW37084   0.496   4.233   5.203  0.0480 -0.0395  0.3575
 8483SOL    HW137085   0.466   4.323   5.216  1.4969  0.3173  1.2270
 8483SOL    HW237086   0.534   4.238   5.116 -0.3652 -1.1121  0.1162
 8484SOL     OW37087   1.468   0.160   8.486  0.1291 -0.2215  0.2484
 8484SOL    HW137088   1.533   0.200   8.543 -0.2869  1.1014 -0.2098
 8484SOL    HW237089   1.411   0.115   8.549  1.2528 -1.2502  0.5291
 8485SOL     OW37090   2.031   1.978   3.398  0.1549  0.0356  0.2761
 8485SOL    HW137091   2.057   1.886   3.401 -1.8799 -0.5836 -1.7879
 8485SOL    HW237092   2.117   2.008   3.429 -0.2189  0.4852  0.8685
 8486SOL     OW37093   2.800   1.843  11.161 -0.2248 -0.4234 -0.1859
 8486SOL    HW137094   2.886   1.807  11.139  0.7790  1.1583  1.1380
 8486SOL    HW237095   2.813   1.887  11.245  2.4561 -2.0421  0.2257
 8487SOL     OW37096   1.181   1.585   6.620  0.4501 -0.3881 -0.5056
 8487SOL    HW137097   1.112   1.543   6.569  1.0779  0.8248 -2.3413
 8487SOL    HW237098   1.216   1.510   6.667  1.8521  1.0642  0.7590
 8488SOL     OW37099   3.754   0.908   9.059 -0.3523  0.3480  0.1659
 8488SOL    HW137100   3.682   0.856   9.023  0.5729 -0.5536 -0.3727
 8488SOL    HW237101   3.823   0.842   9.056 -1.0840 -0.4981  1.8037
 8489SOL     OW37102   2.898   2.777  14.714 -0.0880  0.0709 -0.1652
 8489SOL    HW137103   2.845   2.699  14.699  1.6503 -0.7102 -2.1819
 8489SOL    HW237104   2.984   2.736  14.716  0.8299  1.9598 -0.1024
 8490SOL     OW37105   3.397   1.612   5.998 -0.5028  0.1695 -0.1765
 8490SOL    HW137106   3.395   1.658   5.914  2.8709  1.8506  0.6819
 8490SOL    HW237107   3.391   1.683   6.063 -0.0671 -1.0126  1.1478
 8491SOL     OW37108   1.793   0.306   0.690 -0.2313 -0.2988 -0.0335
 8491SOL    HW137109   1.759   0.217   0.698  0.6040 -0.5969  0.2433
 8491SOL    HW237110   1.717   0.353   0.657 -1.2221 -1.4349  0.6384
 8492SOL     OW37111   0.689   3.625   2.258 -0.1006 -0.2760  0.5802
 8492SOL    HW137112   0.689   3.600   2.166  0.4760 -0.3684  0.6077
 8492SOL    HW237113   0.725   3.544   2.294  2.2513 -0.0168 -1.1890
 8493SOL     OW37114   1.580   1.404   6.427 -0.0231 -0.2035  0.1567
 8493SOL    HW137115   1.674   1.415   6.407 -0.0290  1.7181  1.2516
 8493SOL    HW237116   1.577   1.311   6.404 -1.4657  0.0234 -0.5918
 8494SOL     OW37117   4.657   4.290   6.841 -0.2568  0.2300  0.0885
 8494SOL    HW137118   4.649   4.202   6.878 -2.9106  0.7553  0.7750
 8494SOL    HW237119   4.642   4.276   6.747 -1.9388  1.6225  0.1538
 8495SOL     OW37120   2.783   4.488  12.858  0.6376 -0.1860  0.2495
 8495SOL    HW137121   2.805   4.546  12.786  2.0369 -2.7771 -1.4050
 8495SOL    HW237122   2.786   4.403  12.814  2.3698  0.9732 -1.8297
 8496SOL     OW37123   4.225   2.926   2.559 -0.7675  0.0808 -0.3275
 8496SOL    HW137124   4.166   2.958   2.627 -0.2944 -0.1032  0.1684
 8496SOL    HW237125   4.311   2.940   2.598  0.9586 -2.6149 -3.1966
 8497SOL     OW37126   1.947   1.677   4.217  0.1804 -0.0277 -0.5108
 8497SOL    HW137127   1.871   1.641   4.172  0.5473 -2.2880  0.6743
 8497SOL    HW237128   1.998   1.598   4.233 -0.4846 -0.8088 -2.2767
 8498SOL     OW37129   0.117   2.486   1.750  0.6789 -0.1717  0.2187
 8498SOL    HW137130   0.116   2.392   1.767  0.8834 -0.2539 -0.2447
 8498SOL    HW237131   0.189   2.518   1.804  0.7598  2.0001 -1.1835
 8499SOL     OW37132   1.555   3.209   8.874  0.1179 -0.9580  0.5684
 8499SOL    HW137133   1.568   3.303   8.860 -3.2046 -0.9110 -2.1830
 8499SOL    HW237134   1.461   3.201   8.890 -0.5734  2.6446 -1.5245
 8500SOL     OW37135   0.556   3.132   2.939  0.5186  0.0491 -0.4710
 8500SOL    HW137136   0.470   3.136   2.982  0.5726  0.7064 -0.4226
 8500SOL    HW237137   0.560   3.227   2.933 -1.0393  0.3890  3.7751
 8501SOL     OW37138   2.893   0.434   5.530  0.3248 -0.2049 -0.6172
 8501SOL    HW137139   2.957   0.505   5.540 -0.6801  0.1244  3.6153
 8501SOL    HW237140   2.923   0.376   5.600 -0.5292 -0.1661 -0.2206
 8502SOL     OW37141   0.377   1.926   3.926 -0.0673  0.0654  0.3031
 8502SOL    HW137142   0.359   2.020   3.931  1.4800  0.3157  1.0917
 8502SOL    HW237143   0.359   1.909   3.833  0.7570 -0.9777  0.3321
 8503SOL     OW37144   0.510   3.000   5.774  0.1319 -0.6974 -0.5958
 8503SOL    HW137145   0.564   2.964   5.704 -1.0019  0.7572 -2.2200
 8503SOL    HW237146   0.452   2.927   5.793  1.1423 -1.2627  0.3447
 8504SOL     OW37147   2.245   3.500  13.536  0.0656  0.2464  0.0364
 8504SOL    HW137148   2.162   3.495  13.489 -1.0924 -2.8733  2.4016
 8504SOL    HW237149   2.261   3.414  13.575  0.0866 -0.6156 -1.8654
 8505SOL     OW37150   2.996   0.674   3.998 -0.5494 -0.3040 -0.1672
 8505SOL    HW137151   3.078   0.628   4.017 -0.1571  1.2069  1.7771
 8505SOL    HW237152   3.021   0.764   4.017  2.5450 -0.7401 -2.2213
 8506SOL     OW37153   3.827   2.831  16.589  0.1912  0.1607 -0.1839
 8506SOL    HW137154   3.856   2.797  16.674 -0.2692  1.5460  0.5216
 8506SOL    HW237155   3.840   2.757  16.530 -0.8935  0.4098 -0.7226
 8507SOL     OW37156   1.138   1.060   8.812 -0.1904 -0.1602 -0.7403
 8507SOL    HW137157   1.048   1.029   8.806 -0.7565  0.2993  5.4259
 8507SOL    HW237158   1.163   1.027   8.898 -1.2099 -1.4252 -0.9243
 8508SOL     OW37159   4.307   3.631   0.886  0.3670  0.0788 -0.2127
 8508SOL    HW137160   4.225   3.605   0.929 -1.6262 -0.4627 -4.3691
 8508SOL    HW237161   4.287   3.667   0.799  0.8473  0.7577 -0.0435
 8509SOL     OW37162   4.115   2.652   4.765  0.2528 -0.0440 -0.1396
 8509SOL    HW137163   4.151   2.660   4.853  1.0362  0.5153 -0.5162
 8509SOL    HW237164   4.189   2.624   4.711  0.6549  1.1203 -0.1716
 8510SOL     OW37165   4.119   2.870   6.775 -0.4180  0.5850 -0.0024
 8510SOL    HW137166   4.064   2.847   6.850 -1.4622  0.9209 -0.6675
 8510SOL    HW237167   4.202   2.861   6.822  0.0350  1.2107 -0.6965
 8511SOL     OW37168   1.360   2.329   1.246 -0.3429 -0.3228 -0.1128
 8511SOL    HW137169   1.372   2.307   1.338  1.5752 -0.4477 -0.3920
 8511SOL    HW237170   1.433   2.390   1.238 -0.6710  0.1633  0.6072
 8512SOL     OW37171   2.768   2.784   4.102 -0.2660 -0.1906  0.6141
 8512SOL    HW137172   2.802   2.827   4.023  2.0314 -0.1565  1.6308
 8512SOL    HW237173   2.726   2.705   4.065 -0.6621  0.6081 -0.6330
 8513SOL     OW37174   4.586   2.530   9.284  0.2142  0.6177  0.2678
 8513SOL    HW137175   4.668   2.580   9.288  0.8667 -0.4047 -0.3484
 8513SOL    HW237176   4.545   2.557   9.202 -1.2396  0.6939  1.0189
 8514SOL     OW37177   4.488   1.476  14.628 -0.1372 -0.0965 -0.0383
 8514SOL    HW137178   4.494   1.397  14.573  0.5144 -0.1109  0.0474
 8514SOL    HW237179   4.404   1.465  14.672 -1.0511 -0.6303 -1.9270
 8515SOL     OW37180   2.966   3.570   8.307  0.4776  0.2551  0.0140
 8515SOL    HW137181   2.976   3.651   8.255 -1.7322 -0.6398 -1.7895
 8515SOL    HW237182   2.920   3.590   8.388 -1.3583 -1.6350 -0.5635
 8516SOL     OW37183   0.635   2.713   4.584 -0.4979  0.3117 -0.0357
 8516SOL    HW137184   0.722   2.693   4.619 -0.3868  3.6198  1.5558
 8516SOL    HW237185   0.572   2.663   4.635  0.5516  0.0764  1.0262
 8517SOL     OW37186   1.112   0.807   9.379 -0.1621 -0.3746  0.1669
 8517SOL    HW137187   1.029   0.799   9.333  0.0948  0.8918 -0.5234
 8517SOL    HW237188   1.186   0.812   9.318 -1.8765 -1.2480 -1.9655
 8518SOL     OW37189   4.237   1.377  16.528 -0.7501  0.1717  0.5197
 8518SOL    HW137190   4.157   1.429  16.542 -0.8137  0.1806  0.1421
 8518SOL    HW237191   4.273   1.432  16.458 -2.9704 -1.3150 -1.7988
 8519SOL     OW37192   1.826   0.148  17.723  0.1945  0.1416 -0.0615
 8519SOL    HW137193   1.850   0.079   0.019  0.5457  1.4954  1.3207
 8519SOL    HW237194   1.856   0.113  17.639  0.0866  0.2862 -0.1607
 8520SOL     OW37195   3.331   1.741   5.750 -0.0203  0.5366  0.2956
 8520SOL    HW137196   3.300   1.736   5.660 -3.8630 -1.3529  1.7520
 8520SOL    HW237197   3.419   1.777   5.738 -0.0444  0.5063  0.0384
 8521SOL     OW37198   1.770   2.748   9.333  0.3065 -0.0040 -0.0548
 8521SOL    HW137199   1.810   2.677   9.383 -1.3472 -1.7922 -1.2840
 8521SOL    HW237200   1.737   2.700   9.257  0.7402  0.8870 -0.8026
 8522SOL     OW37201   3.542   1.455   5.677  0.6910  0.2364 -0.4165
 8522SOL    HW137202   3.449   1.478   5.675  0.5916 -0.4273 -3.2564
 8522SOL    HW237203   3.556   1.399   5.601 -1.8934  0.8589 -1.3477
 8523SOL     OW37204   2.204   0.377   8.884  0.1002 -0.1710  0.3309
 8523SOL    HW137205   2.272   0.384   8.951  0.0945  0.5119  0.2665
 8523SOL    HW237206   2.154   0.459   8.894  1.6583  1.0144 -1.4724
 8524SOL     OW37207   0.313   2.306  10.683  0.4378 -0.4135 -0.3341
 8524SOL    HW137208   0.290   2.292  10.774 -0.8295 -0.1985 -0.6258
 8524SOL    HW237209   0.344   2.219  10.657 -0.3634 -0.3137 -1.6452
 8525SOL     OW37210   3.930   3.598  17.317 -0.0149  0.0027  0.1299
 8525SOL    HW137211   3.895   3.648  17.243 -0.7281 -2.1709 -1.0105
 8525SOL    HW237212   3.851   3.545  17.333 -0.8516  1.3372  0.3889
 8526SOL     OW37213   1.547   4.306  12.218  0.3390  0.3343  0.1589
 8526SOL    HW137214   1.545   4.210  12.214  1.2741  0.2618  1.2979
 8526SOL    HW237215   1.512   4.321  12.306 -0.3280  1.5991 -0.3183
 8527SOL     OW37216   1.185   3.205  10.180 -0.2094 -0.7505 -0.1400
 8527SOL    HW137217   1.144   3.198  10.094 -2.9512 -1.2464  1.2091
 8527SOL    HW237218   1.265   3.157  10.162 -0.5654 -1.4937  0.2851
 8528SOL     OW37219   4.054   0.476   8.429 -0.0511 -0.3101 -0.1110
 8528SOL    HW137220   4.006   0.403   8.469 -2.6112  1.5364  0.1364
 8528SOL    HW237221   4.135   0.474   8.480 -0.2316 -0.3290  0.1793
 8529SOL     OW37222   3.599   3.405   6.182 -0.6823  0.2303  0.6530
 8529SOL    HW137223   3.568   3.476   6.125 -0.8925 -1.4045 -1.2825
 8529SOL    HW237224   3.526   3.404   6.243 -1.8021  1.3703 -0.6663
 8530SOL     OW37225   1.550   4.331  10.244  0.4761  0.0261 -0.5496
 8530SOL    HW137226   1.530   4.254  10.189 -0.1694  0.5511 -1.0493
 8530SOL    HW237227   1.463   4.328  10.285  0.1490  1.9022 -1.1197
 8531SOL     OW37228   1.508   0.419  10.886  0.4649  0.1154 -0.6769
 8531SOL    HW137229   1.463   0.412  10.802 -0.7489  0.9332 -0.0933
 8531SOL    HW237230   1.597   0.434  10.853  0.6756  1.3514  0.4606
 8532SOL     OW37231   3.035   4.626   6.343  0.2961  0.2004  0.3590
 8532SOL    HW137232   2.981   4.679   6.285  0.5109 -0.8614 -0.8174
 8532SOL    HW237233   2.992   4.651   6.425 -0.6789  1.4899 -0.5569
 8533SOL     OW37234   1.634   2.134  11.126  0.2800 -0.1274 -0.4597
 8533SOL    HW137235   1.691   2.184  11.185  2.8607 -0.1905 -2.8813
 8533SOL    HW237236   1.635   2.173  11.039  0.8069  2.2953  0.6406
 8534SOL     OW37237   4.239   3.669   8.559 -0.4675  0.5945 -0.3852
 8534SOL    HW137238   4.194   3.752   8.542  0.6915  1.1704 -0.6880
 8534SOL    HW237239   4.228   3.627   8.474  0.1783 -1.1711  0.4009
 8535SOL     OW37240   3.752   4.683   3.817 -0.4634  0.2397 -0.2876
 8535SOL    HW137241   3.757   0.034   3.836  0.2047  0.7000 -2.7557
 8535SOL    HW237242   3.703   4.681   3.734  0.6246  0.1422 -0.9233
 8536SOL     OW37243   2.980   0.983   8.859  0.0192 -0.0405  0.3499
 8536SOL    HW137244   2.920   1.058   8.856 -1.0541 -0.9079  0.1251
 8536SOL    HW237245   2.920   0.912   8.839 -1.3217  0.1123  3.8291
 8537SOL     OW37246   3.551   4.689   8.353  0.3067 -0.0167 -0.2210
 8537SOL    HW137247   3.457   4.678   8.361  0.6613 -3.1819 -0.0912
 8537SOL    HW237248   3.565   0.013   8.421  0.0260  0.5653 -0.7346
 8538SOL     OW37249   2.188   0.185  17.262 -0.1241  0.1900 -0.0867
 8538SOL    HW137250   2.239   0.105  17.249  1.3038  1.3052 -1.2470
 8538SOL    HW237251   2.169   0.184  17.356 -2.5166  0.4005 -0.5633
 8539SOL     OW37252   4.322   2.231   5.191 -0.2853 -1.0132 -0.0131
 8539SOL    HW137253   4.310   2.144   5.154 -3.0278  0.1924 -1.9744
 8539SOL    HW237254   4.231   2.257   5.210 -0.6206 -0.9157 -1.7752
 8540SOL     OW37255   1.257   0.960  15.195  0.2126  0.2657 -0.4077
 8540SOL    HW137256   1.253   0.982  15.102  0.9089 -0.7488 -0.6794
 8540SOL    HW237257   1.220   0.872  15.197  2.8393 -0.8286 -0.2641
 8541SOL     OW37258   3.473   0.656   8.272  0.0864 -0.0376  0.3702
 8541SOL    HW137259   3.405   0.714   8.305 -1.2468  0.4702 -3.2590
 8541SOL    HW237260   3.432   0.571   8.286 -0.4846  0.3636  1.1467
 8542SOL     OW37261   2.911   2.904   6.610 -0.4302 -0.8924 -0.1992
 8542SOL    HW137262   2.882   2.831   6.665 -0.7306 -0.0271  0.7967
 8542SOL    HW237263   2.949   2.960   6.678 -0.1669 -1.3263  0.0116
 8543SOL     OW37264   0.949   4.663   5.169  0.1668  1.0201 -0.3818
 8543SOL    HW137265   0.866   4.705   5.148  0.1473 -0.0227 -2.4295
 8543SOL    HW237266   1.010   4.714   5.116  0.4336 -0.5727 -1.6268
 8544SOL     OW37267   0.859   1.073   8.986 -0.0337  0.0268 -0.3611
 8544SOL    HW137268   0.822   0.986   8.976 -1.4628  0.0929  4.0623
 8544SOL    HW237269   0.823   1.119   8.910 -0.3306 -3.1347 -2.0944
 8545SOL     OW37270   1.060   3.905   8.180 -0.4183 -0.2790  0.4274
 8545SOL    HW137271   1.025   3.959   8.251 -1.6957  1.0631 -1.2409
 8545SOL    HW237272   0.992   3.837   8.180 -0.3129 -0.3778 -0.4824
 8546SOL     OW37273   0.448   1.315  11.793 -0.7045 -0.4147  0.4864
 8546SOL    HW137274   0.459   1.351  11.705  2.4380 -0.7924  0.7019
 8546SOL    HW237275   0.369   1.354  11.829 -1.5141 -0.7854 -0.9399
 8547SOL     OW37276   1.497   1.926   1.936 -0.2378 -0.2342 -0.4964
 8547SOL    HW137277   1.445   1.847   1.922 -0.2686 -0.3924  0.5311
 8547SOL    HW237278   1.552   1.933   1.857  0.5549 -1.6450 -0.0691
 8548SOL     OW37279   1.485   2.740   8.636  0.0114  0.2612  0.5842
 8548SOL    HW137280   1.551   2.686   8.678  1.0804 -1.4305 -3.2816
 8548SOL    HW237281   1.405   2.701   8.673 -1.6165  0.7686 -2.3697
 8549SOL     OW37282   3.794   0.127   3.061 -0.0734  0.0482 -0.5181
 8549SOL    HW137283   3.874   0.149   3.014  0.1670 -2.2289 -1.1866
 8549SOL    HW237284   3.735   0.191   3.021  1.2385 -0.3603 -3.1332
 8550SOL     OW37285   3.265   4.451   5.537 -0.0937 -0.0898  0.3073
 8550SOL    HW137286   3.205   4.471   5.609  1.7540 -1.3548  2.2180
 8550SOL    HW237287   3.266   4.355   5.546 -0.5190 -0.1697 -0.4675
 8551SOL     OW37288   1.670   1.823  12.337  0.3788  0.3403 -0.0412
 8551SOL    HW137289   1.647   1.835  12.429 -0.2535  1.3539 -0.3344
 8551SOL    HW237290   1.669   1.727  12.328  2.9365  0.2197  0.8769
 8552SOL     OW37291   3.785   3.078   5.743  0.4805  0.0400  0.9277
 8552SOL    HW137292   3.777   3.172   5.728  1.5201 -0.1295 -0.6438
 8552SOL    HW237293   3.698   3.043   5.727  0.9825 -0.3987 -0.8351
 8553SOL     OW37294   0.562   2.169   5.056 -0.2031  0.1897  0.2350
 8553SOL    HW137295   0.550   2.264   5.052  1.9351  0.5403  2.0727
 8553SOL    HW237296   0.648   2.162   5.015  0.7263  0.2819  2.1387
 8554SOL     OW37297   3.715   4.409   3.487 -0.5388 -0.1042  0.0208
 8554SOL    HW137298   3.664   4.436   3.564  0.0652  0.5480  0.1903
 8554SOL    HW237299   3.802   4.394   3.522  0.1786 -0.6429 -1.9841
 8555SOL     OW37300   4.740   1.351   6.261  0.2608  0.4634  0.5506
 8555SOL    HW137301   0.042   1.420   6.309  1.3446 -1.4509  2.2977
 8555SOL    HW237302   4.677   1.312   6.321 -0.8267  0.7994 -0.3723
 8556SOL     OW37303   2.107   3.207   9.364  0.3821 -0.0889 -0.3251
 8556SOL    HW137304   2.012   3.214   9.372  0.0420 -1.0696 -3.6238
 8556SOL    HW237305   2.120   3.150   9.289 -1.0397  0.1302 -0.7447
 8557SOL     OW37306   3.327   4.008   6.215  0.2606 -0.2187  0.3623
 8557SOL    HW137307   3.260   4.052   6.267 -0.0598 -1.3860  0.9259
 8557SOL    HW237308   3.403   4.047   6.259  0.2160  0.9628 -0.5931
 8558SOL     OW37309   1.828   2.077   7.362  0.7661  0.0816  0.8362
 8558SOL    HW137310   1.850   2.108   7.274 -1.2508 -0.2023  0.2236
 8558SOL    HW237311   1.752   2.131   7.384  1.2519  1.5730 -1.2022
 8559SOL     OW37312   3.574   2.834   8.157  0.2088  0.6455  0.0839
 8559SOL    HW137313   3.559   2.923   8.126  1.9967  0.1407 -2.1711
 8559SOL    HW237314   3.562   2.772   8.086  1.1567 -0.4248  0.8581
 8560SOL     OW37315   3.213   0.497   0.509  0.0485  0.0616 -0.0457
 8560SOL    HW137316   3.185   0.561   0.444 -2.0254 -0.6021  0.1669
 8560SOL    HW237317   3.130   0.449   0.518 -0.7814  1.3963 -0.5834
 8561SOL     OW37318   2.965   0.087  10.927  0.1465 -0.0424  0.2279
 8561SOL    HW137319   2.909   0.163  10.913 -0.9141 -0.6344  1.1656
 8561SOL    HW237320   3.024   0.131  10.987 -0.4304  0.1216  0.6741
 8562SOL     OW37321   3.111   4.389  10.184 -0.1170 -0.2176 -0.3955
 8562SOL    HW137322   3.150   4.473  10.208 -0.6210  0.1098 -0.7245
 8562SOL    HW237323   3.025   4.410  10.148  0.2674  0.3407 -0.9802
 8563SOL     OW37324   1.461   4.028   6.700 -0.2881 -0.0679  0.4358
 8563SOL    HW137325   1.483   4.105   6.647  1.8907 -0.9139  0.1392
 8563SOL    HW237326   1.549   3.995   6.713 -0.3099 -0.8866 -1.5539
 8564SOL     OW37327   4.319   1.728   5.340  0.2323  0.2432  0.5440
 8564SOL    HW137328   4.253   1.763   5.400 -0.7096  0.0224 -0.3650
 8564SOL    HW237329   4.394   1.784   5.360  1.7191 -1.4840 -0.1233
 8565SOL     OW37330   2.134   0.649  12.499 -0.1686 -0.0606  0.4771
 8565SOL    HW137331   2.072   0.698  12.554 -0.5669 -1.6635  1.4603
 8565SOL    HW237332   2.097   0.561  12.499 -0.1488 -0.0631 -1.3270
 8566SOL     OW37333   0.301   4.493   7.742 -0.0513  0.5139  0.4586
 8566SOL    HW137334   0.336   4.574   7.705  2.4676 -0.6954  0.1731
 8566SOL    HW237335   0.206   4.504   7.737 -0.3159 -1.0808  2.0017
 8567SOL     OW37336   2.327   2.606   7.116 -0.4405  0.3382  0.1039
 8567SOL    HW137337   2.246   2.562   7.140 -0.5637  0.4306 -0.1484
 8567SOL    HW237338   2.296   2.675   7.057  1.7652  0.8992 -0.4117
 8568SOL     OW37339   0.264   2.587  12.827 -0.3733 -0.4887 -0.2411
 8568SOL    HW137340   0.326   2.628  12.888 -0.2704  0.6996 -1.1493
 8568SOL    HW237341   0.299   2.605  12.740  1.6400 -0.9026  0.4741
 8569SOL     OW37342   3.008   0.371  10.572 -0.7144 -0.1617  0.3361
 8569SOL    HW137343   2.950   0.323  10.513  1.4891 -1.3943 -0.8521
 8569SOL    HW237344   2.956   0.377  10.652 -0.0926  2.1938  0.5668
 8570SOL     OW37345   0.694   3.030   8.753 -1.2192  0.0970 -0.2498
 8570SOL    HW137346   0.624   3.060   8.811 -0.4579 -2.5617  2.0795
 8570SOL    HW237347   0.646   2.961   8.707 -1.6897 -0.9955  1.8520
 8571SOL     OW37348   4.585   3.250  14.491  0.1501  1.0788  0.3967
 8571SOL    HW137349   4.669   3.260  14.447  0.7279 -0.1184  1.2459
 8571SOL    HW237350   4.550   3.189  14.426  0.7644  0.7956  0.3383
 8572SOL     OW37351   4.053   2.612   6.611 -0.1187  0.2926  0.7067
 8572SOL    HW137352   4.142   2.642   6.629  0.5214 -1.7076  0.9454
 8572SOL    HW237353   4.015   2.698   6.595 -0.9190 -0.7760 -3.0319
 8573SOL     OW37354   0.897   4.561   7.191 -0.1213 -0.3824 -0.3032
 8573SOL    HW137355   0.936   4.621   7.128  1.4133 -1.2154 -0.1213
 8573SOL    HW237356   0.974   4.525   7.235 -0.8460 -1.6743 -0.0891
 8574SOL     OW37357   2.179   1.147   5.494 -0.2577 -0.4849 -0.8432
 8574SOL    HW137358   2.230   1.136   5.414  1.1876 -0.3446  0.0588
 8574SOL    HW237359   2.232   1.092   5.552  1.3784  0.1809 -1.6989
 8575SOL     OW37360   1.891   4.265   7.162 -0.2635  0.0449  0.4785
 8575SOL    HW137361   1.817   4.204   7.164 -0.8214  0.7374  1.0797
 8575SOL    HW237362   1.936   4.253   7.245  1.8776 -0.3756 -0.7495
 8576SOL     OW37363   3.739   0.995   3.762 -0.3337 -0.4100  0.4812
 8576SOL    HW137364   3.738   1.051   3.684 -0.4030  0.2494  0.9566
 8576SOL    HW237365   3.687   0.921   3.731  0.7175 -0.7510 -0.4782
 8577SOL     OW37366   2.243   0.168   8.661 -0.4382 -0.2162 -0.2104
 8577SOL    HW137367   2.223   0.248   8.711  1.3790 -0.4844  0.9345
 8577SOL    HW237368   2.180   0.160   8.590  2.1282 -3.3402 -2.1206
 8578SOL     OW37369   3.327   2.316  10.201 -0.2295  0.8612 -0.1031
 8578SOL    HW137370   3.260   2.248  10.191 -0.5253  1.2754 -0.9239
 8578SOL    HW237371   3.353   2.328  10.109 -0.4527 -0.3691 -0.3266
 8579SOL     OW37372   2.979   4.657   4.074 -0.9080 -0.5724  0.3572
 8579SOL    HW137373   2.961   4.569   4.043  1.8379 -0.6429 -1.0229
 8579SOL    HW237374   3.040   4.643   4.147  0.8236 -0.9382 -1.1349
 8580SOL     OW37375   3.675   1.823   4.316  0.1151  0.1950 -0.8108
 8580SOL    HW137376   3.757   1.773   4.322  1.2702  2.0703 -0.9883
 8580SOL    HW237377   3.616   1.790   4.384  0.4639 -1.5555 -1.3730
 8581SOL     OW37378   0.182   0.177   3.733  0.4577  0.4583 -0.5232
 8581SOL    HW137379   0.184   0.217   3.820  1.9142 -0.8072  0.0204
 8581SOL    HW237380   0.253   0.222   3.688 -0.9167  3.1363 -0.0507
 8582SOL     OW37381   3.075   0.702  17.025  0.3425 -0.1196  0.0000
 8582SOL    HW137382   3.071   0.749  16.941  0.9070  3.8068  2.1574
 8582SOL    HW237383   3.053   0.779  17.077 -4.9822 -2.4434  1.1511
 8583SOL     OW37384   0.035   0.710   2.605  0.0428 -0.7276  0.0674
 8583SOL    HW137385   0.118   0.758   2.596 -0.7300  0.2790 -1.5408
 8583SOL    HW237386   0.003   0.759   2.681  0.5652  2.2124 -1.6312
 8584SOL     OW37387   1.807   1.267   0.450 -0.2719 -0.1907 -0.0227
 8584SOL    HW137388   1.737   1.221   0.495 -1.4048  1.8021  0.2339
 8584SOL    HW237389   1.762   1.287   0.368 -2.3080  0.5471  1.3002
 8585SOL     OW37390   1.432   3.546   4.833  0.3575  0.0900  0.2080
 8585SOL    HW137391   1.466   3.538   4.744 -0.6644 -1.8109 -0.0073
 8585SOL    HW237392   1.456   3.638   4.841  0.7727 -0.0056  0.0256
 8586SOL     OW37393   1.827   1.095   4.330 -0.3810 -0.0748 -0.1842
 8586SOL    HW137394   1.760   1.047   4.281  0.3437 -0.8939 -0.3597
 8586SOL    HW237395   1.865   1.140   4.255  0.1454  1.2166  0.8502
 8587SOL     OW37396   3.904   3.033  17.710 -0.0470  0.0609  0.4639
 8587SOL    HW137397   3.917   2.976  17.633  0.9833  1.7372 -0.5987
 8587SOL    HW237398   3.830   2.990  17.752 -0.0216 -1.4859 -1.0370
 8588SOL     OW37399   0.762   0.543   7.905 -0.1187  0.5283  0.2812
 8588SOL    HW137400   0.828   0.603   7.940 -0.1458  0.9942 -0.4723
 8588SOL    HW237401   0.795   0.545   7.816 -1.6119 -1.0524 -0.3118
 8589SOL     OW37402   0.522   4.052   4.875  0.0535 -0.5176  0.0445
 8589SOL    HW137403   0.613   4.056   4.847  0.7614 -2.5855  2.0835
 8589SOL    HW237404   0.530   3.983   4.941  0.1974 -0.2314  0.3269
 8590SOL     OW37405   3.935   3.200   9.243  0.0980  0.1345 -0.2122
 8590SOL    HW137406   4.025   3.186   9.212  0.2429 -1.8687  1.0966
 8590SOL    HW237407   3.933   3.289   9.277  0.1409  0.2964 -0.6378
 8591SOL     OW37408   0.373   4.641   5.784  0.1879 -0.1585 -0.3685
 8591SOL    HW137409   0.335   4.628   5.871  0.4705  1.4280 -0.0025
 8591SOL    HW237410   0.465   4.621   5.802  0.8979  0.4015 -3.3654
 8592SOL     OW37411   2.661   0.996   4.917 -0.5696 -0.0800 -0.4429
 8592SOL    HW137412   2.707   1.041   4.988  1.0769 -2.9670  0.3213
 8592SOL    HW237413   2.722   0.926   4.895 -1.3758 -1.0501  0.3709
 8593SOL     OW37414   0.184   4.119  10.956 -0.3030 -0.2192 -0.3726
 8593SOL    HW137415   0.112   4.058  10.969  0.5454 -1.0604  0.3637
 8593SOL    HW237416   0.135   4.201  10.968  0.2899  0.1852 -0.6841
 8594SOL     OW37417   0.405   1.896   7.959  0.2423 -0.1337 -0.0017
 8594SOL    HW137418   0.444   1.940   8.034  3.3305 -1.0991 -1.0285
 8594SOL    HW237419   0.414   1.805   7.985 -1.5138 -0.1369  0.5670
 8595SOL     OW37420   2.397   2.307   9.150 -0.8505  0.4653 -0.2674
 8595SOL    HW137421   2.321   2.330   9.096 -2.0410  2.2703  2.1760
 8595SOL    HW237422   2.356   2.278   9.231  0.2750  0.2739  0.2304
 8596SOL     OW37423   2.888   0.943  13.211 -0.4085  0.4975  0.0068
 8596SOL    HW137424   2.846   1.024  13.238 -0.9026  0.5059 -0.7687
 8596SOL    HW237425   2.811   0.891  13.190 -0.0277 -0.3157  0.6388
 8597SOL     OW37426   1.311   3.836   6.376  0.2152 -0.7349 -0.0932
 8597SOL    HW137427   1.238   3.775   6.365 -1.5877  1.5876 -1.0972
 8597SOL    HW237428   1.329   3.833   6.470  0.2461 -0.3702 -0.0859
 8598SOL     OW37429   4.420   0.294   2.205 -0.1546 -0.1847 -0.6004
 8598SOL    HW137430   4.474   0.344   2.266  2.1889 -1.1925 -1.8850
 8598SOL    HW237431   4.337   0.303   2.253  0.6920 -0.5253  0.9530
 8599SOL     OW37432   1.404   1.184   3.640 -0.5713  0.0551 -0.2245
 8599SOL    HW137433   1.390   1.259   3.697 -0.1584 -0.5168  0.6312
 8599SOL    HW237434   1.464   1.132   3.693 -0.2014  0.6619 -0.0517
 8600SOL     OW37435   2.171   0.770   8.842  0.2962 -0.4434 -0.4460
 8600SOL    HW137436   2.105   0.707   8.870 -0.7699  0.3291 -1.2357
 8600SOL    HW237437   2.153   0.845   8.898 -0.4457 -0.8547 -0.1394
 8601SOL     OW37438   2.399   0.165   2.425 -0.0618 -0.3492  0.7231
 8601SOL    HW137439   2.449   0.089   2.396  3.0805  0.8912  2.8624
 8601SOL    HW237440   2.466   0.228   2.453 -0.2553 -0.2856  1.0529
 8602SOL     OW37441   0.740   4.442   1.566 -0.2048 -0.1501  0.6027
 8602SOL    HW137442   0.648   4.447   1.539 -0.7781 -0.0309  2.6313
 8602SOL    HW237443   0.728   4.395   1.648  0.9214 -0.9060  0.3304
 8603SOL     OW37444   0.909   3.240   4.091  0.3724  0.5633 -0.2443
 8603SOL    HW137445   0.875   3.157   4.125 -0.7776  1.2401  0.2512
 8603SOL    HW237446   0.854   3.243   4.013 -0.7588 -2.2025  0.4340
 8604SOL     OW37447   0.974   1.190  14.616 -0.6201  0.4451  0.1764
 8604SOL    HW137448   0.926   1.146  14.686 -0.0892 -0.5427 -0.0805
 8604SOL    HW237449   0.936   1.278  14.617 -0.6999  0.4517 -3.1024
 8605SOL     OW37450   0.518   4.219   7.388  0.3496  0.1740  0.0117
 8605SOL    HW137451   0.581   4.161   7.430  2.6684  0.4538 -3.1111
 8605SOL    HW237452   0.568   4.259   7.317 -0.2074 -1.9323 -1.5657
 8606SOL     OW37453   1.155   4.110  11.389 -0.9556  0.0746  0.0967
 8606SOL    HW137454   1.096   4.054  11.440  0.4963 -1.5532 -0.0056
 8606SOL    HW237455   1.195   4.159  11.461  4.4080 -0.3428 -2.5782
 8607SOL     OW37456   0.544   3.535   8.971  0.2869  0.0575  0.0554
 8607SOL    HW137457   0.590   3.457   8.939 -2.0633 -1.3478  0.1315
 8607SOL    HW237458   0.572   3.602   8.908 -0.3313  2.7381  2.6007
 8608SOL     OW37459   3.367   2.264   4.916 -0.0956  0.1463 -0.3167
 8608SOL    HW137460   3.290   2.253   4.972  0.2120  0.9455  0.2568
 8608SOL    HW237461   3.425   2.201   4.961  0.9527  1.8177  0.6558
 8609SOL     OW37462   0.488   4.328  11.201 -0.5650  0.4247 -0.4942
 8609SOL    HW137463   0.499   4.263  11.132 -3.3400  2.3861 -2.8020
 8609SOL    HW237464   0.418   4.282  11.246 -0.3231  0.2582 -0.2901
 8610SOL     OW37465   3.041   0.862  16.800 -0.1603  0.8592  0.1409
 8610SOL    HW137466   2.948   0.871  16.823 -0.0435  0.8790  0.6020
 8610SOL    HW237467   3.072   0.949  16.777  0.0664 -0.2085 -3.6890
 8611SOL     OW37468   3.077   1.578   8.002 -0.3529 -0.5185  0.0495
 8611SOL    HW137469   3.137   1.639   7.959 -2.5506  1.3896 -0.2776
 8611SOL    HW237470   3.098   1.500   7.950 -1.2201 -1.6589  1.4328
 8612SOL     OW37471   3.285   4.562  12.792 -0.5574 -0.8601  0.4556
 8612SOL    HW137472   3.333   4.583  12.872 -1.0401  1.1769  0.2187
 8612SOL    HW237473   3.273   4.467  12.797 -0.0990 -0.9142  0.4951
 8613SOL     OW37474   1.626   1.676   9.597 -0.0102 -0.2459  0.3485
 8613SOL    HW137475   1.675   1.669   9.679 -1.1248 -2.9580  0.7686
 8613SOL    HW237476   1.655   1.602   9.545  3.4263  1.3847 -0.0750
 8614SOL     OW37477   2.478   0.148   4.444  0.3678  0.5441 -0.2358
 8614SOL    HW137478   2.408   0.213   4.438 -0.9458 -0.6634  1.7996
 8614SOL    HW237479   2.433   0.074   4.404 -1.0801  1.5568 -0.4865
 8615SOL     OW37480   2.093   2.903   4.203 -0.0998  1.3165 -0.1934
 8615SOL    HW137481   2.144   2.962   4.146  1.4397  0.0105 -0.1565
 8615SOL    HW237482   2.003   2.933   4.197 -0.3948  0.6996  1.2889
 8616SOL     OW37483   1.352   4.059   6.953  0.5533  0.8802  0.0462
 8616SOL    HW137484   1.410   4.061   6.876 -1.3164  4.9679 -1.2820
 8616SOL    HW237485   1.417   4.020   7.012  0.9849  0.2589 -0.8426
 8617SOL     OW37486   2.777   3.362   2.004 -0.0009 -0.4299 -0.1441
 8617SOL    HW137487   2.758   3.352   2.097 -3.0888  1.5555 -0.5543
 8617SOL    HW237488   2.843   3.297   1.982  0.5361 -0.3717  1.2713
 8618SOL     OW37489   2.642   4.659   4.505  1.0032 -0.0231  0.2546
 8618SOL    HW137490   2.714   4.616   4.458  0.8230 -0.5034  0.4160
 8618SOL    HW237491   2.644   0.006   4.470  0.1178 -1.5444 -3.6995
 8619SOL     OW37492   1.516   4.384   6.098  0.1326  0.6619  0.4255
 8619SOL    HW137493   1.459   4.406   6.172  2.4421  0.4204  2.2532
 8619SOL    HW237494   1.604   4.384   6.133  0.0175 -0.7707  0.6837
 8620SOL     OW37495   2.915   2.371  14.805  0.6198 -0.1577  0.0498
 8620SOL    HW137496   2.858   2.437  14.844  0.8171 -0.1241  0.2827
 8620SOL    HW237497   2.946   2.419  14.728  1.8801 -2.4781 -0.8970
 8621SOL     OW37498   2.909   0.465  14.815  0.5155  0.5238 -0.5790
 8621SOL    HW137499   2.842   0.408  14.852  2.5034 -1.5771 -0.2766
 8621SOL    HW237500   2.856   0.502  14.744 -0.5900  0.1889  0.0621
 8622SOL     OW37501   1.374   4.277   1.724 -0.1169 -0.7373  0.1644
 8622SOL    HW137502   1.464   4.282   1.689  0.0287 -2.1739  0.3385
 8622SOL    HW237503   1.361   4.188   1.689 -2.4161 -0.1202 -0.5308
 8623SOL     OW37504   3.644   1.457   4.455  0.6354 -0.8732  0.0530
 8623SOL    HW137505   3.679   1.409   4.530  0.2714 -1.1474  0.0463
 8623SOL    HW237506   3.613   1.382   4.404 -1.6983 -0.9131  1.5095
 8624SOL     OW37507   1.355   0.039   6.262 -0.0222 -0.2199 -0.2422
 8624SOL    HW137508   1.418   0.056   6.331 -1.6720 -1.8363  1.6562
 8624SOL    HW237509   1.312   0.124   6.270  0.8708  0.1523  0.5109
 8625SOL     OW37510   4.511   1.573   1.353  0.4215 -0.4577  0.1193
 8625SOL    HW137511   4.575   1.543   1.418  0.8438  0.6678  0.2184
 8625SOL    HW237512   4.483   1.659   1.385 -0.4062 -0.7514  0.1798
 8626SOL     OW37513   4.152   0.052   7.507 -0.3391 -0.5865  0.2445
 8626SOL    HW137514   4.221   0.098   7.555 -0.0172  1.8562 -2.5644
 8626SOL    HW237515   4.079   0.072   7.566  0.1735  1.4131  0.2117
 8627SOL     OW37516   1.986   3.034   8.280 -0.4692 -0.3570  0.2352
 8627SOL    HW137517   1.905   2.984   8.295 -1.3149  0.3012 -2.1022
 8627SOL    HW237518   2.047   2.989   8.338  0.0656 -0.2144 -0.2208
 8628SOL     OW37519   0.442   2.369  17.728 -0.8496 -0.1842  0.1528
 8628SOL    HW137520   0.371   2.429  17.705 -0.6679 -1.0413 -2.6320
 8628SOL    HW237521   0.392   2.306   0.016 -1.6152  0.5719  0.3279
 8629SOL     OW37522   3.132   4.406  13.071  0.3104  0.1501  0.1522
 8629SOL    HW137523   3.056   4.385  13.125 -0.5735 -0.1605 -1.2074
 8629SOL    HW237524   3.187   4.443  13.139 -0.5706 -0.4963  1.2156
 8630SOL     OW37525   0.422   2.419   2.299 -0.7229 -0.3026  0.4809
 8630SOL    HW137526   0.451   2.407   2.389 -1.7994 -0.2768  0.8309
 8630SOL    HW237527   0.481   2.491   2.275 -0.8820 -0.1343  0.5984
 8631SOL     OW37528   0.210   1.957   4.450 -0.0110 -0.3849 -0.0877
 8631SOL    HW137529   0.139   1.897   4.475 -0.7021 -0.4433 -2.2045
 8631SOL    HW237530   0.241   1.993   4.533 -0.4565 -1.6447  0.6309
 8632SOL     OW37531   1.586   4.728   3.143 -0.1110  0.2716  0.0368
 8632SOL    HW137532   1.663   0.038   3.168  0.2965 -1.4354  2.2596
 8632SOL    HW237533   1.533   0.055   3.104 -0.8440 -0.7658 -0.8193
 8633SOL     OW37534   0.674   0.260   1.071  0.1052  0.3651  0.4966
 8633SOL    HW137535   0.728   0.208   1.131  0.7004 -0.0060 -0.3473
 8633SOL    HW237536   0.627   0.317   1.131 -0.6970  1.4895 -1.2007
 8634SOL     OW37537   0.412   0.066   4.548 -0.3306 -0.2628  0.4752
 8634SOL    HW137538   0.454   0.081   4.633  0.2276  1.5831 -0.1326
 8634SOL    HW237539   0.460   0.127   4.492 -0.7179 -0.6496 -0.2869
 8635SOL     OW37540   1.635   4.202   1.901  0.2522 -0.4540 -0.4411
 8635SOL    HW137541   1.601   4.115   1.923  0.8307  0.3630  3.6102
 8635SOL    HW237542   1.641   4.198   1.805 -0.1180 -1.7846 -0.4210
 8636SOL     OW37543   1.963   3.914   9.880  0.3620 -0.7470 -0.2766
 8636SOL    HW137544   1.946   3.820   9.889 -0.3715 -0.4721  1.2306
 8636SOL    HW237545   2.045   3.922   9.929  0.9975  2.0923 -1.7971
 8637SOL     OW37546   1.862   3.958  14.746  0.6003  0.2412  0.1624
 8637SOL    HW137547   1.825   4.015  14.678 -0.4972 -0.0093  0.5620
 8637SOL    HW237548   1.849   3.874  14.702 -1.5707  0.3088  0.6971
 8638SOL     OW37549   0.833   0.989  11.412  0.1025  0.2170  0.0453
 8638SOL    HW137550   0.827   0.967  11.319  0.8752  2.9306 -0.6397
 8638SOL    HW237551   0.738   1.000  11.426 -0.6571 -2.5051 -2.9874
 8639SOL     OW37552   3.073   0.446   2.817 -0.2726 -0.2656 -0.0390
 8639SOL    HW137553   3.039   0.448   2.906 -0.6191  2.8130 -0.2386
 8639SOL    HW237554   3.166   0.439   2.838 -0.2572 -1.5282 -0.5532
 8640SOL     OW37555   2.801   4.528   2.258 -0.5701  0.4586 -0.0860
 8640SOL    HW137556   2.786   4.593   2.327  1.7388  2.2267 -1.2575
 8640SOL    HW237557   2.751   4.555   2.182 -1.9215 -0.0667  0.6197
 8641SOL     OW37558   4.665   2.242   8.348  0.2964  0.3296 -0.4650
 8641SOL    HW137559   4.694   2.328   8.378 -0.6101  0.5998 -0.3670
 8641SOL    HW237560   4.726   2.228   8.276 -0.1777 -3.1757 -0.1820
 8642SOL     OW37561   1.540   4.684   3.415  0.0639 -0.5726 -0.2140
 8642SOL    HW137562   1.464   4.740   3.429  0.9075  0.0070  2.0814
 8642SOL    HW237563   1.536   4.689   3.320 -1.5532  1.5849 -0.0448
 8643SOL     OW37564   1.239   3.856  11.859  0.3226  0.0925 -0.7569
 8643SOL    HW137565   1.267   3.871  11.769 -1.3842 -0.4272 -1.3779
 8643SOL    HW237566   1.174   3.926  11.867 -0.7634 -0.9735 -0.2394
 8644SOL     OW37567   1.925   3.444   8.014  0.3020  0.2275  0.1160
 8644SOL    HW137568   1.940   3.382   8.085  1.9512  2.1976  1.4837
 8644SOL    HW237569   1.891   3.521   8.059 -1.0552 -1.3905  1.8627
 8645SOL     OW37570   0.913   2.166   8.348 -0.8180 -0.2770 -0.2607
 8645SOL    HW137571   0.914   2.136   8.438  2.7001 -2.8129 -1.1532
 8645SOL    HW237572   0.916   2.255   8.384  0.0050 -0.3624 -0.1104
 8646SOL     OW37573   2.788   0.365   5.086  0.3217 -0.1588  0.1817
 8646SOL    HW137574   2.869   0.365   5.137 -0.3338  0.3790  1.2382
 8646SOL    HW237575   2.753   0.444   5.128 -1.2008 -1.4416  1.3080
 8647SOL     OW37576   0.119   0.368   8.775 -0.1619 -0.2221 -0.2406
 8647SOL    HW137577   0.126   0.422   8.696 -0.8895 -0.2769 -0.3414
 8647SOL    HW237578   0.125   0.283   8.731  0.9025 -0.5649  0.5703
 8648SOL     OW37579   3.427   3.982  12.979 -0.3094 -0.2849  0.0044
 8648SOL    HW137580   3.385   4.006  13.061 -0.2616  3.8214 -1.1990
 8648SOL    HW237581   3.496   3.920  13.005 -1.6451 -1.1293  1.5024
 8649SOL     OW37582   2.365   0.122   2.935  0.3177 -0.0916  0.4030
 8649SOL    HW137583   2.373   0.030   2.911 -1.2548 -0.7591  2.4451
 8649SOL    HW237584   2.276   0.143   2.907  1.3351  3.1305 -0.4097
 8650SOL     OW37585   4.208   3.827  12.124 -0.8265 -0.0067  0.1378
 8650SOL    HW137586   4.248   3.792  12.204 -0.4997  2.1898  0.9403
 8650SOL    HW237587   4.123   3.787  12.142 -1.3855  1.0711 -0.0840
 8651SOL     OW37588   2.342   4.722   6.115  0.5308 -0.3344 -0.1431
 8651SOL    HW137589   2.319   0.072   6.124  0.6131 -0.3449  0.1780
 8651SOL    HW237590   2.433   4.725   6.144 -0.1261 -1.3192  2.0470
 8652SOL     OW37591   2.917   0.269  16.636  0.4134  0.0336  0.2164
 8652SOL    HW137592   2.846   0.333  16.651  1.5084  1.2012  0.4323
 8652SOL    HW237593   2.996   0.317  16.663 -0.7003  1.0511  1.7299
 8653SOL     OW37594   1.784   1.673   0.170  0.5849  0.0846  0.2724
 8653SOL    HW137595   1.846   1.655   0.099 -0.0097 -0.0506 -0.2119
 8653SOL    HW237596   1.704   1.702   0.127  0.3492 -0.1797  0.5272
 8654SOL     OW37597   3.161   4.317  12.822 -0.4709 -0.0154  0.1219
 8654SOL    HW137598   3.143   4.225  12.842 -0.5394  0.2127  1.1199
 8654SOL    HW237599   3.152   4.347  12.912  0.8033  2.4107 -0.5387
 8655SOL     OW37600   0.731   3.351   6.425 -0.9696 -0.2538  0.5300
 8655SOL    HW137601   0.680   3.271   6.417 -0.5020 -0.6271  1.2225
 8655SOL    HW237602   0.729   3.361   6.520  1.1620  0.3054  0.5246
 8656SOL     OW37603   2.281   2.114   3.537 -0.7377  0.0225 -0.4838
 8656SOL    HW137604   2.264   2.207   3.518  0.5825  0.9644  2.9415
 8656SOL    HW237605   2.360   2.105   3.484 -0.6234  0.1741 -0.3418
 8657SOL     OW37606   2.378   3.619   1.100  0.2983  0.0935  0.0814
 8657SOL    HW137607   2.351   3.566   1.175  0.2575  1.7714  1.2394
 8657SOL    HW237608   2.338   3.705   1.112 -1.3098 -0.5978 -0.4501
 8658SOL     OW37609   2.704   0.543   1.981 -0.2288  0.3801 -0.1721
 8658SOL    HW137610   2.696   0.635   1.955  1.2392  0.3012 -0.9103
 8658SOL    HW237611   2.679   0.500   1.899  0.6565 -0.6503  0.1036
 8659SOL     OW37612   1.538   3.385   2.018  0.1611 -0.5831 -0.4224
 8659SOL    HW137613   1.546   3.318   1.950 -1.7577  1.1425 -2.3564
 8659SOL    HW237614   1.551   3.334   2.098 -0.1260 -2.4394 -1.5695
 8660SOL     OW37615   4.516   4.097   1.686  0.6577  0.3868  0.0427
 8660SOL    HW137616   4.456   4.103   1.760 -0.0592  1.3106 -0.6148
 8660SOL    HW237617   4.578   4.037   1.727  1.0106 -1.2140 -2.8604
 8661SOL     OW37618   4.404   4.478   1.339 -0.3993 -0.6495  0.2763
 8661SOL    HW137619   4.451   4.400   1.370 -1.5924 -1.4570  0.0307
 8661SOL    HW237620   4.402   4.530   1.420 -0.9977  1.1870 -0.9279
 8662SOL     OW37621   1.071   3.235   8.170  0.0438  0.5205 -0.5753
 8662SOL    HW137622   1.141   3.208   8.230 -2.3948 -2.3812  0.9598
 8662SOL    HW237623   1.038   3.320   8.197 -2.2194 -0.6229  0.2581
 8663SOL     OW37624   0.356   1.469   6.564 -0.6884  0.5433 -0.8099
 8663SOL    HW137625   0.353   1.390   6.510  1.2500 -0.0146 -0.1062
 8663SOL    HW237626   0.264   1.464   6.589 -0.1158  0.9492  1.3912
 8664SOL     OW37627   1.645   4.297   0.712  0.3838  0.3887 -0.3273
 8664SOL    HW137628   1.702   4.339   0.777  1.9490  1.3287 -2.2974
 8664SOL    HW237629   1.614   4.365   0.653  0.4511  0.2890 -0.4802
 8665SOL     OW37630   4.241   4.064  10.601  0.0144  0.0048  0.1500
 8665SOL    HW137631   4.237   4.115  10.682 -1.9647 -0.4667  0.3453
 8665SOL    HW237632   4.331   4.078  10.570  0.2519 -0.1904  0.7511
 8666SOL     OW37633   4.430   0.128   7.577 -0.3460  0.2531  0.0760
 8666SOL    HW137634   4.424   0.047   7.627  1.8974 -0.4828 -0.8251
 8666SOL    HW237635   4.444   0.191   7.647 -0.8721 -1.2851  1.5623
 8667SOL     OW37636   1.368   4.380   8.246  0.0037  0.4055  0.0668
 8667SOL    HW137637   1.462   4.400   8.239  0.3106 -1.4685 -1.2426
 8667SOL    HW237638   1.327   4.400   8.161  0.6663  0.6253 -0.2057
 8668SOL     OW37639   0.331   4.115   2.961  0.2865  0.6030  0.1810
 8668SOL    HW137640   0.302   4.148   2.876 -1.1840  0.1652  0.5116
 8668SOL    HW237641   0.336   4.021   2.946 -0.3140  0.9397 -2.1579
 8669SOL     OW37642   1.299   1.769   4.717 -0.0762  0.1827  0.0283
 8669SOL    HW137643   1.377   1.759   4.772  0.0850  1.8673  0.0903
 8669SOL    HW237644   1.331   1.801   4.633  0.7293 -2.0576 -0.5358
 8670SOL     OW37645   2.922   0.823   7.523 -0.3251 -0.4213 -0.1271
 8670SOL    HW137646   2.934   0.914   7.496 -0.5530 -0.2786  0.2500
 8670SOL    HW237647   3.000   0.779   7.489 -1.8762 -2.9793 -0.3979
 8671SOL     OW37648   3.298   1.353   8.843 -0.2573 -0.4794 -0.3944
 8671SOL    HW137649   3.335   1.342   8.756 -0.3596  0.4428 -0.5545
 8671SOL    HW237650   3.382   1.345   8.888 -0.2678 -0.1141 -0.3045
 8672SOL     OW37651   3.419   2.670  12.202 -0.3966  0.2531  0.0136
 8672SOL    HW137652   3.498   2.692  12.251  0.6717 -0.4909 -1.3862
 8672SOL    HW237653   3.429   2.728  12.126  0.2513  0.1228  0.0011
 8673SOL     OW37654   0.240   0.984   6.358 -0.3502  0.1271 -0.0350
 8673SOL    HW137655   0.208   0.904   6.318 -1.5456  0.6137 -0.0627
 8673SOL    HW237656   0.266   0.956   6.446 -2.0875  0.9960  0.7513
 8674SOL     OW37657   2.474   4.509   3.305  0.3322  0.4056  0.1866
 8674SOL    HW137658   2.462   4.434   3.363  1.8456  0.7951  0.9982
 8674SOL    HW237659   2.538   4.562   3.352  0.2789  1.4831 -0.9483
 8675SOL     OW37660   4.438   1.590   7.992 -0.0189 -0.4103  0.5490
 8675SOL    HW137661   4.462   1.617   8.081  0.4329  1.2032 -0.0574
 8675SOL    HW237662   4.515   1.613   7.940 -2.2375  3.6805 -0.9082
 8676SOL     OW37663   4.189   3.645  13.176 -0.1119  0.4022  0.2006
 8676SOL    HW137664   4.213   3.554  13.191 -1.0121 -0.6147 -4.3280
 8676SOL    HW237665   4.247   3.663  13.101  1.8194  2.9536  2.3023
 8677SOL     OW37666   3.400   1.800   6.229  0.3809 -0.0333  0.6639
 8677SOL    HW137667   3.423   1.893   6.228 -0.4621  0.1595 -0.7694
 8677SOL    HW237668   3.306   1.812   6.237  0.0845 -1.8825  0.0465
 8678SOL     OW37669   3.399   3.684   5.336 -0.3387 -0.1547 -0.1855
 8678SOL    HW137670   3.457   3.650   5.404 -0.7428  0.1328  0.3093
 8678SOL    HW237671   3.444   3.761   5.302 -0.3121  1.3790  3.3507
 8679SOL     OW37672   3.413   3.209  12.833  0.0458 -0.1083 -0.3051
 8679SOL    HW137673   3.342   3.271  12.818  0.3617  0.4287  0.4312
 8679SOL    HW237674   3.417   3.214  12.928  1.1713  1.8142 -0.4479
 8680SOL     OW37675   0.440   1.187  15.350  0.1076  0.1283 -0.1100
 8680SOL    HW137676   0.360   1.138  15.369 -0.0266 -0.0196 -1.0449
 8680SOL    HW237677   0.460   1.143  15.267  1.4566  0.6421 -0.0587
 8681SOL     OW37678   0.918   1.140  11.617 -0.1176 -0.0909 -0.0448
 8681SOL    HW137679   0.839   1.194  11.624 -1.0931 -1.3637 -1.1571
 8681SOL    HW237680   0.887   1.083  11.546  0.0485 -0.4298  0.1563
 8682SOL     OW37681   1.444   2.641   0.857  0.0523 -0.1610 -0.3136
 8682SOL    HW137682   1.396   2.576   0.910  0.2604  0.0609  0.1515
 8682SOL    HW237683   1.534   2.613   0.870 -0.2657 -1.1064 -0.1544
 8683SOL     OW37684   0.284   2.855   2.006 -0.0712 -0.0945 -0.5954
 8683SOL    HW137685   0.287   2.798   2.083  1.3703 -1.5587 -1.7255
 8683SOL    HW237686   0.346   2.921   2.038 -0.6334  0.9676 -1.7212
 8684SOL     OW37687   2.357   3.715   3.171 -0.3376 -0.2065 -0.0857
 8684SOL    HW137688   2.385   3.630   3.204  2.2780  1.2384  1.4485
 8684SOL    HW237689   2.443   3.758   3.172 -0.5532  0.3227 -2.6064
 8685SOL     OW37690   1.000   3.861   3.047 -0.1951  0.2595  0.0748
 8685SOL    HW137691   0.928   3.885   3.106 -1.4518 -0.6838 -1.0856
 8685SOL    HW237692   1.080   3.896   3.086  0.6447 -1.0108 -0.4885
 8686SOL     OW37693   4.354   1.138   9.953 -0.1830  0.1607 -0.3746
 8686SOL    HW137694   4.302   1.060   9.972 -0.4358  0.6919  1.1398
 8686SOL    HW237695   4.310   1.157   9.871 -1.0804  1.6050  0.4550
 8687SOL     OW37696   1.892   2.379   9.632  0.5062 -0.2431  0.4566
 8687SOL    HW137697   1.966   2.420   9.677  0.2030  1.8947 -0.9992
 8687SOL    HW237698   1.933   2.331   9.560  0.9002  1.8220 -0.6947
 8688SOL     OW37699   0.292   2.711   4.500  0.1182  0.7875  0.4723
 8688SOL    HW137700   0.298   2.627   4.546  0.1890  0.6503  0.2100
 8688SOL    HW237701   0.229   2.758   4.555 -0.3732  1.4077 -0.6306
 8689SOL     OW37702   2.396   3.715   6.471  0.1519  0.3621 -0.1264
 8689SOL    HW137703   2.397   3.730   6.377  0.7343  1.2427  0.0282
 8689SOL    HW237704   2.490   3.723   6.487 -0.1668  1.6354  1.0722
 8690SOL     OW37705   3.545   0.726  11.527 -0.0057 -0.0499  0.2097
 8690SOL    HW137706   3.482   0.764  11.588  1.0868  0.0415  1.2797
 8690SOL    HW237707   3.499   0.655  11.483 -0.6756  0.7162 -0.3321
 8691SOL     OW37708   2.919   0.058   9.095 -0.0074  0.1519  0.0049
 8691SOL    HW137709   2.860   0.133   9.085  1.0219  0.7965 -1.2032
 8691SOL    HW237710   2.998   0.105   9.123 -0.2182  0.1281  0.6458
 8692SOL     OW37711   3.143   4.223   3.404  0.1157 -0.7101 -0.3865
 8692SOL    HW137712   3.048   4.209   3.403 -0.1163  0.8274  0.8605
 8692SOL    HW237713   3.174   4.194   3.318  3.4142 -0.4980  0.7613
 8693SOL     OW37714   2.517   4.247  10.859  0.0629 -0.1591 -0.3156
 8693SOL    HW137715   2.542   4.176  10.918  1.4439 -2.1490 -3.2935
 8693SOL    HW237716   2.604   4.279  10.835  0.6865 -1.6929 -0.0715
 8694SOL     OW37717   0.415   3.725   5.094 -0.6359  0.1205 -0.2952
 8694SOL    HW137718   0.424   3.737   5.188 -1.3193 -1.6870 -0.0077
 8694SOL    HW237719   0.496   3.769   5.066  0.2528 -0.9011  0.6520
 8695SOL     OW37720   4.004   1.550   5.746  0.6967  0.3940 -0.4348
 8695SOL    HW137721   4.076   1.499   5.782 -0.1995 -2.6263 -2.8872
 8695SOL    HW237722   3.934   1.485   5.737  0.2236  0.3802  3.5732
 8696SOL     OW37723   0.204   1.335   6.026 -0.0799 -0.2407  0.0552
 8696SOL    HW137724   0.233   1.420   6.059  2.6092 -1.4796  0.8573
 8696SOL    HW237725   0.145   1.312   6.097 -1.4550  1.1139 -0.6441
 8697SOL     OW37726   1.991   3.943  15.651 -0.4748  0.4216  0.0733
 8697SOL    HW137727   2.035   4.021  15.685  1.8655 -0.9272  0.1585
 8697SOL    HW237728   1.983   3.877  15.721  2.6284 -1.9186 -1.7643
 8698SOL     OW37729   3.284   0.570   2.297 -0.2708 -0.0753  0.1713
 8698SOL    HW137730   3.304   0.549   2.206 -0.7196 -1.0031  0.2870
 8698SOL    HW237731   3.188   0.572   2.298 -0.2467  1.1489  0.4196
 8699SOL     OW37732   3.200   3.845  14.197  0.3492  0.9838  0.9728
 8699SOL    HW137733   3.216   3.755  14.169  0.7394  1.1011  0.8154
 8699SOL    HW237734   3.211   3.895  14.116 -0.8847  2.2055  1.5630
 8700SOL     OW37735   1.724   1.687  13.896  0.2054  0.3991  0.5456
 8700SOL    HW137736   1.737   1.651  13.984  0.7477  0.3615  0.4514
 8700SOL    HW237737   1.764   1.774  13.895  1.8028 -0.3316  1.7115
 8701SOL     OW37738   3.817   3.683   4.934 -0.3028  0.7151 -0.1720
 8701SOL    HW137739   3.830   3.746   4.863  1.2647  1.9934  1.2643
 8701SOL    HW237740   3.859   3.607   4.893 -1.1649 -0.9502  2.0330
 8702SOL     OW37741   0.362   3.935  10.913 -0.1813 -0.0270  0.1789
 8702SOL    HW137742   0.371   3.920  11.008  0.8061 -0.3424  0.0362
 8702SOL    HW237743   0.280   3.984  10.914  0.5069  1.1520 -0.9089
 8703SOL     OW37744   1.807   2.617   8.174  0.0933  0.0978 -0.3115
 8703SOL    HW137745   1.728   2.643   8.127  0.3076  0.9580 -0.1954
 8703SOL    HW237746   1.822   2.527   8.143  0.8444 -0.1959  0.8825
 8704SOL     OW37747   0.903   1.661   5.753 -0.0941 -0.1923 -0.3467
 8704SOL    HW137748   0.961   1.648   5.678 -1.1697 -0.0687 -1.2000
 8704SOL    HW237749   0.877   1.571   5.775  1.7865 -1.1722 -2.1368
 8705SOL     OW37750   2.301   3.313   2.913  0.2025  0.7998 -0.3785
 8705SOL    HW137751   2.305   3.374   2.839  2.2521  0.7787 -0.2946
 8705SOL    HW237752   2.210   3.286   2.905  0.6259 -0.6741 -0.2698
 8706SOL     OW37753   0.610   0.325   7.404  0.1318 -0.2741  0.0093
 8706SOL    HW137754   0.564   0.386   7.347 -0.4498  0.5601  1.3666
 8706SOL    HW237755   0.609   0.241   7.357 -1.1648 -0.7620  0.9267
 8707SOL     OW37756   2.287   0.623   5.475 -0.0933 -0.2129 -0.2511
 8707SOL    HW137757   2.219   0.673   5.430  0.5830  0.9469  0.0254
 8707SOL    HW237758   2.236   0.576   5.540 -0.8613  1.9655  0.7067
 8708SOL     OW37759   4.378   2.961   8.485 -0.0847 -0.2531  0.1732
 8708SOL    HW137760   4.404   2.880   8.529 -2.7219 -0.4704  1.3052
 8708SOL    HW237761   4.361   2.936   8.394 -1.3170 -0.7271  0.5348
 8709SOL     OW37762   0.370   3.065  14.737  0.0827 -0.0268  0.1170
 8709SOL    HW137763   0.368   3.130  14.808  1.2255 -0.2556  0.3574
 8709SOL    HW237764   0.383   3.110  14.654 -1.5919 -1.1746 -0.7665
 8710SOL     OW37765   0.325   3.172  11.576  0.2426 -0.4669  0.0460
 8710SOL    HW137766   0.275   3.251  11.557  1.8359  0.6169  0.4242
 8710SOL    HW237767   0.401   3.191  11.521 -0.1454  3.0390  0.7230
 8711SOL     OW37768   2.727   2.970  14.373 -0.1093  0.4997 -0.3773
 8711SOL    HW137769   2.774   2.895  14.337 -0.1107  1.4167 -2.3030
 8711SOL    HW237770   2.771   2.981  14.457  0.3509 -0.2797 -0.5274
 8712SOL     OW37771   2.274   1.441   7.773  0.3411 -0.0414 -0.3173
 8712SOL    HW137772   2.359   1.478   7.794 -0.4037  1.3123  0.3207
 8712SOL    HW237773   2.256   1.390   7.852  0.4859 -1.5265 -1.2500
 8713SOL     OW37774   0.760   2.785  14.306  0.2406 -0.1682  0.0759
 8713SOL    HW137775   0.817   2.742  14.242  0.6789 -0.1100  0.4270
 8713SOL    HW237776   0.719   2.708  14.346  0.1672 -1.1090 -1.8034
 8714SOL     OW37777   1.740   2.474   3.641 -0.2488  0.0930 -0.2772
 8714SOL    HW137778   1.824   2.513   3.617 -0.7215  1.0296 -0.4080
 8714SOL    HW237779   1.739   2.488   3.736 -1.2451 -0.5726 -0.1896
 8715SOL     OW37780   1.349   2.059   3.763  0.2094 -0.1747  0.6896
 8715SOL    HW137781   1.400   1.993   3.715 -0.5057  0.2116 -0.6149
 8715SOL    HW237782   1.408   2.065   3.838  2.7010 -0.3397 -1.2684
 8716SOL     OW37783   2.896   4.672   5.702 -0.3732  0.1294  0.0108
 8716SOL    HW137784   2.803   4.655   5.715  0.1917 -2.4494  0.6406
 8716SOL    HW237785   2.906   4.628   5.618 -0.3376  1.2626 -0.5787
 8717SOL     OW37786   3.680   1.426   5.906  0.2414  0.1290 -0.4962
 8717SOL    HW137787   3.688   1.345   5.855 -0.5685  1.1923 -2.3204
 8717SOL    HW237788   3.630   1.467   5.836 -2.5153  0.9295  1.9981
 8718SOL     OW37789   1.467   3.007  17.735  0.3748 -0.1980  0.2885
 8718SOL    HW137790   1.455   3.101  17.750 -1.6819 -0.8501  2.7525
 8718SOL    HW237791   1.555   2.991   0.003  0.7162 -0.1921 -0.6228
 8719SOL     OW37792   1.823   4.296   1.268 -0.1659  0.0974  0.5671
 8719SOL    HW137793   1.881   4.246   1.326 -1.9831 -3.1490 -0.4301
 8719SOL    HW237794   1.854   4.258   1.186 -0.7761 -2.4266  1.5032
 8720SOL     OW37795   3.797   0.860   7.163  0.0643  0.4596  0.1693
 8720SOL    HW137796   3.841   0.807   7.230  0.9242 -0.2568 -0.9563
 8720SOL    HW237797   3.863   0.926   7.143  0.0231  0.1842 -0.8731
 8721SOL     OW37798   2.957   3.192   1.915 -0.3689 -0.5075  0.0513
 8721SOL    HW137799   3.040   3.234   1.894 -0.1035  0.4539  3.0367
 8721SOL    HW237800   2.982   3.114   1.964 -0.6612 -2.1093 -2.3537
 8722SOL     OW37801   2.880   3.011  14.601  0.0529 -0.0279 -0.1363
 8722SOL    HW137802   2.881   2.930  14.652  0.8008  0.6409  0.9133
 8722SOL    HW237803   2.945   3.068  14.643 -1.4347  1.8043 -0.2938
 8723SOL     OW37804   3.280   0.770   5.411 -0.1576 -0.3730  0.1639
 8723SOL    HW137805   3.357   0.771   5.468  0.9733 -1.7193 -1.3503
 8723SOL    HW237806   3.313   0.742   5.325 -1.2512 -0.4275 -0.2366
 8724SOL     OW37807   4.513   0.555   7.084  0.1072 -0.3669  0.1584
 8724SOL    HW137808   4.419   0.546   7.070 -0.0300  1.6041 -0.1110
 8724SOL    HW237809   4.517   0.641   7.125 -1.6279  0.7023 -1.9185
 8725SOL     OW37810   2.031   3.493   4.663  0.5158  0.1854  0.0358
 8725SOL    HW137811   2.024   3.588   4.657 -0.1916  0.1972  0.9526
 8725SOL    HW237812   1.993   3.469   4.578 -1.2744 -1.1538  1.2101
 8726SOL     OW37813   2.254   1.471   2.498 -0.1539  0.1099  0.0724
 8726SOL    HW137814   2.262   1.491   2.591  0.0521 -0.8066  0.2471
 8726SOL    HW237815   2.211   1.385   2.501 -0.3685  0.1899 -0.6741
 8727SOL     OW37816   3.550   2.849   5.180  0.3705  0.1037  0.8212
 8727SOL    HW137817   3.610   2.877   5.111 -1.5202  1.0376 -0.4703
 8727SOL    HW237818   3.518   2.939   5.190 -0.6120 -0.2233  0.6549
 8728SOL     OW37819   0.057   0.753   6.277 -0.9321  0.0254 -0.1149
 8728SOL    HW137820   0.128   0.711   6.325  0.8102  0.8709 -1.9587
 8728SOL    HW237821   4.734   0.692   6.311 -0.7058  0.1299  0.5068
 8729SOL     OW37822   3.832   2.193   8.171  0.4421  1.1429  0.0759
 8729SOL    HW137823   3.854   2.148   8.252 -0.1460  0.1513 -0.3179
 8729SOL    HW237824   3.873   2.133   8.109 -0.4275  0.2998  0.3130
 8730SOL     OW37825   3.529   1.537   5.145  0.4277 -0.3509  0.6081
 8730SOL    HW137826   3.500   1.451   5.115 -1.1139 -0.4836  2.4674
 8730SOL    HW237827   3.619   1.512   5.163  0.5543  1.4197  2.4194
 8731SOL     OW37828   2.511   3.281  12.808 -0.1561 -0.2632  0.2678
 8731SOL    HW137829   2.464   3.202  12.783  0.6348 -0.4854 -0.5213
 8731SOL    HW237830   2.507   3.280  12.903 -1.6905  0.3951  0.2127
 8732SOL     OW37831   0.528   1.223   2.906 -0.2840 -0.3033 -0.4544
 8732SOL    HW137832   0.451   1.276   2.929  0.7022 -0.0589  2.2824
 8732SOL    HW237833   0.585   1.292   2.873  0.3656 -0.8729 -0.5108
 8733SOL     OW37834   4.504   4.438   7.674  0.1163 -0.0184 -0.0394
 8733SOL    HW137835   4.577   4.462   7.732 -1.3866  1.9425  1.0166
 8733SOL    HW237836   4.560   4.402   7.605  0.5328  0.1535  0.2034
 8734SOL     OW37837   1.140   1.337   3.574 -0.9681 -0.0640 -0.3508
 8734SOL    HW137838   1.197   1.270   3.536 -2.8029 -0.9362 -1.5447
 8734SOL    HW237839   1.106   1.378   3.494  4.4909 -0.0106 -2.6244
 8735SOL     OW37840   1.335   3.609   1.331 -0.2203  0.2490  1.0143
 8735SOL    HW137841   1.320   3.641   1.242  0.9026 -1.8073  0.0980
 8735SOL    HW237842   1.345   3.686   1.387 -0.9554  0.8743  0.2907
 8736SOL     OW37843   3.173   4.307   1.807  0.7472  0.1084  0.2769
 8736SOL    HW137844   3.147   4.218   1.783  0.9700  0.0271  0.3302
 8736SOL    HW237845   3.208   4.284   1.893 -2.2267 -2.0776  0.9098
 8737SOL     OW37846   3.908   3.353   6.517  0.5420  0.6061  0.1742
 8737SOL    HW137847   3.818   3.323   6.528  0.8481  0.5198  2.5176
 8737SOL    HW237848   3.902   3.373   6.424  1.4974  0.2541  0.0381
 8738SOL     OW37849   3.497   3.441   7.693 -0.4791  0.0861 -0.8363
 8738SOL    HW137850   3.550   3.361   7.704  2.7038  2.3332  0.2101
 8738SOL    HW237851   3.508   3.452   7.599  0.7334  0.6395 -0.6350
 8739SOL     OW37852   2.333   4.396   6.827 -0.2840  0.0205  0.0145
 8739SOL    HW137853   2.299   4.345   6.754  2.0404 -0.7835 -0.5135
 8739SOL    HW237854   2.337   4.319   6.884  2.0034  0.9106  1.0330
 8740SOL     OW37855   0.483   4.205   4.101  0.1152 -0.2826  0.7901
 8740SOL    HW137856   0.446   4.145   4.036  0.1000  1.4559 -0.7828
 8740SOL    HW237857   0.572   4.216   4.068 -0.2005 -2.0947 -0.6650
 8741SOL     OW37858   1.040   1.294   2.390 -0.1052  0.0323 -0.3718
 8741SOL    HW137859   1.034   1.209   2.348 -1.0420 -0.6525  1.1346
 8741SOL    HW237860   0.946   1.301   2.411  0.4075  1.6876  1.4298
 8742SOL     OW37861   1.474   1.406  10.062  0.3818  0.0828 -0.1132
 8742SOL    HW137862   1.381   1.402  10.084  0.1739  0.4039 -0.9503
 8742SOL    HW237863   1.488   1.352   9.985  2.6205  0.4507  0.0391
 8743SOL     OW37864   3.607   3.280  14.047  0.3318  0.2770  0.1343
 8743SOL    HW137865   3.682   3.339  14.051  0.2771  0.3192  0.5870
 8743SOL    HW237866   3.615   3.217  14.118  0.6699  1.3781  1.0732
 8744SOL     OW37867   1.728   3.914   8.459  0.4850  0.1749 -0.1175
 8744SOL    HW137868   1.667   3.890   8.388 -1.1698 -1.4783  1.8765
 8744SOL    HW237869   1.724   4.009   8.452 -0.8068  0.1722  0.4879
 8745SOL     OW37870   1.345   2.336   3.720  0.1904 -0.2425 -0.1504
 8745SOL    HW137871   1.250   2.333   3.731 -0.0416  1.4343 -1.6439
 8745SOL    HW237872   1.358   2.242   3.737 -0.6566 -0.3097  0.1246
 8746SOL     OW37873   3.331   4.575   9.794  0.3280  0.2115  0.0118
 8746SOL    HW137874   3.352   4.528   9.875  1.6992  0.4869 -0.1749
 8746SOL    HW237875   3.237   4.589   9.802 -0.1903 -3.3177 -0.0464
 8747SOL     OW37876   3.789   1.635   4.053  0.1535 -0.1992 -0.5971
 8747SOL    HW137877   3.831   1.573   3.992  0.7673 -0.6418  0.2819
 8747SOL    HW237878   3.816   1.591   4.134 -3.9838 -0.5536  0.6229
 8748SOL     OW37879   2.689   1.117   5.673  0.7548 -0.2819  0.3212
 8748SOL    HW137880   2.746   1.042   5.659 -0.7858 -1.4420  0.3213
 8748SOL    HW237881   2.720   1.173   5.601 -0.0443  1.6771  1.4877
 8749SOL     OW37882   3.859   2.866   5.470 -0.6922  0.6446 -0.5457
 8749SOL    HW137883   3.770   2.897   5.450 -1.0594 -1.0912 -1.5377
 8749SOL    HW237884   3.907   2.899   5.394  0.9087 -2.5917 -0.9363
 8750SOL     OW37885   3.245   2.811   0.334 -0.0586 -0.1702 -0.2818
 8750SOL    HW137886   3.288   2.884   0.377  0.6793  0.2126 -1.6430
 8750SOL    HW237887   3.237   2.756   0.412  1.5272  0.7176  0.4928
 8751SOL     OW37888   1.519   0.521   3.717 -0.1274  0.0447 -0.4759
 8751SOL    HW137889   1.478   0.595   3.761 -0.1201  0.6210 -1.4490
 8751SOL    HW237890   1.519   0.545   3.624 -4.8180  0.1583 -0.4460
 8752SOL     OW37891   0.030   0.300   9.192 -1.1217 -0.2352 -0.3266
 8752SOL    HW137892   0.112   0.345   9.208 -1.2406 -0.1522  0.0364
 8752SOL    HW237893   0.064   0.220   9.153 -1.7418 -1.0773  0.8506
 8753SOL     OW37894   3.003   3.432   5.929 -0.3753  0.1338  0.6359
 8753SOL    HW137895   3.015   3.428   6.023  1.2591  3.9393  0.6266
 8753SOL    HW237896   2.909   3.448   5.923  0.0292  2.2630 -0.4071
 8754SOL     OW37897   1.797   1.470  16.631 -0.3664  0.1108  0.1463
 8754SOL    HW137898   1.746   1.392  16.652 -0.2678  0.7043  2.5287
 8754SOL    HW237899   1.840   1.484  16.715 -0.7594 -0.9224  0.5188
 8755SOL     OW37900   4.085   4.385  15.050 -0.0807 -0.1675  0.5918
 8755SOL    HW137901   3.992   4.375  15.029 -0.8617  2.6376  2.6154
 8755SOL    HW237902   4.113   4.459  14.997  1.4233 -0.6441  0.7157
 8756SOL     OW37903   2.090   4.621   6.553  0.2656  0.3530 -0.2456
 8756SOL    HW137904   2.007   4.575   6.546  0.6850 -0.3787 -0.4779
 8756SOL    HW237905   2.088   4.617   6.649 -0.9913 -0.5911 -0.3106
 8757SOL     OW37906   2.787   1.976   3.940 -0.4462 -0.0085  0.3461
 8757SOL    HW137907   2.812   1.926   4.018  1.5142 -0.7446 -0.7555
 8757SOL    HW237908   2.799   1.910   3.872  2.1344  1.6439 -0.8325
 8758SOL     OW37909   0.174   1.638   8.905  0.8538  0.2130 -0.0628
 8758SOL    HW137910   0.231   1.707   8.872  0.6108  0.3795 -0.1365
 8758SOL    HW237911   0.136   1.604   8.824  2.2919  0.9598 -1.0415
 8759SOL     OW37912   1.991   3.892  12.938  0.0189  0.1899 -0.1204
 8759SOL    HW137913   1.993   3.796  12.942  1.4885  0.3748  3.1750
 8759SOL    HW237914   1.904   3.909  12.974  1.0886 -0.9020  3.0227
 8760SOL     OW37915   4.037   1.426   4.074 -0.3628 -0.3208 -0.1811
 8760SOL    HW137916   4.116   1.472   4.045 -0.4861  1.0283  1.6024
 8760SOL    HW237917   4.068   1.336   4.072 -0.1359 -0.2508  0.1525
 8761SOL     OW37918   3.549   2.961   7.746  0.5428 -0.1732 -0.4418
 8761SOL    HW137919   3.534   2.887   7.806 -2.8832 -0.0434 -1.1242
 8761SOL    HW237920   3.631   2.933   7.707  1.4526  0.2047  1.2087
 8762SOL     OW37921   0.718   2.001   7.427 -0.0628 -0.1015 -0.0652
 8762SOL    HW137922   0.630   1.965   7.431 -0.1707 -0.1186 -3.0718
 8762SOL    HW237923   0.756   1.964   7.347  1.7073 -2.2565  1.7550
 8763SOL     OW37924   1.575   3.883  11.947  0.1196 -0.0758  0.5844
 8763SOL    HW137925   1.637   3.908  11.878 -1.9543  2.9803 -0.1670
 8763SOL    HW237926   1.606   3.798  11.977  3.7108  0.4148 -1.7382
 8764SOL     OW37927   3.891   3.857  12.634  0.2974 -0.3441 -0.1819
 8764SOL    HW137928   3.890   3.799  12.709  0.7047  2.1112  1.7065
 8764SOL    HW237929   3.859   3.809  12.558 -0.5188 -2.5955  1.6223
 8765SOL     OW37930   0.604   1.106   9.754 -0.0238 -0.1564  0.2205
 8765SOL    HW137931   0.690   1.121   9.716 -1.1411  1.2088 -1.7905
 8765SOL    HW237932   0.608   1.130   9.847 -0.4763  1.5347 -0.1887
 8766SOL     OW37933   3.690   2.506  16.178  0.3295  0.4160 -0.2015
 8766SOL    HW137934   3.663   2.418  16.202 -0.7617  0.7412 -0.2058
 8766SOL    HW237935   3.734   2.487  16.095  0.4314  2.0994 -0.5421
 8767SOL     OW37936   1.305   2.874   7.078  0.0726 -0.1660 -0.5585
 8767SOL    HW137937   1.256   2.930   7.018 -0.5029 -0.5454 -0.4454
 8767SOL    HW237938   1.320   2.934   7.151  1.4172 -1.3559  0.1363
 8768SOL     OW37939   4.027   0.803   4.197 -0.2803 -0.0231 -0.6572
 8768SOL    HW137940   4.068   0.717   4.189 -0.2870 -0.1407  0.7374
 8768SOL    HW237941   3.998   0.822   4.107 -3.2486 -0.0869  0.3033
 8769SOL     OW37942   2.566   2.357  15.103 -0.3585 -0.1920  0.0003
 8769SOL    HW137943   2.655   2.324  15.096 -0.1865  0.5507 -1.1803
 8769SOL    HW237944   2.512   2.284  15.136  1.8147 -1.2257  1.2344
 8770SOL     OW37945   1.595   0.652   4.228 -0.0182 -0.0996 -0.1080
 8770SOL    HW137946   1.526   0.689   4.282 -0.2684 -2.8023  1.4158
 8770SOL    HW237947   1.544   0.618   4.154 -0.7838 -1.9764  1.2527
 8771SOL     OW37948   3.145   3.270  17.389 -1.2233 -0.8696  0.4546
 8771SOL    HW137949   3.059   3.263  17.429 -1.0195  0.9233  1.1950
 8771SOL    HW237950   3.197   3.279  17.469  1.7841 -0.6239 -1.5375
 8772SOL     OW37951   3.563   3.041  12.197 -0.4209 -0.1385  0.2698
 8772SOL    HW137952   3.556   3.133  12.174 -4.8836 -0.5303  0.1862
 8772SOL    HW237953   3.559   2.997  12.112 -2.1503  1.6292 -0.5426
 8773SOL     OW37954   4.082   1.091   3.542  0.4779  0.5793 -0.2758
 8773SOL    HW137955   4.064   1.003   3.509  0.1057  0.3812  0.4404
 8773SOL    HW237956   4.017   1.139   3.491 -0.3600  1.1829  1.3398
 8774SOL     OW37957   1.318   0.313  13.505  0.1822 -0.6246  0.1065
 8774SOL    HW137958   1.299   0.269  13.588  0.7339  0.5375  0.8485
 8774SOL    HW237959   1.234   0.307  13.459 -0.9986  0.1444  2.1778
 8775SOL     OW37960   1.647   3.776   5.580  0.0195  0.5747 -0.0903
 8775SOL    HW137961   1.652   3.685   5.553 -0.0892  0.6570 -0.3901
 8775SOL    HW237962   1.611   3.767   5.668 -1.7878 -1.0130 -1.0075
 8776SOL     OW37963   0.719   3.685  11.846 -0.5213 -0.1277 -0.2443
 8776SOL    HW137964   0.780   3.758  11.838  0.0657 -0.7539 -1.5861
 8776SOL    HW237965   0.717   3.675  11.941  2.1221 -2.3042 -0.3900
 8777SOL     OW37966   0.453   1.512   2.296  0.6705 -0.0320  0.0885
 8777SOL    HW137967   0.358   1.516   2.308  0.8786  0.1621  1.6980
 8777SOL    HW237968   0.480   1.559   2.375  0.1803  0.6672 -0.1611
 8778SOL     OW37969   0.070   0.221   3.473  0.5819  0.1698  0.4677
 8778SOL    HW137970   4.740   0.165   3.443  0.9874  0.3407 -0.8376
 8778SOL    HW237971   0.077   0.180   3.559  0.2440  0.1682  0.4957
 8779SOL     OW37972   2.711   0.696   7.905 -0.0027  0.2813  0.1734
 8779SOL    HW137973   2.672   0.775   7.868  0.3845  0.6469  0.5506
 8779SOL    HW237974   2.801   0.690   7.874  0.1728  1.0539  0.5375
 8780SOL     OW37975   0.573   3.003   7.827  0.4535  0.0932 -0.3956
 8780SOL    HW137976   0.511   3.074   7.812  0.2788  0.4296  1.8489
 8780SOL    HW237977   0.587   3.001   7.922 -0.3524 -2.3700 -0.3227
 8781SOL     OW37978   0.772   3.176   3.168 -0.0566  0.1521 -0.5848
 8781SOL    HW137979   0.681   3.153   3.149  1.1130 -1.8106 -3.7895
 8781SOL    HW237980   0.817   3.093   3.151 -2.9384 -0.9435 -2.9439
 8782SOL     OW37981   3.751   2.139   4.713  0.6825 -0.0703 -0.0808
 8782SOL    HW137982   3.739   2.155   4.806 -0.4349 -0.3226 -0.1853
 8782SOL    HW237983   3.657   2.131   4.696  0.4505 -1.9332  2.0724
 8783SOL     OW37984   0.071   0.143  13.038 -0.2763 -0.4785  0.2821
 8783SOL    HW137985   0.091   0.054  13.007 -1.7007 -0.1541 -1.5332
 8783SOL    HW237986   4.735   0.155  12.985  0.4958 -0.9817 -0.9699
 8784SOL     OW37987   0.196   2.687  15.162 -0.0753  0.4474  0.0494
 8784SOL    HW137988   0.113   2.643  15.144  0.9229 -0.7906 -1.4974
 8784SOL    HW237989   0.216   2.649  15.248 -1.5941  0.9641  0.6322
 8785SOL     OW37990   2.412   2.583  17.478 -0.1575 -0.6041 -0.1476
 8785SOL    HW137991   2.342   2.528  17.444 -0.0840 -0.3956 -0.6359
 8785SOL    HW237992   2.445   2.623  17.397 -1.6110 -2.0609 -1.4685
 8786SOL     OW37993   1.245   1.980   9.715  0.1359 -0.0207  0.0155
 8786SOL    HW137994   1.200   1.911   9.666  1.9735 -1.2726  0.0534
 8786SOL    HW237995   1.262   2.043   9.645 -1.3712  2.5495  1.9846
 8787SOL     OW37996   1.553   4.578   5.683  0.0684  0.4551  0.0849
 8787SOL    HW137997   1.582   4.489   5.702  2.3526  1.4519  1.1987
 8787SOL    HW237998   1.457   4.577   5.687  0.1107 -0.6822  0.8891
 8788SOL     OW37999   0.128   3.257  14.926 -0.1092 -0.2004 -0.3477
 8788SOL    HW138000   0.080   3.177  14.908 -1.6174  0.5731  0.2876
 8788SOL    HW238001   0.108   3.306  14.846 -1.6648 -1.6480 -0.8396
 8789SOL     OW38002   3.879   1.308   8.496  0.1505 -0.1911  0.3976
 8789SOL    HW138003   3.927   1.333   8.417 -1.0650 -0.5717 -0.4657
 8789SOL    HW238004   3.794   1.308   8.451  0.8378 -0.0417 -0.9158
 8790SOL     OW38005   4.278   3.643   5.094 -0.1882  0.1613 -0.3364
 8790SOL    HW138006   4.224   3.673   5.021 -2.3815 -2.6563  0.1348
 8790SOL    HW238007   4.364   3.671   5.063 -1.1346  1.6454 -1.5794
 8791SOL     OW38008   1.781   3.093   1.614  0.0400 -0.3873  1.0411
 8791SOL    HW138009   1.780   3.020   1.551 -0.6276  1.1660 -0.7395
 8791SOL    HW238010   1.843   3.057   1.677  0.0258 -1.5895  0.3782
 8792SOL     OW38011   3.485   0.840   7.383  0.6232  0.1639  0.5991
 8792SOL    HW138012   3.489   0.808   7.473  0.3246 -1.4855  0.0247
 8792SOL    HW238013   3.389   0.840   7.375  0.8526 -1.7759 -2.0275
 8793SOL     OW38014   3.613   1.491  11.466 -0.0521 -0.8065 -0.4950
 8793SOL    HW138015   3.582   1.526  11.549 -3.5133  0.7913 -2.4619
 8793SOL    HW238016   3.707   1.490  11.483  0.1997 -1.5972 -1.8886
 8794SOL     OW38017   1.290   1.306   4.206  0.7342  0.4422  0.3909
 8794SOL    HW138018   1.300   1.348   4.120  0.1337 -1.5129 -0.6209
 8794SOL    HW238019   1.227   1.361   4.252  0.7549  1.4931 -0.8247
 8795SOL     OW38020   2.018   1.388   9.866 -0.5171  0.0228  0.1778
 8795SOL    HW138021   2.074   1.464   9.887  0.1683 -0.1954 -0.8842
 8795SOL    HW238022   2.013   1.338   9.947  0.2805  1.0316  0.8578
 8796SOL     OW38023   0.639   2.545  14.334  0.2610 -0.1521 -0.9792
 8796SOL    HW138024   0.622   2.516  14.245 -0.7079 -0.0022 -0.8438
 8796SOL    HW238025   0.556   2.519  14.375  0.9761  0.9948  1.1760
 8797SOL     OW38026   0.026   3.589   5.308 -0.2504  0.4526  0.3510
 8797SOL    HW138027   0.117   3.587   5.339 -0.6246 -2.7229  1.2455
 8797SOL    HW238028   4.718   3.560   5.384  1.6279  0.7879  1.7002
 8798SOL     OW38029   2.331   3.848  15.012 -0.4185  0.2430  0.2953
 8798SOL    HW138030   2.295   3.929  15.048  0.7108  0.9315 -0.0998
 8798SOL    HW238031   2.322   3.791  15.088 -1.3524 -1.3859 -1.0384
 8799SOL     OW38032   2.619   3.128  12.260  0.0891  0.5459  0.1828
 8799SOL    HW138033   2.684   3.135  12.190  1.5675 -0.2282  1.4596
 8799SOL    HW238034   2.632   3.035  12.279  0.1365  0.3499 -0.8064
 8800SOL     OW38035   1.351   1.520   4.955 -0.4662  0.1549  0.1959
 8800SOL    HW138036   1.435   1.561   4.974 -0.2788 -0.7321  1.3017
 8800SOL    HW238037   1.349   1.498   4.862  2.5637 -0.9940  0.4188
 8801SOL     OW38038   3.868   3.709   9.786  0.0710 -0.3663 -0.4897
 8801SOL    HW138039   3.876   3.665   9.871  0.7961  1.5974  0.4326
 8801SOL    HW238040   3.948   3.761   9.785  1.5769 -2.6634 -1.7779
 8802SOL     OW38041   4.498   0.979   2.082 -0.1185 -0.4466 -0.0147
 8802SOL    HW138042   4.549   1.007   2.158  0.6168 -3.6449  0.6608
 8802SOL    HW238043   4.408   1.001   2.103 -0.7337 -2.1578 -0.8675
 8803SOL     OW38044   0.886   4.082   6.154 -0.8000  0.2769 -1.2730
 8803SOL    HW138045   0.903   4.011   6.092 -0.7421  0.2580 -1.2349
 8803SOL    HW238046   0.883   4.032   6.235 -0.7327  0.8668 -0.9039
 8804SOL     OW38047   2.641   4.006  17.686  0.2965  0.1335  0.0305
 8804SOL    HW138048   2.577   4.016  17.615  1.8038  1.6100 -1.1214
 8804SOL    HW238049   2.701   3.942  17.648  0.1531  0.1674 -0.2532
 8805SOL     OW38050   0.341   4.452   8.371 -0.4608 -0.4033 -0.3185
 8805SOL    HW138051   0.412   4.441   8.307  2.3793  1.6474  2.5109
 8805SOL    HW238052   0.351   4.377   8.430  1.9263 -0.9092 -1.3580
 8806SOL     OW38053   0.865   0.297   7.525  0.8056  0.5692 -0.0094
 8806SOL    HW138054   0.854   0.204   7.509  2.2980  0.4260 -0.1803
 8806SOL    HW238055   0.792   0.335   7.475  0.9720  0.1686 -0.5455
 8807SOL     OW38056   2.017   1.426   7.267 -0.0914  0.7156  0.3943
 8807SOL    HW138057   1.969   1.372   7.330 -0.1377 -0.9466 -1.0562
 8807SOL    HW238058   2.103   1.385   7.278  0.1383  0.4930 -2.1600
 8808SOL     OW38059   0.283   0.517   3.286  0.2114  0.3301 -0.6522
 8808SOL    HW138060   0.355   0.517   3.222  0.5606 -0.5148 -0.2617
 8808SOL    HW238061   0.245   0.436   3.252  0.9765 -0.7060  0.9675
 8809SOL     OW38062   0.176   0.514   5.437 -0.6806 -0.0071 -0.2720
 8809SOL    HW138063   0.106   0.454   5.413 -0.1333 -0.9150  0.4086
 8809SOL    HW238064   0.198   0.553   5.353 -0.5421  0.4067 -0.0413
 8810SOL     OW38065   1.526   2.700   6.233  0.1152 -0.2606  0.5165
 8810SOL    HW138066   1.469   2.766   6.193 -0.6719 -0.9992  0.4312
 8810SOL    HW238067   1.459   2.659   6.287 -0.5013  1.9519  1.4475
 8811SOL     OW38068   0.946   2.119   1.427 -0.1888 -0.5318 -0.2341
 8811SOL    HW138069   0.963   2.145   1.336 -1.5255  0.6732 -0.1387
 8811SOL    HW238070   0.984   2.193   1.475 -3.6072  0.5020  0.8791
 8812SOL     OW38071   0.852   0.534   8.984 -0.0682  0.1279 -0.9133
 8812SOL    HW138072   0.833   0.478   9.059 -1.0268 -0.5950 -1.7001
 8812SOL    HW238073   0.892   0.473   8.921 -0.5456 -1.6091  0.4721
 8813SOL     OW38074   3.351   0.281   7.939 -0.2489  0.7851  0.5251
 8813SOL    HW138075   3.378   0.371   7.920  2.0817  0.2757  1.4899
 8813SOL    HW238076   3.257   0.287   7.958 -1.0796 -0.7102 -3.0399
 8814SOL     OW38077   4.336   3.750   6.139 -0.1287 -0.1488  0.2624
 8814SOL    HW138078   4.253   3.716   6.171 -0.4813  0.4976  0.0308
 8814SOL    HW238079   4.402   3.711   6.197  0.2240 -1.1111 -0.7726
 8815SOL     OW38080   3.908   0.618   4.796  0.2375  0.5281 -0.2015
 8815SOL    HW138081   3.994   0.584   4.773 -0.1037 -0.4042 -0.1039
 8815SOL    HW238082   3.889   0.575   4.880  0.2084  3.1848  1.1371
 8816SOL     OW38083   4.267   2.797  13.848  0.5075 -0.2654  0.1275
 8816SOL    HW138084   4.227   2.763  13.928 -0.7835  0.0046 -0.4044
 8816SOL    HW238085   4.322   2.722  13.826  0.6812 -0.5532  1.5249
 8817SOL     OW38086   2.376   3.080   7.621  0.1286  0.2408  0.3342
 8817SOL    HW138087   2.322   3.001   7.625  1.9247 -0.8029  3.8390
 8817SOL    HW238088   2.446   3.055   7.561 -0.8510 -0.7162 -0.4276
 8818SOL     OW38089   4.453   3.101   8.719 -0.2237  0.5162 -0.6287
 8818SOL    HW138090   4.361   3.120   8.736  0.0079  0.1422  0.9689
 8818SOL    HW238091   4.448   3.053   8.636 -0.6074  0.4410 -0.5587
 8819SOL     OW38092   3.788   1.045  15.492 -0.6256 -0.4462 -0.4819
 8819SOL    HW138093   3.795   0.952  15.514 -0.8535 -0.1685  0.7870
 8819SOL    HW238094   3.876   1.073  15.513 -0.6850 -0.0088 -0.8285
 8820SOL     OW38095   0.136   1.766   7.355  0.2312 -0.1095  0.3387
 8820SOL    HW138096   0.212   1.750   7.410  1.2599 -1.1075 -1.3557
 8820SOL    HW238097   0.190   1.801   7.284  0.4324 -0.1525  0.4720
 8821SOL     OW38098   3.799   1.110   1.570 -0.0489  0.0594 -0.4465
 8821SOL    HW138099   3.834   1.037   1.519  0.3113  1.5519 -2.3059
 8821SOL    HW238100   3.835   1.085   1.656 -1.6089  1.6804  0.6818
 8822SOL     OW38101   1.988   1.979   8.147 -0.3807 -0.7848 -0.3025
 8822SOL    HW138102   1.924   1.944   8.085 -1.7449  1.6116 -0.2222
 8822SOL    HW238103   2.035   1.895   8.150 -1.3642 -1.3514 -0.8523
 8823SOL     OW38104   0.908   1.525   6.476 -0.0083  0.2112  0.2083
 8823SOL    HW138105   0.903   1.615   6.443  1.5640  0.1154 -0.2791
 8823SOL    HW238106   0.826   1.492   6.440 -0.5304 -0.1250  1.6885
 8824SOL     OW38107   3.424   4.694   2.907  0.3592  0.1127  0.6704
 8824SOL    HW138108   3.514   4.725   2.893  0.1187  0.9235  0.9159
 8824SOL    HW238109   3.383   4.688   2.821  1.1119  2.0611  0.1829
 8825SOL     OW38110   3.451   3.130   5.160  0.2569 -0.1495  0.6857
 8825SOL    HW138111   3.385   3.093   5.102 -0.0883 -0.3591  1.2122
 8825SOL    HW238112   3.477   3.205   5.106  0.6758  0.0553  1.1734
 8826SOL     OW38113   1.540   4.537  16.020 -0.5855 -0.0089  0.2044
 8826SOL    HW138114   1.506   4.523  15.931  0.0043 -1.3966  0.2042
 8826SOL    HW238115   1.520   4.629  16.037  1.1278  0.2154  0.9605
 8827SOL     OW38116   2.844   4.341   2.669 -0.5836 -0.3123 -0.7663
 8827SOL    HW138117   2.779   4.409   2.684 -0.1817  0.3230 -1.8919
 8827SOL    HW238118   2.797   4.258   2.672  1.4495 -1.3814  1.7161
 8828SOL     OW38119   0.184   0.269   9.519 -0.8233  0.3551 -0.2325
 8828SOL    HW138120   0.089   0.273   9.508 -0.6116 -0.8669 -2.3848
 8828SOL    HW238121   0.208   0.181   9.492 -1.5142  0.2625 -0.5303
 8829SOL     OW38122   4.286   0.976   4.902 -0.1330 -0.5648  0.1109
 8829SOL    HW138123   4.219   0.913   4.931  0.0459 -0.4437  0.7681
 8829SOL    HW238124   4.370   0.931   4.908  0.2039  0.0378 -0.0719
 8830SOL     OW38125   4.143   2.507  16.330  0.1719  0.2722  0.4757
 8830SOL    HW138126   4.138   2.525  16.424 -1.1697  1.2092  0.2253
 8830SOL    HW238127   4.118   2.591  16.291  0.9223  1.4382  2.4435
 8831SOL     OW38128   2.547   4.209   1.618  0.2042 -0.0928  0.5080
 8831SOL    HW138129   2.502   4.252   1.546 -1.1008 -0.6929  0.9713
 8831SOL    HW238130   2.577   4.126   1.581  0.2775 -0.2720  0.9720
 8832SOL     OW38131   0.938   1.388   1.196  0.2238 -0.6691 -0.6789
 8832SOL    HW138132   0.951   1.392   1.291 -0.1314 -0.2920 -0.6471
 8832SOL    HW238133   0.967   1.476   1.173  0.8561 -1.0209 -1.2297
 8833SOL     OW38134   0.340   1.037   7.427 -0.0192 -0.3298 -0.3350
 8833SOL    HW138135   0.363   0.981   7.500 -0.9130 -0.8401 -0.4487
 8833SOL    HW238136   0.257   0.995   7.403  0.5005 -1.7774  0.4664
 8834SOL     OW38137   3.932   1.082  14.132  0.3455 -0.1860  0.2929
 8834SOL    HW138138   3.944   0.989  14.152 -1.9128 -1.0126 -2.3183
 8834SOL    HW238139   4.017   1.116  14.104  0.3952 -0.6281 -0.0969
 8835SOL     OW38140   0.263   3.451  15.051 -0.1284  0.1087 -0.2749
 8835SOL    HW138141   0.220   3.379  15.004  0.7523 -0.9216  0.5147
 8835SOL    HW238142   0.253   3.510  14.976 -0.1163  1.4433  0.7669
 8836SOL     OW38143   1.586   3.800   4.467 -0.3634 -0.2788  0.2079
 8836SOL    HW138144   1.603   3.831   4.556 -0.7936  0.6492 -0.0333
 8836SOL    HW238145   1.673   3.769   4.443 -0.3389 -0.7381  0.8606
 8837SOL     OW38146   4.066   4.047  13.436  0.1851  0.4153 -0.0291
 8837SOL    HW138147   4.068   3.991  13.359 -2.1716  2.3541 -1.4789
 8837SOL    HW238148   4.161   4.062  13.434  0.4635 -1.5268 -1.1766
 8838SOL     OW38149   4.614   2.185   5.589 -0.1978  0.5351 -0.0480
 8838SOL    HW138150   4.559   2.214   5.516 -0.4479  0.3505  0.0700
 8838SOL    HW238151   4.684   2.135   5.548  0.1140 -1.2414  2.6829
 8839SOL     OW38152   3.560   4.263   2.396 -0.5308 -0.3367 -0.1758
 8839SOL    HW138153   3.467   4.279   2.381 -0.2679  0.6539 -0.7387
 8839SOL    HW238154   3.565   4.291   2.488  0.2644  0.4958 -0.4812
 8840SOL     OW38155   3.976   1.467  11.703 -0.5427  0.0420  0.1987
 8840SOL    HW138156   4.046   1.430  11.756  1.8494  2.8506 -1.0261
 8840SOL    HW238157   4.008   1.555  11.685 -2.0543  1.1120  2.7605
 8841SOL     OW38158   3.214   0.384   8.770 -0.2128  0.0295  0.3980
 8841SOL    HW138159   3.220   0.449   8.700  3.6437 -1.0096 -0.2110
 8841SOL    HW238160   3.304   0.356   8.781  0.1547  1.2803  0.5372
 8842SOL     OW38161   0.529   2.988   3.248  0.0512 -0.4252  0.1762
 8842SOL    HW138162   0.448   2.941   3.270  0.9199 -2.5236 -1.0690
 8842SOL    HW238163   0.485   3.042   3.182  0.8447  0.3032  0.2463
 8843SOL     OW38164   1.073   0.769   2.076 -0.3321  0.0716 -0.1229
 8843SOL    HW138165   1.027   0.687   2.093  3.7112 -2.6539 -2.3775
 8843SOL    HW238166   1.012   0.821   2.025 -0.6950 -1.1069 -0.8945
 8844SOL     OW38167   3.692   3.277   6.674  0.3603  0.4326 -0.3649
 8844SOL    HW138168   3.728   3.345   6.730 -0.3781 -0.0694  0.7240
 8844SOL    HW238169   3.746   3.201   6.696  0.1085  0.1676 -0.6691
 8845SOL     OW38170   3.967   3.319   5.570 -0.0901  0.2107 -0.0552
 8845SOL    HW138171   3.890   3.336   5.624  1.2828  2.2024  1.3048
 8845SOL    HW238172   3.916   3.279   5.500  0.6200  0.1393 -0.5368
 8846SOL     OW38173   3.214   1.519   5.014  0.0111  0.1453 -0.0077
 8846SOL    HW138174   3.193   1.524   4.921 -2.7520  1.0077  0.6544
 8846SOL    HW238175   3.260   1.600   5.035  2.6693 -2.1244  3.0362
 8847SOL     OW38176   3.709   0.314   3.599 -0.1569 -0.0903 -0.3686
 8847SOL    HW138177   3.776   0.246   3.608  0.3301  0.5801  1.0359
 8847SOL    HW238178   3.662   0.307   3.682 -2.2170  1.0031 -1.4556
 8848SOL     OW38179   3.918   3.224   4.276  0.3808 -0.5507  0.3215
 8848SOL    HW138180   3.963   3.160   4.221 -0.8075  1.1821 -2.6466
 8848SOL    HW238181   3.960   3.305   4.248 -1.5285  0.1768 -0.4011
 8849SOL     OW38182   4.175   4.493  11.015 -0.3342 -0.2074 -0.2465
 8849SOL    HW138183   4.162   4.447  11.097 -0.2492  1.7728  0.8825
 8849SOL    HW238184   4.087   4.505  10.980 -0.8838  0.7188  1.4651
 8850SOL     OW38185   2.848   0.079   4.856  0.4014  0.3073  0.0865
 8850SOL    HW138186   2.898   0.037   4.925  1.0665 -0.6952 -1.0069
 8850SOL    HW238187   2.863   0.011   4.791 -0.9321  1.9358 -1.9407
 8851SOL     OW38188   2.974   0.446  11.063 -0.0070  0.3630  0.8407
 8851SOL    HW138189   2.904   0.384  11.081  0.4166 -0.3331  0.0786
 8851SOL    HW238190   2.949   0.486  10.979  1.6798 -1.9512 -0.7401
 8852SOL     OW38191   0.669   3.550   9.822  0.5004 -0.0977 -0.5241
 8852SOL    HW138192   0.601   3.618   9.825 -0.0858 -0.6721 -0.7445
 8852SOL    HW238193   0.618   3.474   9.794 -0.4384  1.0456 -1.9755
 8853SOL     OW38194   1.933   1.073  13.129 -0.1776 -0.1467 -0.0292
 8853SOL    HW138195   1.928   0.985  13.167  1.3052 -0.4488 -0.5509
 8853SOL    HW238196   1.925   1.129  13.206  0.3452  1.0611 -0.8497
 8854SOL     OW38197   3.466   2.383   3.270  0.0403  0.0593  0.1429
 8854SOL    HW138198   3.533   2.328   3.308  1.5199 -0.0885 -2.6779
 8854SOL    HW238199   3.524   2.447   3.229  2.3144 -2.1321  0.0033
 8855SOL     OW38200   2.356   2.003   5.264  0.3281 -0.2951  0.2717
 8855SOL    HW138201   2.443   2.029   5.234 -0.5098  2.1536 -0.0168
 8855SOL    HW238202   2.353   1.907   5.259  0.2210 -0.3183  0.7643
 8856SOL     OW38203   2.284   1.087   9.196  0.0677 -0.3214 -0.1644
 8856SOL    HW138204   2.290   1.182   9.210  0.6522 -0.3620 -0.1442
 8856SOL    HW238205   2.312   1.053   9.281  0.3065 -0.5356 -0.3280
 8857SOL     OW38206   1.037   2.635  12.471 -0.3003 -0.3955 -0.4860
 8857SOL    HW138207   1.069   2.545  12.479 -2.3851 -1.1994 -1.1734
 8857SOL    HW238208   0.999   2.645  12.558 -0.4500  0.2441 -0.6282
 8858SOL     OW38209   3.315   4.183   3.175 -0.2376  0.3361  0.2593
 8858SOL    HW138210   3.392   4.205   3.123 -0.4390  2.0359  0.6618
 8858SOL    HW238211   3.342   4.246   3.242  0.7668 -1.4888  1.5545
 8859SOL     OW38212   3.324   0.510   7.523  0.6849 -0.5124  0.3002
 8859SOL    HW138213   3.369   0.448   7.465  3.6036  0.3352  1.6699
 8859SOL    HW238214   3.256   0.556   7.474  2.3644  1.9366  0.3316
 8860SOL     OW38215   3.113   0.030   7.681  0.1361 -0.2994 -0.6114
 8860SOL    HW138216   3.040   0.089   7.663  1.0698  1.2449  0.7223
 8860SOL    HW238217   3.083   4.688   7.646  1.6329 -0.7723 -0.7421
 8861SOL     OW38218   1.625   2.275   6.879 -0.0489  0.2700 -0.0859
 8861SOL    HW138219   1.598   2.364   6.856  0.6257  0.4882 -0.0593
 8861SOL    HW238220   1.711   2.276   6.836  0.9775  0.1817  1.9605
 8862SOL     OW38221   0.501   3.258   2.021 -0.1852  0.0641 -0.2634
 8862SOL    HW138222   0.504   3.169   2.057  1.2344 -0.3740 -1.4796
 8862SOL    HW238223   0.452   3.246   1.939 -0.4767 -0.3067 -0.0368
 8863SOL     OW38224   3.010   2.768   5.413 -0.1678 -0.1163 -0.2422
 8863SOL    HW138225   2.972   2.680   5.406 -0.0267 -0.2034  0.0758
 8863SOL    HW238226   3.099   2.743   5.436 -0.8067 -2.1273  0.0002
 8864SOL     OW38227   0.860   2.603   6.202  0.3780 -0.6150  0.1260
 8864SOL    HW138228   0.835   2.694   6.221  1.2961 -0.3024 -0.1684
 8864SOL    HW238229   0.944   2.624   6.163  0.5574  0.6667  1.2121
 8865SOL     OW38230   1.929   3.821   5.801 -0.5279 -0.5061 -0.5808
 8865SOL    HW138231   1.909   3.728   5.790  0.5926 -0.5302 -2.4159
 8865SOL    HW238232   1.976   3.843   5.720 -0.3002  4.1637  0.7891
 8866SOL     OW38233   1.767   1.529   4.101 -0.7156  0.2405 -0.0243
 8866SOL    HW138234   1.683   1.572   4.116 -2.0123 -1.7608 -1.5405
 8866SOL    HW238235   1.737   1.504   4.013 -2.0854  2.3087 -0.1464
 8867SOL     OW38236   2.106   3.480   2.692 -0.1160 -0.1544 -0.3041
 8867SOL    HW138237   2.062   3.560   2.663 -2.2800 -1.4026 -0.4325
 8867SOL    HW238238   2.050   3.447   2.762 -0.9160  1.2814 -0.2698
 8868SOL     OW38239   1.862   3.724  10.221  0.3842  0.0362  0.0839
 8868SOL    HW138240   1.934   3.685  10.271  0.6054  2.3585  1.5949
 8868SOL    HW238241   1.893   3.813  10.203 -0.7950 -0.3881 -3.9111
 8869SOL     OW38242   1.761   2.270  13.936 -0.2164  0.0979  0.3142
 8869SOL    HW138243   1.826   2.326  13.892 -0.9992 -1.9695 -3.5110
 8869SOL    HW238244   1.758   2.304  14.025 -0.6278 -1.0047  0.7123
 8870SOL     OW38245   1.596   1.952   3.617 -0.2674 -0.0127 -0.1152
 8870SOL    HW138246   1.670   1.958   3.557 -0.1640  1.4681  0.1448
 8870SOL    HW238247   1.532   2.001   3.566  0.3564 -2.0002 -2.7899
 8871SOL     OW38248   0.630   2.607  14.751 -0.0837 -0.0842  0.0804
 8871SOL    HW138249   0.685   2.625  14.828  0.0632 -0.4577  0.0616
 8871SOL    HW238250   0.586   2.691  14.734  0.5762  0.6355  1.9055
 8872SOL     OW38251   3.139   3.119   1.402  0.3038 -0.5243 -0.3737
 8872SOL    HW138252   3.124   3.037   1.356  1.4047  0.0881 -1.7954
 8872SOL    HW238253   3.235   3.125   1.402  0.2000  1.0556 -0.8523
 8873SOL     OW38254   1.945   2.432  13.816 -0.4154  0.4854 -0.3420
 8873SOL    HW138255   1.945   2.400  13.725  1.7281  0.0622 -0.1726
 8873SOL    HW238256   2.040   2.437  13.821 -0.4729  0.1511  1.0063
 8874SOL     OW38257   1.287   3.642   7.857  0.1428  0.1759 -0.7899
 8874SOL    HW138258   1.215   3.704   7.845  0.2110  0.6999  1.4282
 8874SOL    HW238259   1.264   3.623   7.948 -0.6132  3.7564 -0.2213
 8875SOL     OW38260   1.118   1.189   8.103  0.1802  0.0468 -0.2512
 8875SOL    HW138261   1.079   1.125   8.163  2.1469 -1.0697 -0.1628
 8875SOL    HW238262   1.110   1.132   8.026  2.8098 -1.5593  0.6618
 8876SOL     OW38263   2.715   0.754  13.110 -0.2983  0.2708  0.6535
 8876SOL    HW138264   2.765   0.748  13.028  0.5664  2.5484  0.9976
 8876SOL    HW238265   2.721   0.664  13.142 -0.5018  0.0750  0.1376
 8877SOL     OW38266   0.217   1.269   4.267  0.3921  0.1063  0.5797
 8877SOL    HW138267   0.290   1.209   4.260 -1.1263 -1.8330  1.4682
 8877SOL    HW238268   0.155   1.237   4.201 -0.3065  0.4005  1.0905
 8878SOL     OW38269   3.102   3.350   0.514 -0.3893  0.2303  0.0610
 8878SOL    HW138270   3.052   3.287   0.462  0.3761 -0.7766  0.5506
 8878SOL    HW238271   3.056   3.347   0.598  1.6717 -0.5286  1.1754
 8879SOL     OW38272   3.569   2.189  10.615 -0.0993  0.1170 -0.1485
 8879SOL    HW138273   3.600   2.106  10.652 -1.7194 -1.1874 -1.7164
 8879SOL    HW238274   3.484   2.196  10.657 -0.3493  0.9009 -0.7943
 8880SOL     OW38275   3.157   0.495   9.822 -0.2325 -0.1406  0.2305
 8880SOL    HW138276   3.230   0.435   9.807  0.4641  0.0129  2.9507
 8880SOL    HW238277   3.188   0.580   9.790 -4.2615  0.5339 -1.8759
 8881SOL     OW38278   4.707   3.324   1.070  0.0022 -0.1940  0.4961
 8881SOL    HW138279   4.681   3.292   0.984  0.2302 -0.6963  0.6114
 8881SOL    HW238280   0.058   3.301   1.075  0.5514  1.6844 -1.2060
 8882SOL     OW38281   0.226   4.307   8.595 -0.4335 -1.0520  0.4391
 8882SOL    HW138282   0.280   4.236   8.630  0.1499 -0.7748  0.0992
 8882SOL    HW238283   0.197   4.357   8.671  0.3982 -1.8937  1.3067
 8883SOL     OW38284   2.538   0.567   2.544  0.3683 -0.1151  0.0400
 8883SOL    HW138285   2.508   0.487   2.587  2.3265 -0.1580  1.3326
 8883SOL    HW238286   2.631   0.548   2.530  0.9840  1.2361  2.3465
 8884SOL     OW38287   2.171   4.488   2.624 -0.4681  0.7533 -0.0706
 8884SOL    HW138288   2.122   4.408   2.607  3.3021 -1.7289  0.5769
 8884SOL    HW238289   2.097   4.531   2.666  1.4322  1.1193  2.9255
 8885SOL     OW38290   3.950   2.371  16.509  0.4642 -0.0223  0.2710
 8885SOL    HW138291   3.889   2.352  16.581  2.3006 -0.7010  1.6532
 8885SOL    HW238292   4.035   2.357  16.551 -0.0242 -2.3677  0.4936
 8886SOL     OW38293   4.146   2.098   9.761 -0.5541  0.4141  0.0348
 8886SOL    HW138294   4.233   2.058   9.750 -1.3199 -1.2242 -0.0476
 8886SOL    HW238295   4.166   2.192   9.760  2.2624 -0.2090 -2.0323
 8887SOL     OW38296   0.300   3.164   2.601  0.3856  0.1714  1.1158
 8887SOL    HW138297   0.281   3.247   2.557  1.1698 -1.5799 -2.4860
 8887SOL    HW238298   0.269   3.094   2.544 -0.3889  1.2325  0.2366
 8888SOL     OW38299   4.295   0.592   8.910 -0.1005  0.0795  0.3138
 8888SOL    HW138300   4.350   0.514   8.910  0.1110  0.2285  0.0736
 8888SOL    HW238301   4.211   0.560   8.876  0.1077  1.3886 -1.4683
 8889SOL     OW38302   2.959   2.168   2.504 -0.5057  0.5489  0.0729
 8889SOL    HW138303   2.978   2.115   2.581  0.5964  0.7032 -0.0920
 8889SOL    HW238304   3.018   2.129   2.440  0.4655 -0.3686  1.5206
 8890SOL     OW38305   1.534   2.848   5.306  0.4386  0.5554 -0.4277
 8890SOL    HW138306   1.626   2.863   5.329  0.5323 -2.4532  1.1819
 8890SOL    HW238307   1.538   2.902   5.228 -0.0566  0.6998 -0.3498
 8891SOL     OW38308   0.543   3.748   4.680 -0.1899  0.1468  0.4111
 8891SOL    HW138309   0.469   3.693   4.653  0.6096  0.3242 -2.0586
 8891SOL    HW238310   0.601   3.682   4.719  0.8473 -0.5158 -2.2425
 8892SOL     OW38311   2.995   4.383   3.933  0.5396  0.6357 -0.3546
 8892SOL    HW138312   3.066   4.320   3.924  0.0156  0.3707 -2.4715
 8892SOL    HW238313   2.919   4.343   3.892  0.6990  0.9697 -0.9715
 8893SOL     OW38314   2.223   0.073   4.816  0.1026 -0.2353 -0.8179
 8893SOL    HW138315   2.263   0.158   4.835 -0.7589  0.2096 -1.0252
 8893SOL    HW238316   2.200   0.043   4.904  0.4432  2.8405  0.3185
 8894SOL     OW38317   3.299   2.675  13.336  0.0081 -0.4122 -0.4032
 8894SOL    HW138318   3.281   2.728  13.414 -2.6742 -1.8360 -0.0625
 8894SOL    HW238319   3.380   2.635  13.366  0.0864 -0.4171 -0.6224
 8895SOL     OW38320   2.361   0.535   1.571  0.1551 -0.0538  0.5899
 8895SOL    HW138321   2.266   0.533   1.562  0.3238 -0.3034 -1.1502
 8895SOL    HW238322   2.373   0.618   1.616  0.8189 -0.4688  1.1755
 8896SOL     OW38323   3.281   3.131   5.549 -0.0643 -0.1094 -0.5716
 8896SOL    HW138324   3.249   3.141   5.460 -2.0789 -0.4864  0.1235
 8896SOL    HW238325   3.220   3.062   5.573  0.8141 -1.2027 -1.4887
 8897SOL     OW38326   4.515   2.388   7.499 -0.0126  0.2474  0.3450
 8897SOL    HW138327   4.601   2.411   7.533  0.7540  1.4405 -2.3824
 8897SOL    HW238328   4.542   2.298   7.477  2.3679  1.1925 -0.5697
 8898SOL     OW38329   0.314   2.969   6.570 -0.1443  0.9117  0.0847
 8898SOL    HW138330   0.307   2.917   6.650 -1.0375  1.2629  0.2374
 8898SOL    HW238331   0.405   2.957   6.544 -0.1714 -0.3893  0.6062
 8899SOL     OW38332   1.778   0.071   4.791  0.7614  0.3017  0.6689
 8899SOL    HW138333   1.785   0.116   4.875  3.8279  0.8682  0.0967
 8899SOL    HW238334   1.830   4.735   4.807  1.6601  0.8727  0.5440
 8900SOL     OW38335   0.439   3.102   7.495 -0.2001 -0.6634  0.0388
 8900SOL    HW138336   0.506   3.163   7.526  0.5960 -1.4192 -0.2072
 8900SOL    HW238337   0.362   3.157   7.479  0.6952  0.8451  0.9183
 8901SOL     OW38338   2.756   4.244  12.757  0.0913  0.2781 -0.4154
 8901SOL    HW138339   2.691   4.225  12.689  0.1477 -0.8625 -0.1584
 8901SOL    HW238340   2.821   4.175  12.743 -0.4408 -0.3429  0.1796
 8902SOL     OW38341   2.212   3.835  15.480 -0.1741  0.6005  0.2099
 8902SOL    HW138342   2.304   3.860  15.488 -0.2417  0.9946 -0.2396
 8902SOL    HW238343   2.177   3.921  15.502 -1.1396  0.3582 -0.3922
 8903SOL     OW38344   3.125   4.254  16.204  0.0550  0.3183 -0.0328
 8903SOL    HW138345   3.122   4.223  16.113  0.6516 -1.7161  0.6279
 8903SOL    HW238346   3.037   4.247  16.241 -0.1712  1.0175 -0.4425
 8904SOL     OW38347   0.927   0.781   6.712  0.5974 -0.2359  0.1484
 8904SOL    HW138348   0.865   0.793   6.640 -0.5194  0.6809  1.2660
 8904SOL    HW238349   0.959   0.871   6.707  0.5257 -0.2282 -0.1881
 8905SOL     OW38350   4.079   4.577   9.566 -0.2680 -0.4105  0.1856
 8905SOL    HW138351   4.128   4.653   9.596  0.0893 -0.2496 -0.7770
 8905SOL    HW238352   4.129   4.512   9.615 -0.4178 -2.1839 -1.9904
 8906SOL     OW38353   2.583   2.183   9.946 -0.4015 -0.1857  0.6276
 8906SOL    HW138354   2.519   2.173  10.017 -0.5359 -1.4479  0.3182
 8906SOL    HW238355   2.600   2.089   9.938  2.1969  0.2106  1.5336
 8907SOL     OW38356   4.226   0.803   3.913  0.0850 -0.7295  0.1429
 8907SOL    HW138357   4.229   0.759   3.828 -1.5899 -2.1177  0.7988
 8907SOL    HW238358   4.142   0.848   3.907  1.1818  1.0301 -1.8039
 8908SOL     OW38359   1.714   2.084   8.157  0.2524 -0.1205 -0.0703
 8908SOL    HW138360   1.739   2.003   8.202  0.5152 -0.6871 -1.2469
 8908SOL    HW238361   1.620   2.085   8.177 -0.1647  0.6264 -2.0159
 8909SOL     OW38362   1.966   1.671   1.745 -0.4110 -0.4431 -0.6905
 8909SOL    HW138363   1.945   1.712   1.829  0.7586 -0.4616 -0.3816
 8909SOL    HW238364   2.055   1.702   1.726 -0.8791  0.2800 -1.6562
 8910SOL     OW38365   1.281   0.666  12.418 -0.0264  0.6364 -0.6642
 8910SOL    HW138366   1.285   0.754  12.382 -1.2043  0.9781  0.0546
 8910SOL    HW238367   1.357   0.623  12.377 -0.9076 -1.2586 -0.2811
 8911SOL     OW38368   4.595   2.203  16.786  0.0151 -0.2224 -0.4244
 8911SOL    HW138369   4.570   2.252  16.865  2.3378  1.9459 -1.0372
 8911SOL    HW238370   4.528   2.135  16.801  1.4935 -1.5563  0.2250
 8912SOL     OW38371   3.787   1.402   6.389 -0.2566 -0.1393  0.0299
 8912SOL    HW138372   3.850   1.338   6.421 -0.1250 -0.0019  0.0484
 8912SOL    HW238373   3.711   1.386   6.445 -1.7458  0.9855 -1.6477
 8913SOL     OW38374   2.472   4.562   5.369 -0.0139  0.9960  0.5942
 8913SOL    HW138375   2.553   4.611   5.356  1.4369 -2.1251 -2.3953
 8913SOL    HW238376   2.402   4.625   5.385 -0.6481  0.7994 -1.2999
 8914SOL     OW38377   0.599   2.639  17.031 -0.1446 -0.8115  0.4216
 8914SOL    HW138378   0.676   2.658  16.977  1.4229  0.5849  3.1759
 8914SOL    HW238379   0.639   2.635  17.118 -0.0398 -2.5853  0.2886
 8915SOL     OW38380   4.240   0.990   7.899  0.3226  0.6430 -0.0265
 8915SOL    HW138381   4.260   0.931   7.971 -2.8415  0.3130  0.6121
 8915SOL    HW238382   4.221   0.930   7.827  0.1296  1.1192 -0.3744
 8916SOL     OW38383   1.300   1.399   6.311 -0.5142 -0.0491  0.2276
 8916SOL    HW138384   1.368   1.409   6.378 -1.4037  1.9611  0.8113
 8916SOL    HW238385   1.273   1.489   6.295  0.8261  0.7360  2.3823
 8917SOL     OW38386   0.680   1.883   6.828  0.2289  0.1107 -0.4694
 8917SOL    HW138387   0.753   1.863   6.769  1.6662 -1.3172  1.7947
 8917SOL    HW238388   0.676   1.978   6.833  1.0046  0.1435 -0.4978
 8918SOL     OW38389   4.700   4.042   6.907 -0.7368 -0.1543  0.0172
 8918SOL    HW138390   4.655   4.020   6.989  1.5847 -0.0118  1.3190
 8918SOL    HW238391   0.046   4.065   6.935 -0.7643  1.7476 -1.5200
 8919SOL     OW38392   1.938   0.522   4.433  0.2487  0.0182  0.9932
 8919SOL    HW138393   1.980   0.495   4.514  1.5251 -0.7300  0.0874
 8919SOL    HW238394   2.011   0.503   4.373 -0.2771 -0.4798  0.5051
 8920SOL     OW38395   3.796   3.977   3.714  0.3459  0.1176  0.4326
 8920SOL    HW138396   3.760   3.895   3.747 -1.0325  0.5501  0.0036
 8920SOL    HW238397   3.711   4.018   3.702  0.2187  0.3996  2.3436
 8921SOL     OW38398   4.235   2.922   9.300  0.0332 -0.1539 -0.1801
 8921SOL    HW138399   4.204   3.001   9.256  0.7877  0.2545  0.0222
 8921SOL    HW238400   4.296   2.973   9.353  1.1048 -0.1002 -1.4683
 8922SOL     OW38401   3.183   1.524  10.313 -0.6197 -0.3078  0.4635
 8922SOL    HW138402   3.122   1.452  10.326 -0.6732 -0.1842  0.9020
 8922SOL    HW238403   3.158   1.550  10.224 -3.4064 -2.3881  0.6662
 8923SOL     OW38404   1.231   4.295   7.347  0.3354  0.7819  0.0586
 8923SOL    HW138405   1.262   4.288   7.257 -0.5801 -2.1830 -0.0119
 8923SOL    HW238406   1.235   4.208   7.386 -2.8398  0.3378 -0.6257
 8924SOL     OW38407   0.130   2.337   7.291 -0.2022  0.1020  0.3729
 8924SOL    HW138408   0.096   2.250   7.269  1.0773 -0.4356  0.5044
 8924SOL    HW238409   0.222   2.328   7.268 -0.5237 -0.3617 -0.7585
 8925SOL     OW38410   0.626   0.472   8.135 -0.0481  0.2217 -0.2611
 8925SOL    HW138411   0.564   0.539   8.163 -0.4114 -0.1547 -0.1565
 8925SOL    HW238412   0.654   0.512   8.053 -0.1609  3.0452  1.0807
 8926SOL     OW38413   3.314   4.729  13.258 -0.1173  0.0661  0.2726
 8926SOL    HW138414   3.319   4.636  13.280 -1.1631  0.1311  0.8104
 8926SOL    HW238415   3.260   0.001  13.180  1.4068  0.2965 -0.7342
 8927SOL     OW38416   1.841   1.369   6.420  0.0525 -0.2090 -0.3497
 8927SOL    HW138417   1.925   1.377   6.464 -1.2706 -0.5598  2.2435
 8927SOL    HW238418   1.838   1.274   6.413 -0.8359 -0.5125  4.0030
 8928SOL     OW38419   0.162   3.938  16.622 -0.2416 -0.0774 -0.3761
 8928SOL    HW138420   0.166   3.937  16.527 -2.6865  0.0580 -0.4817
 8928SOL    HW238421   0.231   3.876  16.645 -0.6167 -0.1668  0.5289
 8929SOL     OW38422   1.863   1.042   5.269  0.2570  0.2747  0.0843
 8929SOL    HW138423   1.947   0.998   5.254 -0.0945 -1.1039  2.1818
 8929SOL    HW238424   1.858   1.054   5.364  0.5352  1.9186 -0.1170
 8930SOL     OW38425   2.249   0.210   5.680  0.4727  0.0541 -0.3048
 8930SOL    HW138426   2.183   0.141   5.689 -0.0443  0.5817 -0.0400
 8930SOL    HW238427   2.225   0.246   5.595 -1.2725  0.3078  0.2942
 8931SOL     OW38428   3.251   2.704   7.484 -0.7169 -0.0474 -0.5335
 8931SOL    HW138429   3.328   2.678   7.534 -1.2828 -2.7455 -1.0789
 8931SOL    HW238430   3.183   2.685   7.548  1.7291 -4.1955  0.8279
 8932SOL     OW38431   1.179   3.143   9.271 -0.7020  0.3238  0.2644
 8932SOL    HW138432   1.122   3.169   9.343 -0.2939  4.3325 -0.8553
 8932SOL    HW238433   1.217   3.228   9.248  1.8577 -0.4655  1.5135
 8933SOL     OW38434   2.942   2.203   5.993 -0.2173  0.4286 -0.4817
 8933SOL    HW138435   2.928   2.220   5.900  0.7018 -1.9463 -1.0522
 8933SOL    HW238436   3.003   2.273   6.018 -1.6004  1.0119  1.3279
 8934SOL     OW38437   3.332   4.211  10.254  0.5104  0.4860 -0.2351
 8934SOL    HW138438   3.406   4.232  10.197 -0.1256  2.2746 -0.3832
 8934SOL    HW238439   3.259   4.257  10.213 -1.4754 -2.8240 -0.4133
 8935SOL     OW38440   0.793   2.439   7.414  0.9758  0.2266 -0.0965
 8935SOL    HW138441   0.877   2.414   7.376  0.2980  1.1319 -2.2156
 8935SOL    HW238442   0.822   2.504   7.477 -0.1850  0.8472 -0.1988
 8936SOL     OW38443   3.261   0.108  16.664  0.4099  0.4481 -0.1628
 8936SOL    HW138444   3.324   0.099  16.593 -0.6381  1.8984 -1.2902
 8936SOL    HW238445   3.255   0.204  16.666  0.4648  0.4673 -0.7262
 8937SOL     OW38446   4.505   0.953   7.681  0.0068  0.1926  0.0021
 8937SOL    HW138447   4.532   0.900   7.756 -0.0109  1.2200  0.7439
 8937SOL    HW238448   4.552   0.910   7.610 -1.5141 -0.5322 -0.5606
 8938SOL     OW38449   3.126   3.571   5.693  0.5019 -0.4543  0.0364
 8938SOL    HW138450   3.145   3.525   5.775  0.2005  2.5213  1.7383
 8938SOL    HW238451   3.103   3.656   5.729 -0.2240  0.5899 -2.9071
 8939SOL     OW38452   1.695   2.012   6.452  0.6006  0.3204  0.5947
 8939SOL    HW138453   1.629   2.000   6.520 -0.1457 -0.5512 -0.2983
 8939SOL    HW238454   1.643   2.037   6.376  1.4977 -1.8066 -0.7223
 8940SOL     OW38455   4.610   2.211   2.147 -0.2105  0.1850  0.6649
 8940SOL    HW138456   4.623   2.287   2.090  1.5712  0.2797  1.2212
 8940SOL    HW238457   4.541   2.166   2.097  1.0243 -0.3341 -0.5753
 8941SOL     OW38458   4.490   1.127   8.867 -0.5526  0.3561  0.2377
 8941SOL    HW138459   4.521   1.217   8.856 -0.0189 -0.0114 -1.3304
 8941SOL    HW238460   4.406   1.135   8.911 -0.5791  0.2049  0.2123
 8942SOL     OW38461   0.914   0.039   5.609  0.0037 -0.5347  0.5036
 8942SOL    HW138462   0.960   0.122   5.609  0.7987 -0.9663 -1.4714
 8942SOL    HW238463   0.983   4.726   5.572 -0.3501 -1.6342  1.4799
 8943SOL     OW38464   0.432   0.989   8.459  0.0111  0.3814 -0.1694
 8943SOL    HW138465   0.444   1.038   8.377  0.9651 -1.7295 -1.2996
 8943SOL    HW238466   0.421   1.056   8.526 -0.2563  0.5108 -0.3385
 8944SOL     OW38467   4.653   2.494   2.530 -0.0577  0.7866 -0.1878
 8944SOL    HW138468   4.560   2.516   2.534 -0.0014  1.1847 -1.2756
 8944SOL    HW238469   4.663   2.408   2.489  0.9602  0.9807 -0.3404
 8945SOL     OW38470   4.555   3.144   5.643  0.2128  0.5878 -0.1585
 8945SOL    HW138471   4.505   3.226   5.648 -0.5399  0.2203 -1.6024
 8945SOL    HW238472   4.502   3.082   5.694  0.0626  0.4961 -0.4263
 8946SOL     OW38473   1.199   0.278   2.134  0.5648  0.0055 -0.1140
 8946SOL    HW138474   1.193   0.184   2.119 -0.4395 -0.0527  0.6905
 8946SOL    HW238475   1.183   0.305   2.043 -2.2645 -1.5795 -0.0969
 8947SOL     OW38476   1.874   3.600   2.930 -0.1437 -0.0293  0.3394
 8947SOL    HW138477   1.884   3.695   2.934 -0.4294  0.0788 -2.0165
 8947SOL    HW238478   1.921   3.576   3.010  0.2128 -1.3643 -0.2659
 8948SOL     OW38479   0.071   1.186   4.824  0.3306 -0.1507  0.0589
 8948SOL    HW138480   0.092   1.094   4.839  0.6868  0.0050  0.5128
 8948SOL    HW238481   0.070   1.218   4.914 -1.8349 -0.1592  0.0325
 8949SOL     OW38482   2.490   3.562   2.623  0.3400  0.7001 -0.2905
 8949SOL    HW138483   2.422   3.562   2.555  1.4138  1.3130 -1.3628
 8949SOL    HW238484   2.565   3.537   2.569 -0.2138  0.9849 -1.2051
 8950SOL     OW38485   0.125   3.912   4.412  0.8903  0.5949  0.1828
 8950SOL    HW138486   0.096   3.890   4.500  1.8019  2.4504  0.9311
 8950SOL    HW238487   0.043   3.944   4.374  0.2790  0.4313  1.3704
 8951SOL     OW38488   2.788   2.208   3.437  0.0436 -0.2192 -0.3402
 8951SOL    HW138489   2.856   2.178   3.498 -0.7305 -0.6654  0.2888
 8951SOL    HW238490   2.831   2.284   3.398  1.3764 -1.7451 -1.8953
 8952SOL     OW38491   3.695   3.284  12.751 -0.6741  0.9643 -0.2099
 8952SOL    HW138492   3.602   3.291  12.729 -1.0290 -0.2087  0.8858
 8952SOL    HW238493   3.693   3.297  12.845 -2.4598 -0.1719 -0.0883
 8953SOL     OW38494   4.128   2.014   7.404  0.1500  0.2284  0.3621
 8953SOL    HW138495   4.036   2.033   7.417  0.4479  0.4059  2.2175
 8953SOL    HW238496   4.148   1.986   7.493  0.4847  1.2540  0.6037
 8954SOL     OW38497   3.614   2.835   6.605 -0.9994  0.2296  0.1996
 8954SOL    HW138498   3.618   2.746   6.570 -1.4066  1.0338 -1.9064
 8954SOL    HW238499   3.647   2.820   6.693 -0.2429  1.4196  0.1162
 8955SOL     OW38500   2.011   3.531  13.398  0.0788 -0.0402 -0.5032
 8955SOL    HW138501   1.935   3.512  13.454  1.1103 -2.3018  0.1493
 8955SOL    HW238502   1.995   3.621  13.371 -2.6878 -0.9393 -1.8590
 8956SOL     OW38503   0.207   3.085   3.394 -0.4259  0.5267 -0.2150
 8956SOL    HW138504   0.241   2.996   3.384 -0.4541  0.6554 -1.3661
 8956SOL    HW238505   0.247   3.106   3.479  2.1068 -0.4341 -1.1774
 8957SOL     OW38506   1.516   3.296   0.023 -0.0156  0.0467  0.3584
 8957SOL    HW138507   1.430   3.338   0.021 -0.5678 -1.2316 -1.5224
 8957SOL    HW238508   1.565   3.359   0.076 -0.0356  0.2682  0.1112
 8958SOL     OW38509   0.477   4.681   3.753  0.0297 -0.6662 -0.0582
 8958SOL    HW138510   0.409   4.624   3.789 -0.0215  0.4785  1.6557
 8958SOL    HW238511   0.455   0.015   3.807  0.1671 -0.4363 -0.3234
 8959SOL     OW38512   3.885   3.406   2.018  0.2155 -0.2657 -0.3277
 8959SOL    HW138513   3.969   3.441   2.047 -0.4021  0.0303  1.1190
 8959SOL    HW238514   3.820   3.473   2.037 -1.0097 -1.8069  0.9457
 8960SOL     OW38515   3.455   1.635   2.657 -0.2543 -0.2881 -0.5871
 8960SOL    HW138516   3.422   1.664   2.572  1.7076  1.0318 -0.8901
 8960SOL    HW238517   3.479   1.720   2.693  0.2503 -0.1057 -1.3528
 8961SOL     OW38518   4.243   0.703  16.160 -0.7735 -0.1330  0.1401
 8961SOL    HW138519   4.309   0.772  16.170 -1.4355  0.3336  1.2842
 8961SOL    HW238520   4.187   0.730  16.087 -0.4577  2.9377  1.0345
 8962SOL     OW38521   3.632   2.786  12.319 -0.1808 -0.0881  0.1098
 8962SOL    HW138522   3.704   2.827  12.367 -1.8005 -0.1277  2.5975
 8962SOL    HW238523   3.598   2.861  12.271  2.8504  1.2026 -0.0240
 8963SOL     OW38524   3.350   3.983   3.873  0.0148 -0.0554  0.7021
 8963SOL    HW138525   3.364   3.892   3.849  0.3108  0.0048  0.6421
 8963SOL    HW238526   3.262   3.981   3.911 -0.4742  0.1584 -0.4252
 8964SOL     OW38527   1.052   4.205   9.890  0.6671  0.7477  0.1509
 8964SOL    HW138528   1.006   4.142   9.946  0.1518  1.4600  0.5507
 8964SOL    HW238529   1.144   4.186   9.907  1.0569  1.5125 -1.0701
 8965SOL     OW38530   2.866   4.316  15.049  0.1450  0.6496 -0.3818
 8965SOL    HW138531   2.849   4.408  15.069  0.0950  0.4785  0.3661
 8965SOL    HW238532   2.933   4.327  14.982  0.0655  2.3037 -0.1964
 8966SOL     OW38533   1.584   2.004   1.233 -0.1784  0.6773  0.2262
 8966SOL    HW138534   1.587   1.930   1.293  1.4917  1.9656  1.7257
 8966SOL    HW238535   1.621   2.064   1.297  5.1550 -1.2829 -1.0445
 8967SOL     OW38536   1.902   4.329   2.015  0.2135 -0.1112  0.0235
 8967SOL    HW138537   1.855   4.264   1.962  2.4144  0.4322 -2.5948
 8967SOL    HW238538   1.879   4.303   2.104 -1.6863  0.5645 -0.2793
 8968SOL     OW38539   1.960   1.629   7.665 -0.3121 -0.6844 -0.1284
 8968SOL    HW138540   1.987   1.675   7.745  0.4270 -0.8806 -0.2640
 8968SOL    HW238541   2.004   1.683   7.600 -1.2542  2.8061  2.1112
 8969SOL     OW38542   2.012   3.865   1.623 -0.2547  0.4402  0.0948
 8969SOL    HW138543   2.042   3.799   1.560 -2.0395 -0.5572  0.2956
 8969SOL    HW238544   1.979   3.812   1.695 -0.9845 -0.8822 -1.2134
 8970SOL     OW38545   0.320   1.465   7.137  0.4254  0.3092 -0.1518
 8970SOL    HW138546   0.384   1.426   7.197 -0.3695 -0.6221  0.0895
 8970SOL    HW238547   0.323   1.418   7.054  0.8781  0.4176 -0.1922
 8971SOL     OW38548   4.059   1.704  17.063 -0.1739 -0.1903  0.1850
 8971SOL    HW138549   4.030   1.662  17.144  0.2840  1.0112  0.9832
 8971SOL    HW238550   4.056   1.631  17.002 -1.5275 -0.8132  1.0029
 8972SOL     OW38551   0.948   3.028   8.916 -0.1512  0.6187 -0.6592
 8972SOL    HW138552   0.868   3.064   8.878 -1.2572 -2.4620 -1.2126
 8972SOL    HW238553   1.000   3.108   8.929 -0.0631  0.6789 -1.3559
 8973SOL     OW38554   1.162   3.526  10.910  0.0570  0.5162 -0.2132
 8973SOL    HW138555   1.142   3.618  10.891 -0.4806  0.3999 -0.1997
 8973SOL    HW238556   1.256   3.524  10.893 -0.0692  0.2202 -0.8850
 8974SOL     OW38557   3.831   4.426   3.878  0.3075 -0.5326 -0.0284
 8974SOL    HW138558   3.820   4.519   3.856 -0.8962 -0.5139  0.6432
 8974SOL    HW238559   3.741   4.398   3.892 -0.4487  0.3744 -3.1534
 8975SOL     OW38560   3.640   2.165   7.875  0.6289 -0.3362  0.0211
 8975SOL    HW138561   3.626   2.148   7.968 -1.3932  0.4299 -0.1514
 8975SOL    HW238562   3.565   2.117   7.839 -0.4140  0.2413  1.4371
 8976SOL     OW38563   0.998   4.321   8.843 -0.4296 -0.0966 -0.3341
 8976SOL    HW138564   1.052   4.257   8.889  1.3390  0.2293 -1.9260
 8976SOL    HW238565   1.065   4.355   8.783 -2.3979  2.1403 -1.2806
 8977SOL     OW38566   3.142   4.676  12.570 -0.2506  0.3759 -0.5924
 8977SOL    HW138567   3.168   4.646  12.657 -2.1887 -2.7153 -1.0825
 8977SOL    HW238568   3.135   4.597  12.517 -3.7190  0.8634 -0.8727
 8978SOL     OW38569   1.855   1.015   9.098  0.4402 -0.5026 -0.6728
 8978SOL    HW138570   1.848   1.048   9.188 -0.8998 -1.9766 -0.2332
 8978SOL    HW238571   1.798   1.073   9.049 -0.9345 -0.2911  1.1512
 8979SOL     OW38572   0.178   1.768  16.690  0.0891 -0.7782 -0.5599
 8979SOL    HW138573   0.093   1.739  16.657 -1.0125  0.6227  1.0828
 8979SOL    HW238574   0.166   1.746  16.782  1.3327 -1.4084 -0.5363
 8980SOL     OW38575   0.301   1.879   3.651 -0.4394  0.0973 -0.1069
 8980SOL    HW138576   0.289   1.853   3.560  2.2367  1.2427 -0.7886
 8980SOL    HW238577   0.321   1.971   3.632  0.5302 -0.0637  0.1206
 8981SOL     OW38578   1.128   2.152   6.326 -0.0557  0.1754  0.1010
 8981SOL    HW138579   1.058   2.211   6.298 -1.6608 -1.7129  0.1452
 8981SOL    HW238580   1.147   2.110   6.242  0.8649  0.4117  0.1924
 8982SOL     OW38581   2.674   2.008   9.192 -0.3589 -0.3217 -0.8069
 8982SOL    HW138582   2.630   1.967   9.118  0.5302 -0.7779 -1.0836
 8982SOL    HW238583   2.753   2.051   9.159 -0.3804  1.3968  1.3609
 8983SOL     OW38584   2.656   2.866   6.398 -0.4747 -0.4553 -0.6479
 8983SOL    HW138585   2.639   2.960   6.391 -1.2407 -0.7412 -2.6096
 8983SOL    HW238586   2.568   2.829   6.393 -0.0075 -1.8202  1.3943
 8984SOL     OW38587   0.944   3.082   6.993  0.2584 -0.3504 -0.5246
 8984SOL    HW138588   0.885   3.050   7.062  1.0022  1.1404  0.7897
 8984SOL    HW238589   0.912   3.046   6.910 -0.4391  1.6521 -1.1049
 8985SOL     OW38590   1.989   3.285  17.369  0.1524 -0.3753 -0.5534
 8985SOL    HW138591   1.938   3.257  17.293 -2.9563  0.3496  1.2466
 8985SOL    HW238592   2.007   3.199  17.407  1.4819  0.0458 -0.2372
 8986SOL     OW38593   1.855   2.440  16.569 -0.3408 -0.0553 -0.2994
 8986SOL    HW138594   1.867   2.523  16.523 -0.3866  0.2353  0.2062
 8986SOL    HW238595   1.893   2.370  16.516  0.9442  1.3306 -1.2020
 8987SOL     OW38596   0.712   4.234   7.215  0.7727  0.6116 -0.4023
 8987SOL    HW138597   0.805   4.229   7.239  0.9350 -1.7313 -1.5609
 8987SOL    HW238598   0.699   4.139   7.216  0.7741  0.6292  1.1213
 8988SOL     OW38599   2.313   4.145   6.592  0.2009  0.1028  0.0689
 8988SOL    HW138600   2.318   4.125   6.686  1.6785 -0.3986 -0.1210
 8988SOL    HW238601   2.405   4.133   6.572 -0.1766 -0.7969 -1.1547
 8989SOL     OW38602   0.626   2.037   3.583  0.1055 -0.4840 -0.3427
 8989SOL    HW138603   0.594   2.102   3.646  4.3714 -0.2514  1.5528
 8989SOL    HW238604   0.688   2.094   3.537  0.6139  1.7754  3.1007
 8990SOL     OW38605   1.459   3.010   5.079 -0.8179  0.3743 -0.6867
 8990SOL    HW138606   1.496   2.936   5.030  0.6980  1.2002 -0.7739
 8990SOL    HW238607   1.395   3.045   5.017 -0.9595 -0.3571 -0.9620
 8991SOL     OW38608   3.711   3.458   7.236  0.5937 -0.1115  0.0383
 8991SOL    HW138609   3.751   3.531   7.284 -0.3701 -1.4357  2.8570
 8991SOL    HW238610   3.727   3.489   7.147 -1.1958  1.0552  0.1062
 8992SOL     OW38611   3.314   3.372   8.554  0.9118 -0.5454 -0.0476
 8992SOL    HW138612   3.285   3.463   8.543 -0.5430 -1.1651 -1.3291
 8992SOL    HW238613   3.271   3.351   8.638  0.2128  2.2909  0.3165
 8993SOL     OW38614   3.185   1.229   7.016 -0.3632 -0.1190  0.1393
 8993SOL    HW138615   3.202   1.253   6.925 -0.5469 -0.1666  0.0911
 8993SOL    HW238616   3.253   1.269   7.070 -0.6740  1.5021 -0.6975
 8994SOL     OW38617   4.666   0.860  14.243  0.0150 -0.1882 -0.0832
 8994SOL    HW138618   0.001   0.837  14.190  0.6706  0.4503  0.5910
 8994SOL    HW238619   4.687   0.949  14.268  1.3983 -0.8512  1.1001
 8995SOL     OW38620   1.157   3.567   3.407 -0.2958  0.4569  0.8200
 8995SOL    HW138621   1.204   3.520   3.338 -0.3552  0.1520  0.9863
 8995SOL    HW238622   1.234   3.602   3.452  0.1745 -0.3187  0.6194
 8996SOL     OW38623   3.927   0.310   0.188  0.0009 -0.5765 -0.8055
 8996SOL    HW138624   3.929   0.306   0.092  2.0428 -1.5001 -0.7356
 8996SOL    HW238625   3.834   0.302   0.207 -0.1538  1.2032 -0.7656
 8997SOL     OW38626   3.161   2.445   7.189 -0.4508 -0.2274  0.1059
 8997SOL    HW138627   3.154   2.532   7.151 -0.2564  0.3234  1.3283
 8997SOL    HW238628   3.117   2.393   7.122  2.4384 -0.9300 -1.2469
 8998SOL     OW38629   1.910   0.796  13.225  0.0667 -0.3457  0.0300
 8998SOL    HW138630   1.887   0.750  13.306 -0.7849 -0.8389 -0.5039
 8998SOL    HW238631   1.999   0.764  13.207 -1.2783 -2.1640 -3.2959
 8999SOL     OW38632   3.827   4.546  14.560  0.2000 -0.4889  0.3535
 8999SOL    HW138633   3.864   4.621  14.514 -2.2396 -0.4010 -1.4584
 8999SOL    HW238634   3.904   4.509  14.604  1.2966  1.8850  0.4014
 9000SOL     OW38635   2.384   2.383   7.697 -0.6537 -0.3172 -0.3512
 9000SOL    HW138636   2.410   2.337   7.777 -0.0305 -0.6300 -0.7383
 9000SOL    HW238637   2.397   2.310   7.636  2.4339 -2.6366  3.1155
 9001SOL     OW38638   1.652   3.383   4.363 -0.0372  0.5303  0.1366
 9001SOL    HW138639   1.606   3.464   4.341  0.1399  1.4332  3.0692
 9001SOL    HW238640   1.582   3.352   4.421 -1.9200  1.1016 -1.8503
 9002SOL     OW38641   4.273   1.067   4.336  0.7608  1.2079  0.2367
 9002SOL    HW138642   4.330   1.117   4.277 -0.8046  2.0965 -0.5392
 9002SOL    HW238643   4.302   0.979   4.310 -2.1509  0.2414  0.2102
 9003SOL     OW38644   2.723   4.205   4.178 -0.2839  0.1341 -0.1354
 9003SOL    HW138645   2.640   4.238   4.145 -0.9783 -2.1428 -0.6369
 9003SOL    HW238646   2.779   4.283   4.173  1.5581 -1.2246 -0.5468
 9004SOL     OW38647   3.781   0.715  10.760  0.8728 -0.0792  1.0904
 9004SOL    HW138648   3.824   0.796  10.788  2.3433 -0.2284 -0.6979
 9004SOL    HW238649   3.689   0.737  10.745  0.7251 -2.1701 -0.9933
 9005SOL     OW38650   4.083   1.624  13.996  0.6480 -0.9236 -0.2319
 9005SOL    HW138651   4.009   1.662  13.949  0.7505  0.2652  0.5745
 9005SOL    HW238652   4.147   1.689  13.967  0.9946 -1.2872 -0.2787
 9006SOL     OW38653   1.621   2.151  10.337 -0.1228  0.3442 -0.1218
 9006SOL    HW138654   1.613   2.114  10.249  0.3329  0.6586 -0.2927
 9006SOL    HW238655   1.698   2.106  10.372  0.1743 -0.3212 -1.6795
 9007SOL     OW38656   1.669   0.520   4.472 -0.4254 -0.1392  0.1978
 9007SOL    HW138657   1.761   0.497   4.464 -0.2028  0.9232 -0.3447
 9007SOL    HW238658   1.654   0.576   4.396  1.6866  1.5110  0.9971
 9008SOL     OW38659   3.326   1.187  13.658  0.2350 -0.0775  0.2529
 9008SOL    HW138660   3.309   1.164  13.749 -0.5166 -0.7658 -0.0630
 9008SOL    HW238661   3.420   1.171  13.649  0.7401  1.8139  2.0889
 9009SOL     OW38662   0.974   3.657   2.435  0.3942  0.0690  0.1639
 9009SOL    HW138663   0.897   3.713   2.448  0.3077  0.1354 -0.6419
 9009SOL    HW238664   0.993   3.622   2.522  1.5227  3.1793  1.1437
 9010SOL     OW38665   3.002   2.598   5.035 -0.4114 -0.5461  0.0859
 9010SOL    HW138666   3.082   2.590   4.983 -0.8740 -1.0406 -0.5511
 9010SOL    HW238667   2.961   2.665   4.980 -0.5528 -1.3357 -0.7658
 9011SOL     OW38668   4.074   4.482   6.886  0.5092 -0.7230 -0.3826
 9011SOL    HW138669   4.116   4.567   6.896  0.6658 -0.9490  0.8792
 9011SOL    HW238670   4.003   4.520   6.835 -0.1094 -0.8073  0.4084
 9012SOL     OW38671   0.124   3.792  11.249  0.8036 -0.3953  0.5036
 9012SOL    HW138672   0.096   3.701  11.260 -2.4541  0.4287 -1.1796
 9012SOL    HW238673   0.035   3.826  11.256  0.8597  0.1946 -1.8930
 9013SOL     OW38674   3.905   4.704   7.137 -0.4969  0.4611  0.1407
 9013SOL    HW138675   3.923   0.024   7.067 -0.4112  1.0746  0.6973
 9013SOL    HW238676   3.994   4.706   7.174 -0.2516  2.7103 -0.5514
 9014SOL     OW38677   3.938   1.285   7.518 -0.0022 -0.5962 -0.0608
 9014SOL    HW138678   4.015   1.243   7.480 -0.4751 -1.7775  0.2557
 9014SOL    HW238679   3.871   1.232   7.474  0.3117 -0.1406 -1.0730
 9015SOL     OW38680   2.216   1.611   3.636 -0.1336  0.8443 -0.5630
 9015SOL    HW138681   2.219   1.532   3.690 -1.7430  1.2629  0.1537
 9015SOL    HW238682   2.268   1.677   3.682  1.1024 -1.2537  1.0189
 9016SOL     OW38683   2.444   3.047   0.713 -0.5112 -1.0209 -0.3074
 9016SOL    HW138684   2.354   3.058   0.744 -0.5298  0.5166 -0.9032
 9016SOL    HW238685   2.494   3.088   0.783  1.2937 -1.9207 -1.0789
 9017SOL     OW38686   0.161   3.905   5.463  0.6403 -0.3640 -0.1338
 9017SOL    HW138687   0.226   3.923   5.395  0.8313 -0.9949 -0.1242
 9017SOL    HW238688   0.203   3.954   5.533 -1.8640 -1.1765  1.9256
 9018SOL     OW38689   1.432   3.926  11.106  0.1269 -0.0821  0.3759
 9018SOL    HW138690   1.452   3.980  11.183  0.0911 -0.1326  0.4207
 9018SOL    HW238691   1.393   3.990  11.047 -1.0644 -0.8461  0.3423
 9019SOL     OW38692   2.292   3.689  14.787 -0.3274  0.9965  0.4601
 9019SOL    HW138693   2.227   3.718  14.724 -0.9993 -2.5615 -0.4780
 9019SOL    HW238694   2.277   3.750  14.860 -1.2582  0.6164  0.5880
 9020SOL     OW38695   0.133   2.927   3.714  0.1791  0.1967 -0.1178
 9020SOL    HW138696   0.176   2.869   3.776 -2.5635 -0.7965  0.8692
 9020SOL    HW238697   0.103   2.863   3.649 -0.6469 -0.2344  0.6894
 9021SOL     OW38698   2.515   4.459   1.353 -0.0912 -0.0857 -0.0740
 9021SOL    HW138699   2.496   4.544   1.313 -0.2862  0.3155  0.8713
 9021SOL    HW238700   2.563   4.413   1.283  0.0108 -1.2820  0.7764
 9022SOL     OW38701   3.024   0.244   0.381  0.1564  0.4991  0.0101
 9022SOL    HW138702   3.079   0.179   0.423 -1.5347 -1.9846 -1.5879
 9022SOL    HW238703   2.992   0.213   0.296  1.8795 -0.1100 -0.4099
 9023SOL     OW38704   2.121   0.776   2.673  0.2987  0.3271 -0.3036
 9023SOL    HW138705   2.060   0.703   2.689 -1.4044  1.1490 -3.1558
 9023SOL    HW238706   2.183   0.735   2.733 -2.1862 -2.1017  0.6446
 9024SOL     OW38707   3.074   3.176   4.747 -0.0074 -0.8012 -0.5301
 9024SOL    HW138708   3.007   3.136   4.803 -0.1806  0.0032 -0.1658
 9024SOL    HW238709   3.120   3.230   4.811 -1.3115 -0.3178  0.0142
 9025SOL     OW38710   1.494   1.581   7.904  0.0859 -0.5579  0.0045
 9025SOL    HW138711   1.553   1.618   7.839  2.2994  0.8047  2.8130
 9025SOL    HW238712   1.497   1.486   7.890  0.1744 -0.8332  1.8298
 9026SOL     OW38713   1.924   4.410  12.454  0.2469 -0.0554  0.3635
 9026SOL    HW138714   1.920   4.330  12.402 -0.4578 -0.5951  1.2631
 9026SOL    HW238715   1.914   4.483  12.393 -0.7667  0.2670  0.9094
 9027SOL     OW38716   2.080   1.762   6.707  0.2205 -0.0845  0.4411
 9027SOL    HW138717   2.019   1.833   6.686 -1.1619 -0.9667  1.4353
 9027SOL    HW238718   2.128   1.779   6.626 -1.5897  0.8933 -0.4348
 9028SOL     OW38719   1.813   2.600   8.939 -0.3247  0.1820  0.3694
 9028SOL    HW138720   1.779   2.566   8.856 -1.2887  1.7736  0.1184
 9028SOL    HW238721   1.732   2.601   8.989  0.2808  1.0961  1.3243
 9029SOL     OW38722   0.386   2.184   6.257 -0.0963 -0.1731 -0.4826
 9029SOL    HW138723   0.473   2.147   6.247  0.0535 -0.0914  0.5638
 9029SOL    HW238724   0.357   2.198   6.167  1.0923  0.3928 -0.7743
 9030SOL     OW38725   4.345   0.836   4.258 -0.0416  0.0545 -0.2703
 9030SOL    HW138726   4.391   0.853   4.175 -0.8802 -1.5533 -1.0706
 9030SOL    HW238727   4.347   0.741   4.246  2.4390  0.3449 -2.4060
 9031SOL     OW38728   3.659   1.401   1.234  0.1981 -0.8497 -0.5957
 9031SOL    HW138729   3.711   1.406   1.153 -0.6077 -1.3819 -1.1545
 9031SOL    HW238730   3.576   1.440   1.206  1.4075  1.4880 -0.9482
 9032SOL     OW38731   1.634   1.441   3.572 -0.6199 -0.2546 -0.5848
 9032SOL    HW138732   1.698   1.468   3.505  0.3771 -1.9614 -0.3295
 9032SOL    HW238733   1.573   1.392   3.517 -0.3402 -2.3567  0.9985
 9033SOL     OW38734   2.896   2.117   5.190 -0.0903 -0.4461 -0.0259
 9033SOL    HW138735   2.817   2.064   5.178 -1.3345  1.0532  1.4352
 9033SOL    HW238736   2.871   2.200   5.148  0.8767  0.2102  0.7148
 9034SOL     OW38737   3.440   1.896   1.248  0.1337  0.1646  0.3928
 9034SOL    HW138738   3.502   1.830   1.278 -1.0382 -0.8441  0.5628
 9034SOL    HW238739   3.360   1.866   1.290  1.2396 -1.6042  1.2266
 9035SOL     OW38740   1.131   4.578   3.692  0.2611 -0.6649  0.8060
 9035SOL    HW138741   1.148   4.532   3.775 -0.4636 -0.3441  1.1363
 9035SOL    HW238742   1.043   4.544   3.672 -0.0441  0.3407  0.4491
 9036SOL     OW38743   1.612   0.812   4.753  0.4271 -0.2246 -0.3510
 9036SOL    HW138744   1.570   0.856   4.679 -1.5528  0.1542  0.9893
 9036SOL    HW238745   1.568   0.727   4.756 -0.9250  0.4321 -1.4386
 9037SOL     OW38746   4.377   2.113  14.594 -0.3768  0.3488  0.3604
 9037SOL    HW138747   4.381   2.020  14.614  1.9685 -0.2931 -3.1149
 9037SOL    HW238748   4.317   2.116  14.519  0.4268  1.3559 -0.2329
 9038SOL     OW38749   1.553   4.667   8.847  0.5886  0.6239  0.6571
 9038SOL    HW138750   1.475   4.715   8.818  0.1802  0.9251  2.2298
 9038SOL    HW238751   1.558   4.588   8.794 -1.3537  0.8656  0.1144
 9039SOL     OW38752   0.846   0.129   4.245  0.4771 -0.6558 -0.1445
 9039SOL    HW138753   0.767   0.153   4.197  0.5686 -0.1746 -0.0544
 9039SOL    HW238754   0.903   0.121   4.168  0.7031  0.3683 -0.0769
 9040SOL     OW38755   1.383   1.368  13.227 -0.1047  0.4013  0.3449
 9040SOL    HW138756   1.463   1.378  13.175 -0.2756 -1.8980 -0.3127
 9040SOL    HW238757   1.374   1.452  13.274  0.3573  0.6063  0.0645
 9041SOL     OW38758   2.538   2.791  17.637 -0.0759  0.2358 -1.0045
 9041SOL    HW138759   2.467   2.759  17.692  0.5891 -0.9793 -0.8519
 9041SOL    HW238760   2.563   2.708  17.597 -1.1335 -0.5377 -0.0596
 9042SOL     OW38761   0.460   3.360  13.051 -0.1893 -0.3732 -0.3157
 9042SOL    HW138762   0.512   3.310  12.987 -0.9940  0.8851 -1.9775
 9042SOL    HW238763   0.531   3.410  13.092  0.0207 -1.2779  0.4074
 9043SOL     OW38764   3.409   1.163   8.286 -0.3315  0.0579  0.1758
 9043SOL    HW138765   3.329   1.156   8.337 -0.2797 -1.4302  0.0351
 9043SOL    HW238766   3.391   1.093   8.223 -0.2654  0.4263 -0.2580
 9044SOL     OW38767   1.759   4.236  14.332  0.1205  0.1300 -0.3474
 9044SOL    HW138768   1.684   4.270  14.382 -1.1300 -2.0379 -0.7543
 9044SOL    HW238769   1.762   4.141  14.341 -1.9492 -0.0346 -1.2035
 9045SOL     OW38770   0.892   1.814   6.397  0.6090  0.1750  0.3438
 9045SOL    HW138771   0.911   1.791   6.306 -0.5099  1.6073 -0.2553
 9045SOL    HW238772   0.832   1.886   6.376  1.1481  0.4186 -0.3747
 9046SOL     OW38773   2.515   4.530   7.562 -0.3486  0.7236  0.3934
 9046SOL    HW138774   2.474   4.594   7.503  0.3703 -0.4428 -1.3654
 9046SOL    HW238775   2.477   4.561   7.645 -0.5792 -3.6649  1.9063
 9047SOL     OW38776   0.724   0.332   4.986 -0.3087 -0.6870 -1.0775
 9047SOL    HW138777   0.804   0.351   5.034 -1.3613  2.9822 -0.7515
 9047SOL    HW238778   0.733   0.414   4.939  0.4703 -0.3751 -0.3818
 9048SOL     OW38779   3.704   0.472   4.360  0.2910  0.1004  0.0125
 9048SOL    HW138780   3.637   0.447   4.297 -0.3901  1.3471  0.2460
 9048SOL    HW238781   3.657   0.470   4.443 -1.1711  0.8699 -0.8000
 9049SOL     OW38782   2.527   3.753   2.200 -0.2603 -0.9016  0.0353
 9049SOL    HW138783   2.440   3.721   2.177  0.6852 -0.8761 -3.6222
 9049SOL    HW238784   2.547   3.704   2.279  1.0829 -1.9096 -0.9357
 9050SOL     OW38785   1.029   3.283  10.757 -0.3835  0.5079  0.1803
 9050SOL    HW138786   1.114   3.326  10.750  0.3422 -0.9261  0.3415
 9050SOL    HW238787   0.986   3.315  10.677 -1.1538  1.0522  0.8156
 9051SOL     OW38788   3.956   1.422   6.028 -0.6276 -0.6009  0.0313
 9051SOL    HW138789   3.920   1.341   6.065  0.4898 -0.1953  2.0385
 9051SOL    HW238790   3.899   1.486   6.070  0.5518 -0.7904  1.9317
 9052SOL     OW38791   4.356   0.935  16.233 -0.1297  0.4064 -0.6415
 9052SOL    HW138792   4.287   0.946  16.298  2.1030  0.0553  1.7587
 9052SOL    HW238793   4.338   1.013  16.180  0.8406 -0.0689 -1.6752
 9053SOL     OW38794   4.254   3.689   5.385 -0.1811  0.2025  0.9618
 9053SOL    HW138795   4.189   3.625   5.413  0.4713 -1.2398 -0.8831
 9053SOL    HW238796   4.252   3.679   5.290 -3.5578 -0.0908  1.0759
 9054SOL     OW38797   0.773   1.714   2.526  0.5581  0.3827  0.2078
 9054SOL    HW138798   0.680   1.711   2.503  1.0581 -1.8922 -1.5576
 9054SOL    HW238799   0.772   1.703   2.621  2.7753 -0.5868  0.0954
 9055SOL     OW38800   3.072   0.197  11.146 -0.3832 -0.2993 -0.5117
 9055SOL    HW138801   3.122   0.278  11.154 -2.0858  0.8873 -1.7091
 9055SOL    HW238802   3.136   0.137  11.183  0.8439 -0.7030 -3.2672
 9056SOL     OW38803   2.280   0.759   9.403  0.0625 -0.2144  0.1460
 9056SOL    HW138804   2.300   0.852   9.402 -2.2426  0.3228  2.2816
 9056SOL    HW238805   2.343   0.724   9.467  1.9971  2.7744 -0.1489
 9057SOL     OW38806   2.039   0.019   8.023 -0.0630  0.3318  0.2640
 9057SOL    HW138807   2.019   4.690   8.083  0.3895  0.5523  0.6657
 9057SOL    HW238808   2.095   0.080   8.071 -0.0636  0.0298  0.6419
 9058SOL     OW38809   4.679   1.165  17.464 -0.2030 -0.5865  0.2892
 9058SOL    HW138810   4.585   1.184  17.465  0.0695  0.7804 -0.0530
 9058SOL    HW238811   4.686   1.091  17.525 -0.2306  0.0636  1.0772
 9059SOL     OW38812   4.516   4.129  14.808 -0.6185 -0.5839 -0.1764
 9059SOL    HW138813   4.578   4.153  14.878 -0.8182  1.8520 -0.8294
 9059SOL    HW238814   4.431   4.144  14.849  0.1939  0.5413  1.1357
 9060SOL     OW38815   0.532   1.678   6.515  0.0041 -0.1855 -0.2935
 9060SOL    HW138816   0.584   1.622   6.457  0.3277 -0.0373 -0.1475
 9060SOL    HW238817   0.469   1.615   6.551  0.7497 -0.8232 -0.1016
 9061SOL     OW38818   0.091   0.538   6.827  0.4541 -0.5234 -0.1714
 9061SOL    HW138819   0.160   0.471   6.828  1.6994  0.7682  0.3478
 9061SOL    HW238820   0.084   0.557   6.734 -0.2548 -2.2912 -0.4792
 9062SOL     OW38821   0.769   3.327   5.997  0.0035 -0.1581  0.1376
 9062SOL    HW138822   0.740   3.397   6.055 -1.3146  0.5841 -1.3961
 9062SOL    HW238823   0.692   3.269   5.999  1.5027 -2.2281 -1.9241
 9063SOL     OW38824   0.923   1.264  13.571 -0.4996  0.1093 -0.2135
 9063SOL    HW138825   0.862   1.198  13.602 -0.0273 -0.0121  0.4485
 9063SOL    HW238826   0.937   1.248  13.478 -0.5137 -1.8598  0.1352
 9064SOL     OW38827   1.221   0.412   2.493 -0.1308  0.1825 -0.0509
 9064SOL    HW138828   1.160   0.479   2.526  0.4269  0.2218  0.9281
 9064SOL    HW238829   1.246   0.449   2.409  3.9164 -0.3534  0.8988
 9065SOL     OW38830   3.397   3.808   8.105  0.1908 -0.5664  0.2924
 9065SOL    HW138831   3.384   3.840   8.194  1.4299 -2.2821  1.0871
 9065SOL    HW238832   3.472   3.747   8.104 -0.4680 -1.3432 -2.0089
 9066SOL     OW38833   2.574   1.982   2.681 -0.4665 -0.7214 -0.5092
 9066SOL    HW138834   2.664   1.982   2.712 -0.8167  0.7797  0.5064
 9066SOL    HW238835   2.568   1.892   2.651 -1.6015 -0.8099 -0.0273
 9067SOL     OW38836   1.169   2.325   2.618 -0.2685  0.6329 -0.2203
 9067SOL    HW138837   1.101   2.315   2.685  0.0108 -3.2651 -0.5403
 9067SOL    HW238838   1.116   2.356   2.544  0.6157  1.2806 -0.5821
 9068SOL     OW38839   2.508   2.584   7.928  0.0074 -0.2791  0.2640
 9068SOL    HW138840   2.477   2.500   7.961 -1.3153 -0.4668 -1.4504
 9068SOL    HW238841   2.436   2.621   7.878 -0.8215 -0.8729  1.0305
 9069SOL     OW38842   0.579   3.740   7.040 -0.1906  0.0515 -0.4047
 9069SOL    HW138843   0.498   3.754   6.992 -0.2523 -1.5515 -0.7664
 9069SOL    HW238844   0.548   3.670   7.098 -1.5207  1.8401  1.0292
 9070SOL     OW38845   2.832   3.213  16.373  0.1079 -0.3177 -0.1378
 9070SOL    HW138846   2.819   3.185  16.463  0.7420 -1.6053 -0.4397
 9070SOL    HW238847   2.757   3.172  16.331  1.5458 -2.2477 -0.8390
 9071SOL     OW38848   4.203   4.671   0.631  0.1237  0.2787  0.0408
 9071SOL    HW138849   4.187   4.637   0.719 -0.0046 -1.0381 -0.4862
 9071SOL    HW238850   4.110   4.681   0.611  0.2055 -0.1699 -0.5389
 9072SOL     OW38851   0.067   1.963   9.499  0.6322 -0.7457 -0.5932
 9072SOL    HW138852   4.739   2.021   9.531  3.1433  0.8014  2.1550
 9072SOL    HW238853   0.040   1.886   9.550 -0.2098 -0.2892 -0.3344
 9073SOL     OW38854   3.073   0.276   6.229  0.2944  1.0443 -0.0562
 9073SOL    HW138855   3.097   0.358   6.184 -0.4262  1.7979  0.9219
 9073SOL    HW238856   3.074   0.301   6.321  1.0436  1.4030 -0.1557
 9074SOL     OW38857   2.203   4.043  11.841 -0.2499  0.2381  0.2968
 9074SOL    HW138858   2.156   3.964  11.815  3.0896 -1.8681  0.7546
 9074SOL    HW238859   2.266   4.017  11.909 -0.4335  0.9357  0.7329
 9075SOL     OW38860   0.366   1.814   7.252 -0.3403  0.5715  0.0081
 9075SOL    HW138861   0.406   1.845   7.171 -1.6750  1.8629 -0.1335
 9075SOL    HW238862   0.408   1.863   7.322 -0.7077  0.7195  0.1244
 9076SOL     OW38863   0.429   3.365   5.485 -0.3566 -0.0832  0.2339
 9076SOL    HW138864   0.494   3.316   5.535 -0.7402  0.0883  0.9029
 9076SOL    HW238865   0.482   3.395   5.411 -1.0764  2.0983  0.6024
 9077SOL     OW38866   1.020   1.803   6.146 -0.4547 -0.2807  0.0704
 9077SOL    HW138867   1.069   1.885   6.153 -1.7492  0.3171  2.4097
 9077SOL    HW238868   0.979   1.801   6.060 -2.0759 -1.4418  0.8720
 9078SOL     OW38869   2.521   0.602   9.338 -0.1421  0.5223  0.2725
 9078SOL    HW138870   2.440   0.608   9.387 -0.7772  0.1140 -0.7160
 9078SOL    HW238871   2.537   0.507   9.339 -0.3923  0.4763 -0.1357
 9079SOL     OW38872   0.733   3.778   6.281  0.4951 -0.0387 -0.2093
 9079SOL    HW138873   0.742   3.855   6.338  1.2094  0.3865 -0.8930
 9079SOL    HW238874   0.770   3.815   6.201  0.7864  1.8529  0.7990
 9080SOL     OW38875   4.162   4.287   6.002  0.0794  0.2576  0.2586
 9080SOL    HW138876   4.181   4.194   6.019 -1.8486 -0.1902 -0.0387
 9080SOL    HW238877   4.226   4.303   5.933 -0.9088 -0.9313 -0.9226
 9081SOL     OW38878   0.615   2.473   5.609  0.1695 -0.3304  0.4947
 9081SOL    HW138879   0.519   2.471   5.606  0.1733 -1.5892  1.4124
 9081SOL    HW238880   0.639   2.388   5.574  0.2516  1.3358 -3.5096
 9082SOL     OW38881   3.689   2.962   4.974 -0.3925  0.0880 -0.4355
 9082SOL    HW138882   3.637   2.974   4.895  0.2454  0.7813 -0.7564
 9082SOL    HW238883   3.774   2.937   4.936 -0.9169 -1.3479 -0.6455
 9083SOL     OW38884   0.009   2.187  11.914 -0.4868  0.2866 -0.7379
 9083SOL    HW138885   4.691   2.254  11.948  0.7643  0.2240  1.5969
 9083SOL    HW238886   4.698   2.110  11.934  0.0023  0.0114 -0.5181
 9084SOL     OW38887   2.027   4.712   5.369 -0.3396  0.1255  0.6454
 9084SOL    HW138888   1.970   4.645   5.406  1.4635 -0.4792  2.3594
 9084SOL    HW238889   1.986   0.052   5.395 -0.3746 -0.4355  2.4080
 9085SOL     OW38890   0.678   1.178   7.411  0.0243 -0.0865 -1.0017
 9085SOL    HW138891   0.697   1.105   7.470  4.2116  1.3763 -0.5144
 9085SOL    HW238892   0.637   1.228   7.482  0.7209  1.1607 -1.4935
 9086SOL     OW38893   1.730   2.973  13.951 -0.3023  0.3226  0.4799
 9086SOL    HW138894   1.702   2.909  14.017 -1.3632 -0.3969 -0.6628
 9086SOL    HW238895   1.819   3.002  13.971 -0.0323 -0.8130  0.9628
 9087SOL     OW38896   3.963   0.604   9.502  0.1310 -0.2721 -0.4303
 9087SOL    HW138897   3.888   0.657   9.476 -0.0020 -1.0390 -1.6450
 9087SOL    HW238898   3.981   0.630   9.592  0.4742 -0.6303 -0.3964
 9088SOL     OW38899   0.954   4.534  12.234 -0.1834  0.2527  0.3807
 9088SOL    HW138900   0.916   4.447  12.221 -1.0187  0.6473  0.2548
 9088SOL    HW238901   0.941   4.553  12.326 -1.2005 -0.7537  0.4385
 9089SOL     OW38902   0.616   0.951  16.933 -0.5135  0.0303  0.2592
 9089SOL    HW138903   0.596   1.013  17.004 -0.4686 -0.5022  0.7354
 9089SOL    HW238904   0.558   0.877  16.947 -2.4650  1.4563 -0.2872
 9090SOL     OW38905   1.866   1.109   6.443 -0.0309 -0.4302  0.1878
 9090SOL    HW138906   1.896   1.084   6.531 -2.0129 -0.2453  0.9153
 9090SOL    HW238907   1.891   1.031   6.394 -1.6761 -1.8467  1.5748
 9091SOL     OW38908   3.389   1.815   1.945 -0.3293 -0.0837  0.0491
 9091SOL    HW138909   3.358   1.782   1.860 -0.5956  2.9398 -1.0032
 9091SOL    HW238910   3.416   1.733   1.986  1.5671  1.6877  2.3313
 9092SOL     OW38911   1.939   1.402   3.092 -0.0275 -0.1397  0.3337
 9092SOL    HW138912   1.853   1.437   3.115  0.3634 -0.4886  2.3308
 9092SOL    HW238913   1.956   1.361   3.177 -0.2217 -0.9369 -0.0136
 9093SOL     OW38914   0.737   2.194   8.119  0.3702 -0.5433 -0.2740
 9093SOL    HW138915   0.680   2.213   8.193 -1.2230 -0.2868 -1.5520
 9093SOL    HW238916   0.805   2.151   8.170 -0.4961  0.9749  2.1324
 9094SOL     OW38917   1.649   2.820   1.180 -0.0582 -0.1679 -0.3665
 9094SOL    HW138918   1.744   2.836   1.177  0.0130 -0.2776  1.4976
 9094SOL    HW238919   1.617   2.815   1.270 -1.0885  0.2028 -0.7140
 9095SOL     OW38920   2.374   1.432   8.805  0.2289 -0.3925 -0.0103
 9095SOL    HW138921   2.379   1.488   8.882 -0.3123  0.9913 -0.9813
 9095SOL    HW238922   2.281   1.418   8.787  0.1235 -2.1624  1.9926
 9096SOL     OW38923   2.386   4.199   4.885 -0.4343  0.1279 -0.2800
 9096SOL    HW138924   2.290   4.193   4.886 -0.4394  0.5722  1.7334
 9096SOL    HW238925   2.382   4.285   4.843 -1.0757  0.6561  0.8631
 9097SOL     OW38926   3.060   0.082   8.160 -0.0627 -0.2544 -0.3846
 9097SOL    HW138927   3.120   0.027   8.211 -0.2788 -2.1903 -2.2133
 9097SOL    HW238928   2.973   0.042   8.166  0.1026 -0.7386 -1.1975
 9098SOL     OW38929   3.312   2.388   7.448  0.0331  0.1794  0.6384
 9098SOL    HW138930   3.337   2.467   7.496 -0.0918  0.8307 -0.3571
 9098SOL    HW238931   3.255   2.427   7.382 -1.5086 -2.6366  0.2896
 9099SOL     OW38932   2.148   0.042  15.582 -0.2473 -0.1976 -0.2011
 9099SOL    HW138933   2.142   0.113  15.646  1.1310  0.0406 -0.3480
 9099SOL    HW238934   2.142   0.098  15.504  0.6842 -0.6315 -0.5776
 9100SOL     OW38935   1.518   1.174   5.907  0.0780 -0.2826  0.4122
 9100SOL    HW138936   1.571   1.214   5.976 -1.1835 -0.7939  1.6764
 9100SOL    HW238937   1.431   1.210   5.925  0.1006 -0.2373  0.4290
 9101SOL     OW38938   2.862   4.648   7.910 -0.2130  0.2553  0.3320
 9101SOL    HW138939   2.930   4.598   7.956  1.1689  1.5287 -0.3378
 9101SOL    HW238940   2.856   4.621   7.818  1.9180 -1.5277  0.7017
 9102SOL     OW38941   3.142   1.337   7.890 -0.6529  0.0117  0.5420
 9102SOL    HW138942   3.201   1.282   7.837 -2.5810 -1.1264 -0.4162
 9102SOL    HW238943   3.066   1.279   7.897 -2.5212  2.3067 -0.9336
 9103SOL     OW38944   4.624   0.250  13.386  0.0208 -0.1274  0.2459
 9103SOL    HW138945   4.705   0.234  13.434  0.4760  0.8077 -0.2217
 9103SOL    HW238946   4.561   0.186  13.419  2.7116 -2.3399  1.0883
 9104SOL     OW38947   3.236   2.547   2.759  0.5698  0.2513  0.1546
 9104SOL    HW138948   3.145   2.558   2.786  1.1232  1.0061  1.7600
 9104SOL    HW238949   3.262   2.492   2.833 -0.8412 -2.8726 -1.6820
 9105SOL     OW38950   0.901   4.252  12.181 -0.1101  0.1769 -0.3958
 9105SOL    HW138951   0.826   4.210  12.138 -1.3454 -0.0817  1.9750
 9105SOL    HW238952   0.929   4.191  12.250  0.5136  1.6829  0.6732
 9106SOL     OW38953   1.791   1.559   5.463 -0.2838 -0.0913  0.0708
 9106SOL    HW138954   1.880   1.596   5.470  0.0298 -0.6359 -0.9400
 9106SOL    HW238955   1.785   1.489   5.528 -0.3541  0.0763  0.2452
 9107SOL     OW38956   3.622   0.311   6.986  0.0981 -0.4784 -0.0815
 9107SOL    HW138957   3.548   0.366   7.015 -0.5821 -1.3740 -0.1288
 9107SOL    HW238958   3.635   0.254   7.062 -1.0181 -1.9105 -0.9711
 9108SOL     OW38959   4.539   0.975  11.430  0.0815 -0.5433 -0.0444
 9108SOL    HW138960   4.501   0.887  11.430 -0.6688 -0.2201  0.6204
 9108SOL    HW238961   4.468   1.036  11.451  0.5725  0.6450 -1.8203
 9109SOL     OW38962   0.295   3.105   5.028 -0.0892 -0.2410 -0.1245
 9109SOL    HW138963   0.219   3.131   5.081 -0.1878  1.1809 -0.9647
 9109SOL    HW238964   0.359   3.132   5.093 -0.2924  0.9299 -0.4058
 9110SOL     OW38965   1.479   2.125   6.279 -0.0331 -0.2002  0.3094
 9110SOL    HW138966   1.497   2.201   6.335 -2.1668 -0.5939  1.5340
 9110SOL    HW238967   1.410   2.085   6.332 -0.8350  0.4791 -0.2260
 9111SOL     OW38968   3.871   1.240   2.727 -0.5601  0.0029  0.3742
 9111SOL    HW138969   3.794   1.185   2.713  0.6818 -2.2848  2.4612
 9111SOL    HW238970   3.837   1.328   2.738 -3.0446 -0.8441 -0.7034
 9112SOL     OW38971   3.642   0.096   6.423 -0.0185 -0.3152 -0.5862
 9112SOL    HW138972   3.556   0.107   6.462  1.3486  2.2060  1.7242
 9112SOL    HW238973   3.683   0.182   6.433  0.7328 -0.7646  0.1873
 9113SOL     OW38974   2.837   1.120   9.409  0.0193  0.0878 -0.0863
 9113SOL    HW138975   2.854   1.157   9.323  1.9480  0.6418  0.5241
 9113SOL    HW238976   2.896   1.045   9.407  1.1720  0.9257  2.1424
 9114SOL     OW38977   3.392   0.926   4.830 -0.4601  0.0291  0.0570
 9114SOL    HW138978   3.458   0.905   4.764 -0.4998 -2.5821  0.8667
 9114SOL    HW238979   3.377   0.840   4.869 -0.0894  0.2764  0.7475
 9115SOL     OW38980   3.921   2.697  17.069  0.4209 -0.0074 -0.0926
 9115SOL    HW138981   3.936   2.648  16.988  0.2885 -1.8051  0.9686
 9115SOL    HW238982   3.896   2.784  17.039  3.0183  0.7364 -0.1371
 9116SOL     OW38983   2.640   0.556   6.191  0.0986  0.0078  0.5051
 9116SOL    HW138984   2.667   0.634   6.238 -2.1134  1.6783 -1.0201
 9116SOL    HW238985   2.623   0.602   6.109  1.4316  0.5310  0.5272
 9117SOL     OW38986   0.323   0.516  16.391 -0.0532  0.3380  0.6039
 9117SOL    HW138987   0.320   0.565  16.309 -1.9001 -0.0897  0.4160
 9117SOL    HW238988   0.409   0.476  16.380 -0.1869 -0.0156  0.8422
 9118SOL     OW38989   0.862   2.572   4.207 -0.3683 -0.3918  0.1250
 9118SOL    HW138990   0.872   2.503   4.273  0.5327 -0.6359 -0.2712
 9118SOL    HW238991   0.809   2.534   4.137  1.7435 -0.0739 -1.6538
 9119SOL     OW38992   0.727   3.140   1.657 -0.1873 -0.0685 -0.3932
 9119SOL    HW138993   0.658   3.203   1.635 -0.8921 -0.0178  2.0135
 9119SOL    HW238994   0.793   3.156   1.589  0.7861  0.1880  0.6162
 9120SOL     OW38995   4.357   1.731   1.011 -0.3371 -0.5665 -0.2218
 9120SOL    HW138996   4.295   1.797   1.041 -0.8587 -0.9913 -0.3553
 9120SOL    HW238997   4.305   1.691   0.941 -0.1644 -1.3890  0.1134
 9121SOL     OW38998   4.523   1.507   3.976 -0.2224  0.1295 -0.0321
 9121SOL    HW138999   4.581   1.472   3.908 -0.7309 -0.1432 -0.3254
 9121SOL    HW239000   4.562   1.594   3.985  0.2030 -0.1297  0.6139
 9122SOL     OW39001   0.128   2.726   7.058  0.1696 -0.4125  0.6790
 9122SOL    HW139002   0.222   2.734   7.074  0.1140 -1.6997  1.6558
 9122SOL    HW239003   0.113   2.641   7.100  1.1520 -1.2142 -0.6075
 9123SOL     OW39004   1.116   1.737  13.648 -0.1329 -0.2932  0.6318
 9123SOL    HW139005   1.098   1.692  13.731 -1.6990 -0.5378  0.1594
 9123SOL    HW239006   1.186   1.795  13.678 -0.3429 -1.0102  2.5414
 9124SOL     OW39007   4.250   2.550   6.903  0.3391 -0.2518 -0.0796
 9124SOL    HW139008   4.268   2.608   6.829  3.3776 -1.9267 -0.6377
 9124SOL    HW239009   4.257   2.461   6.868  1.7330  0.6250 -2.0318
 9125SOL     OW39010   1.103   4.204  10.701 -0.2262 -0.0896 -0.1467
 9125SOL    HW139011   1.112   4.292  10.664  4.7119 -1.9205 -3.2609
 9125SOL    HW239012   1.014   4.221  10.731 -0.1615 -0.7782  0.4533
 9126SOL     OW39013   2.175   3.379  14.656  1.1003  0.7992  0.0608
 9126SOL    HW139014   2.146   3.435  14.585  0.2280 -1.3169 -1.2576
 9126SOL    HW239015   2.246   3.331  14.613 -0.0420  0.4109 -1.3927
 9127SOL     OW39016   3.359   0.004   1.825  0.5488  0.0456 -0.1671
 9127SOL    HW139017   3.314   4.668   1.793  0.7069 -0.3703  0.6293
 9127SOL    HW239018   3.347   4.724   1.917  1.6790 -2.6831 -0.6891
 9128SOL     OW39019   2.789   3.726   7.733  0.0396  0.3684  0.6440
 9128SOL    HW139020   2.876   3.707   7.698 -0.8547 -0.9339 -0.8192
 9128SOL    HW239021   2.824   3.757   7.817  0.0410  0.0917  0.7440
 9129SOL     OW39022   3.683   0.439   7.761 -0.1578 -0.3808 -0.1170
 9129SOL    HW139023   3.643   0.466   7.844  1.3444 -0.5704  0.6551
 9129SOL    HW239024   3.649   0.351   7.742  0.6917 -0.7126 -0.0720
 9130SOL     OW39025   4.475   1.323  14.952 -0.3954 -0.4627 -0.2996
 9130SOL    HW139026   4.475   1.363  15.039 -0.8284  1.2202 -1.0666
 9130SOL    HW239027   4.406   1.379  14.916  0.8437  0.2379 -1.5906
 9131SOL     OW39028   2.587   1.462   1.949  0.2232 -0.4471  0.7893
 9131SOL    HW139029   2.582   1.401   1.876 -1.6446  0.4015  0.2122
 9131SOL    HW239030   2.592   1.406   2.026  2.3614 -0.3962  0.6838
 9132SOL     OW39031   2.401   3.697   6.197  0.3249  0.1312 -0.2773
 9132SOL    HW139032   2.435   3.783   6.172 -1.0207  0.7167 -0.0792
 9132SOL    HW239033   2.483   3.651   6.216 -0.5588 -1.2197  0.2744
 9133SOL     OW39034   2.847   2.439   7.271  0.1486  0.7048  0.0855
 9133SOL    HW139035   2.855   2.501   7.199  2.6640  0.5398  0.2184
 9133SOL    HW239036   2.832   2.498   7.345 -0.4077 -1.0202  1.3503
 9134SOL     OW39037   4.385   1.436   3.370 -0.0264 -0.2843  0.3432
 9134SOL    HW139038   4.389   1.362   3.309 -1.1199 -1.3555  1.5771
 9134SOL    HW239039   4.468   1.481   3.355 -0.3415  0.7913  1.8724
 9135SOL     OW39040   2.572   2.492   2.134 -0.1982  0.1609  0.0675
 9135SOL    HW139041   2.612   2.405   2.127 -2.1464 -0.6628 -0.7770
 9135SOL    HW239042   2.587   2.506   2.227  0.4307 -1.2304  0.1840
 9136SOL     OW39043   1.255   2.503  17.098  0.5496 -0.4401 -0.1266
 9136SOL    HW139044   1.314   2.471  17.167  1.5427  3.1203  0.6753
 9136SOL    HW239045   1.277   2.596  17.105 -1.0001  0.0468 -2.0679
 9137SOL     OW39046   2.975   1.090  15.560  0.4015 -0.1266 -0.5667
 9137SOL    HW139047   2.960   1.067  15.468  0.3904 -0.5878 -0.4489
 9137SOL    HW239048   2.912   1.161  15.571 -1.8066 -1.9940 -1.1170
 9138SOL     OW39049   1.261   1.148   4.748  0.7089 -0.5004  0.1847
 9138SOL    HW139050   1.349   1.163   4.783  0.6499  0.2682  0.0038
 9138SOL    HW239051   1.273   1.170   4.656  0.7279  2.5780  0.8941
 9139SOL     OW39052   1.498   2.116   4.610  0.3800 -0.0524  0.2479
 9139SOL    HW139053   1.592   2.104   4.626  0.5298 -0.0258 -0.6027
 9139SOL    HW239054   1.499   2.119   4.515  0.4133 -2.5589  0.1687
 9140SOL     OW39055   3.505   0.065   9.754 -0.5257  0.6503 -0.1262
 9140SOL    HW139056   3.501   0.076   9.849  0.1816  1.8972 -0.2364
 9140SOL    HW239057   3.449   4.730   9.746  1.6468 -1.0438  1.2393
 9141SOL     OW39058   1.111   0.248   5.549  0.6963  0.3343  0.6502
 9141SOL    HW139059   1.103   0.302   5.470  1.0435  0.7062  0.8653
 9141SOL    HW239060   1.137   0.162   5.515  1.3073  0.3003  1.1972
 9142SOL     OW39061   3.571   1.601   6.301 -0.5235 -0.0908  0.1094
 9142SOL    HW139062   3.500   1.537   6.311  0.1344 -0.7409  0.5962
 9142SOL    HW239063   3.525   1.681   6.273  0.2048  0.4279  0.4205
 9143SOL     OW39064   4.053   0.596   8.695 -0.2145  0.0903 -0.6549
 9143SOL    HW139065   4.128   0.557   8.650 -2.1667 -0.7278 -3.1646
 9143SOL    HW239066   4.013   0.648   8.625 -1.9116  0.5444  0.6456
 9144SOL     OW39067   1.332   0.056  17.096 -0.3139 -0.0169 -0.5948
 9144SOL    HW139068   1.423   0.071  17.120 -1.2831  1.3132  2.2137
 9144SOL    HW239069   1.308   0.146  17.071  1.4378  0.4351 -0.6211
 9145SOL     OW39070   2.146   2.196   4.058  0.2551  0.4399 -0.4027
 9145SOL    HW139071   2.159   2.143   3.979  4.2436  1.5589 -0.4805
 9145SOL    HW239072   2.058   2.231   4.041  0.9078  1.0223 -2.5775
 9146SOL     OW39073   2.569   3.181  17.090 -0.3323  0.5774  0.0166
 9146SOL    HW139074   2.638   3.245  17.075  0.8606 -1.0191 -1.2865
 9146SOL    HW239075   2.594   3.143  17.174  0.0134  0.3010 -0.2085
 9147SOL     OW39076   2.573   0.824   8.392  0.4012  0.0534 -0.5773
 9147SOL    HW139077   2.487   0.840   8.432 -0.4748  1.0111 -2.8307
 9147SOL    HW239078   2.614   0.749   8.435  0.3082 -0.4225 -1.3217
 9148SOL     OW39079   3.116   2.364   6.136  0.2526  0.2955  0.4622
 9148SOL    HW139080   3.117   2.452   6.100  1.1006 -0.7548 -2.1150
 9148SOL    HW239081   3.209   2.366   6.159  0.2863 -1.2093  0.4524
 9149SOL     OW39082   1.772   2.944   6.327  0.2234  0.2603  0.2488
 9149SOL    HW139083   1.799   2.853   6.337  0.2131  0.2711  0.3689
 9149SOL    HW239084   1.693   2.945   6.381  0.2016 -1.6198  0.2572
 9150SOL     OW39085   2.636   0.144   5.010  0.2476  0.0048 -0.0162
 9150SOL    HW139086   2.661   0.233   5.037 -2.1171  1.5119 -2.6820
 9150SOL    HW239087   2.697   0.126   4.939 -1.1946 -1.1631 -0.9456
 9151SOL     OW39088   1.213   2.003   7.811  0.1911  0.4834 -0.0124
 9151SOL    HW139089   1.218   1.913   7.845  1.2572  0.4498 -0.2867
 9151SOL    HW239090   1.198   1.978   7.720 -1.3472  0.1543  0.3143
 9152SOL     OW39091   3.307   4.304   2.349 -0.4929  0.0497  0.4011
 9152SOL    HW139092   3.249   4.305   2.425  0.9150  3.6231  1.4458
 9152SOL    HW239093   3.239   4.308   2.282  0.0822 -2.4237 -0.3300
 9153SOL     OW39094   3.143   3.142   3.123  0.2205 -0.5476  0.3672
 9153SOL    HW139095   3.071   3.203   3.109 -1.3612 -1.8670  2.9895
 9153SOL    HW239096   3.139   3.105   3.035  1.2001 -1.0944  0.5500
 9154SOL     OW39097   4.076   3.128   4.615  0.2174 -0.4445 -0.2587
 9154SOL    HW139098   4.123   3.059   4.568 -1.2720 -1.4336 -0.3029
 9154SOL    HW239099   3.987   3.098   4.599 -0.8782  2.5846  0.0191
 9155SOL     OW39100   0.877   2.129   9.252  0.1931 -0.2379 -0.2237
 9155SOL    HW139101   0.839   2.199   9.305  1.3621 -1.1018  1.7585
 9155SOL    HW239102   0.897   2.174   9.170 -1.9208 -0.4173 -0.8289
 9156SOL     OW39103   2.279   3.319   5.884  0.2259  0.3395 -0.3204
 9156SOL    HW139104   2.293   3.409   5.915  0.3178  0.6144 -1.1483
 9156SOL    HW239105   2.370   3.290   5.879 -0.2491 -1.3041  0.9049
 9157SOL     OW39106   0.419   4.343  10.631  0.4949  0.1277  0.0364
 9157SOL    HW139107   0.486   4.377  10.571  0.6906 -0.8125 -0.2744
 9157SOL    HW239108   0.337   4.384  10.604  0.2694 -0.2897  0.0899
 9158SOL     OW39109   0.682   1.434   7.159  0.3715  0.3173 -0.2447
 9158SOL    HW139110   0.746   1.502   7.138 -0.2323  0.8055 -0.5104
 9158SOL    HW239111   0.661   1.448   7.251  0.7473 -2.5524  0.2930
 9159SOL     OW39112   0.179   2.398   5.250 -0.1568  0.2301 -0.1241
 9159SOL    HW139113   0.169   2.399   5.155  2.7792 -0.8693 -0.4439
 9159SOL    HW239114   0.257   2.450   5.270 -1.8815  2.1300  1.5056
 9160SOL     OW39115   0.479   3.181   8.858  0.1257  0.1918  0.1335
 9160SOL    HW139116   0.414   3.206   8.792 -1.3426  2.2743  2.3645
 9160SOL    HW239117   0.424   3.154   8.931  2.1707 -0.3110  1.4555
 9161SOL     OW39118   1.886   2.203   6.008 -0.1871  0.9294  0.5569
 9161SOL    HW139119   1.889   2.155   6.091  1.5256 -2.3303 -1.3786
 9161SOL    HW239120   1.975   2.181   5.980  0.3190  1.1866  1.9520
 9162SOL     OW39121   2.117   2.585   4.538  0.0128  0.9338 -0.4180
 9162SOL    HW139122   2.029   2.565   4.570  0.6242 -0.8836  0.1252
 9162SOL    HW239123   2.106   2.563   4.446 -2.3592 -0.0560  0.1146
 9163SOL     OW39124   2.107   1.744   4.564  0.0809  0.1657  0.1877
 9163SOL    HW139125   2.149   1.819   4.522 -0.6280  0.1731 -0.5234
 9163SOL    HW239126   2.163   1.677   4.524  0.5800  0.3266  0.6170
 9164SOL     OW39127   3.955   0.191   5.929 -0.4149  0.2145 -0.3981
 9164SOL    HW139128   4.009   0.188   5.850 -1.4108  0.1746 -1.0935
 9164SOL    HW239129   3.968   0.102   5.959  0.2666  1.0867  1.8607
 9165SOL     OW39130   2.892   2.754  11.780  0.0798 -0.1194  0.3827
 9165SOL    HW139131   2.808   2.781  11.743  0.6830  1.0922 -0.1025
 9165SOL    HW239132   2.944   2.817  11.729  0.3827 -0.2369  0.5463
 9166SOL     OW39133   3.171   0.793   6.060 -0.6735  0.0143 -0.1413
 9166SOL    HW139134   3.091   0.826   6.020 -1.1591 -1.9430 -0.7616
 9166SOL    HW239135   3.169   0.841   6.144 -1.9086  1.8337 -1.2172
 9167SOL     OW39136   2.734   3.519   5.901  0.5113 -0.0857 -0.4789
 9167SOL    HW139137   2.665   3.483   5.846 -0.5183 -0.8222  1.3114
 9167SOL    HW239138   2.756   3.598   5.852 -1.8166 -0.6786 -2.4971
 9168SOL     OW39139   2.526   4.157   8.358 -0.4108  0.4377  0.6956
 9168SOL    HW139140   2.592   4.088   8.353 -1.3175 -0.4618  1.1174
 9168SOL    HW239141   2.498   4.167   8.267 -0.4816  0.7649  0.7548
 9169SOL     OW39142   3.346   3.732   8.975  0.4369  0.6301  0.4630
 9169SOL    HW139143   3.426   3.781   8.994  2.0299 -1.6729 -0.4249
 9169SOL    HW239144   3.359   3.656   9.032  1.7540  1.1194  0.8246
 9170SOL     OW39145   1.873   1.336   5.645 -0.0253 -0.1867  0.5540
 9170SOL    HW139146   1.923   1.342   5.727  0.0524  0.4070  0.4682
 9170SOL    HW239147   1.787   1.345   5.686  0.2571  0.5478  0.9984
 9171SOL     OW39148   1.305   4.184  14.996 -0.0420  0.4333  0.0238
 9171SOL    HW139149   1.240   4.200  15.064  0.4595 -1.6564  1.0063
 9171SOL    HW239150   1.392   4.211  15.023 -0.4952  1.5564  0.3491
 9172SOL     OW39151   1.333   1.135  15.397  0.0884  0.1233  0.2218
 9172SOL    HW139152   1.383   1.097  15.469 -0.1537 -0.7931 -0.0897
 9172SOL    HW239153   1.345   1.068  15.329 -1.6246 -0.4666  0.5074
 9173SOL     OW39154   0.750   3.138  11.022 -0.0061 -0.1015  0.2487
 9173SOL    HW139155   0.662   3.107  11.003 -0.4156  0.9107  0.4738
 9173SOL    HW239156   0.749   3.166  11.113  1.3812  0.1099  0.2003
 9174SOL     OW39157   4.578   1.712   8.957  0.0943  0.4124 -0.1359
 9174SOL    HW139158   4.518   1.661   8.902  1.4891  0.7674 -1.9440
 9174SOL    HW239159   4.519   1.785   8.975 -1.5938 -1.5738  2.5586
 9175SOL     OW39160   1.306   4.633   5.846  0.7143  0.3646 -0.2051
 9175SOL    HW139161   1.216   4.601   5.841  1.4732 -1.5946 -1.0566
 9175SOL    HW239162   1.338   4.598   5.929  0.4914 -0.4723 -0.4707
 9176SOL     OW39163   0.185   3.124  11.812 -0.0608  0.2883 -0.1697
 9176SOL    HW139164   0.192   3.030  11.831 -0.0016  0.2099 -0.5876
 9176SOL    HW239165   0.221   3.130  11.724  0.9950  1.0932  0.3163
 9177SOL     OW39166   0.838   1.111   6.443  0.3107 -0.2001  0.7447
 9177SOL    HW139167   0.905   1.177   6.427 -0.1557  0.5314  1.8094
 9177SOL    HW239168   0.880   1.071   6.519 -0.6317 -0.9223  0.8904
 9178SOL     OW39169   2.763   2.784   2.114  0.1500  0.1474 -0.1613
 9178SOL    HW139170   2.734   2.710   2.062  1.1098 -0.2020 -0.2069
 9178SOL    HW239171   2.749   2.866   2.066  2.1901  1.1686  0.9409
 9179SOL     OW39172   0.693   1.604  16.976  0.0195 -0.5657  0.7067
 9179SOL    HW139173   0.745   1.680  17.004 -1.2222  0.3965  0.3793
 9179SOL    HW239174   0.618   1.620  17.033 -1.4214 -0.2557 -1.2563
 9180SOL     OW39175   1.967   0.188   6.544 -0.1153 -0.1707  0.1109
 9180SOL    HW139176   2.022   0.157   6.472 -1.3018 -1.0619 -0.3986
 9180SOL    HW239177   1.892   0.128   6.545 -0.6390  0.5140  3.5813
 9181SOL     OW39178   2.306   3.995   8.460  0.6010 -0.1246  0.1599
 9181SOL    HW139179   2.391   4.039   8.471  1.2429 -0.2445 -4.2760
 9181SOL    HW239180   2.335   3.905   8.449  0.2058 -0.1315 -0.8001
 9182SOL     OW39181   1.945   3.721  15.828  0.0956 -0.8633  0.1619
 9182SOL    HW139182   2.006   3.731  15.901  0.8809  0.1258 -0.6221
 9182SOL    HW239183   1.980   3.647  15.777 -2.3471 -1.4178 -0.6877
 9183SOL     OW39184   1.492   2.274   5.292 -0.6895  0.6634 -0.3012
 9183SOL    HW139185   1.584   2.267   5.316 -0.6391 -0.0185 -0.7001
 9183SOL    HW239186   1.472   2.360   5.328 -1.6781  0.5158 -0.4876
 9184SOL     OW39187   4.433   2.971  15.629  0.3582  0.2945  0.2214
 9184SOL    HW139188   4.476   3.048  15.665 -0.9905  1.8920 -1.6034
 9184SOL    HW239189   4.399   3.017  15.552  0.2894 -1.4780 -0.8217
 9185SOL     OW39190   4.016   2.351   6.662  0.5410  0.2622 -0.3311
 9185SOL    HW139191   4.029   2.446   6.660  2.2646  0.0025 -1.6870
 9185SOL    HW239192   3.988   2.337   6.753  0.1234 -0.8116 -0.6225
 9186SOL     OW39193   3.030   1.588   2.073 -0.6700  0.1338 -0.2461
 9186SOL    HW139194   3.025   1.678   2.040 -0.4947  0.1945 -0.1078
 9186SOL    HW239195   3.102   1.599   2.135  0.0241  0.6117 -1.1447
 9187SOL     OW39196   4.450   1.968   8.987  0.0416 -0.3470 -0.2116
 9187SOL    HW139197   4.531   1.981   8.937 -0.7598  0.0247 -1.4010
 9187SOL    HW239198   4.439   2.042   9.047  0.2741 -1.3071  1.0238
 9188SOL     OW39199   1.365   3.790   1.515  0.1829  0.9099 -0.1039
 9188SOL    HW139200   1.304   3.755   1.580 -1.4345  2.7903 -0.6036
 9188SOL    HW239201   1.369   3.883   1.537  1.1766  0.2797  2.4281
 9189SOL     OW39202   2.580   1.684   5.042 -0.3198 -0.0134  0.1484
 9189SOL    HW139203   2.565   1.637   4.960 -0.8528 -1.7983  1.2504
 9189SOL    HW239204   2.491   1.690   5.077 -1.0212  1.2631 -1.8345
 9190SOL     OW39205   3.284   0.321   7.215  0.0335  0.3104 -0.0068
 9190SOL    HW139206   3.321   0.237   7.240  3.0117  1.0669 -1.8649
 9190SOL    HW239207   3.351   0.379   7.250 -0.5609  0.2021  1.3068
 9191SOL     OW39208   3.369   0.890   2.469  0.6711 -0.3293  0.5080
 9191SOL    HW139209   3.455   0.915   2.503  0.9991  2.6660 -2.5064
 9191SOL    HW239210   3.344   0.966   2.418 -0.8117 -1.9354 -1.1855
 9192SOL     OW39211   3.638   0.285   2.934  0.4938 -0.0515 -0.0011
 9192SOL    HW139212   3.555   0.310   2.893  1.1634  1.6591 -0.3318
 9192SOL    HW239213   3.691   0.279   2.854  1.5324 -1.6590  0.8210
 9193SOL     OW39214   0.675   4.466   7.063  0.4130  0.3200  0.0398
 9193SOL    HW139215   0.667   4.379   7.101 -0.6358  0.8588  1.0599
 9193SOL    HW239216   0.753   4.509   7.098 -0.4787  0.6468  1.6064
 9194SOL     OW39217   1.299   0.491   0.710 -0.5582 -0.1443 -0.2338
 9194SOL    HW139218   1.252   0.459   0.787 -0.6321  0.7280  0.0752
 9194SOL    HW239219   1.251   0.573   0.709 -0.2686  0.0279 -0.1540
 9195SOL     OW39220   0.092   2.775   3.296  0.3828  0.5593  0.0150
 9195SOL    HW139221   0.089   2.699   3.354  2.9068 -0.0209 -0.6074
 9195SOL    HW239222   0.010   2.815   3.325 -0.5637 -1.0451 -0.4766
 9196SOL     OW39223   4.338   3.685   8.944  0.1109  0.0946 -0.2223
 9196SOL    HW139224   4.334   3.709   9.037 -1.8126  2.0641 -0.8125
 9196SOL    HW239225   4.409   3.743   8.917  1.0892  0.1411  2.4657
 9197SOL     OW39226   1.415   2.529  11.320  0.1383 -0.1436  0.2487
 9197SOL    HW139227   1.339   2.562  11.368  1.2384  1.1078  1.1301
 9197SOL    HW239228   1.437   2.461  11.384  0.7686  0.2355  0.4290
 9198SOL     OW39229   0.259   4.368   3.366 -0.0741 -0.2540 -0.2201
 9198SOL    HW139230   0.283   4.355   3.275  0.6526  1.6935 -0.2986
 9198SOL    HW239231   0.323   4.435   3.388  0.3526  0.2960 -3.1221
 9199SOL     OW39232   1.635   4.289   2.463  0.3884 -0.1340  0.1758
 9199SOL    HW139233   1.601   4.200   2.462  2.6148 -0.9776 -2.2071
 9199SOL    HW239234   1.563   4.346   2.437  0.9571  0.3507 -0.3512
 9200SOL     OW39235   1.409   1.828   3.313  0.0936  0.8565  0.3857
 9200SOL    HW139236   1.327   1.803   3.355  0.5271 -1.3935 -0.1213
 9200SOL    HW239237   1.404   1.923   3.299  0.7861  0.5785 -1.8216
 9201SOL     OW39238   4.046   0.973   7.595 -0.3949 -0.5744  0.1020
 9201SOL    HW139239   4.128   1.022   7.584 -0.5038 -0.8923 -2.0854
 9201SOL    HW239240   4.086   0.891   7.622  1.9531  0.0613 -1.4978
 9202SOL     OW39241   1.138   1.214   3.301  0.1224 -1.1133 -0.3320
 9202SOL    HW139242   1.159   1.132   3.346  1.6857  0.9501  2.6781
 9202SOL    HW239243   1.083   1.174   3.233  1.1634 -0.2063 -1.6958
 9203SOL     OW39244   2.742   3.128   3.038  0.4718  0.9062 -0.6812
 9203SOL    HW139245   2.687   3.087   2.971 -1.5854  2.2746  0.1587
 9203SOL    HW239246   2.759   3.051   3.092  0.7808  0.9590 -0.7035
 9204SOL     OW39247   1.559   1.977  15.900 -0.2460  0.0056 -0.5714
 9204SOL    HW139248   1.531   2.067  15.885 -1.5149 -0.1121  1.1075
 9204SOL    HW239249   1.561   1.947  15.809  0.2654 -3.5426  0.5888
 9205SOL     OW39250   2.577   2.994   1.206 -0.1101 -0.5122  0.3786
 9205SOL    HW139251   2.487   3.021   1.187 -0.1815 -0.5529  0.6572
 9205SOL    HW239252   2.621   3.077   1.188  1.0692 -1.5077 -1.3052
 9206SOL     OW39253   0.863   1.318   4.846  0.2250 -0.4953  0.0958
 9206SOL    HW139254   0.813   1.315   4.928  0.3456  0.6026  0.2080
 9206SOL    HW239255   0.901   1.404   4.863  0.1739 -0.6824  1.1542
 9207SOL     OW39256   4.704   0.152  12.306  0.2617  0.1030 -0.3089
 9207SOL    HW139257   4.705   0.120  12.396  1.5384  0.8608 -0.0507
 9207SOL    HW239258   4.717   0.068  12.261  1.0314  0.0801 -0.0574
 9208SOL     OW39259   3.419   1.804  16.036  0.5657 -0.1996 -0.1293
 9208SOL    HW139260   3.404   1.744  15.964  1.4016 -1.0687  0.4238
 9208SOL    HW239261   3.336   1.851  16.033 -0.2904 -1.5422  2.4914
 9209SOL     OW39262   2.482   0.073   1.805 -0.0646  0.4860 -0.2314
 9209SOL    HW139263   2.547   0.092   1.874  0.0045 -1.9037  0.3687
 9209SOL    HW239264   2.441   0.159   1.813 -0.9128  0.0053  0.4958
 9210SOL     OW39265   2.869   1.729   7.203  0.4545 -0.2376 -0.0274
 9210SOL    HW139266   2.856   1.796   7.135 -0.2172  0.1142  0.4493
 9210SOL    HW239267   2.783   1.712   7.239  0.2107 -3.7870 -2.2708
 9211SOL     OW39268   4.161   4.462   2.709  0.3376 -0.4390  0.4752
 9211SOL    HW139269   4.156   4.529   2.777 -1.8965  1.1528 -1.2380
 9211SOL    HW239270   4.225   4.399   2.743 -0.6244 -1.4493  0.4319
 9212SOL     OW39271   4.025   2.422   7.482 -0.0410  0.0649  0.1709
 9212SOL    HW139272   4.023   2.497   7.540 -1.0454  0.8228 -0.8550
 9212SOL    HW239273   4.102   2.417   7.425 -0.5948 -0.4128 -0.5536
 9213SOL     OW39274   4.417   3.422   3.282  0.1647 -0.6972  0.1769
 9213SOL    HW139275   4.419   3.477   3.204  0.9069 -2.1316 -0.8193
 9213SOL    HW239276   4.511   3.414   3.296  0.2093 -0.6604 -0.1069
 9214SOL     OW39277   0.519   4.521   9.059 -0.1059  0.0079 -0.2439
 9214SOL    HW139278   0.551   4.581   9.127  1.5975  0.1858 -1.1939
 9214SOL    HW239279   0.606   4.500   9.025  0.6761  0.9299  1.1830
 9215SOL     OW39280   3.104   0.956   7.017  0.1852 -0.9053  0.5415
 9215SOL    HW139281   3.125   1.049   7.013  0.6949 -1.0606 -0.4202
 9215SOL    HW239282   3.188   0.921   6.987  0.7812  1.2196 -0.2605
 9216SOL     OW39283   0.693   4.299   6.108  0.0552  0.6993  0.7434
 9216SOL    HW139284   0.603   4.267   6.095 -0.2227  0.8974  2.2121
 9216SOL    HW239285   0.748   4.221   6.117 -0.4571  0.1082 -1.2182
 9217SOL     OW39286   1.508   0.408   3.306  0.1037 -0.9478  0.1457
 9217SOL    HW139287   1.447   0.440   3.374 -2.4364 -2.8499 -1.2220
 9217SOL    HW239288   1.556   0.487   3.282 -0.9891  0.1613  1.5601
 9218SOL     OW39289   2.778   3.981   2.593  0.1695 -0.0098  0.3732
 9218SOL    HW139290   2.692   3.988   2.552  0.2790  3.3597  0.7049
 9218SOL    HW239291   2.796   3.888   2.589  0.4199  0.0192  0.9024
 9219SOL     OW39292   1.932   3.798  13.297  0.6018 -0.4372  0.0689
 9219SOL    HW139293   2.006   3.858  13.304  0.2309 -0.2677  2.5177
 9219SOL    HW239294   1.860   3.846  13.257 -1.3413 -0.1719  3.8002
 9220SOL     OW39295   3.995   1.360  13.960 -0.0524 -0.3756  0.2085
 9220SOL    HW139296   4.029   1.447  13.981  0.7835 -0.2762 -1.5593
 9220SOL    HW239297   4.053   1.318  13.897  0.8421 -0.3311  1.0066
 9221SOL     OW39298   0.620   2.612   2.377 -0.4204  0.2158 -0.1669
 9221SOL    HW139299   0.641   2.520   2.393 -0.3332 -0.0102 -1.5685
 9221SOL    HW239300   0.688   2.627   2.312  0.1050 -0.3436  0.2561
 9222SOL     OW39301   0.564   1.540  13.885  0.6653 -0.1027 -0.0534
 9222SOL    HW139302   0.633   1.476  13.870  1.1917  0.5234 -0.2933
 9222SOL    HW239303   0.519   1.513  13.966  0.0268 -3.6193 -1.6068
 9223SOL     OW39304   2.120   4.193   3.935 -0.5067 -0.7857  0.0099
 9223SOL    HW139305   2.112   4.105   3.898  0.5484 -1.4132  1.2865
 9223SOL    HW239306   2.211   4.188   3.965 -0.2755 -2.0924 -0.8930
 9224SOL     OW39307   3.788   2.839   7.975 -0.6153 -0.0507  0.3074
 9224SOL    HW139308   3.764   2.897   8.047 -0.3645  0.6274 -0.1483
 9224SOL    HW239309   3.869   2.800   8.006 -0.8991 -0.2403  0.8066
 9225SOL     OW39310   0.382   3.796   5.760 -0.4094  0.1696 -0.2285
 9225SOL    HW139311   0.454   3.774   5.701 -1.0605 -0.7845 -0.6796
 9225SOL    HW239312   0.382   3.890   5.745  0.8527  0.1123 -0.5947
 9226SOL     OW39313   3.394   2.317   9.922  0.0723 -0.4958  0.3389
 9226SOL    HW139314   3.471   2.341   9.871 -0.4876 -1.0116 -0.7571
 9226SOL    HW239315   3.322   2.300   9.861  0.9077 -0.8590 -0.5491
 9227SOL     OW39316   4.395   0.045   8.821 -0.2362  0.4711  0.0541
 9227SOL    HW139317   4.438   4.703   8.805  0.3165  0.5492  1.0908
 9227SOL    HW239318   4.380   0.034   8.915 -0.0357  0.0699  0.0419
 9228SOL     OW39319   4.576   2.296   5.837  0.1857 -0.2824  0.0491
 9228SOL    HW139320   4.558   2.366   5.775 -0.8650  1.0938  1.9347
 9228SOL    HW239321   4.609   2.229   5.776 -1.2483  0.0444 -1.0610
 9229SOL     OW39322   0.326   4.346   9.610 -0.1297 -0.4519 -0.4872
 9229SOL    HW139323   0.380   4.353   9.688  0.0028  0.8440 -0.7001
 9229SOL    HW239324   0.396   4.317   9.553 -0.8373 -0.6178 -1.2757
 9230SOL     OW39325   3.395   1.479   2.877  0.5834  0.2945 -0.1249
 9230SOL    HW139326   3.305   1.507   2.896  0.7215 -0.4364  1.5842
 9230SOL    HW239327   3.411   1.537   2.803  0.5895  0.4472 -0.0026
 9231SOL     OW39328   4.654   0.659   0.837 -0.3174  0.3837  0.2526
 9231SOL    HW139329   4.725   0.600   0.810  1.1706  0.6249  3.5596
 9231SOL    HW239330   4.606   0.683   0.758 -2.0445 -0.2380  1.1088
 9232SOL     OW39331   3.524   2.550  13.420 -1.1443  0.0737  0.2017
 9232SOL    HW139332   3.609   2.519  13.449 -1.8407 -0.4620  1.6630
 9232SOL    HW239333   3.468   2.503  13.482 -2.5741 -2.0038 -2.6361
 9233SOL     OW39334   2.170   4.001   2.345  0.1039  0.2134 -0.2970
 9233SOL    HW139335   2.223   3.940   2.395 -0.5259 -0.3413 -0.3112
 9233SOL    HW239336   2.227   4.073   2.317 -1.0348  1.1215 -0.3159
 9234SOL     OW39337   3.850   0.614   1.682 -0.5347 -0.0619 -0.1628
 9234SOL    HW139338   3.923   0.560   1.710 -0.2517 -0.4676 -1.6456
 9234SOL    HW239339   3.873   0.628   1.590 -0.7210  1.0783 -0.0322
 9235SOL     OW39340   0.069   3.853  10.890  0.0740 -0.4883 -0.1691
 9235SOL    HW139341   0.081   3.762  10.917 -2.2583 -0.6703  0.2387
 9235SOL    HW239342   0.040   3.832  10.801  2.3329 -1.3195 -0.7011
 9236SOL     OW39343   0.985   0.529   5.916  0.6689 -0.0445  0.1515
 9236SOL    HW139344   1.052   0.464   5.893  2.6094  1.5883  1.1266
 9236SOL    HW239345   0.911   0.473   5.937  0.2823  1.0063  1.6454
 9237SOL     OW39346   1.427   0.829   4.353  0.0275  0.0096 -0.4878
 9237SOL    HW139347   1.473   0.873   4.424 -1.6100  0.9055  0.0316
 9237SOL    HW239348   1.339   0.857   4.378  0.4317 -1.1944  2.3623
 9238SOL     OW39349   3.695   3.705   0.726 -0.3104 -0.4095 -0.4513
 9238SOL    HW139350   3.702   3.760   0.647  0.7537  1.5167  0.9825
 9238SOL    HW239351   3.777   3.722   0.771 -1.5589  2.0623  0.9108
 9239SOL     OW39352   3.084   0.617   8.908 -0.3614 -0.2059 -0.1954
 9239SOL    HW139353   3.083   0.525   8.881  2.6864 -0.2967  0.0100
 9239SOL    HW239354   3.010   0.649   8.856 -0.4922  2.2216  1.5143
 9240SOL     OW39355   3.199   3.311  14.955 -0.3765 -0.2581  0.4084
 9240SOL    HW139356   3.155   3.360  14.885 -0.1702 -1.9955 -0.9507
 9240SOL    HW239357   3.254   3.385  14.979  0.1019  0.1168 -1.8039
 9241SOL     OW39358   4.361   0.656   7.395 -0.0705 -0.6520  0.0356
 9241SOL    HW139359   4.293   0.721   7.414 -0.5955 -1.1579 -0.1015
 9241SOL    HW239360   4.300   0.589   7.363  0.2161 -0.3672 -1.1360
 9242SOL     OW39361   1.952   3.125   3.075  0.0403  0.6253 -0.3803
 9242SOL    HW139362   1.868   3.111   3.117 -0.1852  0.0009 -1.0450
 9242SOL    HW239363   2.001   3.173   3.143 -0.8349 -0.4885  1.0358
 9243SOL     OW39364   2.040   1.047  11.414 -0.0924 -0.4547  0.0344
 9243SOL    HW139365   2.099   0.987  11.459 -0.4027 -0.6240  0.2184
 9243SOL    HW239366   2.032   1.010  11.326  0.2335  0.4833 -0.3883
 9244SOL     OW39367   1.022   3.663   8.430  0.5162  0.1661 -0.2241
 9244SOL    HW139368   1.101   3.714   8.448  1.1625 -0.0762 -2.4241
 9244SOL    HW239369   1.053   3.579   8.461 -2.1304 -0.6619  0.1866
 9245SOL     OW39370   0.835   2.289   8.991  0.1606  0.2067 -0.3434
 9245SOL    HW139371   0.772   2.355   9.021 -0.4963 -0.6693  0.2130
 9245SOL    HW239372   0.880   2.335   8.921 -0.0866  0.0274 -0.6232
 9246SOL     OW39373   3.332   3.944   5.055 -0.2534  0.3744  0.0989
 9246SOL    HW139374   3.318   4.035   5.083  0.8944  0.9369 -1.1419
 9246SOL    HW239375   3.246   3.928   5.016  1.1646 -0.0495 -2.8266
 9247SOL     OW39376   0.526   3.430  14.782  0.2413 -0.3690 -0.4819
 9247SOL    HW139377   0.493   3.389  14.862 -3.4712  1.6372 -0.9791
 9247SOL    HW239378   0.621   3.420  14.789  0.2140 -1.3722 -1.6401
 9248SOL     OW39379   1.366   1.241   8.854  0.0634  0.1953  0.2358
 9248SOL    HW139380   1.373   1.164   8.910  0.7100 -0.2934 -0.5327
 9248SOL    HW239381   1.273   1.260   8.870  0.1434 -0.4655  1.4425
 9249SOL     OW39382   3.379   2.733   6.923  0.3699 -0.1804 -0.4057
 9249SOL    HW139383   3.366   2.806   6.862  0.9591 -0.0673 -0.3962
 9249SOL    HW239384   3.290   2.711   6.952 -0.3154  1.1655 -1.4586
 9250SOL     OW39385   2.579   1.670  10.125  0.1581  0.8701  0.1285
 9250SOL    HW139386   2.602   1.614  10.199  2.9110  2.4817  0.4706
 9250SOL    HW239387   2.592   1.760  10.155  1.3425  0.1811  1.6926
 9251SOL     OW39388   3.181   0.464  15.142  0.9103  0.0964  0.1149
 9251SOL    HW139389   3.178   0.377  15.101  3.9795 -0.2225  0.5552
 9251SOL    HW239390   3.197   0.523  15.069  0.1685  2.3231  1.7511
 9252SOL     OW39391   0.635   2.910   5.096  0.1090 -0.5229  0.2301
 9252SOL    HW139392   0.720   2.871   5.076 -0.2840 -0.7823 -0.9288
 9252SOL    HW239393   0.642   2.997   5.055 -0.8843 -0.7178 -0.3448
 9253SOL     OW39394   3.818   2.025  10.908  0.5440 -0.0909  0.8015
 9253SOL    HW139395   3.736   1.982  10.933  0.2492 -0.9124 -1.5700
 9253SOL    HW239396   3.812   2.019  10.813 -0.8765 -0.5119  0.9246
 9254SOL     OW39397   1.642   1.943   1.708  0.2327  0.1240  0.4245
 9254SOL    HW139398   1.619   1.895   1.628 -0.2485 -0.1454  0.7197
 9254SOL    HW239399   1.735   1.921   1.710  0.1698 -0.0011  2.1981
 9255SOL     OW39400   3.724   3.768   9.567 -1.0162 -0.2860 -0.0987
 9255SOL    HW139401   3.743   3.862   9.568 -0.4181 -0.3664 -2.3413
 9255SOL    HW239402   3.750   3.735   9.653 -0.1686 -2.8228 -1.3180
 9256SOL     OW39403   0.983   2.362   2.805 -0.6789 -0.4928  0.4691
 9256SOL    HW139404   0.973   2.457   2.808  1.7990 -0.2267 -0.3065
 9256SOL    HW239405   1.023   2.336   2.888 -1.1442  2.6486  1.6751
 9257SOL     OW39406   2.516   1.263   7.431 -0.3234  0.3592 -0.4177
 9257SOL    HW139407   2.584   1.200   7.408 -0.6702 -0.2268  0.1623
 9257SOL    HW239408   2.506   1.247   7.525 -2.7605 -1.1786 -0.9479
 9258SOL     OW39409   4.543   1.002   2.594 -0.6415  0.5457  0.4368
 9258SOL    HW139410   4.479   1.039   2.655  1.8030  0.5830  2.9963
 9258SOL    HW239411   4.590   0.933   2.641 -0.0903  0.9187  0.4345
 9259SOL     OW39412   3.310   1.104   5.183  0.4511  0.3040 -0.1130
 9259SOL    HW139413   3.318   1.154   5.265 -0.1873  0.4958 -0.1611
 9259SOL    HW239414   3.217   1.089   5.167  0.5344  1.1556 -1.4016
 9260SOL     OW39415   1.536   0.656   7.851  0.8421 -0.0080  0.2305
 9260SOL    HW139416   1.616   0.620   7.890  0.9380 -0.5515 -0.4589
 9260SOL    HW239417   1.516   0.589   7.785 -0.6794  1.3270 -0.6558
 9261SOL     OW39418   1.583   4.445   4.322 -0.1242 -0.0963 -0.8751
 9261SOL    HW139419   1.538   4.366   4.353  2.3214 -0.5128  1.5699
 9261SOL    HW239420   1.662   4.451   4.375 -0.7427 -0.6417  0.1089
 9262SOL     OW39421   4.255   1.556   3.950  0.0237  0.2907  0.0927
 9262SOL    HW139422   4.348   1.541   3.936 -0.4367  1.3835 -3.9430
 9262SOL    HW239423   4.224   1.568   3.860  1.0185  0.0882 -0.2698
 9263SOL     OW39424   1.257   2.561   6.335 -0.3948 -0.1387  0.1319
 9263SOL    HW139425   1.174   2.609   6.331  0.4859  1.2165 -1.9463
 9263SOL    HW239426   1.287   2.588   6.422  2.5083  1.4216 -1.3427
 9264SOL     OW39427   3.359   4.024   2.641 -0.3611  0.0499 -0.8468
 9264SOL    HW139428   3.272   3.986   2.642 -1.4546  2.5755 -0.5372
 9264SOL    HW239429   3.402   3.946   2.677 -2.7752 -1.1400 -0.5384
 9265SOL     OW39430   1.067   2.723   5.177 -0.2996 -0.4917 -0.5050
 9265SOL    HW139431   1.099   2.759   5.260  0.3164 -1.7340 -0.1972
 9265SOL    HW239432   1.115   2.640   5.172  0.8239  0.1880 -0.7778
 9266SOL     OW39433   2.211   3.982   7.579 -0.4157  0.2599  0.1129
 9266SOL    HW139434   2.304   3.961   7.589 -0.8363 -0.3320  2.7738
 9266SOL    HW239435   2.179   3.988   7.669 -0.8899 -0.5262 -0.0049
 9267SOL     OW39436   0.511   3.562   3.523  0.1474  0.2976  0.3087
 9267SOL    HW139437   0.567   3.540   3.448 -2.4977 -1.1934 -1.2108
 9267SOL    HW239438   0.444   3.606   3.470 -0.5397  0.4159  1.2915
 9268SOL     OW39439   3.283   0.084   7.461 -0.4579 -0.5314  0.3698
 9268SOL    HW139440   3.243   0.055   7.543 -0.3157 -0.4778  0.4582
 9268SOL    HW239441   3.283   4.741   7.418  1.1953 -0.6867  0.6820
 9269SOL     OW39442   0.185   0.287   3.202  0.6433  0.0438 -0.1819
 9269SOL    HW139443   0.216   0.224   3.137  0.9450 -1.0563  1.0191
 9269SOL    HW239444   0.145   0.222   3.260  0.0761  1.2738  0.8150
 9270SOL     OW39445   4.274   1.478  14.828  0.2891 -0.2043  0.4524
 9270SOL    HW139446   4.202   1.539  14.848  0.7037  0.4400 -0.0182
 9270SOL    HW239447   4.224   1.397  14.816  2.0741 -0.7308 -3.2252
 9271SOL     OW39448   3.895   0.672  11.060 -0.0158 -0.0262  0.0522
 9271SOL    HW139449   3.912   0.710  11.146  1.2533  1.0770 -0.6762
 9271SOL    HW239450   3.816   0.717  11.028  2.0080  1.5731 -2.7172
 9272SOL     OW39451   3.431   2.897   2.775  0.2827  0.1775  0.0802
 9272SOL    HW139452   3.450   2.814   2.731 -1.7769  0.0495 -0.5564
 9272SOL    HW239453   3.514   2.944   2.774  1.3171 -1.6755 -1.7648
 9273SOL     OW39454   0.467   3.829  11.812  0.2680 -0.2564 -0.0786
 9273SOL    HW139455   0.554   3.797  11.834 -0.0055 -0.5280  0.6331
 9273SOL    HW239456   0.456   3.877  11.894 -2.6298  0.1433 -0.7007
 9274SOL     OW39457   0.774   0.821  12.932 -0.3487  0.0408 -0.1615
 9274SOL    HW139458   0.793   0.797  13.022 -2.5134 -0.5754  0.1470
 9274SOL    HW239459   0.688   0.780  12.919 -0.3311  0.2497 -0.9758
 9275SOL     OW39460   0.752   1.740   3.191 -0.8283 -0.0824  0.2262
 9275SOL    HW139461   0.766   1.745   3.286 -0.4663  0.8323  0.1260
 9275SOL    HW239462   0.841   1.756   3.161 -0.5760  0.3486  1.1782
 9276SOL     OW39463   3.454   0.260   1.831 -0.5696  0.4506  0.1844
 9276SOL    HW139464   3.434   0.167   1.819 -0.5024  0.4181  0.3194
 9276SOL    HW239465   3.512   0.294   1.764  0.3867 -1.0249  0.2549
 9277SOL     OW39466   4.055   2.325   0.912 -0.4802 -0.2084  0.1474
 9277SOL    HW139467   4.010   2.275   0.844 -0.4826  0.4123 -0.3055
 9277SOL    HW239468   3.997   2.400   0.923 -0.7712 -0.3021 -0.7161
 9278SOL     OW39469   2.995   1.808   6.532  0.3559  0.3555 -0.2472
 9278SOL    HW139470   3.065   1.801   6.596  0.8015 -1.5233 -0.9230
 9278SOL    HW239471   2.940   1.733   6.556 -1.6688  1.2411 -2.0823
 9279SOL     OW39472   1.208   3.337   1.346 -0.3334  0.1662  0.3359
 9279SOL    HW139473   1.235   3.426   1.323 -0.6468  0.4916  1.2301
 9279SOL    HW239474   1.135   3.330   1.285  0.9517 -1.2785 -1.0255
 9280SOL     OW39475   1.844   1.544   3.419  0.3822 -0.0963 -0.4991
 9280SOL    HW139476   1.928   1.591   3.415 -0.7427  2.0929  1.5194
 9280SOL    HW239477   1.776   1.609   3.437  0.5388 -0.0911  0.0785
 9281SOL     OW39478   2.710   3.533   3.416  0.1125  0.0029 -0.0023
 9281SOL    HW139479   2.730   3.443   3.390 -0.8130  0.0463 -0.8709
 9281SOL    HW239480   2.705   3.593   3.341 -1.8981 -2.5237 -1.8765
 9282SOL     OW39481   3.248   3.606  14.043 -0.5160 -0.4229 -0.4496
 9282SOL    HW139482   3.153   3.597  14.031 -0.9700  5.1550 -1.0684
 9282SOL    HW239483   3.289   3.541  13.986  0.4791  1.2888 -1.6701
 9283SOL     OW39484   3.826   3.045   3.576 -0.0452 -0.2397 -0.2466
 9283SOL    HW139485   3.748   2.991   3.567  0.6785 -1.4419  0.8654
 9283SOL    HW239486   3.889   2.985   3.616  0.8890  1.5649  1.0291
 9284SOL     OW39487   0.858   3.029   5.712 -0.7913  0.3147 -0.0804
 9284SOL    HW139488   0.923   3.091   5.680  0.4160 -1.4276 -1.0375
 9284SOL    HW239489   0.869   2.966   5.640  0.8189 -1.3927  1.6634
 9285SOL     OW39490   2.227   2.434  13.825  0.1606  0.5562  0.2748
 9285SOL    HW139491   2.256   2.516  13.784 -2.7243  2.6559  2.4569
 9285SOL    HW239492   2.294   2.415  13.890 -1.0392 -3.0281  0.4332
 9286SOL     OW39493   0.040   4.194   3.321  0.2668 -0.0211 -0.1520
 9286SOL    HW139494   0.098   4.265   3.294  1.0278 -0.5900  0.0016
 9286SOL    HW239495   0.104   4.138   3.366  0.1867 -0.5335 -0.6673
 9287SOL     OW39496   2.758   0.928  12.291  0.0420  0.2727  0.5683
 9287SOL    HW139497   2.778   0.864  12.359 -3.3278 -0.8329  0.5257
 9287SOL    HW239498   2.739   0.872  12.216  0.6288 -0.1005  0.6942
 9288SOL     OW39499   2.265   2.915   2.232 -0.2734  0.0417 -0.0611
 9288SOL    HW139500   2.244   3.008   2.227 -1.1896 -0.2332 -1.4304
 9288SOL    HW239501   2.255   2.885   2.142  1.6645 -0.0473 -0.2361
 9289SOL     OW39502   1.922   3.266   7.791  0.5868  0.4791  0.6232
 9289SOL    HW139503   1.929   3.338   7.854 -0.1779  0.0129  1.2424
 9289SOL    HW239504   1.917   3.319   7.712  0.7943 -1.0976 -0.4614
 9290SOL     OW39505   0.121   3.720   5.656 -0.4575  0.3181 -0.2117
 9290SOL    HW139506   0.131   3.783   5.584 -1.2692  1.8460  0.9988
 9290SOL    HW239507   0.214   3.703   5.669 -0.4524  2.2148  2.3215
 9291SOL     OW39508   4.676   4.627  13.267 -0.4194 -0.3410 -0.1666
 9291SOL    HW139509   4.692   4.553  13.325 -0.7553  1.1065  1.7717
 9291SOL    HW239510   4.615   4.681  13.318 -1.0823 -0.9351 -0.3440
 9292SOL     OW39511   2.721   2.719  12.665  0.4852  0.2434 -0.1514
 9292SOL    HW139512   2.803   2.764  12.684 -0.0450  0.9253  0.5411
 9292SOL    HW239513   2.715   2.748  12.574 -0.1542  2.2093  0.5274
 9293SOL     OW39514   0.768   1.560   5.087 -0.1329  0.3343  0.4548
 9293SOL    HW139515   0.776   1.628   5.153  0.0207 -1.8591  2.6915
 9293SOL    HW239516   0.838   1.590   5.029  0.5887 -1.0379  0.6047
 9294SOL     OW39517   0.016   3.613   5.876 -0.6630  0.5676  0.0118
 9294SOL    HW139518   0.038   3.660   5.796 -1.4196 -1.3076 -1.3064
 9294SOL    HW239519   4.734   3.533   5.829  2.1957  0.5840 -1.4868
 9295SOL     OW39520   3.680   4.193   7.691  1.2586 -0.5831  0.6171
 9295SOL    HW139521   3.727   4.270   7.723  1.1252 -0.0520 -0.4698
 9295SOL    HW239522   3.643   4.156   7.770  1.0768 -1.6924  0.0185
 9296SOL     OW39523   4.663   0.333   4.509 -0.3675  0.5507 -0.3046
 9296SOL    HW139524   4.586   0.279   4.527  1.0523 -1.8012 -1.3254
 9296SOL    HW239525   4.735   0.273   4.490 -0.1780 -0.0659  2.4004
 9297SOL     OW39526   1.664   4.582   9.212  0.3744 -0.1912  0.4946
 9297SOL    HW139527   1.678   4.591   9.307 -1.7428  2.3330  0.5608
 9297SOL    HW239528   1.750   4.591   9.172 -0.0692  1.4160 -0.0911
 9298SOL     OW39529   3.188   4.550  11.929 -0.4307  0.8635  0.2402
 9298SOL    HW139530   3.275   4.583  11.906  0.0229  0.8298  1.9149
 9298SOL    HW239531   3.134   4.612  11.880 -0.1071 -0.3341 -1.6505
 9299SOL     OW39532   0.596   3.088   5.456 -0.0726 -0.4228  0.1542
 9299SOL    HW139533   0.573   2.999   5.483  2.2271 -0.7456  1.0404
 9299SOL    HW239534   0.618   3.131   5.538 -0.3357  1.1061 -0.5880
 9300SOL     OW39535   3.624   4.391   8.448 -0.6756  0.0656 -0.2810
 9300SOL    HW139536   3.706   4.373   8.403 -0.6315  2.3340 -1.1203
 9300SOL    HW239537   3.620   4.486   8.458  1.3715  0.0907  0.1586
 9301SOL     OW39538   4.146   0.415   4.826 -0.5967 -0.2555  0.6277
 9301SOL    HW139539   4.177   0.377   4.744 -0.8839  0.8263  0.0298
 9301SOL    HW239540   4.139   0.340   4.886  0.5658 -0.8945 -0.0260
 9302SOL     OW39541   1.879   0.434   5.632  0.1231 -0.2305 -0.0363
 9302SOL    HW139542   1.848   0.519   5.600 -1.3418 -0.7156  0.0639
 9302SOL    HW239543   1.799   0.387   5.656  0.0202  0.5146  1.1068
 9303SOL     OW39544   2.067   3.250  15.088 -0.2796  1.3750 -0.2018
 9303SOL    HW139545   2.137   3.275  15.028 -0.1420 -1.2200 -1.1172
 9303SOL    HW239546   2.025   3.192  15.024  0.1260 -0.7559  1.4500
 9304SOL     OW39547   0.456   0.999   6.130 -0.5103 -0.1846  0.2135
 9304SOL    HW139548   0.496   1.070   6.180 -1.7320  1.4914 -1.1569
 9304SOL    HW239549   0.384   0.978   6.189 -1.5756 -0.3751 -1.1459
 9305SOL     OW39550   3.203   3.099   9.941  0.0298 -0.0089 -0.1039
 9305SOL    HW139551   3.226   3.019   9.893  1.2294  1.4335 -1.9410
 9305SOL    HW239552   3.273   3.161   9.921 -0.5156 -0.2963 -2.9898
 9306SOL     OW39553   0.991   1.685  15.110  0.0487  0.0878  0.4742
 9306SOL    HW139554   1.061   1.739  15.146  1.2224 -2.4905  2.0265
 9306SOL    HW239555   1.034   1.600  15.106  1.8172  0.9941  0.3614
 9307SOL     OW39556   3.267   2.022   2.068 -0.2288  0.4792  0.1620
 9307SOL    HW139557   3.341   2.075   2.096 -0.7632  0.6243  1.3103
 9307SOL    HW239558   3.313   1.962   2.009  0.9178  1.3236  0.2083
 9308SOL     OW39559   3.381   3.950  10.313  0.3668 -0.3444 -0.0088
 9308SOL    HW139560   3.324   3.916  10.244  0.9132 -0.5403 -0.3643
 9308SOL    HW239561   3.376   4.043  10.290 -1.0448 -0.0718  1.4017
 9309SOL     OW39562   0.093   3.917   0.410  0.2313 -0.0664  0.5591
 9309SOL    HW139563   0.183   3.897   0.387 -0.0643 -1.5739  0.7073
 9309SOL    HW239564   0.092   3.887   0.501 -0.6877 -0.9311  0.2690
 9310SOL     OW39565   4.190   3.267   2.705  0.2072  0.7673 -0.9517
 9310SOL    HW139566   4.190   3.348   2.755  0.5484  0.4182 -0.3930
 9310SOL    HW239567   4.224   3.299   2.621 -1.5328  2.3991 -1.0363
 9311SOL     OW39568   0.180   4.025  16.138  0.0688 -0.2856 -0.3452
 9311SOL    HW139569   0.092   4.009  16.105  0.4888 -1.8848 -0.6939
 9311SOL    HW239570   0.183   4.120  16.131  2.2907 -0.5253 -2.5482
 9312SOL     OW39571   0.297   4.314   7.956  0.2132  0.2461 -0.1484
 9312SOL    HW139572   0.310   4.226   7.923 -0.2790 -0.4354  1.4705
 9312SOL    HW239573   0.319   4.365   7.878  1.2719  0.1190  0.0722
 9313SOL     OW39574   2.433   0.403   4.107  0.2475  0.1679  0.1134
 9313SOL    HW139575   2.470   0.390   4.019 -1.0160 -1.1326 -0.2312
 9313SOL    HW239576   2.481   0.341   4.160  1.3384 -0.2560 -1.3641
 9314SOL     OW39577   1.108   4.242   3.220 -0.0313  0.5276  0.6059
 9314SOL    HW139578   1.013   4.230   3.222  0.5076 -4.0526 -2.0041
 9314SOL    HW239579   1.126   4.205   3.133 -1.5090  1.0561  0.0692
 9315SOL     OW39580   4.544   1.480   7.498  0.3403  0.0984  0.4338
 9315SOL    HW139581   4.564   1.386   7.500 -1.8035 -0.4505 -4.6418
 9315SOL    HW239582   4.624   1.519   7.534 -0.6063  0.9955  1.5675
 9316SOL     OW39583   3.491   1.270   7.799 -0.1212  0.0194  0.0269
 9316SOL    HW139584   3.420   1.219   7.760  0.0677 -0.1927 -0.0450
 9316SOL    HW239585   3.453   1.279   7.886 -0.9654  0.0054 -0.3427
 9317SOL     OW39586   0.542   3.446   8.677 -0.0645 -0.4383 -0.1937
 9317SOL    HW139587   0.518   3.429   8.586 -3.8116  0.6799  0.5908
 9317SOL    HW239588   0.549   3.541   8.687 -1.2167 -0.3381 -0.3524
 9318SOL     OW39589   1.360   3.304   5.551  0.3044  0.2905  0.5124
 9318SOL    HW139590   1.393   3.279   5.464  1.7938 -2.9266  2.0192
 9318SOL    HW239591   1.423   3.251   5.600 -0.8578 -0.6590  0.9864
 9319SOL     OW39592   0.827   3.062   9.837  0.5671 -0.0928  0.0454
 9319SOL    HW139593   0.895   2.995   9.843 -0.7228 -1.6167 -2.5090
 9319SOL    HW239594   0.833   3.090   9.746  1.5705  0.3774  0.2569
 9320SOL     OW39595   1.181   3.296   1.968  0.2391 -0.5555  0.1768
 9320SOL    HW139596   1.270   3.329   1.979  0.3244 -0.2761 -1.3894
 9320SOL    HW239597   1.130   3.347   2.032  2.0486  1.8172 -0.2736
 9321SOL     OW39598   4.095   2.806   2.337 -0.6523 -0.4539  0.1905
 9321SOL    HW139599   4.097   2.846   2.424 -1.5590 -1.3612  0.6284
 9321SOL    HW239600   4.174   2.751   2.334 -2.1205 -2.2823 -4.1829
 9322SOL     OW39601   1.518   3.948   4.241 -0.0261 -0.0610 -0.6733
 9322SOL    HW139602   1.537   3.882   4.308 -0.4089 -0.6075 -1.1009
 9322SOL    HW239603   1.559   3.909   4.163  2.9031  0.3301  0.6855
 9323SOL     OW39604   2.371   4.081  12.055  0.0174 -0.1603 -0.0464
 9323SOL    HW139605   2.293   4.060  12.107 -1.4855 -0.5011 -2.4508
 9323SOL    HW239606   2.403   4.154  12.108 -0.4770 -0.3610  0.5325
 9324SOL     OW39607   4.380   3.841  13.316  0.0478 -0.4643  0.2358
 9324SOL    HW139608   4.329   3.781  13.261 -1.1975  0.9757 -0.1703
 9324SOL    HW239609   4.467   3.800  13.314 -0.5143 -1.7383  2.3406
 9325SOL     OW39610   0.187   1.440   2.856  0.2712  0.7852 -0.1067
 9325SOL    HW139611   0.113   1.389   2.822 -0.2418  1.7570 -0.4282
 9325SOL    HW239612   0.224   1.361   2.895 -0.8198  1.6937  2.7150
 9326SOL     OW39613   0.171   2.174  15.474  0.2652  0.1880 -0.4115
 9326SOL    HW139614   0.101   2.149  15.414  0.2517  1.0435 -0.7493
 9326SOL    HW239615   0.249   2.145  15.426 -1.5773  0.2484 -3.3994
 9327SOL     OW39616   0.408   1.727  16.594 -0.1879 -0.1498 -0.2501
 9327SOL    HW139617   0.438   1.667  16.662 -0.3587 -0.6931 -0.6569
 9327SOL    HW239618   0.319   1.744  16.624 -0.3590  0.7428 -1.2372
 9328SOL     OW39619   0.565   3.920   3.427  0.0335 -0.3854 -0.8025
 9328SOL    HW139620   0.614   3.896   3.506 -1.5799  1.8064  0.8453
 9328SOL    HW239621   0.480   3.878   3.441  0.1166  0.2949  1.7503
 9329SOL     OW39622   0.445   4.192   4.404 -0.2359  0.4518  0.2694
 9329SOL    HW139623   0.445   4.111   4.455 -0.8910  0.1205 -0.2545
 9329SOL    HW239624   0.475   4.149   4.324  3.9586  0.0564  2.0749
 9330SOL     OW39625   0.530   3.302  10.679  0.1194  0.6494  0.0512
 9330SOL    HW139626   0.471   3.244  10.728  1.9957  0.4350  2.0833
 9330SOL    HW239627   0.552   3.360  10.752 -1.5712  0.4596  0.7164
 9331SOL     OW39628   1.538   4.037  12.192 -0.6840 -0.0186  0.2122
 9331SOL    HW139629   1.547   3.956  12.243  1.7350  0.0124 -0.1455
 9331SOL    HW239630   1.581   4.007  12.112  1.0425 -1.3852  1.6250
 9332SOL     OW39631   0.536   2.987   3.549  0.2846 -0.3218 -0.1010
 9332SOL    HW139632   0.482   2.979   3.470  0.1913  0.6574 -0.1385
 9332SOL    HW239633   0.617   2.944   3.524  0.6327 -0.0309  0.5228
 9333SOL     OW39634   1.360   4.491   8.500  0.4332  0.0989 -0.1795
 9333SOL    HW139635   1.376   4.453   8.413 -2.4102 -0.3783 -0.4984
 9333SOL    HW239636   1.435   4.550   8.499 -0.9899  1.9034  1.4356
 9334SOL     OW39637   3.931   2.899   4.893 -0.7009 -0.1959 -0.0265
 9334SOL    HW139638   3.933   2.993   4.874 -1.0123 -0.5424 -1.7511
 9334SOL    HW239639   4.018   2.892   4.933 -0.4000 -1.5241 -0.9070
 9335SOL     OW39640   1.313   2.303   3.021  0.2153  0.0389  0.1755
 9335SOL    HW139641   1.359   2.257   2.951  0.2583  0.0234  0.2140
 9335SOL    HW239642   1.373   2.374   3.046  0.3734  0.3323 -1.0259
 9336SOL     OW39643   1.488   3.344   3.466  0.0347 -0.0184 -0.2938
 9336SOL    HW139644   1.540   3.280   3.417  2.1763  1.1111  0.4989
 9336SOL    HW239645   1.441   3.391   3.397 -1.0183 -0.7190 -0.0548
 9337SOL     OW39646   1.473   0.440   7.671  0.0743  0.5967  0.3951
 9337SOL    HW139647   1.544   0.377   7.668 -2.6794 -2.4126 -1.9628
 9337SOL    HW239648   1.399   0.396   7.713  0.0916  1.4249  1.3050
 9338SOL     OW39649   1.295   4.666   6.970 -0.0802 -0.1733 -0.3773
 9338SOL    HW139650   1.298   4.672   6.874  0.2230  0.5135 -0.3206
 9338SOL    HW239651   1.362   4.599   6.981 -0.5914 -0.7930 -1.0083
 9339SOL     OW39652   4.335   0.262   4.093  0.8458 -0.0042  0.3637
 9339SOL    HW139653   4.347   0.182   4.144 -1.9934 -0.7204 -0.1295
 9339SOL    HW239654   4.280   0.314   4.152 -1.0266 -0.0056 -1.3730
 9340SOL     OW39655   2.655   4.596   3.487 -0.6388 -0.4173  0.0779
 9340SOL    HW139656   2.744   4.625   3.507 -0.2259 -1.3121 -0.5063
 9340SOL    HW239657   2.633   4.549   3.568 -0.5420 -1.4425 -0.4894
 9341SOL     OW39658   1.572   2.626   1.929 -0.1073  0.0948  0.4839
 9341SOL    HW139659   1.627   2.559   1.970  0.6247 -0.7192 -1.8603
 9341SOL    HW239660   1.502   2.634   1.995 -0.8744 -0.2021 -0.3025
 9342SOL     OW39661   4.288   1.872   2.486 -0.5936  0.2457  0.0744
 9342SOL    HW139662   4.378   1.847   2.469 -0.6724 -0.8390  1.2217
 9342SOL    HW239663   4.280   1.863   2.581  0.8882  1.8187  0.3436
 9343SOL     OW39664   3.716   1.783   5.455 -0.1154 -0.5933  0.7288
 9343SOL    HW139665   3.772   1.707   5.471  0.1552 -0.5211  0.1201
 9343SOL    HW239666   3.756   1.801   5.370 -1.6772 -1.4819 -0.2043
 9344SOL     OW39667   0.352   2.682   5.428  0.1223 -0.1251  0.1780
 9344SOL    HW139668   0.447   2.690   5.438  0.2167  0.1967 -0.9792
 9344SOL    HW239669   0.342   2.615   5.495  0.6504 -0.5175 -0.1329
 9345SOL     OW39670   2.808   4.001   6.072  0.5428  0.1833 -0.0850
 9345SOL    HW139671   2.774   4.089   6.091  0.3340 -0.1554  1.1407
 9345SOL    HW239672   2.733   3.968   6.024  1.5082 -1.5584 -0.3912
 9346SOL     OW39673   1.894   3.285   5.336  0.0779 -0.1817 -0.1718
 9346SOL    HW139674   1.922   3.248   5.253  0.0463 -0.9092  0.1415
 9346SOL    HW239675   1.914   3.216   5.399  2.1713  0.9810  0.4367
 9347SOL     OW39676   3.648   3.606  12.170 -0.1330  0.3600  0.1397
 9347SOL    HW139677   3.729   3.567  12.140  0.1114  0.5764  0.5137
 9347SOL    HW239678   3.598   3.525  12.174 -1.2204  0.9907 -0.5747
 9348SOL     OW39679   4.156   2.455  16.681 -0.2267  0.1777  0.4139
 9348SOL    HW139680   4.215   2.514  16.730 -1.7061  2.7014 -0.8455
 9348SOL    HW239681   4.212   2.383  16.650  0.9169  1.4061 -0.4086
 9349SOL     OW39682   1.673   4.713   9.728  0.3373 -0.1306  0.0589
 9349SOL    HW139683   1.742   4.719   9.794 -0.0822  0.1920  0.4650
 9349SOL    HW239684   1.602   0.014   9.774  0.0480  0.6157 -1.1001
 9350SOL     OW39685   3.054   1.293   5.086 -0.9837 -0.0629  0.2700
 9350SOL    HW139686   3.113   1.367   5.076 -0.0280 -1.4012 -4.0881
 9350SOL    HW239687   3.053   1.277   4.991  1.6500 -1.2777  0.4425
 9351SOL     OW39688   0.231   2.785   1.444  0.0824  0.5286 -0.0736
 9351SOL    HW139689   0.314   2.750   1.476 -1.1637 -2.3894 -0.0869
 9351SOL    HW239690   0.194   2.703   1.412 -1.5996  1.2303  0.0907
 9352SOL     OW39691   4.485   0.661   5.081  0.0965  0.6048 -0.1023
 9352SOL    HW139692   4.441   0.681   4.998 -2.1244  0.6444  1.0630
 9352SOL    HW239693   4.574   0.637   5.058  0.0754  0.6544 -0.2348
 9353SOL     OW39694   2.416   2.131  17.455 -0.2329 -0.1841  0.0195
 9353SOL    HW139695   2.350   2.123  17.386 -1.2480 -0.1057  0.9664
 9353SOL    HW239696   2.433   2.042  17.487 -1.5590  0.3428  2.2225
 9354SOL     OW39697   3.096   1.274  11.058  0.0796  0.6575  0.1701
 9354SOL    HW139698   3.011   1.254  11.097  0.4813 -1.9443 -0.3026
 9354SOL    HW239699   3.068   1.311  10.975 -1.0164 -0.5459  0.0138
 9355SOL     OW39700   1.876   1.146   4.841 -0.3113 -0.6942  0.0535
 9355SOL    HW139701   1.935   1.212   4.879 -0.8606  0.4258 -1.0147
 9355SOL    HW239702   1.920   1.120   4.760 -1.2001  1.7151 -1.2012
 9356SOL     OW39703   2.498   2.414   3.662  0.1388 -1.3931 -0.0420
 9356SOL    HW139704   2.585   2.377   3.648 -0.6532 -3.4022  0.3969
 9356SOL    HW239705   2.472   2.381   3.748 -0.0049 -0.3798  0.3034
 9357SOL     OW39706   3.476   4.119  11.778 -0.7014 -0.0088  0.0039
 9357SOL    HW139707   3.388   4.152  11.759  0.0609  0.1627 -3.2749
 9357SOL    HW239708   3.498   4.086  11.690  0.4007 -1.5973  0.8749
 9358SOL     OW39709   0.120   3.387   5.762 -0.2920  0.0168  0.1528
 9358SOL    HW139710   0.187   3.452   5.781 -0.2753  0.4420 -1.3725
 9358SOL    HW239711   0.121   3.368   5.668 -0.2206 -0.0221  0.1614
 9359SOL     OW39712   0.310   0.775   7.137  0.3862 -0.1977  0.3038
 9359SOL    HW139713   0.390   0.724   7.123  1.6858  2.2012 -0.9310
 9359SOL    HW239714   0.320   0.848   7.077 -3.7361  0.7573  0.7461
 9360SOL     OW39715   0.017   1.939   8.981 -0.4069  0.5976  0.2637
 9360SOL    HW139716   4.733   1.893   8.901  1.5494  0.3622 -0.2325
 9360SOL    HW239717   4.717   1.877   9.040  2.2826 -0.9068  0.6023
 9361SOL     OW39718   0.684   2.527   6.797 -0.4680 -0.0397 -1.0299
 9361SOL    HW139719   0.659   2.595   6.861  0.1946 -2.1788  1.4945
 9361SOL    HW239720   0.656   2.567   6.715  0.5866  3.2564  0.2039
 9362SOL     OW39721   3.168   3.420   2.350  0.7879  0.4279  0.2089
 9362SOL    HW139722   3.219   3.427   2.270 -2.5164  1.0201 -1.8570
 9362SOL    HW239723   3.181   3.328   2.371 -0.9234  0.3892  1.1267
 9363SOL     OW39724   2.549   2.480   7.461 -1.0304  0.2577  0.2285
 9363SOL    HW139725   2.549   2.490   7.556 -1.2842 -0.5215  0.3086
 9363SOL    HW239726   2.506   2.563   7.439 -2.7700 -0.9268 -0.9071
 9364SOL     OW39727   0.585   3.667   2.885 -0.2683  0.3809 -0.0806
 9364SOL    HW139728   0.678   3.647   2.893 -0.4524 -1.7021 -3.3461
 9364SOL    HW239729   0.591   3.762   2.898 -0.5381  0.5137 -0.9327
 9365SOL     OW39730   2.835   1.950   6.982 -0.3157 -0.4994 -0.6902
 9365SOL    HW139731   2.923   1.932   6.947 -0.0875 -3.7686  1.5621
 9365SOL    HW239732   2.786   1.989   6.910 -2.7377 -2.2783 -0.0074
 9366SOL     OW39733   2.141   4.031   0.953  0.1420  0.0566 -0.8953
 9366SOL    HW139734   2.051   4.046   0.983 -0.8343 -1.4782 -3.0400
 9366SOL    HW239735   2.178   4.118   0.939  0.0669 -0.0111 -1.5142
 9367SOL     OW39736   1.692   4.472   8.709  0.1068 -0.1758 -0.2238
 9367SOL    HW139737   1.670   4.396   8.762  1.2616  0.7061  1.5543
 9367SOL    HW239738   1.785   4.465   8.688  0.3482  0.4534  0.6111
 9368SOL     OW39739   0.419   0.532  15.888  0.1293  0.0000 -0.3599
 9368SOL    HW139740   0.329   0.556  15.911 -0.1601 -0.5396 -0.9355
 9368SOL    HW239741   0.396   0.458  15.831  1.3220 -0.2886 -0.4773
 9369SOL     OW39742   3.835   1.230   6.995  0.0629 -0.1860  0.5122
 9369SOL    HW139743   3.796   1.292   6.934  0.5146  1.4581  1.9034
 9369SOL    HW239744   3.780   1.153   6.982  1.4890 -1.0266 -0.5346
 9370SOL     OW39745   0.331   0.267  13.862  0.5838  0.0587  0.0303
 9370SOL    HW139746   0.240   0.295  13.851  1.3445  2.4598 -0.1359
 9370SOL    HW239747   0.375   0.347  13.834 -0.3951  1.2626  1.8771
 9371SOL     OW39748   3.454   3.229   0.959 -0.0283  0.2247 -0.4237
 9371SOL    HW139749   3.514   3.156   0.948  0.4399  0.2885  1.8768
 9371SOL    HW239750   3.420   3.220   0.869  0.9741  1.6071 -0.9405
 9372SOL     OW39751   2.143   2.146   6.381  0.2404 -0.0626  0.1355
 9372SOL    HW139752   2.226   2.180   6.415  0.4461  0.5284 -0.9510
 9372SOL    HW239753   2.112   2.230   6.346 -1.8476 -0.2655  1.5370
 9373SOL     OW39754   2.716   2.564  14.645  0.4423 -1.1181 -0.1161
 9373SOL    HW139755   2.729   2.504  14.572  2.2533 -1.0156  0.1235
 9373SOL    HW239756   2.620   2.558  14.650  0.2720  0.1890 -1.6497
 9374SOL     OW39757   0.487   0.957   5.826 -0.2433  0.0678  0.2028
 9374SOL    HW139758   0.517   0.867   5.814 -0.6024  0.1546 -1.4389
 9374SOL    HW239759   0.437   0.951   5.907  1.5073  0.1131  1.2768
 9375SOL     OW39760   4.249   3.185   8.359 -0.2481 -0.0717  0.0622
 9375SOL    HW139761   4.205   3.211   8.441  1.7511 -0.2978  1.2134
 9375SOL    HW239762   4.318   3.129   8.395  0.9610  2.1226  1.1674
 9376SOL     OW39763   0.100   1.005   4.509  0.2729 -0.5260 -0.2715
 9376SOL    HW139764   0.146   0.948   4.570  0.6065  1.9683  1.7943
 9376SOL    HW239765   0.073   1.080   4.562  1.7862  1.1821 -1.9423
 9377SOL     OW39766   1.938   3.323   0.344 -0.2468  0.4853  0.1660
 9377SOL    HW139767   1.923   3.320   0.250 -2.1510  0.6614  0.4688
 9377SOL    HW239768   1.996   3.248   0.359  0.9548  1.3253 -0.2842
 9378SOL     OW39769   4.227   4.506   5.165 -0.3745  0.0197 -0.1623
 9378SOL    HW139770   4.155   4.474   5.218 -0.3108 -1.5134 -0.9908
 9378SOL    HW239771   4.283   4.429   5.150 -1.8918 -0.8487 -1.3713
 9379SOL     OW39772   4.590   1.621  11.645 -0.1058 -0.3997 -0.1715
 9379SOL    HW139773   4.609   1.668  11.563  0.1365 -2.0489 -1.0508
 9379SOL    HW239774   4.669   1.567  11.653  0.9413  1.2338  0.5867
 9380SOL     OW39775   2.770   1.025  12.592 -0.7914 -0.1272 -0.0184
 9380SOL    HW139776   2.802   0.972  12.665 -0.0777  2.1159  1.2915
 9380SOL    HW239777   2.788   1.113  12.625 -1.3314 -0.6258  1.6358
 9381SOL     OW39778   0.405   1.752  10.577  0.7397  0.3022  0.0634
 9381SOL    HW139779   0.426   1.785  10.490 -0.9638  2.5844  0.4996
 9381SOL    HW239780   0.494   1.729  10.605  0.6780  0.9301  0.7936
 9382SOL     OW39781   2.465   2.151  10.548 -0.0126  0.8001 -0.0702
 9382SOL    HW139782   2.475   2.245  10.535 -0.4822  0.9445  0.6140
 9382SOL    HW239783   2.419   2.141  10.632 -0.4893 -0.6992 -0.4956
 9383SOL     OW39784   1.516   3.589   4.170 -0.2065  0.8080 -0.1370
 9383SOL    HW139785   1.585   3.655   4.182 -0.8688  1.7552 -1.5669
 9383SOL    HW239786   1.543   3.549   4.088 -0.6859 -0.7563  0.4594
 9384SOL     OW39787   0.314   1.759  12.794 -0.2297 -0.0952 -0.0770
 9384SOL    HW139788   0.318   1.737  12.701  0.8617  2.3892 -0.6072
 9384SOL    HW239789   0.346   1.849  12.781  0.4502 -0.5505 -1.5751
 9385SOL     OW39790   2.641   4.389  16.322 -0.5721 -0.2409  0.1270
 9385SOL    HW139791   2.561   4.437  16.343 -1.9071 -2.3416 -0.2297
 9385SOL    HW239792   2.714   4.432  16.367 -0.9891  0.3881  0.2055
 9386SOL     OW39793   3.501   4.608   5.752  0.1823 -0.1727 -0.0177
 9386SOL    HW139794   3.559   4.612   5.828  0.1425  1.7086 -0.0967
 9386SOL    HW239795   3.411   4.614   5.784  0.6050 -0.2520  1.1938
 9387SOL     OW39796   2.161   4.094   2.855  0.4114  0.0089 -0.4510
 9387SOL    HW139797   2.137   4.155   2.925 -3.2580 -1.2729 -0.6228
 9387SOL    HW239798   2.108   4.139   2.791  0.2137  1.7960  0.9725
 9388SOL     OW39799   3.687   3.406  10.964 -0.1504 -0.5775 -0.5370
 9388SOL    HW139800   3.718   3.450  11.043 -1.3672 -1.5181  0.4525
 9388SOL    HW239801   3.765   3.362  10.931  0.5617 -0.8706  1.5741
 9389SOL     OW39802   0.042   0.349   5.201 -0.2019  0.5156 -0.4272
 9389SOL    HW139803   0.105   0.303   5.146  0.3795  0.8942 -0.0875
 9389SOL    HW239804   4.729   0.395   5.138 -0.1031  1.1571 -0.0536
 9390SOL     OW39805   3.792   3.233   7.383  0.2593 -0.0818  0.0819
 9390SOL    HW139806   3.780   3.290   7.307  0.3603 -1.4827 -0.9849
 9390SOL    HW239807   3.719   3.171   7.383  0.1158  0.0934 -0.9424
 9391SOL     OW39808   3.505   3.603   1.925 -0.0265  0.5687  0.2549
 9391SOL    HW139809   3.570   3.636   1.987  1.5802  2.4944 -2.5021
 9391SOL    HW239810   3.573   3.582   1.860 -0.6015  1.0012 -0.4814
 9392SOL     OW39811   3.908   1.154  14.682  0.2561 -0.0231  0.3047
 9392SOL    HW139812   3.913   1.060  14.701  3.9079 -0.3202 -2.0816
 9392SOL    HW239813   3.878   1.161  14.592  1.1110  1.1106  0.1058
 9393SOL     OW39814   4.517   1.277   6.406  0.2149 -0.1690 -0.7755
 9393SOL    HW139815   4.545   1.328   6.482 -2.4363 -0.8512  0.6586
 9393SOL    HW239816   4.422   1.273   6.418  0.2973 -0.9921 -0.3950
 9394SOL     OW39817   4.591   1.072   9.846  0.7118 -0.3172  0.4240
 9394SOL    HW139818   4.511   1.112   9.881  0.0539 -0.1808 -1.2108
 9394SOL    HW239819   4.662   1.116   9.893 -0.5527  0.2323  1.8194
 9395SOL     OW39820   0.948   0.633   0.785  0.2214  0.0589  0.2037
 9395SOL    HW139821   0.908   0.554   0.820 -0.0928  0.3071  0.4093
 9395SOL    HW239822   0.871   0.690   0.796  0.6003  0.7613 -0.7955
 9396SOL     OW39823   3.622   0.583   2.061 -0.0066 -0.0267 -0.6887
 9396SOL    HW139824   3.591   0.602   1.973  0.6651  1.1347 -0.6698
 9396SOL    HW239825   3.597   0.491   2.072  1.4788 -0.5475 -1.6671
 9397SOL     OW39826   1.955   0.387  17.234 -0.1989 -0.3212  0.7184
 9397SOL    HW139827   1.994   0.317  17.286  1.1956  1.7810  2.4980
 9397SOL    HW239828   1.933   0.456  17.297 -3.6863 -2.2498  1.6632
 9398SOL     OW39829   3.983   0.904   9.854 -0.4356 -0.1476 -0.4714
 9398SOL    HW139830   4.000   0.954   9.774  1.2097  1.4415  0.8697
 9398SOL    HW239831   3.930   0.963   9.907 -0.3243 -1.4259  1.0549
 9399SOL     OW39832   2.115   2.365  15.452 -0.2287  0.3013  0.3259
 9399SOL    HW139833   2.169   2.309  15.508  0.2730 -0.8155 -1.2936
 9399SOL    HW239834   2.045   2.386  15.514 -1.9593  2.2108 -2.2528
 9400SOL     OW39835   1.336   4.510   6.318 -0.4608  0.3623 -0.3972
 9400SOL    HW139836   1.342   4.535   6.411  0.1933  1.0121 -0.6168
 9400SOL    HW239837   1.314   4.593   6.276 -1.6213  1.0643  1.5568
 9401SOL     OW39838   2.031   3.620  12.189 -0.1272 -0.1003 -0.0348
 9401SOL    HW139839   2.112   3.571  12.177  0.9204  2.2283 -2.4803
 9401SOL    HW239840   1.968   3.584  12.126  0.1729 -2.2206  0.8813
 9402SOL     OW39841   3.503   2.879  15.332  0.3447  0.0165 -0.3925
 9402SOL    HW139842   3.427   2.846  15.284 -0.7904  2.3322 -0.1793
 9402SOL    HW239843   3.561   2.808  15.302  2.4086  1.7345 -0.4605
 9403SOL     OW39844   0.152   0.013   6.707  0.6115  0.0710  0.0419
 9403SOL    HW139845   0.101   0.056   6.776 -0.5337  1.9236 -1.9652
 9403SOL    HW239846   0.169   0.091   6.654  1.3492  0.0877  0.3104
 9404SOL     OW39847   4.633   0.088   4.966  0.0393 -0.0389 -0.1754
 9404SOL    HW139848   4.663   0.114   4.879  3.7872 -1.8086  0.6074
 9404SOL    HW239849   4.615   4.738   4.947  0.9840 -0.7900  2.5513
 9405SOL     OW39850   2.268   1.754   1.762 -0.3759 -0.1230  0.6280
 9405SOL    HW139851   2.332   1.787   1.699  0.1939 -0.6592  0.9216
 9405SOL    HW239852   2.323   1.736   1.839 -0.1472  0.3887  0.5811
 9406SOL     OW39853   2.875   3.248  17.434  0.1421  0.8948  0.0207
 9406SOL    HW139854   2.815   3.204  17.493 -0.0106  1.0166 -0.0422
 9406SOL    HW239855   2.875   3.185  17.362 -1.3823 -0.7510  1.4723
 9407SOL     OW39856   0.278   4.049   6.466 -0.0746  0.0426  0.1681
 9407SOL    HW139857   0.290   4.097   6.549 -0.7903 -0.3349  0.4968
 9407SOL    HW239858   0.207   3.987   6.484 -0.3572  0.4096  0.3207
 9408SOL     OW39859   4.516   3.653   0.127 -0.1927  0.4926  0.3056
 9408SOL    HW139860   4.497   3.747   0.134  0.6469  0.4595  2.9186
 9408SOL    HW239861   4.431   3.620   0.155  0.8418 -1.5536  1.0434
 9409SOL     OW39862   2.595   4.578  12.616  0.1897  0.0365  0.3043
 9409SOL    HW139863   2.680   4.622  12.613  0.8376 -1.1434  1.0326
 9409SOL    HW239864   2.542   4.643  12.662  0.5508  0.5322  0.0219
 9410SOL     OW39865   2.505   2.145  12.512  0.3052 -0.2306 -1.0212
 9410SOL    HW139866   2.571   2.189  12.459  2.4635  0.5606  2.3077
 9410SOL    HW239867   2.476   2.221  12.563 -0.7188 -1.1981 -0.1622
 9411SOL     OW39868   3.813   1.033  15.190  0.8128 -0.2294 -0.2238
 9411SOL    HW139869   3.808   1.080  15.273  1.3863  1.3529 -1.1068
 9411SOL    HW239870   3.728   0.990  15.182  0.9501 -0.4230 -0.6871
 9412SOL     OW39871   0.364   4.739   7.580 -0.4424  0.1805  0.5392
 9412SOL    HW139872   0.410   4.720   7.498  2.1407  0.6244  1.8517
 9412SOL    HW239873   0.378   0.091   7.576 -1.2226  0.1206 -3.3184
 9413SOL     OW39874   4.740   3.154   3.223 -0.2017  0.7415  0.1728
 9413SOL    HW139875   0.008   3.096   3.147  0.6601 -1.1725  1.7637
 9413SOL    HW239876   0.079   3.141   3.272 -0.6738 -0.3006  0.6819
 9414SOL     OW39877   0.718   4.112  12.039 -0.0327 -0.4046 -0.1816
 9414SOL    HW139878   0.630   4.076  12.056  0.0958 -1.0515 -0.8912
 9414SOL    HW239879   0.760   4.036  11.997  0.9749 -1.6838  3.1809
 9415SOL     OW39880   3.793   0.670   6.241  0.2502 -0.4686 -0.0539
 9415SOL    HW139881   3.829   0.641   6.157  0.2655 -0.2933 -0.1101
 9415SOL    HW239882   3.753   0.593   6.281  0.4506 -0.3276  0.4053
 9416SOL     OW39883   4.204   4.704   6.950  0.1309 -0.0842  0.2944
 9416SOL    HW139884   4.142   0.035   6.954 -0.8593 -0.8550 -1.2462
 9416SOL    HW239885   4.271   4.712   7.019  0.8926 -0.0830 -0.4496
 9417SOL     OW39886   1.103   1.255  10.904  0.1333 -0.1323 -0.0319
 9417SOL    HW139887   1.182   1.224  10.860 -0.7437 -3.3352  0.6537
 9417SOL    HW239888   1.041   1.193  10.867  0.1061  0.3303 -0.7544
 9418SOL     OW39889   3.124   4.531   2.949 -0.4800  0.5593  0.0166
 9418SOL    HW139890   3.213   4.513   2.921 -0.7938 -0.5331 -0.2840
 9418SOL    HW239891   3.104   4.608   2.895  0.0237 -0.3705 -1.4783
 9419SOL     OW39892   0.408   0.091   2.320  0.2874 -0.4927 -0.0733
 9419SOL    HW139893   0.332   0.141   2.290 -2.6659 -2.2973  4.3122
 9419SOL    HW239894   0.465   0.095   2.244  0.6188  3.6291  0.4068
 9420SOL     OW39895   0.405   3.826   6.818  0.6951 -0.8427  0.5835
 9420SOL    HW139896   0.425   3.911   6.777  0.4355 -0.8091  0.5247
 9420SOL    HW239897   0.310   3.835   6.821  0.8014  0.5316 -0.0278
 9421SOL     OW39898   0.559   3.248   2.633 -0.6966  0.0262 -0.6036
 9421SOL    HW139899   0.550   3.277   2.724  0.3216 -1.9504  0.1115
 9421SOL    HW239900   0.469   3.219   2.620 -0.4941 -1.2351  0.7993
 9422SOL     OW39901   1.989   1.111   2.297 -0.4043 -0.0269  0.7059
 9422SOL    HW139902   1.908   1.065   2.318 -0.5386  0.0380  0.3411
 9422SOL    HW239903   2.054   1.041   2.308 -1.8386 -1.1087  2.2325
 9423SOL     OW39904   2.024   0.396  10.554  0.1757  0.1952  0.1839
 9423SOL    HW139905   2.039   0.427  10.643  0.0615 -1.2274  0.6988
 9423SOL    HW239906   1.949   0.452  10.532  0.7417  0.7232 -0.3925
 9424SOL     OW39907   3.850   2.087   7.732 -0.4681  0.2665 -0.1816
 9424SOL    HW139908   3.785   2.134   7.785 -2.2686 -0.2394 -1.9468
 9424SOL    HW239909   3.794   2.031   7.679 -0.3852  0.0398 -0.0290
 9425SOL     OW39910   0.580   0.494  17.126 -0.6902  0.4924  0.6731
 9425SOL    HW139911   0.604   0.418  17.179  0.1871 -0.6769 -1.3952
 9425SOL    HW239912   0.565   0.461  17.037 -1.4286 -1.6870  1.6047
 9426SOL     OW39913   1.702   1.441   2.665  0.0897 -0.7879  0.2574
 9426SOL    HW139914   1.741   1.402   2.587  0.5870  0.7175 -0.2538
 9426SOL    HW239915   1.612   1.457   2.638 -0.1007  1.2055  2.0672
 9427SOL     OW39916   1.191   2.363   3.398 -0.0610 -0.8537 -0.2766
 9427SOL    HW139917   1.160   2.414   3.472 -0.3591  0.3142 -1.2000
 9427SOL    HW239918   1.189   2.276   3.438 -0.4199 -0.5623  0.3368
 9428SOL     OW39919   1.524   2.921   4.601  0.1340 -0.1724  0.9755
 9428SOL    HW139920   1.450   2.860   4.606  1.4318 -1.8777 -0.4670
 9428SOL    HW239921   1.486   2.998   4.642  0.5459  0.8150 -0.5301
 9429SOL     OW39922   1.481   0.447  17.012  0.7997  0.1062 -0.0829
 9429SOL    HW139923   1.545   0.462  17.081 -0.3885 -1.1941  1.3082
 9429SOL    HW239924   1.462   0.535  16.980  2.1863  0.5085  0.1768
 9430SOL     OW39925   4.376   4.104   1.926 -0.4319  0.1851  0.4523
 9430SOL    HW139926   4.340   4.189   1.904 -1.4298 -0.2257  0.5162
 9430SOL    HW239927   4.300   4.052   1.950  2.0978 -3.0664  1.5257
 9431SOL     OW39928   3.937   3.293   0.013 -0.2928 -0.7614  0.3041
 9431SOL    HW139929   3.918   3.200   0.005  0.2229 -0.4825 -4.1727
 9431SOL    HW239930   3.955   3.317  17.687  1.3269 -1.9364  0.3046
 9432SOL     OW39931   1.143   1.454   4.413  0.5376 -0.3533 -0.6936
 9432SOL    HW139932   1.063   1.507   4.409 -0.2906 -1.4146  1.6580
 9432SOL    HW239933   1.103   1.368   4.405 -0.5149  0.0015  0.6233
 9433SOL     OW39934   2.773   0.647   2.331 -0.2088 -0.8906  0.5620
 9433SOL    HW139935   2.856   0.620   2.291 -0.6674 -0.3674 -0.7422
 9433SOL    HW239936   2.713   0.575   2.308  0.6200 -1.8466  1.3868
 9434SOL     OW39937   2.824   1.518   4.186  0.5047 -0.0384 -0.2865
 9434SOL    HW139938   2.801   1.458   4.115  0.4426  3.0132 -2.8154
 9434SOL    HW239939   2.744   1.568   4.199 -0.1460 -1.7323  2.2372
 9435SOL     OW39940   0.411   3.652  10.866  0.2838  0.1824 -0.1809
 9435SOL    HW139941   0.344   3.589  10.892  1.1621  0.7894  3.6735
 9435SOL    HW239942   0.369   3.737  10.880 -3.1738 -1.7322  1.0231
 9436SOL     OW39943   4.595   0.555   8.528  0.4209 -0.0769 -0.4059
 9436SOL    HW139944   4.624   0.632   8.576  0.6944  0.7089 -1.8154
 9436SOL    HW239945   4.615   0.479   8.582 -1.3643  0.4400  0.9731
 9437SOL     OW39946   4.115   3.467  15.297 -0.2059 -0.6438  0.6306
 9437SOL    HW139947   4.032   3.497  15.335 -0.9828 -0.8349 -0.9177
 9437SOL    HW239948   4.151   3.553  15.276  1.2606 -1.0135  1.6327
 9438SOL     OW39949   2.404   0.155   8.000  0.4330 -0.1491 -0.0456
 9438SOL    HW139950   2.408   0.233   8.055  0.0799 -0.8682  1.0085
 9438SOL    HW239951   2.488   0.113   8.016  0.0646 -0.4726  1.0562
 9439SOL     OW39952   3.273   1.157   4.876 -0.5781 -0.0042 -0.1258
 9439SOL    HW139953   3.324   1.078   4.857 -1.3172 -0.1698 -1.4004
 9439SOL    HW239954   3.329   1.225   4.839 -2.2127  2.2096  1.4879
 9440SOL     OW39955   1.501   1.230   8.592  0.3801 -0.6193 -0.3729
 9440SOL    HW139956   1.539   1.316   8.573 -0.2484 -0.7151 -2.0937
 9440SOL    HW239957   1.448   1.242   8.671  1.0211 -0.1575 -0.0179
 9441SOL     OW39958   2.959   1.810   9.910 -0.1944  0.0047  0.2606
 9441SOL    HW139959   2.895   1.740   9.928  2.2785 -1.8497  1.9140
 9441SOL    HW239960   3.024   1.760   9.860 -0.9476 -0.1020 -0.6280
 9442SOL     OW39961   2.956   0.795  10.956 -0.0182 -0.5904 -0.3410
 9442SOL    HW139962   2.881   0.760  11.005 -0.3325  1.1072  0.4088
 9442SOL    HW239963   2.946   0.750  10.872 -0.3929 -1.6451  0.2684
 9443SOL     OW39964   1.065   2.139   8.003  0.0373 -0.6860  0.0005
 9443SOL    HW139965   1.101   2.105   8.085  0.7678 -1.2250 -0.5415
 9443SOL    HW239966   1.103   2.079   7.937 -0.8716  0.9489 -1.9958
 9444SOL     OW39967   0.356   3.025  15.757  0.4999  0.3748 -0.0299
 9444SOL    HW139968   0.364   2.955  15.692  0.3208  1.5733 -1.3646
 9444SOL    HW239969   0.449   3.031  15.777  0.3383 -0.7982  1.0766
 9445SOL     OW39970   1.495   2.494   3.549 -0.1174  0.4299 -0.3267
 9445SOL    HW139971   1.587   2.480   3.571 -0.4636 -0.4460  0.5793
 9445SOL    HW239972   1.454   2.449   3.623  1.6706  2.4399  1.8910
 9446SOL     OW39973   2.745   3.982   3.545 -0.1296  0.5992 -0.4015
 9446SOL    HW139974   2.802   3.959   3.618  0.5673  0.0529 -1.1192
 9446SOL    HW239975   2.806   4.044   3.505 -0.9323  0.9575 -1.0668
 9447SOL     OW39976   2.523   3.885   6.749 -0.0486 -0.1103 -0.4219
 9447SOL    HW139977   2.545   3.917   6.662  1.5925  3.0150  1.1764
 9447SOL    HW239978   2.602   3.849   6.789  1.1586  3.8125  0.6937
 9448SOL     OW39979   2.568   2.647   2.938  0.0700 -0.0564  0.0788
 9448SOL    HW139980   2.627   2.608   2.875 -0.4322 -1.8412  0.7175
 9448SOL    HW239981   2.536   2.727   2.895  0.4366  0.6245  1.0717
 9449SOL     OW39982   1.164   3.294   4.157  0.0137 -0.1149  0.3729
 9449SOL    HW139983   1.087   3.261   4.111 -0.9330  2.1165  0.3096
 9449SOL    HW239984   1.156   3.386   4.184 -0.1271 -0.0989  0.2780
 9450SOL     OW39985   0.469   2.929  16.651  0.1860  0.1679  0.3400
 9450SOL    HW139986   0.540   2.876  16.614 -0.3134 -1.0514  1.1224
 9450SOL    HW239987   0.463   2.878  16.732  0.6947 -0.2339  0.1310
 9451SOL     OW39988   4.157   4.639   9.289 -0.2753 -0.1800 -0.0202
 9451SOL    HW139989   4.242   4.629   9.248  0.2167 -0.8443  1.1838
 9451SOL    HW239990   4.180   4.637   9.382  0.6743 -0.0764 -0.2535
 9452SOL     OW39991   1.834   1.559   8.878 -0.5325  0.1579  0.1177
 9452SOL    HW139992   1.865   1.584   8.791 -0.2347  0.2227  0.2401
 9452SOL    HW239993   1.908   1.582   8.935 -0.7510  2.7868 -0.6207
 9453SOL     OW39994   4.185   4.262   8.655  0.0372  0.1653  0.5196
 9453SOL    HW139995   4.090   4.263   8.644  0.0276  3.1032  0.8056
 9453SOL    HW239996   4.210   4.351   8.628  2.8541 -0.6083  0.5272
 9454SOL     OW39997   0.918   2.403   4.428 -0.0506  0.3329  0.1089
 9454SOL    HW139998   0.923   2.397   4.523 -0.0151 -1.3733  0.0061
 9454SOL    HW239999   1.013   2.400   4.416 -0.4034 -1.6824 -2.3202
 9455SOL     OW40000   0.175   2.562  15.454 -0.2372 -0.6857 -0.2441
 9455SOL    HW140001   0.123   2.624  15.505  1.3791  0.4703 -0.0040
 9455SOL    HW240002   0.104   2.500  15.435  0.0746 -1.3390  0.7153
 9456SOL     OW40003   1.125   4.044  10.386 -0.2291 -0.1450 -0.1674
 9456SOL    HW140004   1.166   3.966  10.422  1.5088  1.0671  0.4585
 9456SOL    HW240005   1.086   4.079  10.466  1.3774  0.1577  0.4808
 9457SOL     OW40006   1.332   2.502   6.082  0.1371 -0.8226 -0.0805
 9457SOL    HW140007   1.351   2.575   6.023  0.8271 -1.3571 -0.5157
 9457SOL    HW240008   1.330   2.547   6.167 -3.8182  2.9890 -2.1700
 9458SOL     OW40009   1.560   3.724   2.420 -0.1172 -0.2659  0.5352
 9458SOL    HW140010   1.550   3.632   2.394  0.7951 -0.8141  2.1287
 9458SOL    HW240011   1.626   3.742   2.353 -0.6642 -1.3635 -0.3072
 9459SOL     OW40012   3.719   0.382  17.425 -0.2316  0.0519 -0.3346
 9459SOL    HW140013   3.645   0.332  17.392  0.2189  0.8069 -2.4364
 9459SOL    HW240014   3.688   0.386  17.516  2.1406 -0.5615  0.5093
 9460SOL     OW40015   1.150   0.098   5.032 -0.4432  0.2162 -0.4378
 9460SOL    HW140016   1.171   0.056   4.948 -0.5447 -0.0316 -0.3372
 9460SOL    HW240017   1.117   0.183   5.003 -1.0941 -0.5357 -1.9587
 9461SOL     OW40018   2.186   2.211   5.189 -0.3413  0.5026  0.5313
 9461SOL    HW140019   2.256   2.152   5.162 -0.1984  1.7575 -1.8486
 9461SOL    HW240020   2.225   2.297   5.174  1.0897 -0.4925 -1.3232
 9462SOL     OW40021   0.674   1.969   9.157 -0.4701 -0.6450 -0.7742
 9462SOL    HW140022   0.750   2.010   9.198  0.7887 -3.7434  0.0483
 9462SOL    HW240023   0.602   2.016   9.199 -1.4607 -0.0034 -3.2051
 9463SOL     OW40024   2.264   3.751   0.308  0.4419  0.7812  0.6322
 9463SOL    HW140025   2.210   3.743   0.387  0.1154 -0.7209  0.2496
 9463SOL    HW240026   2.293   3.660   0.306 -0.9054  0.3271  2.4197
 9464SOL     OW40027   4.334   2.684   1.526  0.4376  0.3044  0.5677
 9464SOL    HW140028   4.258   2.626   1.524  1.4267 -0.9588 -0.9053
 9464SOL    HW240029   4.301   2.773   1.536 -0.8186  0.1526 -2.3370
 9465SOL     OW40030   2.517   1.591   7.820 -0.0734 -0.1524 -0.4168
 9465SOL    HW140031   2.552   1.593   7.909 -1.4305 -2.0777  0.1560
 9465SOL    HW240032   2.504   1.683   7.795 -1.7742  0.1404  1.4905
 9466SOL     OW40033   1.472   4.444   0.904  0.4537 -0.3960 -0.0252
 9466SOL    HW140034   1.378   4.444   0.923  0.1840 -3.2557 -1.3433
 9466SOL    HW240035   1.475   4.472   0.812  0.0394  2.2875  0.7894
 9467SOL     OW40036   4.462   3.899   0.103  0.0146 -0.6259  0.8685
 9467SOL    HW140037   4.412   3.963   0.154 -0.6037 -0.5488  0.1588
 9467SOL    HW240038   4.550   3.919   0.135  0.5020  0.4819 -1.2309
 9468SOL     OW40039   2.673   2.753   4.862  0.0143  0.6252  0.1074
 9468SOL    HW140040   2.646   2.825   4.804 -1.3203  1.7022  2.0282
 9468SOL    HW240041   2.767   2.757   4.848 -0.1815  1.9780 -0.8717
 9469SOL     OW40042   3.297   2.047  13.016 -0.3141  0.4582 -0.2631
 9469SOL    HW140043   3.371   2.104  13.032  0.9561 -0.6700 -2.1727
 9469SOL    HW240044   3.318   2.017  12.928 -1.5204  0.1544 -0.4494
 9470SOL     OW40045   3.719   2.610   5.254 -0.1018  0.4062 -0.2226
 9470SOL    HW140046   3.672   2.691   5.269 -1.3987 -0.5816  1.0462
 9470SOL    HW240047   3.680   2.567   5.330 -3.5648  1.1915 -1.5370
 9471SOL     OW40048   2.273   2.689   9.988  0.2939 -0.2153 -0.2268
 9471SOL    HW140049   2.215   2.708  10.061  0.3463 -0.5616 -0.0908
 9471SOL    HW240050   2.261   2.758   9.923 -1.8672 -0.4401 -0.0671
 9472SOL     OW40051   2.588   2.877   8.978  0.1190 -0.3554 -0.1209
 9472SOL    HW140052   2.539   2.896   9.058  0.8536 -0.7375  0.4265
 9472SOL    HW240053   2.605   2.964   8.942  1.1595  0.3848  2.1789
 9473SOL     OW40054   1.317   3.881   8.243  0.0941  0.1557 -0.1335
 9473SOL    HW140055   1.292   3.835   8.323  0.2187 -1.0063 -0.7687
 9473SOL    HW240056   1.230   3.892   8.204 -0.9500  1.3283  2.4874
 9474SOL     OW40057   2.379   1.696   9.091  0.1122  0.0737 -0.5213
 9474SOL    HW140058   2.419   1.615   9.124  2.8290  1.2171 -0.9590
 9474SOL    HW240059   2.331   1.726   9.168 -0.9777 -1.8331 -0.4713
 9475SOL     OW40060   4.364   3.338   5.450 -0.7523 -0.1277 -0.7439
 9475SOL    HW140061   4.446   3.384   5.429 -0.0493 -0.9097  0.2672
 9475SOL    HW240062   4.394   3.249   5.431  1.2690  0.4090 -0.1021
 9476SOL     OW40063   1.465   1.605   1.544 -0.2976 -0.1408  0.0063
 9476SOL    HW140064   1.502   1.517   1.555 -0.1641 -0.0025  0.6999
 9476SOL    HW240065   1.411   1.614   1.623  0.8366 -1.7195  0.9670
 9477SOL     OW40066   3.816   0.412   8.763 -0.1423 -0.3871 -0.0949
 9477SOL    HW140067   3.850   0.400   8.851  2.3327 -1.6343 -1.2140
 9477SOL    HW240068   3.840   0.503   8.744 -1.1636  0.5044  3.0077
 9478SOL     OW40069   0.658   0.286   7.899 -0.1936 -0.2176  0.0825
 9478SOL    HW140070   0.735   0.248   7.857 -1.4935 -3.1353  0.3261
 9478SOL    HW240071   0.692   0.358   7.952 -0.9122 -0.0535  0.3276
 9479SOL     OW40072   3.331   2.483   8.358 -0.3963 -0.1237 -0.3419
 9479SOL    HW140073   3.259   2.452   8.412  0.3224  0.7523  1.1367
 9479SOL    HW240074   3.338   2.406   8.302  0.9579  0.1499 -0.5645
 9480SOL     OW40075   0.238   3.992   0.133 -0.3006 -0.1091  0.0295
 9480SOL    HW140076   0.261   4.085   0.132  0.9119 -0.4374 -1.6554
 9480SOL    HW240077   0.251   3.971   0.226  1.5642  1.4225  0.1060
 9481SOL     OW40078   4.117   4.111   9.842 -0.0090 -0.2004 -0.4109
 9481SOL    HW140079   4.051   4.102   9.912 -0.7642  1.5647 -0.9005
 9481SOL    HW240080   4.201   4.090   9.881  0.4757  0.1429 -1.2833
 9482SOL     OW40081   1.776   0.448   9.876  0.0241  0.1885 -0.3913
 9482SOL    HW140082   1.773   0.353   9.875 -0.4602  0.1915  0.4771
 9482SOL    HW240083   1.760   0.457   9.970 -2.2503 -0.9769 -0.6765
 9483SOL     OW40084   2.674   4.243   6.085  0.3108 -0.3529 -0.1269
 9483SOL    HW140085   2.683   4.331   6.121  0.6858 -0.0433 -0.9746
 9483SOL    HW240086   2.583   4.243   6.054  0.1892  0.9785  0.2208
 9484SOL     OW40087   0.335   2.374   8.557 -0.3171 -0.4729  0.9388
 9484SOL    HW140088   0.303   2.358   8.646 -1.5735 -0.1779  0.5286
 9484SOL    HW240089   0.428   2.373   8.582  0.1953 -2.2674 -1.0314
 9485SOL     OW40090   1.643   2.006   5.115 -0.5589 -0.1342 -0.6413
 9485SOL    HW140091   1.687   2.050   5.041  0.9097 -0.5109  0.0196
 9485SOL    HW240092   1.708   1.949   5.155 -0.2579  0.7449  0.1155
 9486SOL     OW40093   1.680   3.815  16.656 -0.3313  0.0198  0.2667
 9486SOL    HW140094   1.775   3.810  16.649 -0.1683  2.8212  0.6672
 9486SOL    HW240095   1.669   3.721  16.671  1.3971 -0.3774 -0.9612
 9487SOL     OW40096   3.477   0.702   7.629  0.3223 -0.5226 -0.0895
 9487SOL    HW140097   3.517   0.652   7.700 -1.2802  1.7943  2.4195
 9487SOL    HW240098   3.419   0.631   7.599  1.7950 -1.4510 -0.7174
 9488SOL     OW40099   2.561   2.090   1.437 -0.4006  0.3200 -0.0665
 9488SOL    HW140100   2.557   2.185   1.425 -0.8652  0.1995 -0.8768
 9488SOL    HW240101   2.642   2.073   1.390 -0.3264  1.0890 -0.2292
 9489SOL     OW40102   4.630   1.060   5.473  0.2618 -0.0622  0.7098
 9489SOL    HW140103   4.537   1.048   5.455  0.2339  1.0493  0.0348
 9489SOL    HW240104   4.624   1.103   5.558  1.2053 -0.4092  0.9482
 9490SOL     OW40105   1.059   1.008  15.393  0.0622  0.0933  0.0004
 9490SOL    HW140106   1.100   0.997  15.307  1.2271  1.5277  0.3561
 9490SOL    HW240107   1.139   1.045  15.432  0.7547  0.2496 -1.5425
 9491SOL     OW40108   1.661   4.356  17.232  0.6175 -0.3159  0.1080
 9491SOL    HW140109   1.625   4.396  17.152 -0.0909  1.5195  1.3533
 9491SOL    HW240110   1.599   4.397  17.292  2.1028  0.7863  0.8753
 9492SOL     OW40111   1.136   4.715   5.418 -0.2436  0.0250 -0.1025
 9492SOL    HW140112   1.114   4.700   5.327 -2.3745 -0.5334  0.5100
 9492SOL    HW240113   1.124   4.628   5.456 -1.0669  0.1310 -0.1279
 9493SOL     OW40114   2.302   3.215   9.586  0.4617  0.0096 -0.2957
 9493SOL    HW140115   2.237   3.220   9.516  1.3872  0.3437 -1.1313
 9493SOL    HW240116   2.376   3.166   9.549  0.4185 -1.2441  1.2478
 9494SOL     OW40117   3.381   3.621   0.310 -0.1414  0.2933  0.4258
 9494SOL    HW140118   3.332   3.694   0.348  0.3362  0.2910  1.0493
 9494SOL    HW240119   3.441   3.670   0.253  0.3696 -0.5034  0.2875
 9495SOL     OW40120   3.820   3.219   5.343  0.1683  0.2379  0.7722
 9495SOL    HW140121   3.839   3.188   5.255  0.6468 -0.3792  1.0947
 9495SOL    HW240122   3.747   3.162   5.366 -0.4861 -0.1378 -2.2404
 9496SOL     OW40123   0.109   3.893   7.374 -0.2679  0.2453  0.2059
 9496SOL    HW140124   0.055   3.847   7.309  0.2062  0.9408 -0.6782
 9496SOL    HW240125   0.047   3.926   7.439 -1.5575  1.6651 -1.7443
 9497SOL     OW40126   4.196   1.338   6.940 -0.1555 -0.2280  0.2474
 9497SOL    HW140127   4.143   1.259   6.939  1.2843 -1.1905  0.2410
 9497SOL    HW240128   4.213   1.343   6.846  1.5000  2.2977  0.6681
 9498SOL     OW40129   2.590   0.861   4.246 -0.4978  0.7303 -0.5077
 9498SOL    HW140130   2.530   0.787   4.258  1.7998 -0.5762  2.8121
 9498SOL    HW240131   2.639   0.828   4.170  1.4616  0.0287  1.0816
 9499SOL     OW40132   3.245   4.251   3.923  0.0997  0.0728 -0.2566
 9499SOL    HW140133   3.267   4.242   4.015  1.5658 -1.6757 -0.7721
 9499SOL    HW240134   3.323   4.288   3.880 -0.0215  1.3998  0.6651
 9500SOL     OW40135   1.315   2.698   0.604 -0.5200  0.7190  0.2822
 9500SOL    HW140136   1.323   2.681   0.698 -1.2490  1.7363  0.5391
 9500SOL    HW240137   1.343   2.789   0.595  2.1751 -0.2320 -0.9791
 9501SOL     OW40138   2.086   2.492   0.139 -0.7261 -0.7057  0.2243
 9501SOL    HW140139   2.154   2.446   0.188 -0.0474 -1.3595 -1.3474
 9501SOL    HW240140   2.023   2.422   0.122  0.8360 -1.4325 -2.5341
 9502SOL     OW40141   2.979   0.614  13.341  0.1218  0.2157  0.1636
 9502SOL    HW140142   2.920   0.553  13.387  0.4131 -0.7271 -0.7147
 9502SOL    HW240143   2.948   0.618  13.251 -0.3632  3.6043  0.5104
 9503SOL     OW40144   3.041   1.688   3.790  0.1562 -0.3835 -0.4798
 9503SOL    HW140145   3.092   1.768   3.784 -1.2975  0.7346  1.9021
 9503SOL    HW240146   3.093   1.644   3.857  0.4253  0.4563 -0.1353
 9504SOL     OW40147   3.941   3.386  17.013 -0.6954 -0.1270  0.1550
 9504SOL    HW140148   3.957   3.470  16.971 -1.1782 -0.7850 -1.3354
 9504SOL    HW240149   3.984   3.398  17.098 -0.4327 -3.5815  0.5299
 9505SOL     OW40150   4.734   0.532  11.933 -0.5626  0.0382 -0.2678
 9505SOL    HW140151   4.652   0.580  11.931 -0.6472 -0.1113 -0.4022
 9505SOL    HW240152   0.047   0.609  11.945  0.4144 -0.4586 -1.5864
 9506SOL     OW40153   4.175   3.068  15.482  0.0526 -0.4536  0.2269
 9506SOL    HW140154   4.181   2.999  15.416 -0.9831  1.2265 -1.6247
 9506SOL    HW240155   4.099   3.119  15.453  0.5512 -1.1094 -2.1436
 9507SOL     OW40156   4.019   3.756   9.379  0.0505  0.1864 -0.5429
 9507SOL    HW140157   4.104   3.717   9.398  0.1690 -0.3297 -2.1305
 9507SOL    HW240158   4.001   3.812   9.454 -1.2992  0.9080 -1.4019
 9508SOL     OW40159   2.761   4.545  14.116  0.5076 -0.1869 -0.2052
 9508SOL    HW140160   2.701   4.510  14.050 -1.4300  1.7191  0.5709
 9508SOL    HW240161   2.750   4.475  14.181 -2.8412 -0.6558 -1.3000
 9509SOL     OW40162   3.693   0.363   2.647  0.1929 -0.4172  0.4662
 9509SOL    HW140163   3.722   0.334   2.561 -0.9836 -0.2490  0.0180
 9509SOL    HW240164   3.733   0.450   2.644 -0.0070 -0.4042 -1.4745
 9510SOL     OW40165   3.233   3.494   5.214 -0.1421  0.8568  0.1481
 9510SOL    HW140166   3.284   3.488   5.134 -2.0988  1.4958 -1.1519
 9510SOL    HW240167   3.293   3.548   5.265  0.7455 -0.2114  0.2358
 9511SOL     OW40168   2.246   1.293   7.297 -0.0024 -0.0193  0.4618
 9511SOL    HW140169   2.252   1.234   7.222  0.2380  0.3359  0.1982
 9511SOL    HW240170   2.328   1.277   7.343 -0.3851  1.7201  1.7774
 9512SOL     OW40171   2.623   1.622  12.870 -0.2611  0.3298  0.4227
 9512SOL    HW140172   2.535   1.604  12.903 -0.4159  0.2946 -0.0143
 9512SOL    HW240173   2.603   1.658  12.784 -0.7537  0.1670  0.4704
 9513SOL     OW40174   2.168   3.549   4.183 -0.4546  0.1673  0.0946
 9513SOL    HW140175   2.250   3.595   4.203  0.9768 -1.5548 -1.8849
 9513SOL    HW240176   2.115   3.621   4.149 -2.0392 -1.2823 -0.4975
 9514SOL     OW40177   1.589   1.941   5.683 -0.5889 -0.4502 -0.5327
 9514SOL    HW140178   1.660   1.994   5.722  0.8373 -2.8903  0.1659
 9514SOL    HW240179   1.637   1.894   5.615 -1.5620 -0.3426 -1.2894
 9515SOL     OW40180   4.646   3.046  12.794 -0.2046  0.1948 -0.0478
 9515SOL    HW140181   4.671   3.066  12.885 -1.3216 -0.7514  0.4648
 9515SOL    HW240182   4.551   3.039  12.796 -0.0836 -0.7405  2.7854
 9516SOL     OW40183   2.104   2.188   4.698 -0.1079  0.3932 -0.0758
 9516SOL    HW140184   2.037   2.251   4.671  0.1236  0.6356 -0.0876
 9516SOL    HW240185   2.039   2.131   4.738 -0.4846  1.0477  0.2498
 9517SOL     OW40186   0.767   0.735   5.892  0.2371 -0.1004  0.0478
 9517SOL    HW140187   0.772   0.733   5.797  0.6054 -0.3108  0.0701
 9517SOL    HW240188   0.802   0.647   5.907  1.4395  0.3969  0.1435
 9518SOL     OW40189   1.166   0.719   7.424 -0.0678  0.2463  0.3352
 9518SOL    HW140190   1.240   0.696   7.481  0.6992 -1.0287 -1.1872
 9518SOL    HW240191   1.111   0.641   7.432  0.7241 -0.2688  0.8166
 9519SOL     OW40192   2.122   2.301  14.711 -0.7353 -0.7487 -0.2701
 9519SOL    HW140193   2.130   2.374  14.771  1.9798 -1.0569 -0.2633
 9519SOL    HW240194   2.031   2.280  14.733 -0.7836  1.4357  1.5617
 9520SOL     OW40195   3.062   0.167   5.595  0.0668  0.5764 -0.2595
 9520SOL    HW140196   3.038   0.075   5.608 -1.2709  0.6828 -2.0145
 9520SOL    HW240197   3.147   0.171   5.640 -1.1900  0.9152  2.0664
 9521SOL     OW40198   4.653   3.378  13.327 -0.2449  0.1839  0.0727
 9521SOL    HW140199   4.699   3.446  13.376 -1.3726 -0.2007  1.6784
 9521SOL    HW240200   4.659   3.303  13.387  1.1465  0.4146  0.2098
 9522SOL     OW40201   1.465   1.661  11.439 -0.1360  0.0465 -0.1199
 9522SOL    HW140202   1.409   1.601  11.488  0.8123 -1.3055 -0.7121
 9522SOL    HW240203   1.405   1.667  11.364  2.2124  0.0689 -1.9948
 9523SOL     OW40204   4.202   2.427  14.440 -0.2365  0.0938 -0.3802
 9523SOL    HW140205   4.192   2.437  14.535  0.1616  1.7882 -0.5085
 9523SOL    HW240206   4.212   2.332  14.430 -1.2009  0.2227 -2.4658
 9524SOL     OW40207   3.329   0.799   2.006  0.2946 -0.1414 -0.6470
 9524SOL    HW140208   3.398   0.832   2.064  0.1258 -3.8234  1.6147
 9524SOL    HW240209   3.377   0.741   1.947  0.8803 -0.4871  0.1736
 9525SOL     OW40210   4.184   0.447  13.816 -0.1102 -0.2186  0.2923
 9525SOL    HW140211   4.141   0.513  13.761 -0.3311 -0.7626 -0.1788
 9525SOL    HW240212   4.237   0.406  13.748  0.8676 -0.4008  1.1636
 9526SOL     OW40213   0.382   3.339   7.332 -0.0498 -0.0861  0.0439
 9526SOL    HW140214   0.359   3.331   7.239  0.8983 -1.3554 -0.0759
 9526SOL    HW240215   0.314   3.387   7.380 -1.0419 -0.8878 -0.5424
 9527SOL     OW40216   3.502   2.103   2.184 -0.0582  0.3893  0.0730
 9527SOL    HW140217   3.541   2.032   2.133 -1.1964 -1.1316  1.3220
 9527SOL    HW240218   3.578   2.161   2.184  0.3216 -0.1151  0.5436
 9528SOL     OW40219   2.984   1.008   3.543  0.2984 -0.0579 -0.1127
 9528SOL    HW140220   3.020   1.094   3.566 -1.5924 -0.0291  2.8373
 9528SOL    HW240221   2.945   1.026   3.458 -0.8182 -1.1880  0.1587
 9529SOL     OW40222   3.718   4.601   5.985 -0.0903  0.1218  0.1299
 9529SOL    HW140223   3.669   4.587   6.066  0.4127 -0.6098  0.3108
 9529SOL    HW240224   3.780   4.529   5.978  0.2323  0.5219 -1.0528
 9530SOL     OW40225   3.464   3.861   1.437  0.4593 -0.3048 -0.7547
 9530SOL    HW140226   3.383   3.879   1.486 -0.5781 -2.8167 -1.5480
 9530SOL    HW240227   3.469   3.939   1.382 -0.0980  0.0295 -0.3276
 9531SOL     OW40228   1.438   0.209   2.268  0.3479  0.3166  0.4228
 9531SOL    HW140229   1.368   0.266   2.236 -0.3292  1.1316  3.4199
 9531SOL    HW240230   1.396   0.122   2.272 -0.1605  0.5427  0.0070
 9532SOL     OW40231   2.096   2.675   5.892 -0.0888  0.2663  0.2167
 9532SOL    HW140232   2.080   2.584   5.915 -0.4892  0.0646 -0.8659
 9532SOL    HW240233   2.161   2.669   5.822  0.6934  0.3929  0.9183
 9533SOL     OW40234   4.442   3.239   6.245  0.1772  0.5647 -0.0344
 9533SOL    HW140235   4.510   3.174   6.233 -0.3601  0.0631 -0.3743
 9533SOL    HW240236   4.373   3.179   6.274  1.5586 -0.8977  0.2058
 9534SOL     OW40237   3.917   0.525   7.015 -0.6945 -0.4269  0.0889
 9534SOL    HW140238   3.906   0.460   7.085  0.1263 -0.9821 -0.2979
 9534SOL    HW240239   3.831   0.568   7.014 -0.3427  0.2293 -1.0966
 9535SOL     OW40240   2.488   0.620   4.506  0.2784  0.2853 -0.7507
 9535SOL    HW140241   2.443   0.621   4.421  1.4546 -1.9915 -1.4012
 9535SOL    HW240242   2.577   0.594   4.484  0.7135  3.0267 -2.3381
 9536SOL     OW40243   1.457   2.633   4.059  1.1127 -0.0192 -0.5292
 9536SOL    HW140244   1.464   2.644   4.154 -0.9451 -2.0745 -0.1433
 9536SOL    HW240245   1.511   2.703   4.023  0.6169  0.0618 -1.1220
 9537SOL     OW40246   1.315   4.509   4.163 -0.2497 -0.2537  0.0766
 9537SOL    HW140247   1.401   4.545   4.184  0.4818 -2.0336  0.1286
 9537SOL    HW240248   1.344   4.421   4.140  0.4842  0.3843 -1.4279
 9538SOL     OW40249   2.856   2.420   8.648  0.3376 -0.1784 -0.2683
 9538SOL    HW140250   2.867   2.332   8.686  1.8482 -0.2585 -0.8520
 9538SOL    HW240251   2.864   2.478   8.724  0.6072 -0.1818 -0.2910
 9539SOL     OW40252   2.028   0.074   7.365 -0.4354 -0.3775  0.2570
 9539SOL    HW140253   2.027   0.079   7.461 -0.4253 -4.0593  0.4232
 9539SOL    HW240254   2.079   0.153   7.345 -1.1473 -0.2558 -1.0627
 9540SOL     OW40255   4.445   1.128   6.186 -0.2306  0.0512 -0.3457
 9540SOL    HW140256   4.528   1.082   6.195 -0.4227 -0.1499  0.4164
 9540SOL    HW240257   4.450   1.195   6.254  1.7224  0.0305 -0.4822
 9541SOL     OW40258   3.951   1.665   4.605  0.0588 -0.6513 -0.1978
 9541SOL    HW140259   4.040   1.641   4.631  0.3638 -0.6037 -1.1870
 9541SOL    HW240260   3.941   1.760   4.611 -1.2430 -0.6965 -1.8604
 9542SOL     OW40261   1.157   0.372   5.292 -0.3172  0.2386  0.2878
 9542SOL    HW140262   1.234   0.429   5.289  1.4646 -2.1572  0.5516
 9542SOL    HW240263   1.166   0.314   5.216  0.4670  0.2148  0.3902
 9543SOL     OW40264   4.294   4.034  17.121 -0.2959  0.7007 -0.4472
 9543SOL    HW140265   4.320   3.954  17.074  2.1020  1.7835 -0.9735
 9543SOL    HW240266   4.201   4.014  17.132 -0.1053 -1.3774 -2.6476
 9544SOL     OW40267   1.771   0.577   3.183  0.1234  0.6289 -0.4144
 9544SOL    HW140268   1.731   0.539   3.104  2.2777 -1.7833 -0.3227
 9544SOL    HW240269   1.810   0.657   3.148  3.7423 -1.0149 -0.1416
 9545SOL     OW40270   3.633   4.469   2.210 -0.0423  0.3871 -0.3036
 9545SOL    HW140271   3.597   4.432   2.291 -0.9005  0.0036 -0.8616
 9545SOL    HW240272   3.684   4.399   2.168  0.1477 -0.3084  1.0956
 9546SOL     OW40273   3.703   1.338   4.712 -0.0255 -0.1317  0.2378
 9546SOL    HW140274   3.753   1.360   4.791  0.4612  0.3838 -0.2055
 9546SOL    HW240275   3.764   1.276   4.673  1.2767  0.5808  1.1016
 9547SOL     OW40276   3.633   2.531  13.150  0.3281 -0.3522  0.1415
 9547SOL    HW140277   3.583   2.554  13.228 -0.1005  3.6690 -1.2988
 9547SOL    HW240278   3.695   2.472  13.192 -0.7124  0.5218  2.8665
 9548SOL     OW40279   2.833   2.395   5.113  0.1130 -0.8425  0.0483
 9548SOL    HW140280   2.893   2.450   5.062 -0.4438  0.9252  1.3297
 9548SOL    HW240281   2.757   2.451   5.126  1.2915  0.9861 -0.7832
 9549SOL     OW40282   3.121   3.002  17.492 -0.1263  0.0060  0.4878
 9549SOL    HW140283   3.118   2.927  17.432 -0.1245 -0.9231  1.6559
 9549SOL    HW240284   3.134   3.072  17.428 -0.3819 -0.7758 -0.4233
 9550SOL     OW40285   2.431   1.882   5.768  0.3545 -0.5050  0.0645
 9550SOL    HW140286   2.429   1.892   5.863  0.5130 -1.5368  0.1765
 9550SOL    HW240287   2.492   1.810   5.753  1.5623  0.8017 -1.3454
 9551SOL     OW40288   1.277   1.655   6.283 -0.1371  0.2036 -0.5736
 9551SOL    HW140289   1.197   1.691   6.244  0.1834 -1.4541 -2.7410
 9551SOL    HW240290   1.298   1.727   6.343 -2.6117 -0.6177  1.3342
 9552SOL     OW40291   1.479   1.222   7.285 -0.0861  0.0408  0.3008
 9552SOL    HW140292   1.389   1.204   7.311  0.5539 -1.7980  1.2379
 9552SOL    HW240293   1.459   1.249   7.196 -0.1849 -0.5307  0.1525
 9553SOL     OW40294   1.115   1.522   9.230 -0.2044  0.2515 -0.0765
 9553SOL    HW140295   1.125   1.617   9.221  0.6147  0.2337  0.6335
 9553SOL    HW240296   1.168   1.494   9.305 -4.3173 -0.8457  2.4313
 9554SOL     OW40297   2.191   4.716  17.012 -0.1598  0.4385 -0.2470
 9554SOL    HW140298   2.269   0.029  17.000  0.8382 -1.2705 -1.6354
 9554SOL    HW240299   2.127   0.040  16.985 -1.4324 -0.3776  0.7863
 9555SOL     OW40300   2.241   0.001   7.834  0.6313  0.6684  0.9079
 9555SOL    HW140301   2.164   4.724   7.888 -1.3413  2.5725 -1.2473
 9555SOL    HW240302   2.284   0.069   7.887 -1.6573  1.8309  1.2933
 9556SOL     OW40303   1.491   4.267   4.750 -0.1515 -0.1216  0.7201
 9556SOL    HW140304   1.439   4.236   4.676 -1.0232 -0.8284  1.6326
 9556SOL    HW240305   1.469   4.361   4.750 -1.6002 -0.4603  2.5609
 9557SOL     OW40306   3.061   1.777   4.269 -0.1800  0.2125 -0.1411
 9557SOL    HW140307   3.054   1.854   4.213  0.7141 -0.3064 -0.9658
 9557SOL    HW240308   3.147   1.796   4.307  0.5618 -1.7260 -0.8376
 9558SOL     OW40309   3.303   3.006  11.598 -0.1703  0.2605 -0.4482
 9558SOL    HW140310   3.378   2.997  11.539 -0.1247 -0.1523 -0.3303
 9558SOL    HW240311   3.239   3.042  11.536 -1.9401  0.8322  1.7047
 9559SOL     OW40312   2.492   1.002   8.974  0.0856 -0.4531  0.9395
 9559SOL    HW140313   2.509   1.095   8.955  0.7019 -0.7548  0.0324
 9559SOL    HW240314   2.408   1.009   9.019 -1.1705  0.1783 -1.4667
 9560SOL     OW40315   2.749   3.757   0.817  0.3887 -0.4238  0.7907
 9560SOL    HW140316   2.771   3.754   0.724  1.0942  0.8733  0.9143
 9560SOL    HW240317   2.672   3.700   0.821  0.4609 -0.5320  0.6357
 9561SOL     OW40318   0.434   0.727   8.467 -0.4110  0.5691 -0.6100
 9561SOL    HW140319   0.457   0.816   8.443 -0.0523  0.7697  0.5032
 9561SOL    HW240320   0.389   0.693   8.389  0.4942  0.9817 -1.3052
 9562SOL     OW40321   2.024   2.527  15.251 -0.1887 -0.6247 -0.1226
 9562SOL    HW140322   2.058   2.466  15.317 -0.0018 -0.4458 -0.0550
 9562SOL    HW240323   2.091   2.527  15.183 -3.2077  3.5261 -3.0836
 9563SOL     OW40324   3.259   3.150   9.655  0.6634 -0.2641 -0.2297
 9563SOL    HW140325   3.275   3.211   9.582  4.1555 -0.0992  0.7163
 9563SOL    HW240326   3.166   3.162   9.674  0.8900  0.6509  0.3056
 9564SOL     OW40327   0.806   1.789   9.467  0.2099  0.3262  0.2876
 9564SOL    HW140328   0.840   1.750   9.387 -3.1291 -1.0602 -0.4552
 9564SOL    HW240329   0.713   1.794   9.447  0.0431  3.0220  1.6198
 9565SOL     OW40330   1.899   3.645  12.540  0.2754 -0.0342  0.0419
 9565SOL    HW140331   1.982   3.692  12.533  1.0754 -1.5651 -0.5156
 9565SOL    HW240332   1.906   3.556  12.507 -0.1798 -0.7392  1.8258
 9566SOL     OW40333   0.098   3.515   5.006  0.4354 -0.1803 -0.4704
 9566SOL    HW140334   0.136   3.467   5.080  2.0584 -0.7634 -1.6575
 9566SOL    HW240335   0.007   3.492   5.024 -0.0381 -0.0466 -2.6037
 9567SOL     OW40336   3.206   4.206   8.164 -0.0716  0.2349  0.2214
 9567SOL    HW140337   3.217   4.298   8.187  4.3426 -0.2929  0.2464
 9567SOL    HW240338   3.288   4.176   8.203 -0.3057 -1.9355 -0.9605
 9568SOL     OW40339   3.367   1.375   6.318  0.2094  0.7140  0.5336
 9568SOL    HW140340   3.328   1.350   6.234  1.4845  1.2386 -0.2221
 9568SOL    HW240341   3.431   1.303   6.323 -0.9648 -0.4242 -0.5385
 9569SOL     OW40342   0.825   4.660   7.848 -0.0026 -0.6957  0.1456
 9569SOL    HW140343   0.846   0.010   7.837  0.5756 -1.1366 -2.4131
 9569SOL    HW240344   0.879   4.619   7.780 -0.4937  0.7601 -1.1170
   4.74208   4.74208  17.76538
