Membrane in water
40344
    1TMC1    C1    1   4.237   3.057  11.101 -0.5400 -0.6707 -0.5834
    1TMC1    C2    2   4.121   3.129  11.058 -0.5149  0.3323 -0.0010
    1TMC1    C3    3   4.144   3.257  11.032 -0.6264  0.0172  0.0866
    1TMC1    C4    4   4.358   3.114  11.128  0.2354  0.4191  0.2648
    1TMC1    C5    5   4.376   3.249  11.116  0.3313  0.0187 -0.6625
    1TMC1    C6    6   4.263   3.320  11.077 -0.5452  0.1353 -0.1869
    1TMC1     C    7   4.205   2.922  11.134 -0.5659 -0.5230  0.0870
    1TMC1     O    8   4.087   2.902  11.145  0.5823  0.1938  0.0708
    1TMC1     H    9   4.035   3.081  11.014  0.6435 -1.4895 -0.2958
    1TMC1    H1   10   4.444   3.064  11.170  0.0600 -0.5419 -0.5301
    1TMC1    H2   11   4.264   3.426  11.052  0.9199  0.1911  0.0886
    1TMC1    C7   12   4.489   3.315  11.179  0.1706 -0.3883  0.0113
    1TMC1    C8   13   4.019   3.337  11.022  0.3431  0.5741 -0.2653
    1TMC1    O1   14   4.560   3.247  11.253  0.0831 -0.3513 -0.7345
    1TMC1    O2   15   4.008   3.458  11.053  0.5662  0.0507 -0.2656
    1TMC1    O3   16   4.542   3.400  11.088  0.4936  0.6824 -0.7163
    1TMC1    H3   17   4.484   3.429  11.015 -0.3651  0.9775  0.0762
    1TMC1    O5   18   3.923   3.272  10.957 -0.4739  0.1300 -0.1702
    1TMC1    H5   19   3.967   3.192  10.921 -0.3839 -0.5915  1.5561
    2MPD2     C   20   4.247   2.419  11.224  0.2063 -0.4037 -0.8303
    2MPD2    C1   21   4.141   2.506  11.258 -0.2252  0.8313  0.1383
    2MPD2    C2   22   4.161   2.640  11.241 -0.6168 -0.0493 -0.4588
    2MPD2    C3   23   4.279   2.690  11.188  0.8315  0.8328 -0.0587
    2MPD2    C4   24   4.386   2.605  11.167  0.3983  0.3964 -0.2157
    2MPD2    C5   25   4.373   2.465  11.192 -0.3908  0.4030  0.2006
    2MPD2     H   26   4.080   2.709  11.264 -1.0480 -0.0638 -1.9557
    2MPD2    H1   27   4.487   2.640  11.144 -0.2466  1.5201 -1.3385
    2MPD2    H2   28   4.237   2.311  11.233 -0.1152 -0.3221 -0.1814
    2MPD2    H3   29   4.447   2.393  11.158  0.5523  2.4123 -1.9774
    2MPD2     N   30   4.298   2.825  11.140  0.1924 -0.3133  0.2353
    2MPD2    H5   31   4.391   2.842  11.102  0.2896  0.5093  0.8572
    2MPD2    N1   32   4.012   2.463  11.299 -0.6473 -0.4169  0.3094
    2MPD2    H7   33   3.938   2.527  11.326  0.5273 -0.4645  3.5385
    3TMC1    C1   34   2.755   3.460  10.602 -0.0291 -0.3487  0.1817
    3TMC1    C2   35   2.867   3.533  10.564 -0.5515  0.7257 -0.0658
    3TMC1    C3   36   2.900   3.538  10.429  0.0479 -0.3690 -0.2836
    3TMC1    C4   37   2.684   3.383  10.519 -0.4019  0.2172  0.6418
    3TMC1    C5   38   2.722   3.393  10.389 -0.2671 -0.3187  0.4202
    3TMC1    C6   39   2.829   3.463  10.339  0.8546 -0.0009 -0.2304
    3TMC1     C   40   2.708   3.457  10.745  0.7505  0.8284  0.1648
    3TMC1     O   41   2.640   3.358  10.775  0.2522  0.6685  0.4140
    3TMC1     H   42   2.930   3.577  10.640 -1.5993 -1.9601  2.3463
    3TMC1    H1   43   2.603   3.318  10.549  1.3434 -0.9924  2.7513
    3TMC1    H2   44   2.845   3.464  10.232  0.9259  0.0759 -0.2196
    3TMC1    C7   45   2.677   3.293  10.300 -0.3971  1.0404 -0.3005
    3TMC1    C8   46   3.002   3.625  10.384 -0.1817  0.9377 -0.3845
    3TMC1    O1   47   2.681   3.307  10.179  0.9905  0.5000  0.8291
    3TMC1    O2   48   3.063   3.607  10.278  0.1906  0.1667 -0.6626
    3TMC1    O3   49   2.753   3.197  10.353  0.1359 -0.0864  0.5982
    3TMC1    H3   50   2.770   3.191  10.449 -0.3486 -2.5168  0.5334
    3TMC1    O5   51   3.042   3.706  10.482  0.3549  0.2469 -0.0836
    3TMC1    H5   52   2.969   3.720  10.546 -1.0535 -2.6211 -1.0613
    4MPD2     C   53   2.570   3.687  11.185 -0.1476 -0.5828  0.4380
    4MPD2    C1   54   2.662   3.766  11.115  0.2299  0.8523 -0.8468
    4MPD2    C2   55   2.704   3.730  10.990 -0.4862  0.2472  0.6195
    4MPD2    C3   56   2.667   3.606  10.934  0.0638 -0.9881  0.2088
    4MPD2    C4   57   2.578   3.531  11.005 -0.5108 -0.1042  0.4076
    4MPD2    C5   58   2.525   3.573  11.123  0.0809  0.1849  0.3238
    4MPD2     H   59   2.762   3.802  10.933 -1.6646 -0.3208 -1.2808
    4MPD2    H1   60   2.540   3.442  10.955 -2.8770  1.1250  0.0279
    4MPD2    H2   61   2.526   3.697  11.283 -3.5804  0.9293 -1.2505
    4MPD2    H3   62   2.454   3.511  11.176  0.0649 -0.6814 -0.7163
    4MPD2     N   63   2.722   3.574  10.815 -0.0610  0.4403 -0.2207
    4MPD2    H5   64   2.783   3.642  10.771  0.7517  0.3568  0.7939
    4MPD2    N1   65   2.694   3.899  11.159  0.1948 -0.0793  0.3462
    4MPD2    H7   66   2.756   3.952  11.098 -0.2154 -1.4099 -1.2477
    5TCq1    O1   67   3.851   4.650  11.826 -0.5614 -0.3968 -1.0431
    5TCq1    C1   68   3.736   4.696  11.882  0.1019  1.3447  0.7270
    5TCq1    O2   69   3.728   4.716  12.002 -0.4097 -0.2230 -0.5234
    5TCq1    C2   70   3.628   4.719  11.785  0.2545 -0.5200 -0.0487
    5TCq1    C3   71   3.502   0.017  11.829 -0.0520  0.3810 -0.1239
    5TCq1    C4   72   3.404   0.045  11.735  0.0721 -0.6400 -0.1430
    5TCq1    C5   73   3.426   0.034  11.601 -0.3753  0.5731  0.0181
    5TCq1    C6   74   3.556   0.005  11.558  0.1224 -0.0712 -0.1926
    5TCq1    C7   75   3.655   4.714  11.646  0.3861 -0.4155  0.8122
    5TCq1    C8   76   3.584   0.020  11.418 -0.8658 -0.0323 -1.1138
    5TCq1    O4   77   3.686   4.708  11.366 -0.1314  0.0805 -0.5190
    5TCq1    C9   78   3.269   0.060  11.782  0.2304  0.1540  0.1648
    5TCq1    O5   79   3.231   0.050  11.902  0.3496 -0.0427  0.0646
    5TCq1    O6   80   3.182   0.100  11.695  0.3172 -0.1462  0.4545
    5TCq1    H1   81   3.849   4.626  11.731  1.1198 -0.1686 -1.1287
    5TCq1    H2   82   3.485   0.026  11.936  2.1883 -1.3322  0.3915
    5TCq1    H3   83   3.340   0.017  11.537  0.1892  0.8793 -0.8168
    5TCq1    H4   84   3.751   4.684  11.607 -2.0560 -3.3752 -2.8864
    6MPD2     C   85   3.361   0.186  11.176  0.0218 -0.6143 -0.2523
    6MPD2    C1   86   3.465   0.110  11.222 -0.6593 -0.0385  0.1788
    6MPD2    C2   87   3.551   0.054  11.127 -0.9081  0.0207 -0.4292
    6MPD2    C3   88   3.528   0.076  10.994 -0.9124  0.0513 -0.0456
    6MPD2    C4   89   3.433   0.161  10.944  0.0755 -0.5936  0.5298
    6MPD2    C5   90   3.353   0.215  11.042 -0.1091  0.0730  0.4295
    6MPD2     H   91   3.627   4.719  11.153  0.8393  1.0172 -2.7990
    6MPD2    H1   92   3.409   0.189  10.842 -1.0965 -1.1915  0.6434
    6MPD2    H2   93   3.297   0.246  11.239  0.5558 -0.0662 -0.2339
    6MPD2    H3   94   3.280   0.290  11.014 -0.8625 -1.5431 -1.9667
    6MPD2     N   95   3.617   0.011  10.908  0.4443  0.1232 -0.0445
    6MPD2    H5   96   3.673   4.676  10.950  1.2352  2.1092  2.3328
    6MPD2    N1   97   3.481   0.094  11.363  0.6697  0.2104 -0.0592
    6MPD2    H7   98   3.403   0.124  11.421  0.5666 -2.4891  1.1898
    7TCq1    O1   99   1.362   0.155  13.635 -0.0049  0.6423  0.1726
    7TCq1    C1  100   1.338   0.055  13.724 -0.3636 -0.9368 -0.0119
    7TCq1    O2  101   1.399   0.008  13.819 -0.6026  0.0527 -0.9830
    7TCq1    C2  102   1.223   4.722  13.667  0.3287  0.7410 -1.2206
    7TCq1    C3  103   1.112   0.056  13.641  0.5781 -0.5045 -0.3053
    7TCq1    C4  104   0.985   4.732  13.640 -0.1390 -0.4371  0.4934
    7TCq1    C5  105   0.968   4.603  13.665 -0.1864 -0.1545 -0.5302
    7TCq1    C6  106   1.082   4.534  13.707 -0.0813 -0.6313  0.9550
    7TCq1    C7  107   1.215   4.593  13.698  0.4267  0.0885  0.4865
    7TCq1    C8  108   1.077   4.388  13.709  0.6730  0.0841 -0.5335
    7TCq1    O4  109   1.168   4.328  13.767 -0.3848  0.2910 -0.0738
    7TCq1    C9  110   0.866   0.072  13.620  0.0926  0.2082 -0.1299
    7TCq1    O5  111   0.884   0.193  13.642 -0.0052  0.1541 -0.2472
    7TCq1    O6  112   0.751   0.016  13.621  0.0021 -0.5501  0.3211
    7TCq1    H1  113   1.303   0.155  13.556  1.7763 -1.0461 -1.1569
    7TCq1    H2  114   1.112   0.165  13.635 -0.3044 -0.4548  0.5223
    7TCq1    H3  115   0.867   4.582  13.696 -0.6014  1.0328 -1.0637
    7TCq1    H4  116   1.303   4.547  13.743 -0.0799 -1.7889 -0.4575
    8MPD2     C  117   0.790   3.970  13.624 -0.3555 -0.4485  0.1242
    8MPD2    C1  118   0.917   3.982  13.676  0.2362  0.0855  0.1981
    8MPD2    C2  119   0.974   4.106  13.695 -0.0205 -0.5131  0.5318
    8MPD2    C3  120   0.906   4.219  13.653  0.3763 -0.5178 -0.3781
    8MPD2    C4  121   0.786   4.206  13.596 -0.5127  0.5213 -0.8324
    8MPD2    C5  122   0.736   4.079  13.569 -0.1528  0.3049  0.2667
    8MPD2     H  123   1.075   4.117  13.731  0.3394 -1.0901 -0.2768
    8MPD2    H1  124   0.731   4.291  13.557  1.1033  1.6650 -0.6387
    8MPD2    H2  125   0.731   3.881  13.607 -1.7609  0.5635 -0.3885
    8MPD2    H3  126   0.647   4.072  13.508  0.3393  2.5323 -0.7038
    8MPD2     N  127   0.962   4.348  13.656  0.0767  0.5950 -0.0779
    8MPD2    H5  128   0.904   4.423  13.619 -1.2547  0.6807  2.1996
    8MPD2    N1  129   0.990   3.861  13.691  0.2642  0.5475 -0.1145
    8MPD2    H7  130   0.939   3.776  13.671 -0.0343  1.2484 -2.2638
    9TMC1    C1  131   3.852   3.788  10.860 -0.0247 -0.6667  0.1888
    9TMC1    C2  132   3.826   3.920  10.819 -0.0908 -0.0646 -0.3783
    9TMC1    C3  133   3.932   4.003  10.788  0.2358  0.0876  0.8642
    9TMC1    C4  134   3.977   3.741  10.842 -0.1911  0.2561 -0.0823
    9TMC1    C5  135   4.073   3.826  10.792 -0.3022 -0.0661  0.1252
    9TMC1    C6  136   4.058   3.962  10.778  0.7538 -0.0873 -0.5679
    9TMC1     C  137   3.738   3.697  10.874  0.1909 -0.1683  0.6144
    9TMC1     O  138   3.637   3.744  10.819 -0.0380  0.2937  0.8582
    9TMC1     H  139   3.722   3.951  10.817  0.1306  0.5348 -2.4365
    9TMC1    H1  140   3.993   3.637  10.866  0.3331 -0.3257 -2.9071
    9TMC1    H2  141   4.137   4.026  10.741  0.9525 -0.3552 -0.5964
    9TMC1    C7  142   4.201   3.762  10.772  0.6716 -0.6924 -0.2712
    9TMC1    C8  143   3.901   4.136  10.744  0.2580 -0.3706  0.2218
    9TMC1    O1  144   4.238   3.687  10.857  0.5697  0.2275  0.1285
    9TMC1    O2  145   3.968   4.207  10.668  0.4573 -0.1081 -0.3757
    9TMC1    O3  146   4.285   3.850  10.710 -0.1573  0.1729 -0.0677
    9TMC1    H3  147   4.240   3.887  10.631 -0.3623  0.1247  0.0241
    9TMC1    O5  148   3.816   4.181  10.834  0.1794 -0.1382  0.0023
    9TMC1    H5  149   3.809   4.121  10.911  0.5005  2.1736  1.7909
   10MPD2     C  150   3.546   3.489  10.924 -1.5231  0.5627  0.8209
   10MPD2    C1  151   3.660   3.501  11.001 -0.2926  0.1659  0.4351
   10MPD2    C2  152   3.668   3.446  11.122 -0.1587 -0.1404 -0.3429
   10MPD2    C3  153   3.560   3.375  11.169  0.4122  0.3580 -0.0127
   10MPD2    C4  154   3.453   3.355  11.086 -0.2520 -0.5215 -0.5560
   10MPD2    C5  155   3.442   3.418  10.966  0.5538  0.8917  0.4422
   10MPD2     H  156   3.756   3.460  11.183 -0.1180 -1.9122  0.0093
   10MPD2    H1  157   3.366   3.302  11.121  0.9699 -1.9204  0.3224
   10MPD2    H2  158   3.538   3.531  10.825 -0.9115 -0.9990  0.1160
   10MPD2    H3  159   3.354   3.408  10.903  0.7642 -0.4251  0.3503
   10MPD2     N  160   3.551   3.322  11.297  0.5194  0.4656  0.1391
   10MPD2    H5  161   3.476   3.259  11.322  3.2248 -1.8905  2.3416
   10MPD2    N1  162   3.760   3.590  10.955  0.3384  0.2163 -0.2701
   10MPD2    H7  163   3.852   3.570  10.993  0.6660  2.6352  0.1992
   11TCq1    O1  164   3.205   2.564  14.690 -0.2356  0.0200 -0.5423
   11TCq1    C1  165   3.198   2.449  14.624  0.3005 -0.3974  0.3026
   11TCq1    O2  166   3.299   2.394  14.576 -0.5831  0.2611 -0.3335
   11TCq1    C2  167   3.076   2.461  14.542 -0.0472  0.6406  0.1827
   11TCq1    C3  168   2.973   2.524  14.603  0.3299  0.2950  1.1492
   11TCq1    C4  169   2.879   2.576  14.511 -0.8123 -0.1015  0.5356
   11TCq1    C5  170   2.904   2.581  14.372 -0.0518  0.2111 -0.1301
   11TCq1    C6  171   3.019   2.523  14.319  0.5815  0.3642 -0.0275
   11TCq1    C7  172   3.103   2.461  14.405  0.3465  0.1090 -0.1844
   11TCq1    C8  173   3.011   2.495  14.179 -1.0168  0.5653 -0.1108
   11TCq1    O4  174   2.912   2.538  14.116  0.3818 -0.7590 -0.0567
   11TCq1    C9  175   2.764   2.642  14.565  0.8101 -0.8917  0.6191
   11TCq1    O5  176   2.681   2.681  14.480  0.2683 -0.2787 -0.3043
   11TCq1    O6  177   2.734   2.625  14.689 -0.4778  0.2229 -0.5856
   11TCq1    H1  178   3.115   2.601  14.707 -0.0803 -0.2240  0.8227
   11TCq1    H2  179   2.952   2.538  14.708  1.5085  2.8202  1.0454
   11TCq1    H3  180   2.829   2.625  14.307  0.5508 -1.4565 -1.9436
   11TCq1    H4  181   3.192   2.413  14.366  0.1084  2.2344 -3.3413
   12MPD2     C  182   3.056   2.432  13.893 -0.0175 -0.3622  0.2659
   12MPD2    C1  183   3.150   2.401  13.990 -0.3991  0.0836  0.6947
   12MPD2    C2  184   3.259   2.326  13.957  0.1079  0.0091  0.1432
   12MPD2    C3  185   3.268   2.274  13.830  0.6192  0.1775  0.2529
   12MPD2    C4  186   3.174   2.310  13.739  0.2960 -0.6720  0.1363
   12MPD2    C5  187   3.063   2.382  13.764 -0.3624  0.0868  0.3950
   12MPD2     H  188   3.328   2.295  14.034  1.3446 -2.4286 -1.9280
   12MPD2    H1  189   3.186   2.283  13.635 -1.5256 -0.7918 -0.0339
   12MPD2    H2  190   2.974   2.499  13.917 -0.2566 -1.2705  2.0093
   12MPD2    H3  191   2.991   2.406  13.687 -0.7625 -1.0236  0.4279
   12MPD2     N  192   3.378   2.202  13.776  0.7121 -0.1379 -0.2936
   12MPD2    H5  193   3.381   2.192  13.675 -3.6696 -1.1570 -0.3420
   12MPD2    N1  194   3.123   2.433  14.126  0.3938 -0.1525 -0.2227
   12MPD2    H7  195   3.199   2.409  14.189 -0.3417  0.2905  0.8416
   13TCq1    O1  196   3.762   2.316  10.674 -0.0372 -0.0277  0.6394
   13TCq1    C1  197   3.656   2.396  10.650  0.8463  0.7506 -0.0748
   13TCq1    O2  198   3.662   2.504  10.591  0.4235  0.4744  0.1999
   13TCq1    C2  199   3.538   2.349  10.712  0.3935  0.6461 -0.1636
   13TCq1    C3  200   3.530   2.219  10.763 -0.5387 -0.6668  0.4705
   13TCq1    C4  201   3.418   2.184  10.831 -0.0038 -0.8404  0.2514
   13TCq1    C5  202   3.323   2.273  10.873 -0.0630  0.6995  0.1566
   13TCq1    C6  203   3.339   2.403  10.829 -0.1419  0.2994  0.5779
   13TCq1    C7  204   3.440   2.436  10.744 -0.3130  0.2482  1.0569
   13TCq1    C8  205   3.232   2.494  10.858 -0.2883 -0.1372 -0.6127
   13TCq1    O4  206   3.172   2.482  10.966  0.3265 -0.7012  0.2616
   13TCq1    C9  207   3.369   2.050  10.840 -0.5702 -0.2343 -0.3200
   13TCq1    O5  208   3.246   2.036  10.850  0.1439 -0.0679  0.2186
   13TCq1    O6  209   3.450   1.957  10.809 -0.3496  0.1998 -0.0116
   13TCq1    H1  210   3.745   2.232  10.721  0.2752  0.0544  0.8938
   13TCq1    H2  211   3.607   2.149  10.734  0.4299 -0.1229  1.7250
   13TCq1    H3  212   3.233   2.257  10.931  0.0226 -0.3539 -0.0073
   13TCq1    H4  213   3.440   2.535  10.701  0.6691 -1.1138 -2.0709
   14MPD2     C  214   3.011   2.650  10.616 -0.1321  0.2881 -0.8031
   14MPD2    C1  215   3.078   2.635  10.738 -1.1058 -0.0901 -0.0816
   14MPD2    C2  216   3.022   2.702  10.844  0.3503  0.0566 -0.9953
   14MPD2    C3  217   2.909   2.788  10.826 -0.1868  0.7175  0.9517
   14MPD2    C4  218   2.838   2.784  10.713  0.6238 -0.1561 -0.2382
   14MPD2    C5  219   2.896   2.725  10.601  0.1492 -0.3732 -0.1982
   14MPD2     H  220   3.079   2.697  10.935  1.1821 -0.1252 -1.5243
   14MPD2    H1  221   2.744   2.831  10.688  0.8035 -0.2324 -1.0641
   14MPD2    H2  222   3.050   2.606  10.525  2.2447  0.9777 -0.1213
   14MPD2    H3  223   2.843   2.731  10.507 -0.9245  2.7857  0.6161
   14MPD2     N  224   2.872   2.875  10.935  0.2532 -0.0842  0.1051
   14MPD2    H5  225   2.917   2.872  11.026  1.0162 -0.6477 -0.2880
   14MPD2    N1  226   3.190   2.555  10.746 -1.1917 -1.0157  0.4918
   14MPD2    H7  227   3.230   2.519  10.660 -0.4239  3.0120 -0.8422
   15TCq1    O1  228   4.510   1.910   2.318  0.6293  0.4787 -0.2979
   15TCq1    C1  229   4.549   1.985   2.208 -0.0486  0.4149 -1.5300
   15TCq1    O2  230   4.476   2.034   2.128  0.4963  0.0305  0.0531
   15TCq1    C2  231   4.683   1.942   2.181 -0.8231 -0.3265 -0.1952
   15TCq1    C3  232   0.043   1.969   2.273 -0.2586  0.1102  0.3674
   15TCq1    C4  233   0.165   1.941   2.237  0.4033  0.1854 -0.0784
   15TCq1    C5  234   0.193   1.876   2.123 -0.6834  0.2360  0.3945
   15TCq1    C6  235   0.094   1.842   2.033 -1.0387 -0.0881 -0.0679
   15TCq1    C7  236   4.701   1.879   2.060 -0.2941 -0.2457 -0.4041
   15TCq1    C8  237   0.132   1.784   1.907  0.5917 -0.1741  1.1470
   15TCq1    O4  238   0.235   1.718   1.909 -0.4347 -0.1932 -0.2948
   15TCq1    C9  239   0.270   1.979   2.323  0.1468 -0.6738  0.5829
   15TCq1    O5  240   0.240   2.018   2.441  0.3114  0.0356 -0.2075
   15TCq1    O6  241   0.389   1.954   2.282 -0.5035  0.3423 -0.5040
   15TCq1    H1  242   4.581   1.873   2.374  0.8566  0.5753 -0.5247
   15TCq1    H2  243   0.009   2.024   2.360 -1.6464  0.7621 -0.5798
   15TCq1    H3  244   0.292   1.845   2.092 -1.2222  0.9972 -2.0852
   15TCq1    H4  245   4.617   1.873   1.992 -0.5402 -1.8111  0.0319
   16MPD2     C  246   4.672   1.814   1.600 -0.0514 -0.7637  0.3881
   16MPD2    C1  247   0.033   1.772   1.682 -0.3142 -1.0453 -0.4823
   16MPD2    C2  248   0.132   1.685   1.629 -0.2337 -0.0174 -0.2378
   16MPD2    C3  249   0.127   1.645   1.495  0.3004 -0.5491  0.5889
   16MPD2    C4  250   0.022   1.687   1.413  0.0656  0.3145 -0.4218
   16MPD2    C5  251   4.664   1.769   1.467  0.3296 -0.1439 -0.3104
   16MPD2     H  252   0.216   1.662   1.694 -0.5601  1.0731  0.5864
   16MPD2    H1  253   0.024   1.677   1.305 -0.1562 -3.5206 -0.0670
   16MPD2    H2  254   4.595   1.881   1.638  1.0253  1.6215 -1.5712
   16MPD2    H3  255   4.597   1.821   1.400  1.0013  0.9077 -0.1641
   16MPD2     N  256   0.225   1.552   1.454 -0.0198 -0.1323  0.2288
   16MPD2    H5  257   0.288   1.521   1.528  0.5971 -0.8194 -0.5910
   16MPD2    N1  258   0.038   1.817   1.813  0.5771  0.0156 -0.1905
   16MPD2    H7  259   4.712   1.889   1.845  0.0273 -0.6222  0.1432
   17TMC1    C1  260   3.450   1.939  11.225  0.5313  0.1039  0.0204
   17TMC1    C2  261   3.477   1.871  11.113  0.1636 -0.1785  0.1784
   17TMC1    C3  262   3.424   1.748  11.106 -0.3777  0.3928  0.7941
   17TMC1    C4  263   3.367   1.894  11.326 -0.2251  0.0889  0.2935
   17TMC1    C5  264   3.328   1.763  11.317 -0.1529 -0.2533  0.3447
   17TMC1    C6  265   3.360   1.689  11.205 -0.6691  0.2813  1.0021
   17TMC1     C  266   3.454   2.081  11.211  0.0766  0.8330  0.2890
   17TMC1     O  267   3.368   2.139  11.274  0.2734  0.2445  0.0588
   17TMC1     H  268   3.548   1.904  11.038  0.3964 -0.7623  0.1446
   17TMC1    H1  269   3.322   1.954  11.404 -1.9713 -0.7298 -0.0928
   17TMC1    H2  270   3.315   1.590  11.195  1.0002 -0.4358  0.6502
   17TMC1    C7  271   3.253   1.691  11.421 -0.1138 -0.0060 -0.1247
   17TMC1    C8  272   3.453   1.659  10.996  0.2317 -0.1534  0.0214
   17TMC1    O1  273   3.173   1.755  11.490  0.3246 -0.0851  0.1805
   17TMC1    O2  274   3.429   1.541  10.998  0.2637 -0.8932  0.3850
   17TMC1    O3  275   3.285   1.558  11.430  0.2938 -0.6134 -0.6660
   17TMC1    H3  276   3.363   1.540  11.374 -0.2960 -1.3972 -1.2264
   17TMC1    O5  277   3.505   1.720  10.884 -0.0264  0.5056 -0.2807
   17TMC1    H5  278   3.501   1.817  10.867  1.7215  0.7728  0.8489
   18MPD2     C  279   3.533   2.361  11.125 -0.1175 -0.7346  0.2418
   18MPD2    C1  280   3.611   2.247  11.111 -0.2641  0.9088  0.4161
   18MPD2    C2  281   3.742   2.261  11.052  0.1083  0.1193  1.1077
   18MPD2    C3  282   3.807   2.374  11.027 -0.6664  0.0036  0.0780
   18MPD2    C4  283   3.719   2.482  11.034  0.1354 -0.5829  0.1530
   18MPD2    C5  284   3.585   2.478  11.083  0.3865 -0.6683 -0.4221
   18MPD2     H  285   3.801   2.171  11.040 -0.5795  0.1895 -2.8721
   18MPD2    H1  286   3.752   2.583  11.013 -0.2329 -0.6023 -0.5318
   18MPD2    H2  287   3.431   2.350  11.160 -0.8932  0.1862 -1.7322
   18MPD2    H3  288   3.542   2.577  11.090 -1.7247 -1.5889 -0.6062
   18MPD2     N  289   3.938   2.395  10.987 -1.0241  0.4076 -0.0894
   18MPD2    H5  290   3.959   2.493  10.968  1.7648 -0.3806 -1.0487
   18MPD2    N1  291   3.565   2.114  11.135 -0.3820 -0.3972 -0.3181
   18MPD2    H7  292   3.631   2.038  11.119 -1.0086 -1.1138  0.5067
   19TMC2    C1  293   4.620   3.062  13.951 -0.3176  0.2968  0.1923
   19TMC2    C2  294   4.520   3.136  13.893  0.2957  0.0864 -0.3720
   19TMC2    C3  295   4.395   3.086  13.875 -0.4412  0.2626  0.4590
   19TMC2    C4  296   4.605   2.930  13.978  0.0434 -0.2588  0.0207
   19TMC2    C5  297   4.477   2.877  13.958  0.0595  0.1637 -0.3941
   19TMC2    C6  298   4.371   2.960  13.918 -0.0569  0.0367  0.5532
   19TMC2     C  299   0.000   3.128  14.003 -0.3660 -0.1880 -0.2833
   19TMC2     O  300   0.019   3.240  13.954 -0.0172 -0.2407 -0.1741
   19TMC2     H  301   4.543   3.235  13.855 -0.1385 -0.2338 -1.4528
   19TMC2    H1  302   4.693   2.871  14.001 -0.5161 -0.9275  0.4195
   19TMC2    H2  303   4.281   2.907  13.890  1.8774 -3.4001  0.7823
   19TMC2    C7  304   4.466   2.734  13.945 -0.0939  0.3787  0.0671
   19TMC2    C8  305   4.280   3.171  13.839  0.2091 -0.0688  0.2599
   19TMC2    O1  306   4.568   2.672  13.975  0.3082 -0.0035  0.2723
   19TMC2    O2  307   4.169   3.122  13.841  0.7529  0.0408  0.4169
   19TMC2    O5  308   4.303   3.296  13.878 -0.3810  0.8706  0.5943
   19TMC2    H5  309   4.389   3.325  13.841  0.6090  0.0983  2.3206
   20MPD2     C  310   0.266   3.191  14.105 -0.3206 -1.2001  0.2781
   20MPD2    C1  311   0.197   3.080  14.145  0.4756 -0.3888 -0.5110
   20MPD2    C2  312   0.249   2.998  14.242 -0.6166  0.4257 -0.2795
   20MPD2    C3  313   0.367   3.033  14.308  0.5522 -0.6871  0.1407
   20MPD2    C4  314   0.430   3.151  14.275 -0.3712 -0.0587 -1.0517
   20MPD2    C5  315   0.386   3.226  14.171  0.6432 -0.6520 -0.7097
   20MPD2     H  316   0.185   2.923  14.287  0.4780 -1.4928 -1.9347
   20MPD2    H1  317   0.513   3.195  14.330 -1.3046  0.5649 -0.1170
   20MPD2    H2  318   0.229   3.262  14.032  0.5904 -0.7268  0.2794
   20MPD2    H3  319   0.449   3.309  14.142 -0.1333  0.1230 -0.1959
   20MPD2     N  320   0.430   2.957  14.412  0.3419  0.2232  0.2314
   20MPD2    H5  321   0.494   2.996  14.480 -1.4556 -0.6100  2.4373
   20MPD2    N1  322   0.072   3.049  14.091 -0.3794 -0.0003  0.0340
   20MPD2    H7  323   0.022   2.973  14.135  0.4990 -1.3242 -1.2514
   21TMC2    C1  324   2.283   2.884  14.272  0.1064  0.8337 -0.1052
   21TMC2    C2  325   2.304   2.757  14.241 -0.7355  0.0091 -0.2903
   21TMC2    C3  326   2.245   2.655  14.302 -0.1800 -0.4496  0.5406
   21TMC2    C4  327   2.191   2.911  14.372  0.7640  0.0665  0.1410
   21TMC2    C5  328   2.127   2.805  14.436 -0.0382  0.5113 -0.9339
   21TMC2    C6  329   2.154   2.672  14.401 -0.1060  0.2014 -0.5445
   21TMC2     C  330   2.367   2.992  14.237 -0.2056 -0.5467 -0.0545
   21TMC2     O  331   2.491   2.978  14.238 -0.2098  0.0722  0.1060
   21TMC2     H  332   2.383   2.743  14.168  0.5940  3.6052  0.4737
   21TMC2    H1  333   2.182   3.008  14.418  0.5901  0.1515 -0.0736
   21TMC2    H2  334   2.114   2.590  14.460  0.1782  0.7050  0.3402
   21TMC2    C7  335   2.096   2.839  14.574  0.0797  0.9907  0.2062
   21TMC2    C8  336   2.240   2.524  14.231 -0.6148 -0.1574 -0.0884
   21TMC2    O1  337   2.128   2.764  14.668  0.0507  0.1064 -0.0287
   21TMC2    O2  338   2.209   2.421  14.286 -0.4862 -0.1683 -0.2390
   21TMC2    O5  339   2.267   2.534  14.098  0.3440 -0.2456 -0.4344
   21TMC2    H5  340   2.259   2.621  14.054 -2.7919 -0.5447 -0.4809
   22MPD2     C  341   2.395   3.446  14.483  1.0017  0.0051  0.6491
   22MPD2    C1  342   2.494   3.357  14.456  0.0388 -0.5095 -0.4279
   22MPD2    C2  343   2.469   3.242  14.381 -0.2970 -0.4554 -0.5188
   22MPD2    C3  344   2.342   3.224  14.327 -0.2256 -0.4461 -0.1427
   22MPD2    C4  345   2.244   3.312  14.363 -0.4945  0.2553  0.3660
   22MPD2    C5  346   2.269   3.427  14.434  0.6615 -0.2236  0.7128
   22MPD2     H  347   2.555   3.177  14.366 -1.0022 -1.3095 -0.8409
   22MPD2    H1  348   2.143   3.284  14.337 -0.8909 -2.6781  5.0286
   22MPD2    H2  349   2.422   3.533  14.541  2.4034  0.9718 -1.4884
   22MPD2    H3  350   2.192   3.500  14.458  0.2806 -1.4314  3.2264
   22MPD2     N  351   2.300   3.112  14.256  0.8029 -0.6664  0.4131
   22MPD2    H5  352   2.199   3.116  14.264  0.9932  0.4710  2.1000
   22MPD2    N1  353   2.622   3.379  14.510 -0.2162 -0.2337  0.2946
   22MPD2    H7  354   2.695   3.316  14.478  0.1071  0.0352  0.5016
   23TMC2    C1  355   3.820   3.738  14.454 -0.1547 -0.3390  0.3273
   23TMC2    C2  356   3.841   3.786  14.326  0.1291  0.2869 -0.0786
   23TMC2    C3  357   3.740   3.754  14.229  0.2058 -0.4424  0.0089
   23TMC2    C4  358   3.716   3.651  14.488  0.0729  0.2905  1.0065
   23TMC2    C5  359   3.626   3.627  14.389  0.2977 -0.4287  0.1439
   23TMC2    C6  360   3.630   3.674  14.255  0.7232 -0.3108 -0.0681
   23TMC2     C  361   3.907   3.785  14.561  0.3378 -0.1058  0.2468
   23TMC2     O  362   3.900   3.717  14.666  0.7703 -0.2379  0.2939
   23TMC2     H  363   3.926   3.845  14.294 -0.7836  1.7066  0.1610
   23TMC2    H1  364   3.684   3.643  14.592 -0.5609  1.7447  0.9188
   23TMC2    H2  365   3.553   3.659  14.180 -2.3890 -0.4154  3.1580
   23TMC2    C7  366   3.491   3.583  14.429 -0.6675 -0.1101  0.5898
   23TMC2    C8  367   3.750   3.790  14.091  0.1990 -0.1752  0.0311
   23TMC2    O1  368   3.479   3.503  14.524 -0.2125 -0.1001 -0.2756
   23TMC2    O2  369   3.789   3.900  14.049  0.1577 -0.2963 -0.0636
   23TMC2    O5  370   3.713   3.682  14.022  0.0391  0.1107  0.1249
   23TMC2    H5  371   3.701   3.598  14.073 -0.8566  0.3275  0.2536
   24MPD2     C  372   4.172   4.157  14.790 -0.1744  0.1925 -0.0260
   24MPD2    C1  373   4.162   4.027  14.822 -0.1665  0.1740  0.3021
   24MPD2    C2  374   4.095   3.945  14.734  0.0963 -0.1847 -0.0132
   24MPD2    C3  375   4.043   3.991  14.615 -0.5104  0.6073 -0.5637
   24MPD2    C4  376   4.049   4.126  14.585  0.1289  0.0183  0.1030
   24MPD2    C5  377   4.110   4.209  14.672 -0.4591 -0.5538  0.2089
   24MPD2     H  378   4.079   3.840  14.755  0.4102 -0.9262 -3.5825
   24MPD2    H1  379   3.992   4.172  14.506  0.4640 -1.1270 -0.8136
   24MPD2    H2  380   4.208   4.230  14.862 -0.7311 -0.1143  0.5654
   24MPD2    H3  381   4.118   4.316  14.654  0.7186 -0.7330 -0.3249
   24MPD2     N  382   3.962   3.911  14.533  0.1967 -0.8833 -0.8228
   24MPD2    H5  383   3.935   3.948  14.442  1.7299  0.5253 -0.7050
   24MPD2    N1  384   4.217   3.974  14.941  0.1992 -0.1489  0.0833
   24MPD2    H7  385   4.198   3.876  14.963  2.1497 -0.1974  1.6230
   25TMC2    C1  386   3.110   1.474  11.724 -0.1000  0.6175 -0.4458
   25TMC2    C2  387   3.186   1.584  11.754 -0.0528 -0.4839 -1.1121
   25TMC2    C3  388   3.124   1.690  11.815 -0.4622 -0.2970 -0.4413
   25TMC2    C4  389   2.972   1.479  11.744 -0.6732 -0.7020  0.2288
   25TMC2    C5  390   2.914   1.586  11.808 -0.3984  0.2705 -0.0257
   25TMC2    C6  391   2.995   1.689  11.849  0.3820  0.8734 -0.3964
   25TMC2     C  392   3.185   1.352  11.688 -0.4628 -0.5935 -0.1800
   25TMC2     O  393   3.308   1.347  11.693 -0.5753  0.3623  0.4989
   25TMC2     H  394   3.295   1.583  11.747 -0.0850  0.4672 -1.8631
   25TMC2    H1  395   2.904   1.398  11.718  1.5268 -2.1215 -1.0431
   25TMC2    H2  396   2.953   1.783  11.885  0.4410 -0.0463  2.0036
   25TMC2    C7  397   2.771   1.583  11.847  0.1571 -0.4047  0.0359
   25TMC2    C8  398   3.209   1.798  11.862  0.2435  0.0720 -0.8728
   25TMC2    O1  399   2.736   1.656  11.939  0.0967 -0.4766  0.0719
   25TMC2    O2  400   3.185   1.847  11.970 -0.3978 -0.2035 -0.3638
   25TMC2    O5  401   3.232   1.869  11.741 -0.3406  0.4508 -0.4068
   25TMC2    H5  402   3.219   1.823  11.655 -0.4090 -1.3943  0.5910
   26MPD2     C  403   3.201   0.829  11.619  0.1548  0.0007 -0.0045
   26MPD2    C1  404   3.073   0.875  11.587 -0.0522 -0.1502 -0.1793
   26MPD2    C2  405   3.042   1.012  11.603  0.3242  0.6953 -0.4120
   26MPD2    C3  406   3.141   1.109  11.634 -0.7507 -0.0158  0.0265
   26MPD2    C4  407   3.272   1.061  11.656  0.2117  0.3943 -0.0837
   26MPD2    C5  408   3.294   0.923  11.659 -0.1072 -0.0145  0.2875
   26MPD2     H  409   2.940   1.045  11.590  0.0822  0.1654  0.1382
   26MPD2    H1  410   3.360   1.120  11.677 -0.1394  1.1845 -0.8355
   26MPD2    H2  411   3.228   0.726  11.598 -0.6096 -0.6809  2.3132
   26MPD2    H3  412   3.392   0.889  11.690  0.5316  0.1429 -1.5389
   26MPD2     N  413   3.103   1.245  11.644 -0.0455 -0.4240 -0.7373
   26MPD2    H5  414   3.005   1.261  11.626 -0.0699 -1.6883 -1.7033
   26MPD2    N1  415   2.984   0.775  11.546  0.3502  0.3508 -0.1386
   26MPD2    H7  416   3.023   0.683  11.530 -2.0357 -0.7221  0.1424
   27TMC2    C1  417   1.668   3.579  12.107  0.0684 -0.7594  0.3820
   27TMC2    C2  418   1.568   3.651  12.050  0.6476  0.7638  0.3886
   27TMC2    C3  419   1.600   3.769  11.985  0.4120  0.0447  0.1963
   27TMC2    C4  420   1.790   3.627  12.112  0.0571 -0.1510  0.5857
   27TMC2    C5  421   1.822   3.750  12.062 -0.2536 -0.2534  0.1704
   27TMC2    C6  422   1.725   3.824  11.999  0.4516  0.2869 -0.2114
   27TMC2     C  423   1.627   3.500  12.221 -0.6129 -0.5068 -0.5591
   27TMC2     O  424   1.707   3.424  12.264 -0.0906 -0.3648  0.9556
   27TMC2     H  425   1.467   3.613  12.063  0.0685  2.5960  1.1605
   27TMC2    H1  426   1.861   3.570  12.172  0.9940  1.9314  1.4601
   27TMC2    H2  427   1.764   3.902  11.935  0.6337  0.2716 -0.1200
   27TMC2    C7  428   1.883   3.825  12.169  0.9190  0.1620 -0.3450
   27TMC2    C8  429   1.487   3.858  12.001  0.3218 -0.3248  0.1400
   27TMC2    O1  430   1.940   3.768  12.263 -0.1030 -0.4319  0.3457
   27TMC2    O2  431   1.391   3.824  12.064  0.0497  0.3254  0.5904
   27TMC2    O5  432   1.523   3.989  11.982 -0.4570  0.5635 -0.2588
   27TMC2    H5  433   1.616   4.013  11.964 -0.5128  0.3248 -0.8838
   28MPD2     C  434   1.317   3.388  12.606 -0.1767 -0.0057  0.2628
   28MPD2    C1  435   1.259   3.496  12.552 -0.5310  0.1523  0.1168
   28MPD2    C2  436   1.329   3.546  12.442  0.0888 -0.4940 -0.1301
   28MPD2    C3  437   1.444   3.480  12.391  0.3441  0.4789 -0.1735
   28MPD2    C4  438   1.490   3.369  12.453 -0.2171 -0.0611  0.4858
   28MPD2    C5  439   1.426   3.316  12.559  0.2697 -0.0101  0.1591
   28MPD2     H  440   1.297   3.643  12.405  0.4227 -0.3180  0.0396
   28MPD2    H1  441   1.581   3.323  12.415 -0.5746 -1.0642  0.8363
   28MPD2    H2  442   1.275   3.348  12.697 -1.1919  0.3063 -0.0578
   28MPD2    H3  443   1.473   3.234  12.612 -0.4908 -1.8220 -1.9846
   28MPD2     N  444   1.509   3.545  12.285 -0.5405 -0.1591 -0.5889
   28MPD2    H5  445   1.462   3.630  12.255 -0.4330  0.3123  0.5547
   28MPD2    N1  446   1.153   3.554  12.622  0.0844 -0.0375  0.1267
   28MPD2    H7  447   1.119   3.501  12.702  2.2625 -0.7137  0.6089
   29TMC2    C1  448   1.187   1.646  14.633 -0.1606 -0.5970  0.3277
   29TMC2    C2  449   1.171   1.653  14.766  0.2806 -0.7076 -0.4205
   29TMC2    C3  450   1.198   1.769  14.829 -0.3224  0.1459  0.9654
   29TMC2    C4  451   1.201   1.761  14.558  0.0350 -0.5541 -0.3538
   29TMC2    C5  452   1.222   1.878  14.630  0.0335  0.2926 -0.5321
   29TMC2    C6  453   1.231   1.882  14.763 -0.0409 -0.3729  0.0579
   29TMC2     C  454   1.217   1.512  14.571  0.3991 -0.5545  0.1025
   29TMC2     O  455   1.185   1.418  14.644 -0.4192 -0.2640  0.4345
   29TMC2     H  456   1.154   1.560  14.819  0.8326 -0.6297 -0.1085
   29TMC2    H1  457   1.229   1.757  14.453  0.0365  1.4673 -0.4359
   29TMC2    H2  458   1.215   1.980  14.807  1.3246  0.8722 -2.2053
   29TMC2    C7  459   1.250   1.996  14.553 -0.3314 -0.6805  0.3379
   29TMC2    C8  460   1.198   1.762  14.975 -0.3807 -0.4250  0.7201
   29TMC2    O1  461   1.189   1.992  14.447 -0.2601 -0.1827  0.6242
   29TMC2    O2  462   1.140   1.672  15.036 -0.1527 -0.2602 -0.3635
   29TMC2    O5  463   1.312   1.820  15.018 -0.1100 -0.3554  0.4258
   29TMC2    H5  464   1.366   1.868  14.951  0.2762 -0.5961  0.5608
   30MPD2     C  465   1.293   1.214  14.162 -0.1620 -0.8041  0.3737
   30MPD2    C1  466   1.245   1.188  14.290  0.2157 -0.2162 -0.3147
   30MPD2    C2  467   1.257   1.284  14.388  0.2637 -0.1650 -0.2707
   30MPD2    C3  468   1.289   1.410  14.356  0.4689  0.5625  0.5450
   30MPD2    C4  469   1.340   1.438  14.229 -0.5714  0.2736  0.3781
   30MPD2    C5  470   1.344   1.340  14.133  0.0193  0.8649  0.3227
   30MPD2     H  471   1.246   1.262  14.494 -2.1014  0.4797 -0.3877
   30MPD2    H1  472   1.377   1.538  14.209  0.1503 -0.3107 -1.1920
   30MPD2    H2  473   1.311   1.134  14.091  1.2506  0.6935 -0.9483
   30MPD2    H3  474   1.392   1.355  14.037  1.0142 -0.1022  0.6687
   30MPD2     N  475   1.271   1.519  14.445  0.2810 -0.2529 -0.1907
   30MPD2    H5  476   1.281   1.612  14.406  0.6489 -0.6148 -0.9554
   30MPD2    N1  477   1.209   1.061  14.336 -0.4643 -0.1659  0.3382
   30MPD2    H7  478   1.196   1.051  14.436  3.9033 -0.4445  0.8980
   31TMC2    C1  479   3.213   0.366  15.095 -0.2171  0.4349 -0.6944
   31TMC2    C2  480   3.088   0.350  15.046 -0.1724  0.0836 -0.4400
   31TMC2    C3  481   2.991   0.315  15.134  0.1744  0.0711 -0.6765
   31TMC2    C4  482   3.248   0.349  15.227  0.4356 -0.2944 -0.0615
   31TMC2    C5  483   3.147   0.308  15.311 -0.0198  0.1510 -0.2474
   31TMC2    C6  484   3.019   0.293  15.266  0.5815  0.2944  0.3674
   31TMC2     C  485   3.315   0.398  15.000  0.0198  0.1140 -0.2038
   31TMC2     O  486   3.279   0.460  14.901  0.7439  0.1034  0.2269
   31TMC2     H  487   3.086   0.360  14.938 -1.3597  0.0106 -0.4253
   31TMC2    H1  488   3.342   0.378  15.271  0.1353 -0.4640  0.6886
   31TMC2    H2  489   2.943   0.240  15.323 -0.1288 -0.7172 -1.5274
   31TMC2    C7  490   3.188   0.289  15.451 -0.0809  0.3584 -0.0691
   31TMC2    C8  491   2.881   0.245  15.079  0.5621 -0.7611  0.1933
   31TMC2    O1  492   3.306   0.283  15.479 -0.3343 -0.7721 -0.3230
   31TMC2    O2  493   2.810   0.165  15.136 -0.2141  0.3672 -0.4485
   31TMC2    O5  494   2.827   0.337  15.002  0.3006 -0.1962  0.2204
   31TMC2    H5  495   2.905   0.394  14.989 -0.9956  1.5788  0.2258
   32MPD2     C  496   3.787   0.431  14.806  0.0730  0.0986 -0.8262
   32MPD2    C1  497   3.676   0.505  14.778 -0.2818 -0.0530  0.2142
   32MPD2    C2  498   3.564   0.487  14.858  0.1869  0.7058  0.3826
   32MPD2    C3  499   3.561   0.399  14.966  0.5696 -0.0372 -0.0396
   32MPD2    C4  500   3.676   0.334  14.995  0.2043 -0.2183  0.6123
   32MPD2    C5  501   3.784   0.349  14.907 -0.1905  0.3050  0.3579
   32MPD2     H  502   3.481   0.552  14.832 -1.8305 -1.6443  0.9319
   32MPD2    H1  503   3.686   0.256  15.070 -0.0930  0.1814  1.0694
   32MPD2    H2  504   3.875   0.433  14.744 -0.5717  1.1498 -1.7032
   32MPD2    H3  505   3.871   0.285  14.916 -0.7762 -0.3647  1.1863
   32MPD2     N  506   3.441   0.363  15.034  0.1055 -0.2428  0.6920
   32MPD2    H5  507   3.455   0.312  15.121  0.1676 -0.4301  0.5741
   32MPD2    N1  508   3.679   0.591  14.666  0.3488  0.2645  0.1891
   32MPD2    H7  509   3.764   0.592  14.611  0.5650 -0.9526  0.4993
   33TMC2    C1  510   3.967   2.951  10.221  0.5560 -0.2235 -0.1970
   33TMC2    C2  511   3.866   3.014  10.290 -0.0646 -0.0414 -0.8153
   33TMC2    C3  512   3.843   3.141  10.253 -0.5083  1.0896  0.2433
   33TMC2    C4  513   4.030   3.001  10.111  0.3200  0.5239 -0.3357
   33TMC2    C5  514   4.004   3.128  10.083 -0.6697  0.5902 -0.9554
   33TMC2    C6  515   3.902   3.201  10.147  0.1138 -0.8424  0.9742
   33TMC2     C  516   4.045   2.861  10.302 -0.3383  0.3502  0.3419
   33TMC2     O  517   4.002   2.799  10.400 -0.5424  0.3284  0.2626
   33TMC2     H  518   3.835   2.965  10.381 -0.9441  2.5044  0.2634
   33TMC2    H1  519   4.074   2.936  10.036 -0.1380  2.2586 -2.1149
   33TMC2    H2  520   3.896   3.309  10.137 -2.0530 -0.9612  1.0812
   33TMC2    C7  521   4.066   3.169   9.963 -0.3224 -0.2023  0.1077
   33TMC2    C8  522   3.711   3.191  10.281 -0.7332 -0.2059  0.2286
   33TMC2    O1  523   4.159   3.110   9.908 -0.2559  0.1304 -0.5340
   33TMC2    O2  524   3.667   3.290  10.226  0.2654  0.2896 -0.2817
   33TMC2    O5  525   3.633   3.080  10.301 -0.8405 -0.0424  0.2961
   33TMC2    H5  526   3.664   3.032  10.381 -0.6781 -0.6629 -0.1469
   34MPD2     C  527   4.522   2.696  10.430  0.1420  0.4406 -0.8920
   34MPD2    C1  528   4.397   2.680  10.493  0.2600  0.4916 -0.9578
   34MPD2    C2  529   4.280   2.730  10.433  0.3360 -0.6014 -0.8968
   34MPD2    C3  530   4.282   2.813  10.323 -0.1985 -0.0323 -0.1451
   34MPD2    C4  531   4.403   2.834  10.270 -0.0334  1.1102  0.2429
   34MPD2    C5  532   4.517   2.783  10.326  0.0070 -0.5007 -0.8377
   34MPD2     H  533   4.192   2.688  10.481  1.0117  0.8557  1.6576
   34MPD2    H1  534   4.422   2.886  10.177  2.2426 -1.2457 -0.6044
   34MPD2    H2  535   4.615   2.649  10.460  0.0435  1.1981  0.6033
   34MPD2    H3  536   4.616   2.790  10.281 -0.1192 -0.0546 -1.0453
   34MPD2     N  537   4.170   2.863  10.259 -0.9063 -0.3205 -0.2777
   34MPD2    H5  538   4.198   2.918  10.179 -0.1273  1.6681  1.3572
   34MPD2    N1  539   4.387   2.603  10.606  0.1314  0.1284  0.0666
   34MPD2    H7  540   4.464   2.541  10.627 -0.3509 -1.6395 -3.2717
   35TMC2    C1  541   4.590   4.139  11.699 -1.1615 -0.4454  0.5457
   35TMC2    C2  542   4.605   4.214  11.589 -0.7467 -0.3523 -0.2734
   35TMC2    C3  543   4.559   4.157  11.476 -0.8058 -0.4064  0.7593
   35TMC2    C4  544   4.550   4.009  11.710  0.3728  0.2563  0.4295
   35TMC2    C5  545   4.508   3.958  11.589  0.8099 -0.1741 -0.1832
   35TMC2    C6  546   4.512   4.033  11.473  0.3027  0.0495 -0.2437
   35TMC2     C  547   4.644   4.189  11.817  0.8784  0.1147  0.5131
   35TMC2     O  548   4.622   4.305  11.844 -0.1759 -0.1198  0.2894
   35TMC2     H  549   4.640   4.316  11.601  0.6320 -0.6584 -1.7919
   35TMC2    H1  550   4.549   3.955  11.804  3.0556 -1.3570 -0.4747
   35TMC2    H2  551   4.480   3.981  11.384  1.0072 -2.0618  0.7372
   35TMC2    C7  552   4.425   3.838  11.594  0.1438  0.7208  0.1710
   35TMC2    C8  553   4.618   4.209  11.352 -0.9574 -0.5898 -0.2378
   35TMC2    O1  554   4.466   3.753  11.670  1.0132  0.0238 -0.3539
   35TMC2    O2  555   4.661   4.128  11.269 -0.2758 -0.2439  0.3805
   35TMC2    O5  556   4.556   4.325  11.327  0.3729  0.1293  0.1215
   35TMC2    H5  557   4.493   4.350  11.398  1.1943 -0.6978  1.1405
   36MPD2     C  558   0.287   4.200  12.140 -1.0903 -0.5617  0.7875
   36MPD2    C1  559   0.284   4.070  12.089  0.0137  0.2832  0.4428
   36MPD2    C2  560   0.171   4.033  12.016 -0.3641  0.3145  0.0169
   36MPD2    C3  561   0.076   4.131  11.985 -0.4535  0.0567 -0.6861
   36MPD2    C4  562   0.081   4.254  12.048 -0.2847  0.4527 -0.3550
   36MPD2    C5  563   0.189   4.292  12.127 -0.3254 -0.0369  0.2476
   36MPD2     H  564   0.167   3.937  11.966 -0.6999 -0.3855  1.3830
   36MPD2    H1  565   0.013   4.335  12.025  0.2289  1.2260  0.8845
   36MPD2    H2  566   0.381   4.235  12.182 -1.2286  0.6146  0.1166
   36MPD2    H3  567   0.189   4.391  12.170 -0.1233 -0.0158  0.2000
   36MPD2     N  568   4.728   4.097  11.876 -0.1568 -0.1656  0.3046
   36MPD2    H5  569   4.724   4.002  11.842 -0.1782  0.0062 -0.1705
   36MPD2    N1  570   0.395   3.991  12.100  0.3971  0.8480 -0.7313
   36MPD2    H7  571   0.478   4.028  12.145 -0.2059  1.4664 -0.1420
   37TMC2    C1  572   2.564   3.931  11.899 -0.0634 -0.4890 -0.2413
   37TMC2    C2  573   2.453   3.907  11.825  0.6669 -0.0591  0.3303
   37TMC2    C3  574   2.439   3.964  11.700 -0.0383  0.0140  0.0612
   37TMC2    C4  575   2.668   4.004  11.854 -0.0086 -0.0496  0.5150
   37TMC2    C5  576   2.657   4.044  11.729  0.5207  0.2093  0.2029
   37TMC2    C6  577   2.545   4.031  11.648 -0.9163  0.2662 -0.1884
   37TMC2     C  578   2.541   3.910  12.045 -0.0628 -0.0716  0.0509
   37TMC2     O  579   2.426   3.891  12.076 -0.7742  0.0422  0.3250
   37TMC2     H  580   2.377   3.841  11.864 -0.5837  0.9406 -0.4125
   37TMC2    H1  581   2.765   4.012  11.903  0.2572 -0.5328  0.0608
   37TMC2    H2  582   2.550   4.059  11.543  0.3689 -2.0514 -0.7478
   37TMC2    C7  583   2.784   4.093  11.666  0.6548  0.7711 -0.2420
   37TMC2    C8  584   2.333   3.920  11.606 -0.0644 -0.0313  0.2315
   37TMC2    O1  585   2.885   4.033  11.704  0.8725  0.1796  0.1739
   37TMC2    O2  586   2.283   3.997  11.519  0.2735 -0.0180 -0.2424
   37TMC2    O5  587   2.334   3.789  11.602 -0.0512  0.0932 -0.4214
   37TMC2    H5  588   2.414   3.749  11.644 -1.9011 -0.0445  2.9275
   38MPD2     C  589   2.698   3.923  12.546 -0.3422 -0.3237  0.0683
   38MPD2    C1  590   2.814   3.931  12.464  0.4164 -0.3162  0.3795
   38MPD2    C2  591   2.797   3.929  12.321  0.2097  0.1728  0.4019
   38MPD2    C3  592   2.671   3.914  12.261  0.3305  0.9435 -0.2086
   38MPD2    C4  593   2.564   3.903  12.347  0.1335  0.4273  0.4563
   38MPD2    C5  594   2.576   3.916  12.486  0.4219  0.0788 -0.3498
   38MPD2     H  595   2.882   3.945  12.257 -1.1158  1.2518 -1.0839
   38MPD2    H1  596   2.460   3.900  12.317  0.2862 -2.1212  0.1787
   38MPD2    H2  597   2.717   3.912  12.652  0.7580  2.6861  0.1865
   38MPD2    H3  598   2.482   3.913  12.540  0.4333 -0.1003 -0.3375
   38MPD2     N  599   2.661   3.927  12.118  0.9943  0.1513  0.0014
   38MPD2    H5  600   2.755   3.937  12.080  0.7172  0.7603 -0.5213
   38MPD2    N1  601   2.945   3.955  12.505  0.2276 -0.1565  0.0663
   38MPD2    H7  602   3.005   3.969  12.424  1.2265 -0.7868  0.6904
   39TMC2    C1  603   0.770   1.246   1.764 -0.1746 -0.0945  0.5963
   39TMC2    C2  604   0.885   1.185   1.804 -0.0651 -0.0186  0.4104
   39TMC2    C3  605   0.978   1.259   1.865 -0.3035 -0.2220  0.3719
   39TMC2    C4  606   0.750   1.381   1.765  0.6888 -0.1392 -0.4653
   39TMC2    C5  607   0.854   1.457   1.818  0.3372 -1.0898  0.1169
   39TMC2    C6  608   0.964   1.397   1.869  0.1580 -0.2272 -0.2305
   39TMC2     C  609   0.664   1.187   1.684  0.2394 -0.7733 -0.2428
   39TMC2     O  610   0.552   1.233   1.690  0.7256  0.1642 -0.1726
   39TMC2     H  611   0.887   1.077   1.795 -2.4189 -0.1700  1.5262
   39TMC2    H1  612   0.656   1.426   1.738 -0.3005 -1.4056  0.8535
   39TMC2    H2  613   1.036   1.451   1.929  0.1900  0.7001 -1.1045
   39TMC2    C7  614   0.827   1.593   1.869 -0.5891 -0.4789 -0.7619
   39TMC2    C8  615   1.119   1.224   1.854  0.3322  0.1927 -0.3646
   39TMC2    O1  616   0.713   1.623   1.896 -0.2424  0.3264  0.2385
   39TMC2    O2  617   1.218   1.300   1.860 -0.0605  0.1838 -0.2577
   39TMC2    O5  618   1.135   1.092   1.851 -0.2411  0.2161  0.3069
   39TMC2    H5  619   1.066   1.032   1.887 -0.5746  1.0870  1.1255
   40MPD2     C  620   0.698   0.940   1.408 -0.2376 -0.7012  0.3187
   40MPD2    C1  621   0.634   1.022   1.499 -0.5391 -0.4321  0.3281
   40MPD2    C2  622   0.495   1.035   1.483  0.1623  0.4592  0.1580
   40MPD2    C3  623   0.431   0.975   1.373  0.5923  0.0006  0.1212
   40MPD2    C4  624   0.503   0.893   1.285 -0.7528  1.3268  0.0227
   40MPD2    C5  625   0.636   0.887   1.301 -0.7384 -0.0272  0.5947
   40MPD2     H  626   0.443   1.082   1.565  0.0252 -0.8532  0.8388
   40MPD2    H1  627   0.452   0.871   1.191 -0.4032 -2.0884  0.6176
   40MPD2    H2  628   0.805   0.927   1.414 -0.2575 -0.6443  0.8434
   40MPD2    H3  629   0.702   0.824   1.243  0.0611  1.1979  0.1774
   40MPD2     N  630   0.296   0.992   1.337  0.1469  0.3992 -0.2932
   40MPD2    H5  631   0.272   0.947   1.249  1.2683 -0.9864  0.1119
   40MPD2    N1  632   0.710   1.084   1.602 -0.3568  0.5153 -0.4750
   40MPD2    H7  633   0.807   1.053   1.599 -0.5564 -0.0465 -1.0625
   41TMC2    C1  634   4.100   4.320  13.195 -0.1595  0.1389  0.5621
   41TMC2    C2  635   3.996   4.403  13.181 -0.9184 -0.3215  0.3404
   41TMC2    C3  636   4.019   4.530  13.144 -0.1803  0.0909 -0.5544
   41TMC2    C4  637   4.233   4.361  13.179  0.2028  1.2132  0.4293
   41TMC2    C5  638   4.254   4.495  13.143 -0.4413 -0.0848  0.1898
   41TMC2    C6  639   4.146   4.578  13.126 -1.2049  0.5415  0.1118
   41TMC2     C  640   4.075   4.183  13.252  0.0217  0.6810 -0.3088
   41TMC2     O  641   3.987   4.124  13.193 -0.0059  0.4199  0.4815
   41TMC2     H  642   3.894   4.368  13.195 -1.2190 -0.3979 -2.1131
   41TMC2    H1  643   4.308   4.283  13.180 -0.0015  1.0256  1.3328
   41TMC2    H2  644   4.160   4.680  13.094 -2.3748 -0.4017 -3.3148
   41TMC2    C7  645   4.388   4.536  13.107 -0.2983 -0.1608  0.7177
   41TMC2    C8  646   3.906   4.614  13.123 -0.4596  0.2101  0.2239
   41TMC2    O1  647   4.462   4.439  13.111 -0.7975 -0.3208  0.4590
   41TMC2    O2  648   3.921   4.719  13.066  0.0852 -0.2014 -0.0008
   41TMC2    O5  649   3.800   4.587  13.209  0.1434 -0.4378 -0.0554
   41TMC2    H5  650   3.810   4.513  13.272 -2.1750  0.4037  1.3400
   42MPD2     C  651   4.098   3.929  13.405  0.5739  0.4011  0.0965
   42MPD2    C1  652   4.165   4.044  13.438 -0.0370 -0.5006 -0.5931
   42MPD2    C2  653   4.245   4.036  13.552  0.3801 -0.5860 -0.2828
   42MPD2    C3  654   4.270   3.924  13.631  0.0044  0.2037  0.3090
   42MPD2    C4  655   4.194   3.816  13.596  0.3146  0.2502 -0.4355
   42MPD2    C5  656   4.118   3.818  13.484  0.1334 -0.6136  0.5543
   42MPD2     H  657   4.300   4.127  13.574  0.5123 -0.3852 -1.4712
   42MPD2    H1  658   4.191   3.723  13.651 -0.8463  2.2439  2.8736
   42MPD2    H2  659   4.042   3.914  13.313 -0.7802  3.6596  0.3872
   42MPD2    H3  660   4.071   3.726  13.453 -2.4683  0.4147  1.4742
   42MPD2     N  661   4.351   3.931  13.746  0.4779  0.3615  0.3810
   42MPD2    H5  662   4.411   4.011  13.760  1.1998 -0.0967 -0.1418
   42MPD2    N1  663   4.154   4.160  13.361 -0.2016  0.2970 -0.2697
   42MPD2    H7  664   4.208   4.239  13.396  0.4521 -0.8358  1.2492
   43TMC2    C1  665   0.880   2.205   1.243  0.2634 -0.6931 -0.2103
   43TMC2    C2  666   0.965   2.144   1.335  0.5112 -0.2842 -0.4950
   43TMC2    C3  667   0.989   2.213   1.450  0.5853 -0.3694 -0.3668
   43TMC2    C4  668   0.812   2.326   1.267 -0.5048  0.2302  0.0638
   43TMC2    C5  669   0.856   2.393   1.373  0.0613  0.2776  0.2021
   43TMC2    C6  670   0.951   2.342   1.470 -0.5471 -0.2033  0.2206
   43TMC2     C  671   0.907   2.163   1.107 -0.5664 -0.9151 -0.3204
   43TMC2     O  672   0.994   2.078   1.082  0.1354 -0.0525 -0.1417
   43TMC2     H  673   1.019   2.058   1.299 -1.4380 -1.2818 -1.0358
   43TMC2    H1  674   0.754   2.382   1.194 -1.2791 -2.1995 -1.1806
   43TMC2    H2  675   0.979   2.396   1.560 -0.8304 -0.5006  0.4848
   43TMC2    C7  676   0.811   2.539   1.369  0.1763  0.1265 -0.5011
   43TMC2    C8  677   1.096   2.162   1.524  0.3916  0.7748 -0.1530
   43TMC2    O1  678   0.765   2.588   1.266  0.5577  0.1080  0.2589
   43TMC2    O2  679   1.200   2.130   1.467 -0.8689  0.4397  0.1370
   43TMC2    O5  680   1.088   2.217   1.647  0.1244  0.1253 -0.3084
   43TMC2    H5  681   0.994   2.220   1.674  0.4750 -1.2823  1.0777
   44MPD2     C  682   0.813   2.209   0.599  0.3193  0.1123 -0.1792
   44MPD2    C1  683   0.915   2.147   0.669 -0.0713 -0.8588  0.1943
   44MPD2    C2  684   0.925   2.154   0.812 -0.1572 -0.2471  0.2864
   44MPD2    C3  685   0.818   2.212   0.884  0.0186 -0.3296 -0.3696
   44MPD2    C4  686   0.711   2.270   0.818  0.1554  0.7738  0.5579
   44MPD2    C5  687   0.713   2.272   0.681  0.6503  0.3362  0.1488
   44MPD2     H  688   1.013   2.112   0.860 -0.3172 -0.5418  0.3197
   44MPD2    H1  689   0.636   2.323   0.875 -1.5779 -1.2902  0.2196
   44MPD2    H2  690   0.797   2.207   0.492  0.9498 -1.9562 -0.2336
   44MPD2    H3  691   0.628   2.317   0.632  0.8562  0.8352  0.2525
   44MPD2     N  692   0.814   2.223   1.024 -0.6442  0.4714 -0.1069
   44MPD2    H5  693   0.729   2.263   1.062  0.0491 -0.9978  2.9348
   44MPD2    N1  694   1.028   2.086   0.603  0.6347  0.3498  0.4263
   44MPD2    H7  695   1.105   2.047   0.656  1.3899 -0.0391 -0.9535
   45TMC2    C1  696   2.259   3.870  10.365  0.9953  0.0855  0.7544
   45TMC2    C2  697   2.196   3.896  10.486  0.2568  0.1528 -0.0314
   45TMC2    C3  698   2.240   3.991  10.575 -0.4945  0.0376 -0.5381
   45TMC2    C4  699   2.356   3.955  10.330  0.1891  0.1689 -0.2870
   45TMC2    C5  700   2.408   4.047  10.421  0.2557  0.8551  0.1490
   45TMC2    C6  701   2.356   4.058  10.548 -0.2451  0.5512  0.5683
   45TMC2     C  702   2.185   3.788  10.276  0.5182 -0.1368 -0.4585
   45TMC2     O  703   2.131   3.695  10.331  0.5394 -0.0877 -0.5608
   45TMC2     H  704   2.101   3.847  10.504  0.0412  0.8997  0.8711
   45TMC2    H1  705   2.401   3.932  10.234  0.5676 -0.9716  0.1557
   45TMC2    H2  706   2.397   4.125  10.623  1.4659  1.2900 -1.0192
   45TMC2    C7  707   2.523   4.125  10.387  0.1758 -0.5450  0.0640
   45TMC2    C8  708   2.144   4.035  10.671 -0.5453 -1.0623 -0.2838
   45TMC2    O1  709   2.571   4.189  10.479  0.3230 -0.2362  0.1542
   45TMC2    O2  710   2.187   4.100  10.765  0.2073  0.4734 -0.4165
   45TMC2    O5  711   2.038   4.063  10.593 -0.0852  0.1096  0.3225
   45TMC2    H5  712   2.048   4.036  10.499  1.4711  0.9455  0.2429
   46MPD2     C  713   2.023   3.647  10.065  0.0762  0.3708 -0.2042
   46MPD2    C1  714   2.089   3.770  10.053 -0.0078 -0.0449  0.2342
   46MPD2    C2  715   2.052   3.844   9.939 -0.3162 -0.2219 -0.7268
   46MPD2    C3  716   1.970   3.795   9.836 -0.0552 -0.5283 -0.6351
   46MPD2    C4  717   1.914   3.675   9.853  0.4069  0.0270 -0.3009
   46MPD2    C5  718   1.933   3.604   9.969  0.3156 -0.0130  0.1278
   46MPD2     H  719   2.095   3.944   9.934 -1.6183  0.3497 -0.3889
   46MPD2    H1  720   1.855   3.624   9.779 -1.2043 -0.1479  1.1151
   46MPD2    H2  721   2.029   3.582  10.152 -0.7099  0.5510 -0.0217
   46MPD2    H3  722   1.880   3.511   9.986 -3.4801  1.6140 -2.7707
   46MPD2     N  723   1.945   3.873   9.723  0.1297  0.3071  0.5268
   46MPD2    H5  724   2.013   3.945   9.701  1.2713 -0.9799 -0.1754
   46MPD2    N1  725   2.172   3.835  10.148  0.2743  0.0698  0.0777
   46MPD2    H7  726   2.215   3.924  10.123  2.2470 -0.3722  1.8280
   47TMC2    C1  727   3.625   0.392   9.208  0.2839  0.7291 -0.1907
   47TMC2    C2  728   3.617   0.278   9.285 -0.0173  0.6671  0.0201
   47TMC2    C3  729   3.503   0.265   9.355 -0.6295  0.1960  0.0560
   47TMC2    C4  730   3.524   0.483   9.194  0.9268  0.2581 -0.0950
   47TMC2    C5  731   3.420   0.468   9.274 -0.2127 -0.0625  0.1938
   47TMC2    C6  732   3.404   0.358   9.349 -0.3303 -0.3035 -0.1574
   47TMC2     C  733   3.756   0.444   9.175  0.7884  0.2016  0.4061
   47TMC2     O  734   3.766   0.563   9.151 -0.1214  0.5051 -0.7292
   47TMC2     H  735   3.699   0.215   9.317 -0.1360  0.6079  0.2087
   47TMC2    H1  736   3.534   0.566   9.125  1.9625 -1.1842 -1.6737
   47TMC2    H2  737   3.324   0.360   9.422 -2.0523 -2.2085 -1.9741
   47TMC2    C7  738   3.315   0.572   9.286  0.7978 -0.5645  0.9512
   47TMC2    C8  739   3.494   0.152   9.440  0.5577 -0.5227  0.1438
   47TMC2    O1  740   3.206   0.535   9.322  0.4935  0.0869  0.3288
   47TMC2    O2  741   3.588   0.078   9.470 -0.2079 -1.1695 -0.2298
   47TMC2    O5  742   3.367   0.104   9.418  0.1666 -0.4441 -0.8846
   47TMC2    H5  743   3.315   0.160   9.357 -2.1957 -0.2414  1.3025
   48MPD2     C  744   4.041   0.520   9.158  0.2173  0.0125  0.4892
   48MPD2    C1  745   3.994   0.386   9.143 -0.4495  0.3457 -0.1087
   48MPD2    C2  746   4.080   0.281   9.124 -0.4624  0.1932  0.4974
   48MPD2    C3  747   4.212   0.304   9.105  1.1747 -0.5710  0.0214
   48MPD2    C4  748   4.264   0.434   9.107  0.0796 -0.0374  0.4972
   48MPD2    C5  749   4.175   0.533   9.137  0.1596  0.8596 -1.1451
   48MPD2     H  750   4.043   0.180   9.135  2.2151 -0.5572  2.4753
   48MPD2    H1  751   4.369   0.460   9.102 -0.0445  0.4493  0.4403
   48MPD2    H2  752   3.983   0.602   9.197 -0.1978 -0.2313  0.3840
   48MPD2    H3  753   4.208   0.634   9.156 -0.8595  1.0730 -0.4677
   48MPD2     N  754   4.298   0.196   9.108  0.2815 -0.8173  0.4701
   48MPD2    H5  755   4.252   0.107   9.122 -1.0732 -0.5426 -2.0621
   48MPD2    N1  756   3.858   0.348   9.167  0.7725  0.0292  0.0436
   48MPD2    H7  757   3.821   0.254   9.172 -0.4855  0.5003 -0.5042
   49TMC2    C1  758   2.592   2.032  10.657  0.0842 -0.6198  1.2783
   49TMC2    C2  759   2.462   1.993  10.637  0.6657  0.4782 -0.0024
   49TMC2    C3  760   2.421   2.005  10.508  0.2461  0.6145  0.0584
   49TMC2    C4  761   2.679   2.059  10.557  0.0475  0.1654  0.0233
   49TMC2    C5  762   2.629   2.071  10.427 -0.4327  0.2886  1.3187
   49TMC2    C6  763   2.498   2.042  10.404 -0.0589  0.0842  0.3179
   49TMC2     C  764   2.646   2.027  10.799 -0.1253  0.4196 -0.0402
   49TMC2     O  765   2.771   2.012  10.806  0.2457 -0.1354  0.1651
   49TMC2     H  766   2.396   1.947  10.709  1.2995  2.0584  1.5762
   49TMC2    H1  767   2.780   2.097  10.566  0.7902 -1.2888 -2.2588
   49TMC2    H2  768   2.459   2.036  10.303  1.3272 -0.8987 -0.1655
   49TMC2    C7  769   2.709   2.108  10.311  0.4099 -0.1681 -0.4004
   49TMC2    C8  770   2.327   1.908  10.471 -0.4191  0.3196 -0.0825
   49TMC2    O1  771   2.644   2.134  10.210  0.3580 -0.1134 -0.2539
   49TMC2    O2  772   2.261   1.916  10.368  0.1323 -0.4293 -0.1679
   49TMC2    O5  773   2.361   1.788  10.528 -0.3829 -0.2411 -0.5126
   49TMC2    H5  774   2.418   1.796  10.606 -0.3138 -0.8636 -0.5006
   50MPD2     C  775   2.701   1.929  11.072  0.0835  0.0281  0.3328
   50MPD2    C1  776   2.590   2.006  11.033 -0.7678 -0.7770 -0.2410
   50MPD2    C2  777   2.508   2.067  11.129 -0.9317  0.4882  0.0585
   50MPD2    C3  778   2.537   2.057  11.260  0.1585  0.3774  0.0573
   50MPD2    C4  779   2.653   1.995  11.296 -0.3651  0.5505  0.7355
   50MPD2    C5  780   2.729   1.929  11.207  0.0008 -0.2797 -0.7057
   50MPD2     H  781   2.432   2.140  11.103 -2.1048 -0.5320  0.6384
   50MPD2    H1  782   2.678   1.988  11.401 -1.0291  0.5472  0.8915
   50MPD2    H2  783   2.762   1.874  11.002 -0.4920  0.3680 -0.4408
   50MPD2    H3  784   2.810   1.869  11.246 -0.1571 -0.0896 -0.0967
   50MPD2     N  785   2.468   2.131  11.366 -0.7900 -0.1464 -0.0758
   50MPD2    H5  786   2.516   2.131  11.456 -1.9429  0.9528  0.5441
   50MPD2    N1  787   2.548   2.022  10.902  0.6839  0.3070  0.3399
   50MPD2    H7  788   2.454   2.057  10.882  1.3651  1.3694 -0.9520
   51TMC2    C1  789   2.268   1.013   1.038  0.2181  0.2234 -0.1253
   51TMC2    C2  790   2.130   1.030   1.024  0.4443  0.8162  0.0998
   51TMC2    C3  791   2.090   1.126   0.927 -0.1121  0.0753  0.4992
   51TMC2    C4  792   2.353   1.085   0.963  0.1289 -0.1461  0.3327
   51TMC2    C5  793   2.305   1.170   0.862  0.0559  0.0038 -0.5840
   51TMC2    C6  794   2.172   1.189   0.843 -0.7693  0.4720  0.2786
   51TMC2     C  795   2.322   0.916   1.134 -0.3068 -0.1090 -0.1471
   51TMC2     O  796   2.437   0.880   1.112  0.1847  0.5410  0.0634
   51TMC2     H  797   2.061   0.952   1.055 -0.5590  1.5193 -0.3602
   51TMC2    H1  798   2.461   1.080   0.974  0.3060  0.4688 -1.0108
   51TMC2    H2  799   2.127   1.263   0.778  0.2520  0.0968 -0.8599
   51TMC2    C7  800   2.401   1.271   0.816 -0.0128 -0.2106  0.4023
   51TMC2    C8  801   1.950   1.172   0.931  0.2820  0.1096 -0.4331
   51TMC2    O1  802   2.487   1.307   0.896 -0.6715  0.0484  0.5339
   51TMC2    O2  803   1.897   1.232   0.838 -0.1630  0.1249  0.3211
   51TMC2    O5  804   1.935   1.201   1.056  0.3857  0.7420 -0.0611
   51TMC2    H5  805   1.998   1.165   1.121 -0.1022 -1.2776 -0.7027
   52MPD2     C  806   2.271   0.552   1.482 -0.0509  0.1681  0.2445
   52MPD2    C1  807   2.384   0.604   1.425  0.7074  0.5155 -0.2027
   52MPD2    C2  808   2.372   0.713   1.333 -0.0245  0.3276  0.1572
   52MPD2    C3  809   2.248   0.779   1.323  0.6576 -0.4967  0.4873
   52MPD2    C4  810   2.145   0.733   1.399 -0.5324 -0.2410 -0.1343
   52MPD2    C5  811   2.155   0.623   1.476  0.3302  0.5554  1.2467
   52MPD2     H  812   2.461   0.738   1.277  0.6786  0.8598  1.5181
   52MPD2    H1  813   2.044   0.769   1.381 -0.3531  0.9426  1.1866
   52MPD2    H2  814   2.279   0.478   1.560 -0.2104 -0.6013 -0.4746
   52MPD2    H3  815   2.062   0.590   1.521 -0.5086 -3.9659 -3.8540
   52MPD2     N  816   2.234   0.888   1.231 -0.2745  0.1758  0.3582
   52MPD2    H5  817   2.145   0.937   1.234 -0.2647  0.2130 -0.0427
   52MPD2    N1  818   2.511   0.545   1.446  0.3368  0.2826  0.1865
   52MPD2    H7  819   2.585   0.593   1.396 -1.0742 -0.5340 -2.6677
   53TMC2    C1  820   3.400   4.001  11.297  0.1682 -0.6692 -0.1475
   53TMC2    C2  821   3.515   4.075  11.286 -0.3246 -0.0855  1.4097
   53TMC2    C3  822   3.597   4.059  11.400 -0.1893 -0.7040 -0.5512
   53TMC2    C4  823   3.368   3.930  11.405  0.8199 -0.0168 -0.0416
   53TMC2    C5  824   3.441   3.931  11.523  1.1626 -0.9568 -0.2193
   53TMC2    C6  825   3.564   4.001  11.517 -0.0609  1.2304  0.8117
   53TMC2     C  826   3.296   4.089  11.252  1.1762 -0.0747 -0.4056
   53TMC2     O  827   3.322   4.169  11.164 -0.2688  0.1802 -0.3353
   53TMC2     H  828   3.542   4.136  11.200  2.0944 -2.4049  0.5083
   53TMC2    H1  829   3.282   3.865  11.397 -1.7601  3.3078  0.4105
   53TMC2    H2  830   3.631   3.997  11.602 -0.6139  1.1649  1.2463
   53TMC2    C7  831   3.357   3.938  11.640 -0.2118 -0.3549  0.9324
   53TMC2    C8  832   3.734   4.120  11.395 -0.9516 -0.2712 -0.5102
   53TMC2    O1  833   3.235   3.943  11.608 -0.0262 -0.2601  0.3606
   53TMC2    O2  834   3.764   4.207  11.315  0.7542 -0.1588 -0.0273
   53TMC2    O5  835   3.822   4.028  11.436  0.2262 -0.1086  0.0363
   53TMC2    H5  836   3.777   3.962  11.493  0.5661 -1.4748 -1.2777
   54MPD2     C  837   3.064   4.295  11.274 -0.3057 -0.1417 -0.1173
   54MPD2    C1  838   3.090   4.192  11.361 -0.3667  0.0993 -0.1447
   54MPD2    C2  839   3.004   4.160  11.459  0.4005  0.6398 -0.5685
   54MPD2    C3  840   2.877   4.229  11.476 -0.1017 -0.5654 -0.2720
   54MPD2    C4  841   2.866   4.343  11.404 -0.7203 -0.1319  0.0530
   54MPD2    C5  842   2.954   4.377  11.305 -0.4443  0.0194  0.0069
   54MPD2     H  843   3.026   4.076  11.524  1.6602  1.0977 -0.4078
   54MPD2    H1  844   2.776   4.404  11.401 -0.0883  0.8638  1.0197
   54MPD2    H2  845   3.125   4.321  11.188 -0.4537  0.1959 -0.1196
   54MPD2    H3  846   2.927   4.462  11.244 -0.1344 -0.1237 -0.3317
   54MPD2     N  847   2.775   4.193  11.570  0.4620  0.0577  0.3844
   54MPD2    H5  848   2.690   4.245  11.556 -0.8071 -1.6789  1.6589
   54MPD2    N1  849   3.194   4.099  11.347  0.5223 -0.0886  0.4066
   54MPD2    H7  850   3.200   4.033  11.424  1.6675  0.0827  0.4651
   55TMC2    C1  851   4.047   2.921   0.944 -0.1615  1.2996 -0.1088
   55TMC2    C2  852   4.170   2.989   0.941 -0.0510 -0.0784  0.5217
   55TMC2    C3  853   4.272   2.925   1.006 -0.2479 -0.8551  0.2679
   55TMC2    C4  854   4.021   2.803   1.009 -0.2331  0.0977 -0.2971
   55TMC2    C5  855   4.127   2.755   1.076  0.1210 -0.3981  0.0324
   55TMC2    C6  856   4.252   2.808   1.078 -0.3997  0.4003  0.0486
   55TMC2     C  857   3.938   2.972   0.858 -0.1234  0.5419 -0.4130
   55TMC2     O  858   3.820   2.941   0.886  0.1194  0.7039  0.7184
   55TMC2     H  859   4.175   3.085   0.892 -0.9701 -0.9797 -1.3476
   55TMC2    H1  860   3.927   2.753   0.989  0.4596 -0.0535 -3.0524
   55TMC2    H2  861   4.334   2.756   1.127 -1.2964 -1.9357 -0.9442
   55TMC2    C7  862   4.118   2.623   1.113 -0.6991  0.2674 -0.3918
   55TMC2    C8  863   4.404   2.955   0.977 -0.3359 -0.3915 -0.4866
   55TMC2    O1  864   4.220   2.554   1.108 -0.0459 -0.5796  0.5169
   55TMC2    O2  865   4.494   2.909   1.043 -0.6395 -0.2262  0.1752
   55TMC2    O5  866   4.403   2.979   0.842  0.0263  0.5002  0.0907
   55TMC2    H5  867   4.314   2.974   0.801  0.4982 -0.3421 -0.8402
   56MPD2     C  868   3.947   3.150   0.533 -0.1037 -0.4814  0.5418
   56MPD2    C1  869   3.894   3.112   0.657  0.0138 -0.1147  0.9209
   56MPD2    C2  870   3.761   3.137   0.677  0.2248 -0.2132  0.1409
   56MPD2    C3  871   3.680   3.194   0.580  0.0632 -0.1369  0.4332
   56MPD2    C4  872   3.739   3.227   0.461 -0.4153  0.1950 -0.1955
   56MPD2    C5  873   3.869   3.206   0.436 -0.6542  0.7881  0.6262
   56MPD2     H  874   3.728   3.090   0.769  1.4619 -0.5028  0.4296
   56MPD2    H1  875   3.680   3.268   0.380 -1.3206 -1.2858 -0.3013
   56MPD2    H2  876   4.052   3.133   0.513  0.1023  2.3495 -0.7581
   56MPD2    H3  877   3.921   3.234   0.345 -2.1147  0.6792 -0.2442
   56MPD2     N  878   3.540   3.220   0.590  0.4680  0.5132  0.3715
   56MPD2    H5  879   3.480   3.253   0.515  0.0359 -2.5482 -0.6253
   56MPD2    N1  880   3.980   3.041   0.740 -0.4081 -0.9518 -0.3383
   56MPD2    H7  881   4.076   3.030   0.710  0.0857 -1.5445  1.4342
   57TMC2    C1  882   3.370   2.719  13.860  0.7453 -0.2768  0.6236
   57TMC2    C2  883   3.475   2.659  13.933  0.2256 -0.4191  0.0263
   57TMC2    C3  884   3.546   2.567  13.865  0.2270 -0.8673  0.3087
   57TMC2    C4  885   3.352   2.683  13.726  0.8593  0.4348  0.6729
   57TMC2    C5  886   3.439   2.590  13.667  0.1434  0.5250 -0.4568
   57TMC2    C6  887   3.538   2.534  13.738 -0.4678  0.0750 -0.4724
   57TMC2     C  888   3.262   2.788  13.927 -0.2071 -0.0071  0.2683
   57TMC2     O  889   3.175   2.822  13.855 -0.3304  0.0999  0.2998
   57TMC2     H  890   3.496   2.673  14.039 -2.4717  3.6704  0.0062
   57TMC2    H1  891   3.273   2.731  13.670  0.2601 -1.4316 -0.0771
   57TMC2    H2  892   3.588   2.452  13.688 -1.5556 -0.2993 -0.9567
   57TMC2    C7  893   3.413   2.551  13.533  0.0490 -0.5611 -0.3027
   57TMC2    C8  894   3.639   2.496  13.944 -0.2988 -0.0989  0.3875
   57TMC2    O1  895   3.295   2.571  13.492  0.3274  0.0737  0.3864
   57TMC2    O2  896   3.621   2.474  14.065 -0.4189  0.3281  0.1278
   57TMC2    O5  897   3.760   2.510  13.881 -0.0460  0.2147  0.0849
   57TMC2    H5  898   3.762   2.583  13.815 -0.3363 -1.5328 -1.8784
   58MPD2     C  899   3.038   3.032  14.314 -0.2786 -0.0075  0.0719
   58MPD2    C1  900   3.014   3.034  14.177 -0.1454  0.4675 -0.6933
   58MPD2    C2  901   3.085   2.944  14.095 -0.5164  1.1636 -0.4421
   58MPD2    C3  902   3.192   2.861  14.142 -0.4418 -0.0312  0.0630
   58MPD2    C4  903   3.205   2.868  14.275  0.1461 -0.6321  0.0295
   58MPD2    C5  904   3.131   2.944  14.360 -0.2458 -0.5592  0.1516
   58MPD2     H  905   3.061   2.933  13.990  0.7743  0.5941 -0.6800
   58MPD2    H1  906   3.279   2.799  14.311 -0.4312 -1.7980 -1.0301
   58MPD2    H2  907   2.981   3.088  14.387  2.0612  2.6810 -0.1634
   58MPD2    H3  908   3.141   2.927  14.467 -0.8617 -1.0910  0.1275
   58MPD2     N  909   3.276   2.781  14.066 -0.4673  0.1896 -0.2609
   58MPD2    H5  910   3.361   2.743  14.107 -0.6689 -0.6288 -0.6026
   58MPD2    N1  911   2.915   3.111  14.115 -0.5433  0.3192 -0.6570
   58MPD2    H7  912   2.924   3.122  14.015 -0.8218  0.6752 -0.6421
   59TMC2    C1  913   1.038   3.122  12.793  0.1478  0.3765  0.2065
   59TMC2    C2  914   1.074   3.011  12.862  0.6811  0.0893  0.1188
   59TMC2    C3  915   1.027   2.889  12.816 -0.0059  1.3085  0.5035
   59TMC2    C4  916   0.958   3.106  12.688 -1.1230 -0.7805 -0.5064
   59TMC2    C5  917   0.921   2.984  12.638  0.5418  0.5797  0.5056
   59TMC2    C6  918   0.961   2.871  12.700 -0.4133  0.3738  0.3637
   59TMC2     C  919   1.050   3.254  12.854 -0.0831  0.2310  0.4446
   59TMC2     O  920   1.009   3.348  12.789  0.0668  0.1766 -0.2709
   59TMC2     H  921   1.141   3.023  12.946  1.6078  1.5204 -0.8190
   59TMC2    H1  922   0.926   3.199  12.642  3.6992  0.5118 -1.2405
   59TMC2    H2  923   0.926   2.773  12.670  1.9426 -1.0075  2.1352
   59TMC2    C7  924   0.826   2.967  12.533  0.1315 -0.0070  0.2553
   59TMC2    C8  925   1.065   2.773  12.893  0.3423  0.2864 -0.9836
   59TMC2    O1  926   0.778   2.859  12.516  0.1087  1.2512 -0.2517
   59TMC2    O2  927   1.076   2.655  12.851  0.1942  0.2332 -0.6443
   59TMC2    O5  928   1.033   2.810  13.030  0.0695  0.5525 -0.1076
   59TMC2    H5  929   0.987   2.897  13.033 -2.0669 -0.6156  1.4722
   60MPD2     C  930   1.062   3.488  13.030  0.1361 -0.6580 -0.6524
   60MPD2    C1  931   1.151   3.385  13.038 -0.2239 -0.4452 -0.1908
   60MPD2    C2  932   1.230   3.381  13.152  0.1163 -0.3266  0.3695
   60MPD2    C3  933   1.240   3.487  13.240  0.5878  0.0369  0.5012
   60MPD2    C4  934   1.151   3.599  13.223  0.0984 -0.1540 -0.3132
   60MPD2    C5  935   1.067   3.590  13.121 -0.5195 -0.4609  0.7689
   60MPD2     H  936   1.294   3.294  13.162 -1.2514 -1.3634 -0.0512
   60MPD2    H1  937   1.135   3.690  13.280 -0.6947  0.0807 -0.9154
   60MPD2    H2  938   0.990   3.497  12.949  1.0715  0.1494 -1.3923
   60MPD2    H3  939   1.008   3.678  13.098  0.2345  0.2292  1.4810
   60MPD2     N  940   1.347   3.485  13.339  0.4259 -0.2540 -0.2691
   60MPD2    H5  941   1.401   3.399  13.345  2.5487  1.2946  2.7854
   60MPD2    N1  942   1.128   3.261  12.966  0.3260 -0.3412 -0.0436
   60MPD2    H7  943   1.181   3.176  12.981  0.7844  0.0798  0.6925
   61TMC2    C1  944   4.472   4.575  15.461 -0.2105 -0.1932 -0.7654
   61TMC2    C2  945   4.406   4.509  15.561  0.4436 -0.2988  0.5077
   61TMC2    C3  946   4.360   4.578  15.668  0.8125 -0.8679  0.1762
   61TMC2    C4  947   4.456   4.706  15.444 -0.1434 -0.3861 -0.2740
   61TMC2    C5  948   4.394   0.032  15.546 -0.4345  0.0034 -0.2943
   61TMC2    C6  949   4.349   4.715  15.660 -0.0911 -0.3773  0.4100
   61TMC2     C  950   4.507   4.493  15.350  0.3644 -0.4192 -0.2148
   61TMC2     O  951   4.461   4.384  15.355 -0.4657 -0.0232  0.4006
   61TMC2     H  952   4.405   4.402  15.584  1.5262  0.1055  2.5046
   61TMC2    H1  953   4.515   0.029  15.377  0.9965 -0.2549  0.8477
   61TMC2    H2  954   4.316   0.038  15.744  1.5221  2.0584 -0.7216
   61TMC2    C7  955   4.394   0.173  15.540 -0.3815 -0.3241  0.1948
   61TMC2    C8  956   4.310   4.507  15.787 -0.4157 -0.0022  0.0144
   61TMC2    O1  957   4.420   0.235  15.644  0.2103  0.1101 -0.4249
   61TMC2    O2  958   4.271   4.391  15.793  0.4029 -0.2204  0.2085
   61TMC2    O5  959   4.337   4.586  15.893  0.0764  0.7002 -0.4996
   61TMC2    H5  960   4.411   4.648  15.874  0.9926 -0.4434 -0.6772
   62MPD2     C  961   4.687   4.357  15.168  0.1805 -0.1016 -1.0842
   62MPD2    C1  962   4.665   4.495  15.161  0.1608 -0.1211  0.1005
   62MPD2    C2  963   4.719   4.568  15.064 -0.2509  0.2898 -0.6664
   62MPD2    C3  964   0.069   4.517  14.968 -0.3939 -0.0009 -0.3749
   62MPD2    C4  965   0.106   4.381  14.982 -0.2788  0.5655 -0.5593
   62MPD2    C5  966   0.045   4.305  15.086 -0.3592 -0.1871  0.1480
   62MPD2     H  967   4.680   4.669  15.057  0.2114  0.6122  1.2215
   62MPD2    H1  968   0.163   4.339  14.900  0.0275 -0.9580  0.4285
   62MPD2    H2  969   4.640   4.296  15.244 -1.1361  2.1992 -0.0529
   62MPD2    H3  970   0.072   4.200  15.089  0.4558 -0.0209 -1.5634
   62MPD2     N  971   0.123   4.590  14.862 -0.1433  0.2177 -0.0426
   62MPD2    H5  972   0.186   4.544  14.798  1.1920  2.3112 -0.2371
   62MPD2    N1  973   4.583   4.557  15.254 -0.3901 -0.1319  0.5984
   62MPD2    H7  974   4.573   4.658  15.256  0.5406 -0.0038 -0.8936
   63TMC2    C1  975   0.165   4.570   9.822 -0.2839 -0.1270  1.1100
   63TMC2    C2  976   0.253   4.572   9.929  0.0030  0.6827  0.0228
   63TMC2    C3  977   0.344   4.677   9.922  0.1907 -0.1466 -0.5673
   63TMC2    C4  978   0.187   4.647   9.707  0.2657  0.3094 -0.3368
   63TMC2    C5  979   0.269   0.014   9.712  0.2524  0.1380 -0.1341
   63TMC2    C6  980   0.354   0.031   9.820  0.4193  0.5208 -0.9906
   63TMC2     C  981   0.051   4.483   9.823 -0.1151 -0.2750  0.2361
   63TMC2     O  982   0.005   4.481   9.710  0.0227 -0.4305  0.6069
   63TMC2     H  983   0.245   4.504  10.014 -0.8385  0.3399 -0.3284
   63TMC2    H1  984   0.132   4.635   9.615 -0.3763  1.2027 -0.0727
   63TMC2    H2  985   0.431   0.106   9.830  0.2850  0.7319 -1.4906
   63TMC2    C7  986   0.232   0.133   9.634 -0.4942  0.7622  0.3405
   63TMC2    C8  987   0.457   4.664  10.016  0.1555 -0.1776  0.3128
   63TMC2    O1  988   0.114   0.137   9.600 -0.2438  0.4753  0.1255
   63TMC2    O2  989   0.575   4.661   9.986 -0.1437  0.1212  0.2829
   63TMC2    O5  990   0.409   4.651  10.142  0.5243 -0.2660  0.1529
   63TMC2    H5  991   0.318   4.686  10.136  0.4396 -0.4150  0.5300
   64MPD2     C  992   4.406   4.202  10.019  0.3726 -0.2607 -1.1015
   64MPD2    C1  993   4.515   4.197  10.102 -0.3411 -0.1404 -0.1932
   64MPD2    C2  994   4.623   4.272  10.077 -0.7327 -0.2391  0.0469
   64MPD2    C3  995   4.629   4.349   9.964 -0.0054 -0.0607  0.5765
   64MPD2    C4  996   4.524   4.360   9.877  0.6818  0.3482  0.5715
   64MPD2    C5  997   4.411   4.289   9.909 -0.5054  0.1044 -0.0227
   64MPD2     H  998   4.714   4.261  10.135 -0.7530  1.0573  0.3273
   64MPD2    H1  999   4.513   4.432   9.796 -2.0290 -0.6177  0.1002
   64MPD2    H2 1000   4.320   4.148  10.055  0.4688  1.4333  1.6465
   64MPD2    H3 1001   4.317   4.293   9.855  0.2130 -1.4987 -1.3781
   64MPD2     N 1002   0.016   4.420   9.942  0.1302 -0.2826 -0.3537
   64MPD2    H5 1003   0.094   4.409  10.006 -0.8744 -0.4045  0.8377
   64MPD2    N1 1004   4.540   4.096  10.196 -0.1383  0.2099  0.4862
   64MPD2    H7 1005   4.633   4.103  10.236  0.8292 -0.7796 -1.5629
   65TMC2    C1 1006   1.070   4.310  16.135  0.0626  0.3366 -0.6203
   65TMC2    C2 1007   1.149   4.357  16.236  0.8435  1.1660 -0.0967
   65TMC2    C3 1008   1.121   4.484  16.291  0.7368  0.1629 -0.0306
   65TMC2    C4 1009   0.958   4.377  16.111 -0.0783  0.7106  0.2168
   65TMC2    C5 1010   0.931   4.502  16.168 -0.8001  0.0480  0.7372
   65TMC2    C6 1011   1.010   4.565  16.263 -0.3653  0.0830 -0.4063
   65TMC2     C 1012   1.084   4.174  16.089  0.2180  0.2434  0.0320
   65TMC2     O 1013   1.165   4.109  16.153 -0.1008 -0.0753  0.1934
   65TMC2     H 1014   1.234   4.303  16.276 -0.7383  0.5490  2.4588
   65TMC2    H1 1015   0.877   4.339  16.050  0.5721 -0.2154 -0.0609
   65TMC2    H2 1016   0.999   4.661  16.312 -0.0883 -0.0662 -0.0481
   65TMC2    C7 1017   0.797   4.557  16.153  0.1683 -0.2113  0.2330
   65TMC2    C8 1018   1.222   4.535  16.376  0.1087  0.2162 -0.3151
   65TMC2    O1 1019   0.735   4.511  16.058  0.2890  0.2355 -0.4359
   65TMC2    O2 1020   1.344   4.510  16.379  0.2522  0.0423  0.1601
   65TMC2    O5 1021   1.161   4.561  16.491  0.3704 -0.2949 -0.1742
   65TMC2    H5 1022   1.069   4.530  16.504 -0.1181  0.5810 -1.5563
   66MPD2     C 1023   1.105   3.917  15.936 -0.2254  0.1979  0.8206
   66MPD2    C1 1024   1.009   4.011  15.910 -0.0987  0.1722  0.5442
   66MPD2    C2 1025   0.908   3.981  15.814 -0.3561  0.6116 -0.1652
   66MPD2    C3 1026   0.894   3.854  15.763  0.7884  0.2008  0.5103
   66MPD2    C4 1027   0.993   3.769  15.792 -0.0356  0.4475 -0.0034
   66MPD2    C5 1028   1.098   3.800  15.875  0.0280  0.3221  0.4341
   66MPD2     H 1029   0.839   4.061  15.789 -0.4610  0.0872 -1.5409
   66MPD2    H1 1030   0.989   3.671  15.744  1.1656 -0.5426  1.9405
   66MPD2    H2 1031   1.184   3.949  16.003  0.7880 -1.5775  0.4665
   66MPD2    H3 1032   1.161   3.715  15.896 -2.3454 -0.7296  3.3506
   66MPD2     N 1033   0.799   3.820  15.667  0.0164  0.1284 -0.2635
   66MPD2    H5 1034   0.795   3.722  15.643  1.1753 -0.3176  1.3540
   66MPD2    N1 1035   1.007   4.138  15.974  0.0397  0.1009  0.3140
   66MPD2    H7 1036   0.940   4.208  15.944  0.4498  0.8852  1.2255
   67TMC2    C1 1037   1.234   3.572  14.802  0.3590 -0.3025  0.4160
   67TMC2    C2 1038   1.182   3.696  14.839 -0.4438 -0.0439  0.2942
   67TMC2    C3 1039   1.227   3.746  14.959 -0.2254 -0.5115  0.1815
   67TMC2    C4 1040   1.321   3.506  14.881 -0.4437 -0.1147 -0.4072
   67TMC2    C5 1041   1.363   3.569  14.994  0.1362  0.5170 -0.3900
   67TMC2    C6 1042   1.313   3.685  15.046 -0.6218 -0.0392 -0.1519
   67TMC2     C 1043   1.197   3.506  14.675  0.5601  0.0710  0.9450
   67TMC2     O 1044   1.247   3.400  14.656 -0.1353 -0.3045 -0.2966
   67TMC2     H 1045   1.120   3.759  14.777 -0.0755 -0.4662 -0.4967
   67TMC2    H1 1046   1.363   3.412  14.847 -0.0526  0.0790 -0.4611
   67TMC2    H2 1047   1.356   3.743  15.127 -1.4377 -0.5405  0.6345
   67TMC2    C7 1048   1.481   3.519  15.063  0.0273  0.1590 -0.5846
   67TMC2    C8 1049   1.214   3.892  14.973 -0.0754  0.0202 -1.0094
   67TMC2    O1 1050   1.570   3.452  15.007 -0.1397 -0.0907  0.7314
   67TMC2    O2 1051   1.107   3.949  14.960 -0.0189 -0.8688  0.1311
   67TMC2    O5 1052   1.316   3.939  14.903  0.2398  0.2254  0.4007
   67TMC2    H5 1053   1.399   3.887  14.912  0.8872  1.3591  0.9763
   68MPD2     C 1054   1.135   3.452  14.390  0.0913 -0.0524  0.3574
   68MPD2    C1 1055   1.055   3.526  14.470 -0.2311  0.1221 -1.0677
   68MPD2    C2 1056   0.930   3.572  14.422  0.2537  0.0085 -0.3810
   68MPD2    C3 1057   0.893   3.536  14.297  0.0972  0.2058 -0.2049
   68MPD2    C4 1058   0.976   3.465  14.213 -0.7384 -0.1636 -0.1218
   68MPD2    C5 1059   1.097   3.420  14.266  0.6493  0.1382  0.4607
   68MPD2     H 1060   0.863   3.625  14.489  0.1401 -0.3505 -0.2148
   68MPD2    H1 1061   0.948   3.450  14.110  0.6740  0.2758 -0.5719
   68MPD2    H2 1062   1.230   3.417  14.429 -0.0396 -0.9852 -0.1683
   68MPD2    H3 1063   1.170   3.377  14.199  0.8561  0.9957  0.1333
   68MPD2     N 1064   0.762   3.558  14.253  0.4623 -0.4620 -0.0272
   68MPD2    H5 1065   0.746   3.557  14.153  1.8602  0.6583 -0.2686
   68MPD2    N1 1066   1.088   3.561  14.608 -0.7950  0.0141 -0.6105
   68MPD2    H7 1067   1.022   3.624  14.654 -0.0437  2.2883 -2.6279
   69TMC2    C1 1068   3.136   4.490  12.242  0.2587  0.1934 -0.2658
   69TMC2    C2 1069   3.015   4.556  12.213 -0.4466  0.1622 -0.2475
   69TMC2    C3 1070   3.001   4.592  12.083 -0.7172  0.6242  0.2953
   69TMC2    C4 1071   3.226   4.453  12.151 -0.7958 -0.4855 -0.7706
   69TMC2    C5 1072   3.187   4.470  12.025  0.1928 -0.6560 -0.3711
   69TMC2    C6 1073   3.081   4.545  11.983 -0.9476  0.5318 -1.3662
   69TMC2     C 1074   3.156   4.463  12.384 -0.4903  0.2925  0.1990
   69TMC2     O 1075   3.052   4.463  12.448  0.0659  0.5635 -0.1349
   69TMC2     H 1076   2.943   4.590  12.286 -1.1249 -2.1719  0.1633
   69TMC2    H1 1077   3.317   4.397  12.169 -0.7193 -0.4257 -0.9718
   69TMC2    H2 1078   3.072   4.577  11.880  0.1268 -1.1376 -1.9898
   69TMC2    C7 1079   3.300   4.450  11.929  0.0145 -0.4973  0.0614
   69TMC2    C8 1080   2.906   4.696  12.045 -0.3792  0.2447  0.4432
   69TMC2    O1 1081   3.412   4.455  11.978 -0.0054  0.1002  0.4140
   69TMC2    O2 1082   2.806   4.719  12.111 -0.2006  0.7813 -0.2636
   69TMC2    O5 1083   2.975   0.044  11.969 -0.1352  0.4985 -0.3351
   69TMC2    H5 1084   3.068   0.016  11.955 -0.0171  1.4076 -1.3834
   70MPD2     C 1085   3.444   4.307  12.561 -0.0684 -0.3430  0.6848
   70MPD2    C1 1086   3.315   4.355  12.544 -0.2511 -0.4119  0.2079
   70MPD2    C2 1087   3.217   4.331  12.641 -0.8180 -0.2868 -0.8235
   70MPD2    C3 1088   3.254   4.267  12.759 -0.3046 -0.2743 -0.5176
   70MPD2    C4 1089   3.384   4.226  12.777 -0.3603 -0.7336  0.3177
   70MPD2    C5 1090   3.475   4.240  12.676 -0.1678 -0.0136 -0.6115
   70MPD2     H 1091   3.116   4.368  12.638  0.0219  2.1514  0.7808
   70MPD2    H1 1092   3.416   4.176  12.868  0.6844 -1.3362 -0.3757
   70MPD2    H2 1093   3.524   4.323  12.491 -1.2193 -0.7097 -0.7166
   70MPD2    H3 1094   3.577   4.210  12.697 -0.4438 -1.7507 -1.8147
   70MPD2     N 1095   3.167   4.243  12.864 -0.3654  0.6221 -0.1349
   70MPD2    H5 1096   3.207   4.189  12.940  1.1328  2.2661  0.2397
   70MPD2    N1 1097   3.281   4.412  12.416  0.3757  0.0152  0.0008
   70MPD2    H7 1098   3.366   4.425  12.362  0.3939 -0.6083 -0.1206
   71TMC2    C1 1099   0.340   0.085   1.375  0.4645 -0.6287  0.5706
   71TMC2    C2 1100   0.471   0.105   1.397 -0.0177  0.3476  0.2207
   71TMC2    C3 1101   0.508   0.150   1.522  0.1004 -0.3193  0.0124
   71TMC2    C4 1102   0.251   0.143   1.460  0.1798 -0.1034  0.3873
   71TMC2    C5 1103   0.297   0.220   1.573 -1.1586  0.3893 -0.2730
   71TMC2    C6 1104   0.426   0.205   1.615 -0.1836  0.2121 -0.2334
   71TMC2     C 1105   0.312   0.091   1.232  0.0418 -0.4022  0.4730
   71TMC2     O 1106   0.395   0.149   1.158 -0.4956  0.0830  0.6343
   71TMC2     H 1107   0.541   0.066   1.323 -0.4429  0.3982 -0.2045
   71TMC2    H1 1108   0.145   0.132   1.440  0.0233 -0.5222  1.4494
   71TMC2    H2 1109   0.463   0.271   1.693 -1.0153 -0.5118  0.7783
   71TMC2    C7 1110   0.208   0.308   1.652 -0.3179 -0.2263  0.3745
   71TMC2    C8 1111   0.650   0.153   1.543  0.4275 -0.3411  0.9091
   71TMC2    O1 1112   0.257   0.360   1.753 -0.1328 -0.5557 -0.4606
   71TMC2    O2 1113   0.727   0.165   1.447  0.3998 -0.1106  0.7945
   71TMC2    O5 1114   0.669   0.155   1.680 -0.3141  0.4168  0.0631
   71TMC2    H5 1115   0.588   0.127   1.729  1.3416 -1.6328  1.5855
   72MPD2     C 1116   4.719   0.068   0.853  0.0693  0.2277 -0.0976
   72MPD2    C1 1117   0.068   0.164   0.888 -0.1840  0.0060  0.0609
   72MPD2    C2 1118   0.143   0.144   1.000  0.2527 -0.1545 -0.5070
   72MPD2    C3 1119   0.128   0.034   1.080 -0.2781 -0.2049 -0.0008
   72MPD2    C4 1120   0.034   4.681   1.047 -0.3234 -0.6874  0.3429
   72MPD2    C5 1121   4.692   4.700   0.936  0.0486  0.5125 -0.1012
   72MPD2     H 1122   0.221   0.212   1.031 -0.4597  0.0981  0.7082
   72MPD2    H1 1123   0.005   4.593   1.102  0.7770 -0.9567  0.5027
   72MPD2    H2 1124   4.677   0.068   0.753 -0.3424  0.6523  0.0726
   72MPD2    H3 1125   4.612   4.634   0.906  0.3497  0.6865 -1.2612
   72MPD2     N 1126   0.199   0.019   1.201 -0.0990 -1.1109 -0.0537
   72MPD2    H5 1127   0.166   4.690   1.270 -2.2900  0.0296 -0.0071
   72MPD2    N1 1128   0.093   0.277   0.807 -0.0852  0.1256  0.6794
   72MPD2    H7 1129   0.172   0.337   0.831  1.8172 -1.5086 -1.4301
   73TMC2    C1 1130   0.515   2.456  14.146  0.3486  0.5109  0.4349
   73TMC2    C2 1131   0.386   2.435  14.188 -0.7422 -0.0818  0.2000
   73TMC2    C3 1132   0.348   2.354  14.302  0.1805  0.4090 -0.7467
   73TMC2    C4 1133   0.609   2.401  14.229 -0.1134 -0.2906 -0.2910
   73TMC2    C5 1134   0.575   2.329  14.342  0.0581 -0.3892  0.0304
   73TMC2    C6 1135   0.447   2.309  14.387  0.0395  0.3153 -0.1103
   73TMC2     C 1136   0.544   2.595  14.122 -0.6111  0.5171 -0.0254
   73TMC2     O 1137   0.651   2.640  14.166 -0.6498  0.2912  0.3032
   73TMC2     H 1138   0.301   2.468  14.130 -0.0471  1.5586  0.1067
   73TMC2    H1 1139   0.714   2.415  14.203  0.2113  0.3916  1.3569
   73TMC2    H2 1140   0.422   2.253  14.476 -0.2901 -1.1227 -1.1146
   73TMC2    C7 1141   0.651   2.368  14.457  0.0682  0.2402 -0.4615
   73TMC2    C8 1142   0.214   2.360  14.353 -0.2529 -0.7898  0.5795
   73TMC2    O1 1143   0.644   2.305  14.560  0.9247 -0.3548  0.1323
   73TMC2    O2 1144   0.140   2.446  14.313  0.8856 -0.1108 -0.1614
   73TMC2    O5 1145   0.177   2.230  14.369 -0.4156  0.6028  0.2208
   73TMC2    H5 1146   0.251   2.167  14.381 -0.1511  0.9852  0.6285
   74MPD2     C 1147   0.561   3.045  13.884  0.4852  0.2254 -0.0979
   74MPD2    C1 1148   0.623   3.001  14.004 -0.0209  0.2910  0.1246
   74MPD2    C2 1149   0.573   2.879  14.056  0.4315  0.8749  0.1868
   74MPD2    C3 1150   0.496   2.789  13.983 -0.5610 -0.5589  0.1795
   74MPD2    C4 1151   0.436   2.835  13.876  0.7828  0.1097  0.3778
   74MPD2    C5 1152   0.465   2.962  13.832 -0.6135  0.2034  0.1341
   74MPD2     H 1153   0.600   2.856  14.158  0.3645 -0.7829 -0.1710
   74MPD2    H1 1154   0.354   2.777  13.834  2.0853 -0.2460 -1.7161
   74MPD2    H2 1155   0.576   3.147  13.850  0.1577  0.2112 -0.2810
   74MPD2    H3 1156   0.404   2.995  13.748  0.4732 -0.1748 -0.8041
   74MPD2     N 1157   0.468   2.656  14.020 -0.4786 -0.3776  0.1109
   74MPD2    H5 1158   0.405   2.604  13.961 -1.6705  0.7749  0.3623
   74MPD2    N1 1159   0.733   3.076  14.061 -0.8638  0.2143  0.3358
   74MPD2    H7 1160   0.767   3.160  14.015 -0.3869  0.0426  0.3729
   75TMC2    C1 1161   0.550   3.658  14.250  0.1258  0.0666  0.7096
   75TMC2    C2 1162   0.476   3.758  14.305 -0.0270  0.5030  0.0726
   75TMC2    C3 1163   0.404   3.837  14.221  0.2049 -0.4846 -0.1601
   75TMC2    C4 1164   0.545   3.619  14.119  0.6746 -0.2511 -0.0900
   75TMC2    C5 1165   0.457   3.698  14.037 -0.0679 -0.7061 -0.6986
   75TMC2    C6 1166   0.390   3.803  14.091 -0.7271  0.3501 -0.3646
   75TMC2     C 1167   0.653   3.600  14.334  0.0755 -0.7402 -0.1902
   75TMC2     O 1168   0.641   3.599  14.454  0.0826 -0.3551  0.4702
   75TMC2     H 1169   0.492   3.788  14.408 -0.5904  3.5192 -0.7166
   75TMC2    H1 1170   0.606   3.540  14.076 -1.5375 -1.4954 -0.9739
   75TMC2    H2 1171   0.330   3.864  14.025  0.6147  1.9487 -0.1176
   75TMC2    C7 1172   0.445   3.666  13.898  0.3046 -0.3823 -0.0361
   75TMC2    C8 1173   0.356   3.961  14.282  0.5033 -0.1779 -0.2767
   75TMC2    O1 1174   0.449   3.548  13.865 -0.3035 -0.2589  0.0713
   75TMC2    O2 1175   0.365   3.992  14.399  0.1910  0.0326  0.3119
   75TMC2    O5 1176   0.337   4.053  14.189  0.1043 -0.1902 -0.0400
   75TMC2    H5 1177   0.340   4.020  14.097 -3.0844  1.0666 -0.6088
   76TMC2    C1 1178   4.644   3.735  12.286 -0.8303 -0.6049  0.1438
   76TMC2    C2 1179   4.596   3.606  12.297  0.3466 -0.5387  0.1381
   76TMC2    C3 1180   4.676   3.504  12.340  0.0819 -0.6564  0.1079
   76TMC2    C4 1181   0.038   3.763  12.308  0.0072  0.0075  0.1835
   76TMC2    C5 1182   0.111   3.656  12.356  0.7656  0.5030  0.3858
   76TMC2    C6 1183   0.071   3.525  12.361 -0.6411 -0.0617  0.0771
   76TMC2     C 1184   4.557   3.826  12.219  0.0032  0.5296  0.2632
   76TMC2     O 1185   4.463   3.776  12.158  0.4000  0.3914  0.7966
   76TMC2     H 1186   4.494   3.578  12.272  0.7857 -1.8477 -0.2071
   76TMC2    H1 1187   0.081   3.863  12.310  0.2543 -0.0904 -0.6733
   76TMC2    H2 1188   0.140   3.446  12.388 -1.9099 -1.1353  0.1519
   76TMC2    C7 1189   0.250   3.674  12.393  0.3464  0.3629  0.4887
   76TMC2    C8 1190   4.640   3.361  12.345  0.1792 -1.0339  0.6541
   76TMC2    O1 1191   0.330   3.579  12.387 -0.5222  0.1193 -0.5073
   76TMC2    O2 1192   4.720   3.281  12.391 -0.4420 -0.3123 -0.7423
   76TMC2    O5 1193   4.579   3.315  12.232 -0.0854  0.5004  0.2057
   76TMC2    H5 1194   4.569   3.386  12.165  1.7841 -0.6998 -1.3610
   77MPD2     C 1195   4.390   4.306  12.095  0.2630  0.0730 -0.3655
   77MPD2    C1 1196   4.354   4.183  12.055  0.0150  0.3487 -0.0630
   77MPD2    C2 1197   4.402   4.065  12.111  0.0267  0.1349  0.3378
   77MPD2    C3 1198   4.509   4.070  12.196 -0.0002 -0.2129  0.2238
   77MPD2    C4 1199   4.542   4.191  12.241 -0.4384 -1.1234  0.2759
   77MPD2    C5 1200   4.484   4.306  12.193 -0.0056 -0.1579 -0.4839
   77MPD2     H 1201   4.380   3.967  12.069 -0.6246  0.2493  0.4062
   77MPD2    H1 1202   4.622   4.214  12.310 -0.8845  1.4794 -0.0660
   77MPD2    H2 1203   4.357   4.404  12.063  0.3110  0.1423 -0.2000
   77MPD2    H3 1204   4.521   4.402  12.227 -1.4585 -0.0148  0.6649
   77MPD2     N 1205   4.576   3.955  12.250 -0.1859  0.2730 -0.0228
   77MPD2    H5 1206   4.647   3.975  12.320  0.3807 -2.0809  0.0720
   77MPD2    N1 1207   4.262   4.165  11.952  0.3295  0.2207  0.7014
   77MPD2    H7 1208   4.240   4.067  11.935  1.3841 -0.0674  0.9989
   78TMC2    C1 1209   0.320   1.074   1.885 -0.4856  0.1896 -0.7611
   78TMC2    C2 1210   0.186   1.109   1.862  0.7972  0.0662  0.4564
   78TMC2    C3 1211   0.119   1.018   1.786 -0.0102 -0.6607  0.9225
   78TMC2    C4 1212   0.379   0.960   1.825 -0.1210  0.2909 -0.2981
   78TMC2    C5 1213   0.300   0.872   1.763  0.1931  0.5563 -0.8184
   78TMC2    C6 1214   0.163   0.901   1.744  0.7005 -0.3510 -0.0677
   78TMC2     C 1215   0.416   1.172   1.944  0.9115 -0.0520  0.6390
   78TMC2     O 1216   0.364   1.279   1.979 -0.7313 -0.0247  0.1150
   78TMC2     H 1217   0.143   1.193   1.916  2.1723  0.0499  1.5616
   78TMC2    H1 1218   0.483   0.929   1.835  0.1876  1.1710 -0.6918
   78TMC2    H2 1219   0.085   0.833   1.710 -1.0194  1.4775  0.2014
   78TMC2    C7 1220   0.358   0.768   1.681 -0.0121  0.3748 -0.1001
   78TMC2    C8 1221   4.712   1.038   1.768 -0.2992 -0.2963 -0.4886
   78TMC2    O1 1222   0.466   0.721   1.715  0.2572  0.2843  0.2696
   78TMC2    O2 1223   4.651   0.999   1.674 -0.1551  0.2235 -0.0853
   78TMC2    O5 1224   4.668   1.049   1.896 -0.5728  0.1453  0.0723
   78TMC2    H5 1225   0.014   1.048   1.949  1.1797 -1.1773 -2.7062
   79MPD1     C 1226   0.862   1.266   2.197  0.4609 -0.1454  0.8122
   79MPD1    C1 1227   0.772   1.350   2.134  0.5787 -0.5878 -0.0363
   79MPD1    C2 1228   0.659   1.297   2.079 -0.2354 -0.2856  0.1952
   79MPD1    C3 1229   0.635   1.164   2.067  0.2795  0.0334 -0.6089
   79MPD1    C4 1230   0.731   1.072   2.117 -0.1421 -0.5610 -0.0315
   79MPD1    C5 1231   0.838   1.126   2.185  0.0020  0.1330 -0.1125
   79MPD1     H 1232   0.573   1.353   2.044  1.1213  1.1132 -0.9238
   79MPD1    H1 1233   0.715   0.965   2.114 -1.1698 -0.3825 -0.8192
   79MPD1    H2 1234   0.935   1.295   2.272  0.7026  0.2039  0.4420
   79MPD1    H3 1235   0.892   1.049   2.238 -0.5177 -0.7270 -0.8262
   79MPD1     N 1236   0.516   1.108   2.009  0.5116  0.1228 -0.6768
   79MPD1    H5 1237   0.498   1.011   2.031 -0.0859  0.1153 -1.1946
   79MPD1    N1 1238   0.779   1.492   2.158  0.6130  0.3013 -0.2211
   79MPD1    H6 1239   0.724   1.530   2.081  0.7156  1.5432  0.3173
   79MPD1    H7 1240   0.868   1.532   2.184  0.1982  0.6717  0.6117
   80TMC2    C1 1241   3.299   3.582  11.709  0.0514 -0.5609 -0.5695
   80TMC2    C2 1242   3.317   3.569  11.577  0.0061  0.7311 -0.3163
   80TMC2    C3 1243   3.219   3.501  11.505 -0.2679  0.8648 -0.0955
   80TMC2    C4 1244   3.190   3.539  11.772  0.1541 -0.0775  0.6012
   80TMC2    C5 1245   3.099   3.464  11.705 -0.2016  0.4080 -0.2705
   80TMC2    C6 1246   3.109   3.455  11.566 -0.2507  0.3174 -0.0281
   80TMC2     C 1247   3.416   3.636  11.789 -0.0331 -0.1700  0.6402
   80TMC2     O 1248   3.511   3.669  11.718 -0.6799  0.2807  0.0159
   80TMC2     H 1249   3.403   3.601  11.518 -0.7293 -1.7548 -2.7479
   80TMC2    H1 1250   3.176   3.565  11.876 -0.6089 -0.3419  0.5630
   80TMC2    H2 1251   3.030   3.401  11.513 -0.1713  2.2916 -2.1655
   80TMC2    C7 1252   2.967   3.434  11.757 -0.5383 -0.1659  0.0960
   80TMC2    C8 1253   3.221   3.508  11.362 -0.3022  0.1622 -0.6546
   80TMC2    O1 1254   2.878   3.443  11.677  0.1038 -0.1922 -0.2189
   80TMC2    O2 1255   3.288   3.591  11.302  0.4191  0.1302  0.3522
   80TMC2    O5 1256   3.235   3.374  11.333  0.1072 -0.0741  0.3534
   80TMC2    H5 1257   3.191   3.321  11.403  0.2408 -0.7505 -0.0780
   81MPD2     C 1258   3.631   3.715  11.990 -0.4601  0.0725  0.0692
   81MPD2    C1 1259   3.497   3.689  12.016 -0.4806  0.3671 -0.2234
   81MPD2    C2 1260   3.453   3.740  12.137  0.4467  0.3538 -0.2311
   81MPD2    C3 1261   3.536   3.811  12.226  0.2809 -0.6968  1.4782
   81MPD2    C4 1262   3.671   3.828  12.202 -0.4652 -0.1574  0.2800
   81MPD2    C5 1263   3.714   3.781  12.082  0.6134  0.2132  0.0606
   81MPD2     H 1264   3.346   3.736  12.152  0.8166 -1.5525  1.9569
   81MPD2    H1 1265   3.729   3.895  12.264 -0.0664 -0.2316 -0.0156
   81MPD2    H2 1266   3.672   3.690  11.892 -2.5980  0.4126 -0.9157
   81MPD2    H3 1267   3.816   3.799  12.051  0.3664  0.1304 -0.7913
   81MPD2     N 1268   3.485   3.876  12.345 -0.1063 -0.0226  0.5110
   81MPD2    H5 1269   3.554   3.928  12.398 -0.0521  0.3221  0.1092
   81MPD2    N1 1270   3.399   3.643  11.923  0.2785  0.8728 -0.0385
   81MPD2    H7 1271   3.305   3.621  11.955  0.4102 -0.1938 -0.3632
   82TMC2    C1 1272   0.930   3.218  11.235  0.3804 -0.3907 -0.3924
   82TMC2    C2 1273   0.932   3.302  11.346  0.2991 -0.2408  0.1980
   82TMC2    C3 1274   0.908   3.243  11.471 -0.4525 -0.2760  0.4153
   82TMC2    C4 1275   0.915   3.084  11.249 -0.0180  0.2956 -0.1421
   82TMC2    C5 1276   0.892   3.032  11.372 -0.5764  0.2297  0.2962
   82TMC2    C6 1277   0.887   3.109  11.483  0.4341  0.2348  0.0258
   82TMC2     C 1278   0.942   3.282  11.105 -0.5271  0.0364  0.3963
   82TMC2     O 1279   0.902   3.223  11.007  0.0380  0.2203 -0.5550
   82TMC2     H 1280   0.936   3.410  11.339 -0.6868 -0.1554  0.9691
   82TMC2    H1 1281   0.895   3.030  11.157  0.2921  2.8065 -1.7049
   82TMC2    H2 1282   0.856   3.056  11.572 -1.4648 -0.2429 -0.9075
   82TMC2    C7 1283   0.863   2.892  11.383  0.0408  0.1455 -0.4958
   82TMC2    C8 1284   0.901   3.331  11.585  0.2297 -0.5687  0.4280
   82TMC2    O1 1285   0.793   2.863  11.479 -0.2082  0.0839  0.3735
   82TMC2    O2 1286   0.869   3.454  11.571  0.3932 -0.6334 -0.3673
   82TMC2    O5 1287   0.993   3.284  11.672  0.3860 -0.3898 -0.4409
   82TMC2    H5 1288   1.035   3.200  11.645 -1.0569 -0.8572 -1.2252
   83MPD2     C 1289   1.101   3.676  10.810 -0.3806  0.4541 -0.1698
   83MPD2    C1 1290   1.011   3.582  10.779 -0.3214  0.0304 -0.7126
   83MPD2    C2 1291   0.983   3.481  10.880 -0.2381  0.0865  0.4383
   83MPD2    C3 1292   1.038   3.490  11.006  0.3849  0.3720 -0.0669
   83MPD2    C4 1293   1.124   3.596  11.036 -0.0797  0.1573 -0.4662
   83MPD2    C5 1294   1.147   3.690  10.937  0.5454 -0.1644  0.0276
   83MPD2     H 1295   0.923   3.397  10.847 -0.5561 -0.5778  2.7729
   83MPD2    H1 1296   1.176   3.602  11.131 -0.7318  2.6629 -0.2589
   83MPD2    H2 1297   1.134   3.750  10.738 -2.4824  1.0161 -0.5560
   83MPD2    H3 1298   1.215   3.773  10.951 -1.1928  0.7911  2.8101
   83MPD2     N 1299   1.008   3.403  11.117  0.4813  0.3732  0.0931
   83MPD2    H5 1300   1.046   3.428  11.208  2.5613 -3.7331  0.3487
   83MPD2    N1 1301   0.964   3.595  10.645  0.4233 -0.6559  0.1323
   83MPD2    H7 1302   1.014   3.658  10.583  2.2385 -2.1063  0.0928
   84TMC2    C1 1303   2.146   2.403  11.583 -0.0678  0.2205  0.0931
   84TMC2    C2 1304   2.222   2.412  11.693  0.0280  0.0346  0.1801
   84TMC2    C3 1305   2.340   2.348  11.695 -0.3956 -0.1339  0.0643
   84TMC2    C4 1306   2.187   2.338  11.470  0.1568 -0.4742  0.4949
   84TMC2    C5 1307   2.305   2.270  11.477  0.2659  0.5989  0.7433
   84TMC2    C6 1308   2.391   2.276  11.587  0.2821  0.2724 -0.1810
   84TMC2     C 1309   2.045   2.498  11.563 -0.5808  0.5505 -0.3756
   84TMC2     O 1310   2.061   2.599  11.629  0.4758  0.5453  0.2195
   84TMC2     H 1311   2.179   2.452  11.784 -0.5933 -0.2782  0.0274
   84TMC2    H1 1312   2.117   2.317  11.389  0.3370 -1.4683  0.6029
   84TMC2    H2 1313   2.479   2.212  11.593  1.8290  2.4069  0.0988
   84TMC2    C7 1314   2.347   2.195  11.355 -0.2886 -1.1343 -0.6876
   84TMC2    C8 1315   2.438   2.385  11.793 -0.6612  0.8867 -0.4835
   84TMC2    O1 1316   2.264   2.181  11.265  0.0869 -0.0992  0.6892
   84TMC2    O2 1317   2.531   2.310  11.819  0.8928  0.1500 -0.2545
   84TMC2    O5 1318   2.401   2.510  11.850 -0.7490 -0.1053 -0.4351
   84TMC2    H5 1319   2.350   2.563  11.786  0.6426  0.4300 -1.1078
   85TMC2    C1 1320   3.152   0.856  16.366  0.0933  0.2810 -0.5680
   85TMC2    C2 1321   3.226   0.743  16.346 -0.8601  0.1900 -0.2275
   85TMC2    C3 1322   3.296   0.727  16.228 -0.6589 -0.5234  0.3502
   85TMC2    C4 1323   3.135   0.942  16.267  0.5329 -0.1055 -0.5985
   85TMC2    C5 1324   3.210   0.925  16.154 -0.3796  0.2559 -0.2498
   85TMC2    C6 1325   3.288   0.819  16.128  0.2193 -0.0122  0.0390
   85TMC2     C 1326   3.052   0.849  16.464  0.6858  0.4796 -0.3037
   85TMC2     O 1327   2.999   0.959  16.492  0.5379 -0.0410  0.1886
   85TMC2     H 1328   3.240   0.667  16.422  2.8070  0.8400 -0.2097
   85TMC2    H1 1329   3.108   1.045  16.289  3.3091  0.2123  1.3426
   85TMC2    H2 1330   3.334   0.805  16.031 -1.2541 -2.0710 -0.3524
   85TMC2    C7 1331   3.197   1.040  16.056 -0.2146 -0.8125  0.1552
   85TMC2    C8 1332   3.382   0.615  16.222  0.0108  0.1754 -0.5738
   85TMC2    O1 1333   3.108   1.117  16.080 -0.1376 -0.4867 -0.0130
   85TMC2    O2 1334   3.428   0.558  16.320 -0.4026 -0.0157  0.4204
   85TMC2    O5 1335   3.387   0.583  16.094  0.1085  0.5203 -0.2216
   85TMC2    H5 1336   3.321   0.620  16.031  1.0836  1.4001 -0.7194
   86MPD2     C 1337   2.623   0.613  16.662  0.0617 -0.1895  0.8178
   86MPD2    C1 1338   2.697   0.532  16.577  0.6433 -0.2390  0.4794
   86MPD2    C2 1339   2.828   0.569  16.541 -0.1536  0.3262  0.6058
   86MPD2    C3 1340   2.882   0.693  16.553 -1.1830 -0.8316  0.0900
   86MPD2    C4 1341   2.806   0.775  16.630  0.7178  0.0380 -0.2065
   86MPD2    C5 1342   2.686   0.734  16.681  0.5310 -0.2540  0.1801
   86MPD2     H 1343   2.883   0.497  16.480  0.5478  0.2088  1.3699
   86MPD2    H1 1344   2.842   0.875  16.651 -0.7073  0.3609  0.6863
   86MPD2    H2 1345   2.532   0.575  16.706  1.2457 -4.3683 -0.3252
   86MPD2    H3 1346   2.633   0.803  16.747 -0.7166 -1.1261  0.0829
   86MPD2     N 1347   3.007   0.723  16.501 -0.3922  0.3567 -0.6263
   86MPD2    H5 1348   3.053   0.642  16.460  2.3423  2.2941 -1.4115
   86MPD2    N1 1349   2.656   0.401  16.538  0.7272  0.0890  0.1400
   86MPD2    H7 1350   2.713   0.345  16.476 -1.5380 -3.7132  1.5057
   87TMC2    C1 1351   0.234   2.940   0.966 -0.4834  0.3235  0.0256
   87TMC2    C2 1352   0.303   2.965   1.082  0.1077 -0.1814 -0.0877
   87TMC2    C3 1353   0.251   3.055   1.165 -0.0869  0.3093  0.0603
   87TMC2    C4 1354   0.132   3.012   0.916  0.6973  0.0186  0.2858
   87TMC2    C5 1355   0.087   3.105   1.010 -0.7164 -0.2052  0.1863
   87TMC2    C6 1356   0.135   3.117   1.139  0.1014  0.0240  0.0345
   87TMC2     C 1357   0.297   2.848   0.873 -0.4215 -0.2403  0.2711
   87TMC2     O 1358   0.295   2.890   0.757  0.3802  0.5523 -0.0234
   87TMC2     H 1359   0.383   2.898   1.109  0.0434 -0.5582 -0.8260
   87TMC2    H1 1360   0.083   2.969   0.829 -0.4911 -0.2735  1.0971
   87TMC2    H2 1361   0.100   3.191   1.210  1.1660  2.3518 -1.8905
   87TMC2    C7 1362   4.703   3.175   0.974 -0.7824  0.4790 -0.0452
   87TMC2    C8 1363   0.293   3.080   1.300 -0.0118 -0.2714 -0.1644
   87TMC2    O1 1364   4.643   3.208   1.074 -0.3355 -0.0416 -0.0637
   87TMC2    O2 1365   0.223   3.124   1.385 -0.1200 -0.4352  0.2237
   87TMC2    O5 1366   0.418   3.029   1.322 -0.5555  0.3925 -0.2151
   87TMC2    H5 1367   0.463   3.020   1.235 -0.6045  1.4671 -0.3597
   88MPD2     C 1368   4.625   3.298   0.640 -1.0980  0.0552 -0.6406
   88MPD2    C1 1369   4.610   3.284   0.770 -0.2309  0.1536 -0.4633
   88MPD2    C2 1370   4.514   3.362   0.838  0.2049 -0.1704  0.0683
   88MPD2    C3 1371   4.447   3.460   0.767 -0.1970  0.5282 -0.6212
   88MPD2    C4 1372   4.461   3.477   0.629 -0.3167 -0.1364  1.4599
   88MPD2    C5 1373   4.554   3.394   0.567  0.3125 -0.3686  0.2222
   88MPD2     H 1374   4.505   3.356   0.946  1.7346  2.3661  0.3292
   88MPD2    H1 1375   4.428   3.559   0.566 -1.1054  0.3823  2.5491
   88MPD2    H2 1376   4.699   3.240   0.587  0.8792 -0.0876  2.2715
   88MPD2    H3 1377   4.560   3.386   0.459  1.4044  2.5202  0.0669
   88MPD2     N 1378   4.359   3.555   0.827 -0.2277 -0.3587  0.0528
   88MPD2    H5 1379   4.305   3.614   0.764 -0.8854 -1.1034 -0.0959
   88MPD2    N1 1380   4.698   3.195   0.833  0.8341  0.1147 -0.2174
   88MPD2    H7 1381   0.030   3.149   0.775 -1.3462 -1.4667 -1.5820
   89TMC2    C1 1382   1.312   2.277   1.883 -0.1209 -0.3468 -0.0900
   89TMC2    C2 1383   1.419   2.217   1.819 -0.3315  0.2351  1.0009
   89TMC2    C3 1384   1.471   2.276   1.712  0.3151 -0.8216 -0.1547
   89TMC2    C4 1385   1.279   2.406   1.852 -0.2928  0.2739 -0.1324
   89TMC2    C5 1386   1.335   2.460   1.736 -0.0658  0.5764 -0.2400
   89TMC2    C6 1387   1.439   2.403   1.666  0.3595 -0.4417 -0.0189
   89TMC2     C 1388   1.215   2.205   1.955 -0.2136 -0.2998  0.1039
   89TMC2     O 1389   1.140   2.274   2.028  0.9097 -0.1331 -0.5596
   89TMC2     H 1390   1.449   2.119   1.853  3.4576  0.8450 -0.5981
   89TMC2    H1 1391   1.176   2.431   1.873 -0.4970  0.4251 -1.3093
   89TMC2    H2 1392   1.451   2.424   1.561  0.7541  0.7790  0.2710
   89TMC2    C7 1393   1.270   2.579   1.679 -0.1464  0.2644 -1.0371
   89TMC2    C8 1394   1.573   2.210   1.631  0.6288  0.4435 -0.5378
   89TMC2    O1 1395   1.177   2.618   1.741  0.1930 -0.0115 -0.2914
   89TMC2    O2 1396   1.609   2.094   1.658  0.4610 -0.3452  0.4222
   89TMC2    O5 1397   1.644   2.290   1.546  1.0110  0.0183 -0.5647
   89TMC2    H5 1398   1.624   2.385   1.540 -0.2478 -0.1201  1.5607
   90MPD2     C 1399   0.851   1.853   1.993  0.4923  0.2529  0.2336
   90MPD2    C1 1400   0.948   1.795   1.912 -0.9265  0.0838 -1.0017
   90MPD2    C2 1401   1.069   1.864   1.899  1.2103  0.6211 -0.5124
   90MPD2    C3 1402   1.086   1.989   1.955  0.0294  0.0671 -0.6956
   90MPD2    C4 1403   0.989   2.033   2.043  0.1178 -0.4646  0.5866
   90MPD2    C5 1404   0.878   1.964   2.064  0.2479  0.8931  0.0961
   90MPD2     H 1405   1.154   1.827   1.843  0.4286 -1.0008 -0.6103
   90MPD2    H1 1406   1.000   2.132   2.086  1.0549 -1.2741  2.2033
   90MPD2    H2 1407   0.752   1.816   2.016  0.3439 -0.4541 -1.5163
   90MPD2    H3 1408   0.808   2.008   2.133 -0.7744  0.3321 -0.5752
   90MPD2     N 1409   1.197   2.069   1.917  0.0840 -0.3102 -0.9150
   90MPD2    H5 1410   1.260   2.025   1.850 -0.6270 -3.6195  0.5629
   90MPD2    N1 1411   0.938   1.671   1.854  0.3584  0.6300 -0.0888
   90MPD2    H7 1412   1.015   1.636   1.799 -0.0358  1.2675 -1.0539
   91TMC2    C1 1413   2.812   1.911  15.857  0.2627  0.2715 -0.4022
   91TMC2    C2 1414   2.812   2.018  15.936 -0.2954  0.1736 -0.0622
   91TMC2    C3 1415   2.696   2.031  16.009 -0.4339 -0.4947 -0.2818
   91TMC2    C4 1416   2.714   1.818  15.847 -0.2631 -0.4302 -0.3583
   91TMC2    C5 1417   2.597   1.838  15.920  0.1092  0.3078 -1.0352
   91TMC2    C6 1418   2.597   1.934  16.010 -0.0331 -0.2514 -0.0311
   91TMC2     C 1419   2.928   1.882  15.774 -0.3841  0.4748  0.3287
   91TMC2     O 1420   2.909   1.831  15.664 -0.5049 -0.0986 -0.2306
   91TMC2     H 1421   2.875   2.103  15.915 -0.5024  0.3740  0.1184
   91TMC2    H1 1422   2.733   1.724  15.796 -0.6643 -0.5245 -0.3319
   91TMC2    H2 1423   2.521   1.950  16.086 -1.2882  0.5003 -1.4302
   91TMC2    C7 1424   2.511   1.727  15.944  1.1986  0.2040 -0.6672
   91TMC2    C8 1425   2.686   2.130  16.118  0.8684  0.7453  0.1768
   91TMC2    O1 1426   2.451   1.734  16.054  0.9423 -0.1335 -0.6621
   91TMC2    O2 1427   2.579   2.162  16.167  0.1427 -0.1852 -0.1719
   91TMC2    O5 1428   2.799   2.115  16.188  0.8271 -0.2116  0.8111
   91TMC2    H5 1429   2.869   2.068  16.137 -0.8403 -1.3485 -0.4459
   92MPD2     C 1430   3.204   1.832  15.669  0.7310 -0.1685 -0.5471
   92MPD2    C1 1431   3.172   1.880  15.793 -0.1048 -0.0053  0.5415
   92MPD2    C2 1432   3.276   1.883  15.883  0.3810  0.0626 -0.5801
   92MPD2    C3 1433   3.408   1.850  15.847 -0.4284  0.1409 -0.0907
   92MPD2    C4 1434   3.434   1.801  15.721 -0.0164 -0.6581  0.0108
   92MPD2    C5 1435   3.331   1.796  15.634 -0.2782 -0.0215 -0.2946
   92MPD2     H 1436   3.252   1.924  15.980  0.2284  0.8991 -0.9633
   92MPD2    H1 1437   3.530   1.759  15.696 -0.4389 -2.3699  1.2341
   92MPD2    H2 1438   3.132   1.815  15.591 -2.0524  0.8524  1.7984
   92MPD2    H3 1439   3.344   1.770  15.529  2.7416 -1.0507  0.3405
   92MPD2     N 1440   3.517   1.858  15.940 -0.3438 -0.5374  0.9160
   92MPD2    H5 1441   3.595   1.802  15.908  1.6330  1.8522  1.5910
   92MPD2    N1 1442   3.044   1.912  15.840  0.0056  0.1630  0.1507
   92MPD2    H7 1443   3.037   1.952  15.933  1.4930 -3.0197  1.6123
   93TMC2    C1 1444   0.500   1.266  14.224 -0.5658 -0.6849  0.1110
   93TMC2    C2 1445   0.394   1.293  14.310 -0.2655  0.2332  0.2394
   93TMC2    C3 1446   0.419   1.389  14.404  0.0777 -0.3301 -0.3536
   93TMC2    C4 1447   0.623   1.328  14.231  0.1214 -0.0552  0.4029
   93TMC2    C5 1448   0.647   1.417  14.333  0.0270  0.0439 -0.0853
   93TMC2    C6 1449   0.544   1.448  14.415 -0.0307  0.4888  0.6100
   93TMC2     C 1450   0.466   1.224  14.092 -0.1122  0.3163  0.2374
   93TMC2     O 1451   0.558   1.228  14.013  0.0751 -0.1474 -0.4225
   93TMC2     H 1452   0.318   1.218  14.327  0.6422 -0.7216  0.1223
   93TMC2    H1 1453   0.699   1.312  14.155 -0.3267  0.3344 -0.1267
   93TMC2    H2 1454   0.558   1.519  14.496  0.3928  1.4599 -0.3083
   93TMC2    C7 1455   0.748   1.524  14.325  0.7399  0.2746  0.2224
   93TMC2    C8 1456   0.323   1.434  14.500 -0.5495 -0.9851 -0.6147
   93TMC2    O1 1457   0.730   1.614  14.406  0.4851 -0.0684  0.0856
   93TMC2    O2 1458   0.345   1.492  14.608 -0.3008  0.0350  1.1445
   93TMC2    O5 1459   0.205   1.413  14.445 -0.7470 -0.2832  0.2138
   93TMC2    H5 1460   0.191   1.360  14.363 -0.8109  0.4959 -0.2737
   94MPD2     C 1461   0.349   1.165  13.818 -0.3329  0.0395 -0.2217
   94MPD2    C1 1462   0.276   1.187  13.933  0.0874  0.2754 -0.4506
   94MPD2    C2 1463   0.137   1.207  13.909 -0.4803 -0.4933  0.5010
   94MPD2    C3 1464   0.092   1.222  13.780 -0.1049 -0.0848  0.7354
   94MPD2    C4 1465   0.173   1.203  13.672 -0.4902 -0.0293 -0.6504
   94MPD2    C5 1466   0.306   1.167  13.694 -0.0406  0.7246  0.0827
   94MPD2     H 1467   0.076   1.238  13.992  2.9045  1.6733  2.1957
   94MPD2    H1 1468   0.132   1.195  13.572  1.1148  3.9374 -1.6219
   94MPD2    H2 1469   0.454   1.138  13.824 -0.7120 -1.6441 -1.0101
   94MPD2    H3 1470   0.368   1.154  13.607  1.9903 -0.7700  1.7529
   94MPD2     N 1471   4.694   1.252  13.748  0.0306  0.3378  0.2372
   94MPD2    H5 1472   4.673   1.281  13.653 -0.4644 -2.2747 -0.4428
   94MPD2    N1 1473   0.326   1.208  14.069 -0.0554 -0.1692  0.3050
   94MPD2    H7 1474   0.256   1.224  14.142  1.0483 -2.1684  1.8003
   95TMC2    C1 1475   4.479   3.392  15.572  0.6633 -0.3914 -0.2843
   95TMC2    C2 1476   4.410   3.446  15.679 -1.2548 -0.4525 -0.8627
   95TMC2    C3 1477   4.267   3.439  15.679  1.0788  0.4022 -1.0361
   95TMC2    C4 1478   4.416   3.357  15.458  0.0266  0.9088 -0.4119
   95TMC2    C5 1479   4.280   3.355  15.459  0.8270 -0.4318  0.7959
   95TMC2    C6 1480   4.205   3.382  15.567 -0.1471  0.3546 -0.3337
   95TMC2     C 1481   4.628   3.404  15.573 -0.2205  0.9707  0.8310
   95TMC2     O 1482   4.688   3.492  15.632  0.8541  0.6604  0.0139
   95TMC2     H 1483   4.464   3.478  15.767  0.7223  2.0027 -2.9983
   95TMC2    H1 1484   4.469   3.334  15.366 -0.8671 -0.0351 -0.7012
   95TMC2    H2 1485   4.097   3.381  15.563 -0.0851 -1.5872 -1.4769
   95TMC2    C7 1486   4.221   3.284  15.352 -1.0050  0.9857  0.7187
   95TMC2    C8 1487   4.208   3.412  15.806  0.0486  0.0338 -0.6196
   95TMC2    O1 1488   4.286   3.189  15.301 -0.2851 -0.2789  0.2237
   95TMC2    O2 1489   4.113   3.337  15.804  0.9279 -0.7559 -0.3023
   95TMC2    O5 1490   4.223   3.522  15.889 -0.6275 -0.5812  0.0675
   95TMC2    H5 1491   4.296   3.583  15.866 -1.5559  0.1711 -0.8657
   96MPD2     C 1492   0.324   3.224  15.369 -1.5230  0.3325 -0.3558
   96MPD2    C1 1493   0.305   3.340  15.446 -0.0965  0.2375 -0.1106
   96MPD2    C2 1494   0.172   3.372  15.486  0.6443 -0.1706  0.3123
   96MPD2    C3 1495   0.067   3.288  15.450  0.0938  0.2346  0.0330
   96MPD2    C4 1496   0.095   3.175  15.386 -0.1605 -0.0163 -0.0676
   96MPD2    C5 1497   0.220   3.147  15.349 -0.4443  0.3324 -0.2482
   96MPD2     H 1498   0.156   3.469  15.530 -1.8855  0.0184 -1.0005
   96MPD2    H1 1499   0.021   3.100  15.359 -0.8448  0.8179 -0.5243
   96MPD2    H2 1500   0.423   3.187  15.345 -1.0590  1.3997 -0.1116
   96MPD2    H3 1501   0.242   3.049  15.308 -2.8064  0.4335 -1.7594
   96MPD2     N 1502   4.673   3.310  15.488  0.3251 -0.5853 -0.3622
   96MPD2    H5 1503   4.619   3.230  15.458  0.4367  0.4698 -3.3125
   96MPD2    N1 1504   0.417   3.422  15.452 -0.1770  0.3963  0.2580
   96MPD2    H7 1505   0.496   3.387  15.399 -0.0151 -0.0546  0.7962
   97TMC2    C1 1506   2.708   1.236   0.273  0.4448  0.1498 -0.5073
   97TMC2    C2 1507   2.672   1.172   0.156 -0.7549 -0.8851  0.0391
   97TMC2    C3 1508   2.649   1.250   0.043 -0.5011  0.5270 -0.3213
   97TMC2    C4 1509   2.726   1.369   0.280 -0.1577 -0.3076  0.4830
   97TMC2    C5 1510   2.711   1.437   0.164 -0.5251 -0.5887 -0.1698
   97TMC2    C6 1511   2.669   1.381   0.046  1.2013  0.7466  0.8696
   97TMC2     C 1512   2.665   1.162   0.390  0.5203 -0.1513 -0.4047
   97TMC2     O 1513   2.583   1.071   0.371 -0.8366  0.2070 -0.3235
   97TMC2     H 1514   2.652   1.065   0.158  0.0892 -1.0776 -2.4650
   97TMC2    H1 1515   2.745   1.419   0.375 -1.6446 -0.1967  0.7259
   97TMC2    H2 1516   2.664   1.425  17.695  1.5750  0.2750  0.6441
   97TMC2    C7 1517   2.720   1.584   0.172 -0.7034  0.1712 -0.2638
   97TMC2    C8 1518   2.617   1.176  17.672 -0.6795  0.3062  0.4136
   97TMC2    O1 1519   2.791   1.627   0.263  0.1386 -0.0074  0.3084
   97TMC2    O2 1520   2.710   1.156  17.595  0.1263 -0.1229  0.4454
   97TMC2    O5 1521   2.514   1.252  17.633 -0.0479 -0.6307  0.1016
   97TMC2    H5 1522   2.457   1.284  17.706 -0.9115  0.5420 -1.1128
   98MPD2     C 1523   2.723   0.999   0.866 -0.2679  0.1446 -0.4973
   98MPD2    C1 1524   2.648   0.945   0.762  0.5013  0.3659  0.3050
   98MPD2    C2 1525   2.647   1.009   0.642 -0.3751  0.5622  0.0633
   98MPD2    C3 1526   2.709   1.130   0.628 -0.6746  0.6590  0.3461
   98MPD2    C4 1527   2.761   1.193   0.740  0.4654 -0.0622 -0.0129
   98MPD2    C5 1528   2.769   1.130   0.856  0.0398  0.4550 -0.6634
   98MPD2     H 1529   2.604   0.969   0.552  0.3629 -1.9491  0.8231
   98MPD2    H1 1530   2.799   1.295   0.734  0.5681 -0.2272 -2.2058
   98MPD2    H2 1531   2.729   0.956   0.966 -0.4833 -2.8008 -1.7450
   98MPD2    H3 1532   2.821   1.175   0.939 -1.2025 -1.2511  1.0582
   98MPD2     N 1533   2.725   1.196   0.506  0.0007 -0.3026 -0.0227
   98MPD2    H5 1534   2.787   1.277   0.500 -1.6536  1.0983  1.8912
   98MPD2    N1 1535   2.585   0.816   0.786  0.1766  0.1566  0.2628
   98MPD2    H7 1536   2.616   0.775   0.874 -0.3699  0.0782  0.4167
   99TMC2    C1 1537   0.972   3.063   2.000  0.0343 -0.0073 -0.6327
   99TMC2    C2 1538   1.082   3.133   2.038 -0.3771 -1.0076  0.2150
   99TMC2    C3 1539   1.127   3.123   2.167 -0.2367  0.2830 -0.4956
   99TMC2    C4 1540   0.896   2.983   2.089 -0.4387  0.5367 -0.5074
   99TMC2    C5 1541   0.947   2.978   2.215  0.2547 -0.4876 -0.5531
   99TMC2    C6 1542   1.057   3.045   2.257 -0.1163  0.3770 -0.3604
   99TMC2     C 1543   0.949   3.060   1.857 -0.3619 -0.6867  0.1256
   99TMC2     O 1544   0.982   3.160   1.793 -0.0129 -0.5330 -0.6203
   99TMC2     H 1545   1.150   3.193   1.978  1.9771 -2.2663  1.6253
   99TMC2    H1 1546   0.798   2.954   2.054 -0.4339  1.2744 -1.1401
   99TMC2    H2 1547   1.095   3.029   2.357  0.7409 -0.1457 -0.7789
   99TMC2    C7 1548   0.874   2.900   2.316  0.4815  0.1234  0.8516
   99TMC2    C8 1549   1.271   3.153   2.183 -0.3148 -0.3957 -0.2306
   99TMC2    O1 1550   0.905   2.926   2.431 -0.2113  0.1472 -0.5128
   99TMC2    O2 1551   1.349   3.145   2.088  0.2178  0.2198  0.1000
   99TMC2    O5 1552   1.286   3.202   2.306 -0.0762 -0.1096  0.0794
   99TMC2    H5 1553   1.207   3.202   2.364  0.7154  0.6045  1.1372
  100MPD2     C 1554   0.845   2.999   1.579 -0.5578 -0.1916  0.0846
  100MPD2    C1 1555   0.872   2.906   1.677  0.2932 -0.6786  0.3181
  100MPD2    C2 1556   0.850   2.779   1.641  0.9682 -0.4886 -0.0294
  100MPD2    C3 1557   0.815   2.736   1.510  0.2099  0.3744  0.0185
  100MPD2    C4 1558   0.782   2.835   1.418 -0.2652  0.0593 -0.0137
  100MPD2    C5 1559   0.797   2.965   1.453 -0.0106 -0.1071  0.2977
  100MPD2     H 1560   0.872   2.696   1.707 -0.7223 -0.0751  1.0491
  100MPD2    H1 1561   0.767   2.810   1.314  1.1476  1.4692 -0.5744
  100MPD2    H2 1562   0.850   3.104   1.605 -1.0675 -0.8164  2.6685
  100MPD2    H3 1563   0.766   3.037   1.377  0.3434  2.4547  2.5629
  100MPD2     N 1564   0.837   2.601   1.489  0.4577 -0.1458 -0.0656
  100MPD2    H5 1565   0.891   2.546   1.555  0.2882 -1.6042 -1.1229
  100MPD2    N1 1566   0.911   2.938   1.811  0.0107  0.3425 -0.3431
  100MPD2    H7 1567   0.909   2.862   1.878 -0.3885  1.0783  0.4774
  101TMC2    C1 1568   1.835   4.044  12.834 -0.0123 -0.2458  0.1060
  101TMC2    C2 1569   1.726   4.112  12.795 -0.3642  0.0736 -0.4852
  101TMC2    C3 1570   1.749   4.217  12.704  0.3815 -0.5906  0.4973
  101TMC2    C4 1571   1.963   4.076  12.790  0.2805  0.4248  0.2740
  101TMC2    C5 1572   1.979   4.179  12.697 -0.4370 -0.3861 -0.1939
  101TMC2    C6 1573   1.868   4.249  12.651  0.7257  0.7718 -0.0938
  101TMC2     C 1574   1.805   3.924  12.918 -0.1168  0.4819 -0.8626
  101TMC2     O 1575   1.713   3.948  12.996 -0.4082 -0.0466  0.1534
  101TMC2     H 1576   1.627   4.078  12.822 -1.0632  2.9136  0.6239
  101TMC2    H1 1577   2.048   4.017  12.821  0.7127  2.2327  2.5390
  101TMC2    H2 1578   1.880   4.339  12.591 -0.3078  0.8084 -0.2477
  101TMC2    C7 1579   2.104   4.201  12.637  0.1477 -0.7555 -0.3627
  101TMC2    C8 1580   1.643   4.312  12.684 -0.2676  0.2153  0.4219
  101TMC2    O1 1581   2.107   4.254  12.528 -0.0150  0.9134  0.3572
  101TMC2    O2 1582   1.646   4.393  12.592  0.6118  0.5504  0.2449
  101TMC2    O5 1583   1.560   4.306  12.786  0.2462  0.1526 -0.0572
  101TMC2    H5 1584   1.595   4.262  12.867  0.2590 -0.3731 -0.3475
  102MPD2     C 1585   2.029   3.634  12.965 -0.3973 -0.0337  0.1440
  102MPD2    C1 1586   1.923   3.724  12.992 -0.9305  0.2947 -0.4008
  102MPD2    C2 1587   1.854   3.706  13.108  0.2168 -0.1153 -0.2479
  102MPD2    C3 1588   1.878   3.603  13.200 -0.6283  0.3409 -0.3050
  102MPD2    C4 1589   1.974   3.508  13.167 -0.8498 -0.6500  0.5787
  102MPD2    C5 1590   2.045   3.524  13.051  0.0270  0.0816 -0.3844
  102MPD2     H 1591   1.778   3.779  13.136  1.1164  1.4529 -1.8975
  102MPD2    H1 1592   2.004   3.431  13.237 -0.5089  0.0275  1.1778
  102MPD2    H2 1593   2.088   3.643  12.875  1.0603 -0.6850  1.0346
  102MPD2    H3 1594   2.123   3.453  13.025  1.0913  0.7550  0.9518
  102MPD2     N 1595   1.806   3.606  13.322 -0.6707 -0.4775 -0.3531
  102MPD2    H5 1596   1.728   3.671  13.322 -0.0195  0.2940  0.5223
  102MPD2    N1 1597   1.893   3.823  12.898  0.0730  0.2861 -0.3349
  102MPD2    H7 1598   1.955   3.821  12.818 -0.1005 -0.6568 -0.4433
  103TMC2    C1 1599   0.439   4.268  12.869  0.0396  0.3406  0.1280
  103TMC2    C2 1600   0.531   4.360  12.829  0.8071  0.5839  0.2741
  103TMC2    C3 1601   0.521   4.485  12.884  0.2761 -0.3296 -0.1934
  103TMC2    C4 1602   0.334   4.306  12.950 -0.6728  0.6519  0.3179
  103TMC2    C5 1603   0.318   4.443  12.977 -0.5197  0.1240  0.6487
  103TMC2    C6 1604   0.415   4.536  12.946  0.1561 -0.1302  0.0994
  103TMC2     C 1605   0.408   4.166  12.773 -0.9108 -0.7695  0.4848
  103TMC2     O 1606   0.297   4.117  12.788 -0.4197 -0.5480  0.0797
  103TMC2     H 1607   0.608   4.327  12.760  0.0694 -0.2796 -0.1408
  103TMC2    H1 1608   0.248   4.243  12.968 -1.2990  1.6527  0.8114
  103TMC2    H2 1609   0.405   4.639  12.976  0.9730  0.5685 -2.0845
  103TMC2    C7 1610   0.177   4.491  12.993 -0.4253  0.2229 -0.4490
  103TMC2    C8 1611   0.633   4.569  12.874  0.1162  0.5526  0.0613
  103TMC2    O1 1612   0.102   4.402  13.021  0.3379 -0.2722  0.5660
  103TMC2    O2 1613   0.619   4.681  12.921  0.0228  0.0479 -0.1283
  103TMC2    O5 1614   0.741   4.487  12.898 -0.4650  0.1168  0.4070
  103TMC2    H5 1615   0.750   4.407  12.842 -0.6270  2.1422 -2.5356
  104MPD2     C 1616   0.641   3.955  12.588  0.4829  0.6180 -0.4822
  104MPD2    C1 1617   0.518   4.007  12.623 -1.2348 -0.1832  0.0599
  104MPD2    C2 1618   0.399   3.964  12.560  0.2284  0.2242  0.3789
  104MPD2    C3 1619   0.399   3.852  12.491 -0.0078  1.1058  0.7018
  104MPD2    C4 1620   0.518   3.792  12.465  0.3346 -0.2025  0.3335
  104MPD2    C5 1621   0.637   3.847  12.498 -0.1599  0.7862  0.0305
  104MPD2     H 1622   0.306   4.018  12.576  0.6237  0.7206  1.0277
  104MPD2    H1 1623   0.522   3.703  12.402  1.3057 -0.2296  0.4416
  104MPD2    H2 1624   0.733   4.006  12.614  1.3263 -0.9810 -0.2949
  104MPD2    H3 1625   0.729   3.802  12.461 -0.0521 -0.2398  1.5303
  104MPD2     N 1626   0.277   3.802  12.445 -0.1974 -0.1983 -0.4511
  104MPD2    H5 1627   0.192   3.855  12.462 -0.1719 -0.1960 -0.3291
  104MPD2    N1 1628   0.520   4.109  12.714 -0.6381 -0.2050 -0.1687
  104MPD2    H7 1629   0.615   4.128  12.743 -0.6963  1.8537 -1.3092
  105TMC2    C1 1630   0.706   2.628   0.207 -0.0919 -0.4253  0.6266
  105TMC2    C2 1631   0.696   2.569   0.086  0.5386  0.4703  0.3241
  105TMC2    C3 1632   0.629   2.443   0.094 -0.2485  0.2504  0.6045
  105TMC2    C4 1633   0.656   2.582   0.326  0.5776  0.2214  0.0156
  105TMC2    C5 1634   0.571   2.471   0.314 -0.0637 -0.2336  0.1450
  105TMC2    C6 1635   0.580   2.381   0.205 -0.1580 -0.5730 -0.1595
  105TMC2     C 1636   0.804   2.736   0.223 -0.2000  0.6420  0.0439
  105TMC2     O 1637   0.887   2.725   0.312 -0.9930  1.1360 -0.1481
  105TMC2     H 1638   0.726   2.616  17.741 -1.8648  1.3275 -0.0066
  105TMC2    H1 1639   0.652   2.652   0.409  0.1433  0.0731  0.1204
  105TMC2    H2 1640   0.522   2.290   0.210 -2.6497  0.9953 -0.8601
  105TMC2    C7 1641   0.498   2.418   0.430  0.0079  0.7137  0.5289
  105TMC2    C8 1642   0.655   2.362  17.725  0.3314 -0.6955  0.6040
  105TMC2    O1 1643   0.455   2.304   0.424 -0.3255  0.5544 -0.0582
  105TMC2    O2 1644   0.697   2.406  17.621 -0.3384 -0.0941  0.0681
  105TMC2    O5 1645   0.679   2.237   0.016 -0.1374  0.1413 -0.6333
  105TMC2    H5 1646   0.674   2.225   0.113 -0.4454 -0.5448 -0.7356
  106MPD2     C 1647   1.117   3.064  17.727  0.2223  0.3926 -0.1291
  106MPD2    C1 1648   1.000   3.058  17.659 -0.2379 -0.2219 -0.3131
  106MPD2    C2 1649   0.904   2.966  17.705  0.5086 -0.5341  0.1401
  106MPD2    C3 1650   0.916   2.894   0.074 -0.2299 -0.0135  0.7184
  106MPD2    C4 1651   1.032   2.916   0.144 -0.1716 -0.0125 -0.6375
  106MPD2    C5 1652   1.135   2.985   0.090 -0.1170  0.0761  0.5859
  106MPD2     H 1653   0.816   2.961  17.643  0.5294 -0.3490  0.0968
  106MPD2    H1 1654   1.050   2.863   0.237  0.7871 -0.3181 -0.9952
  106MPD2    H2 1655   1.197   3.129  17.695 -0.5526  0.4187 -1.9779
  106MPD2    H3 1656   1.224   3.004   0.148  0.5937  1.6842 -1.0469
  106MPD2     N 1657   0.810   2.810   0.109  0.2944  0.5356  0.2241
  106MPD2    H5 1658   0.727   2.792   0.054  0.1126  2.8775 -0.2696
  106MPD2    N1 1659   0.971   3.135  17.543  0.0637 -0.5559  0.0536
  106MPD2    H7 1660   0.881   3.127  17.497  0.3135 -0.6617 -0.4171
  107TMC2    C1 1661   1.764   3.241  11.570  0.2581 -0.5344  0.2058
  107TMC2    C2 1662   1.793   3.336  11.472  0.3406 -0.3232  0.1463
  107TMC2    C3 1663   1.777   3.307  11.340 -0.2043  0.0284  0.1504
  107TMC2    C4 1664   1.703   3.124  11.531 -0.1201  0.7520 -0.1466
  107TMC2    C5 1665   1.688   3.101  11.395 -0.4144 -0.2319  0.6351
  107TMC2    C6 1666   1.719   3.194  11.299 -0.5020 -0.1401  0.2684
  107TMC2     C 1667   1.711   3.289  11.696  0.4257 -0.0016  0.3567
  107TMC2     O 1668   1.724   3.212  11.790 -0.2242 -0.1705  0.0050
  107TMC2     H 1669   1.830   3.433  11.503  2.1699 -1.0203  0.1126
  107TMC2    H1 1670   1.659   3.052  11.599 -1.9902  0.3145 -1.8124
  107TMC2    H2 1671   1.692   3.168  11.197  0.4470  1.3413 -0.3627
  107TMC2    C7 1672   1.640   2.973  11.367  0.7745 -0.0780  0.0947
  107TMC2    C8 1673   1.832   3.398  11.247 -0.0172 -0.1991  0.2303
  107TMC2    O1 1674   1.563   2.956  11.274  0.6095  0.0537 -0.1370
  107TMC2    O2 1675   1.805   3.516  11.262  0.6461  0.0146 -0.4354
  107TMC2    O5 1676   1.829   3.332  11.128  0.3408  0.4354 -0.3793
  107TMC2    H5 1677   1.850   3.236  11.127  1.0958  0.5790  0.9447
  108MPD2     C 1678   1.431   3.528  11.715 -0.4104 -0.1653  0.0545
  108MPD2    C1 1679   1.511   3.425  11.753 -0.4809  0.4007 -0.0071
  108MPD2    C2 1680   1.475   3.359  11.868  0.5607 -0.2258  0.3631
  108MPD2    C3 1681   1.362   3.402  11.942 -0.3237 -1.0757 -0.9175
  108MPD2    C4 1682   1.282   3.505  11.894  0.1373 -0.1710  0.0254
  108MPD2    C5 1683   1.314   3.562  11.778  0.4205 -0.3559 -0.1666
  108MPD2     H 1684   1.533   3.274  11.901  0.8339 -0.1066  0.1925
  108MPD2    H1 1685   1.191   3.533  11.944  1.4255  1.7523  1.2909
  108MPD2    H2 1686   1.458   3.593  11.632  0.9448 -0.8432 -0.0424
  108MPD2    H3 1687   1.244   3.635  11.740 -0.7008 -1.4854 -0.2595
  108MPD2     N 1688   1.320   3.328  12.056  1.4271 -0.0012  0.0063
  108MPD2    H5 1689   1.231   3.356  12.096  0.5034 -1.4808 -1.0355
  108MPD2    N1 1690   1.625   3.394  11.672 -0.2677 -0.2041 -0.6052
  108MPD2    H7 1691   1.642   3.450  11.588  1.1466 -0.6143 -0.5867
  109TMC2    C1 1692   1.287   0.449   0.385  0.3590 -0.1075  0.0629
  109TMC2    C2 1693   1.226   0.495   0.268  0.0244  0.2462 -0.2463
  109TMC2    C3 1694   1.310   0.545   0.174 -0.2494  0.1908 -0.0929
  109TMC2    C4 1695   1.416   0.429   0.391  0.2172 -0.0129 -0.3470
  109TMC2    C5 1696   1.505   0.462   0.286  0.5709  0.6246  0.1867
  109TMC2    C6 1697   1.449   0.524   0.179 -0.4156  0.2055 -0.3235
  109TMC2     C 1698   1.202   0.439   0.504 -0.4026  0.2789 -0.8269
  109TMC2     O 1699   1.246   0.412   0.614  0.6776 -0.0553  0.1549
  109TMC2     H 1700   1.122   0.517   0.243 -0.5129 -1.0731  0.8536
  109TMC2    H1 1701   1.463   0.390   0.481  0.1386  2.4992  0.7855
  109TMC2    H2 1702   1.510   0.554   0.094  1.1798  1.4007  1.2481
  109TMC2    C7 1703   1.630   0.400   0.258  0.2658 -0.6034 -0.4814
  109TMC2    C8 1704   1.255   0.569   0.044  0.2746 -0.6814  0.6353
  109TMC2    O1 1705   1.639   0.358   0.142  0.1667  0.6734  0.3250
  109TMC2    O2 1706   1.151   0.516   0.002 -0.4994  0.2322  0.2595
  109TMC2    O5 1707   1.350   0.616  17.707  0.0910 -0.4469  0.0880
  109TMC2    H5 1708   1.427   0.665  17.744 -0.1086  1.2009 -1.6680
  110MPD2     C 1709   0.727   0.468   0.715  0.3450 -0.0783  0.3984
  110MPD2    C1 1710   0.854   0.454   0.772 -0.2036  0.0322 -0.1706
  110MPD2    C2 1711   0.964   0.432   0.692  0.1180 -0.0915  0.0128
  110MPD2    C3 1712   0.955   0.443   0.554  0.4842 -0.1026 -0.2978
  110MPD2    C4 1713   0.827   0.459   0.499 -0.3702  0.0617  1.1056
  110MPD2    C5 1714   0.715   0.471   0.575 -0.6107  0.2250 -0.5105
  110MPD2     H 1715   1.062   0.433   0.738 -0.3163 -2.9847  1.0009
  110MPD2    H1 1716   0.818   0.464   0.391  1.6226  0.5881  0.9735
  110MPD2    H2 1717   0.642   0.460   0.781 -0.4470  0.3042 -0.5866
  110MPD2    H3 1718   0.618   0.471   0.526 -0.2272 -0.0650 -1.2622
  110MPD2     N 1719   1.067   0.448   0.468 -0.2869  0.4889 -0.6779
  110MPD2    H5 1720   1.048   0.459   0.369 -1.7261 -0.2901 -0.4954
  110MPD2    N1 1721   0.854   0.424   0.913 -0.0325 -0.6220 -0.0366
  110MPD2    H7 1722   0.762   0.427   0.955 -0.3057  2.8547 -0.8933
  111TMC2    C1 1723   2.552   0.147  11.073  1.1484 -0.2373  0.5506
  111TMC2    C2 1724   2.636   0.073  10.996  0.5564 -0.5264  0.7605
  111TMC2    C3 1725   2.679   4.689  11.049 -0.7739 -0.4084 -0.1288
  111TMC2    C4 1726   2.535   0.118  11.205  0.4811  0.7211 -0.1187
  111TMC2    C5 1727   2.588   0.006  11.260 -0.1884  0.2228  0.0317
  111TMC2    C6 1728   2.657   4.658  11.183 -0.1695  0.0855  0.8960
  111TMC2     C 1729   2.495   0.262  11.010  0.1392  0.2729  0.2548
  111TMC2     O 1730   2.502   0.263  10.890 -0.6919 -0.0209  0.0404
  111TMC2     H 1731   2.661   0.092  10.892 -0.1649  0.2825  0.7398
  111TMC2    H1 1732   2.485   0.185  11.274  0.4205  0.9049 -0.3419
  111TMC2    H2 1733   2.691   4.564  11.225 -1.9527 -1.4346 -1.0508
  111TMC2    C7 1734   2.573   4.702  11.392  0.2711  0.6663  0.4714
  111TMC2    C8 1735   2.758   4.600  10.968  0.7345 -0.5763  0.2016
  111TMC2    O1 1736   2.590   4.579  11.412 -0.1397  0.2327 -0.1049
  111TMC2    O2 1737   2.812   4.506  11.025 -0.1816  0.1355 -0.0274
  111TMC2    O5 1738   2.691   4.582  10.852 -0.1092  0.1796 -0.1146
  111TMC2    H5 1739   2.634   4.658  10.830 -0.5656 -0.4177 -1.0075
  112MPD2     C 1740   2.210   0.684  10.971  0.6106  0.2086  0.5167
  112MPD2    C1 1741   2.260   0.611  10.872 -0.6301  0.2125 -0.1243
  112MPD2    C2 1742   2.321   0.489  10.911 -0.0398 -0.3473 -0.6598
  112MPD2    C3 1743   2.341   0.455  11.040 -0.5037  0.1063 -0.7793
  112MPD2    C4 1744   2.289   0.527  11.137  0.1427 -0.2488  0.4403
  112MPD2    C5 1745   2.211   0.632  11.096  0.0694 -0.1054  0.2736
  112MPD2     H 1746   2.349   0.421  10.832 -2.5558 -2.2797  0.1263
  112MPD2    H1 1747   2.276   0.490  11.238 -0.2765 -0.2088  0.4019
  112MPD2    H2 1748   2.154   0.774  10.946  2.5646  0.8926 -1.4217
  112MPD2    H3 1749   2.148   0.673  11.175 -2.5944 -2.0042 -0.8787
  112MPD2     N 1750   2.422   0.345  11.087  0.0029  0.3023 -0.0981
  112MPD2    H5 1751   2.431   0.338  11.188  1.7953 -0.8353 -0.3377
  112MPD2    N1 1752   2.253   0.645  10.733  0.1084  0.5075  0.2275
  112MPD2    H7 1753   2.275   0.569  10.670 -1.4925 -1.8041  2.4839
  113TMC2    C1 1754   4.354   2.479   1.586  1.0770 -0.6781 -0.0538
  113TMC2    C2 1755   4.230   2.498   1.633  0.5671 -0.0799  0.1277
  113TMC2    C3 1756   4.127   2.445   1.566  0.2795 -0.2050  0.2466
  113TMC2    C4 1757   4.376   2.400   1.479 -0.0482 -0.4843 -0.3584
  113TMC2    C5 1758   4.270   2.338   1.423  0.6135 -0.3743  0.8600
  113TMC2    C6 1759   4.142   2.356   1.463 -0.1508  0.7880 -0.3978
  113TMC2     C 1760   4.457   2.517   1.679  0.3133 -0.0229 -0.8981
  113TMC2     O 1761   4.431   2.570   1.784  0.2712  0.6655  0.6951
  113TMC2     H 1762   4.214   2.564   1.717  1.5209 -0.9339  0.9820
  113TMC2    H1 1763   4.472   2.380   1.433 -0.1850  1.8957 -1.6476
  113TMC2    H2 1764   4.056   2.313   1.412  0.0955 -0.0559 -0.0834
  113TMC2    C7 1765   4.306   2.234   1.330 -0.0484 -0.1666  0.3785
  113TMC2    C8 1766   4.000   2.508   1.596  0.3470  0.1393 -0.8004
  113TMC2    O1 1767   4.422   2.227   1.283  0.2077  0.1576  0.2953
  113TMC2    O2 1768   3.993   2.606   1.671  0.0416  0.0479 -0.0734
  113TMC2    O5 1769   3.904   2.420   1.561 -0.3927 -0.3187 -0.1465
  113TMC2    H5 1770   3.945   2.332   1.545  0.1839 -0.3435  1.4298
  114MPD2     C 1771   0.214   2.542   1.809 -0.1145 -0.4220 -0.2474
  114MPD2    C1 1772   0.102   2.584   1.881  0.0075 -0.0858  0.2257
  114MPD2    C2 1773   4.716   2.559   1.827 -0.4073 -0.1788  0.2918
  114MPD2    C3 1774   4.704   2.488   1.702  0.0975  0.4249  0.2991
  114MPD2    C4 1775   0.082   2.432   1.642  0.0177 -0.4628  0.1238
  114MPD2    C5 1776   0.204   2.463   1.703 -0.1697  0.3077  0.9085
  114MPD2     H 1777   4.629   2.609   1.868  1.0410  1.8155  0.9148
  114MPD2    H1 1778   0.082   2.367   1.556  0.6193 -0.1733 -0.0935
  114MPD2    H2 1779   0.314   2.572   1.839  0.7139 -1.8109 -1.6228
  114MPD2    H3 1780   0.296   2.439   1.651 -1.2356  1.8218 -1.6425
  114MPD2     N 1781   4.577   2.459   1.645 -0.4201 -0.0733 -0.0606
  114MPD2    H5 1782   4.586   2.414   1.554 -3.3569 -0.7193 -0.0193
  114MPD2    N1 1783   0.109   2.661   2.002  0.8704 -0.0414 -0.5733
  114MPD2    H7 1784   0.022   2.703   2.035  1.3856  0.6871 -0.1320
  115TMC2    C1 1785   0.899   0.853  17.552 -0.2597  0.6589 -0.1843
  115TMC2    C2 1786   1.018   0.847  17.609  0.2999  0.1345 -0.4771
  115TMC2    C3 1787   1.073   0.972  17.643  0.1569  0.0319  0.0573
  115TMC2    C4 1788   0.837   0.971  17.518  0.7731  0.0148 -0.1249
  115TMC2    C5 1789   0.899   1.089  17.549  0.1206  0.4261  0.5802
  115TMC2    C6 1790   1.013   1.090  17.612  0.3295  0.4103  0.2710
  115TMC2     C 1791   0.824   0.732  17.526  0.2272  0.2849 -0.1640
  115TMC2     O 1792   0.705   0.740  17.499 -0.7735 -0.6551  0.2251
  115TMC2     H 1793   1.059   0.761  17.660  2.7307  1.7953  0.3926
  115TMC2    H1 1794   0.749   0.970  17.455  0.3030  1.0175  0.5322
  115TMC2    H2 1795   1.063   1.182  17.642  0.8239  0.7612 -1.6226
  115TMC2    C7 1796   0.858   1.220  17.495  0.2060  0.4055  0.2696
  115TMC2    C8 1797   1.178   0.983  17.739 -0.2035 -0.0217 -0.1981
  115TMC2    O1 1798   0.746   1.220  17.453 -0.4033  0.3292 -0.1096
  115TMC2    O2 1799   1.260   1.073   0.003  0.1352  0.3578 -0.3958
  115TMC2    O5 1800   1.141   0.906   0.096 -0.3243 -0.1727 -0.2362
  115TMC2    H5 1801   1.048   0.886   0.070 -0.3388 -1.6205  0.9163
  116MPD2     C 1802   0.785   0.219  17.553  0.3437  0.3716 -0.2945
  116MPD2    C1 1803   0.688   0.321  17.545 -0.6216  0.2882  0.3370
  116MPD2    C2 1804   0.726   0.455  17.533  0.3498  0.0516  0.6241
  116MPD2    C3 1805   0.862   0.488  17.533 -0.0689  0.1664  0.3821
  116MPD2    C4 1806   0.960   0.390  17.539  0.6222 -0.4908  0.2522
  116MPD2    C5 1807   0.917   0.262  17.541  0.4110 -0.6621 -0.2719
  116MPD2     H 1808   0.646   0.528  17.519  2.7828  2.4485 -0.7922
  116MPD2    H1 1809   1.067   0.407  17.541  0.8530 -1.8904 -0.1008
  116MPD2    H2 1810   0.759   0.114  17.554 -3.0411  1.2495  1.5787
  116MPD2    H3 1811   0.993   0.188  17.518  1.7046  0.3198  0.8267
  116MPD2     N 1812   0.904   0.621  17.537  0.0302 -0.1273 -0.2208
  116MPD2    H5 1813   1.005   0.626  17.553 -0.0045 -0.0893 -0.0180
  116MPD2    N1 1814   0.553   0.267  17.550  0.2841  0.4633  0.1593
  116MPD2    H7 1815   0.548   0.167  17.532  0.3021  0.5298 -0.2062
  117TMC2    C1 1816   4.570   1.828  14.063  1.0155  0.6255  0.4554
  117TMC2    C2 1817   4.680   1.806  14.143  0.4068 -0.7101  0.9480
  117TMC2    C3 1818   0.011   1.920  14.177 -0.3630  0.6120  0.3440
  117TMC2    C4 1819   4.531   1.954  14.011 -0.3858  0.7917 -0.3567
  117TMC2    C5 1820   4.614   2.062  14.046 -0.1818 -0.5443  0.1645
  117TMC2    C6 1821   4.717   2.047  14.135 -0.0981  0.2012 -0.0964
  117TMC2     C 1822   4.474   1.718  14.074  0.7549 -0.2482  0.3362
  117TMC2     O 1823   4.513   1.603  14.103  0.3909 -0.0072  0.1007
  117TMC2     H 1824   4.720   1.709  14.168 -0.8038 -1.0556  1.5321
  117TMC2    H1 1825   4.448   1.963  13.942 -0.9319  1.9642  0.4505
  117TMC2    H2 1826   0.031   2.135  14.173 -1.8170  1.4411 -0.6119
  117TMC2    C7 1827   4.581   2.194  14.003  0.2213  0.1017 -0.2854
  117TMC2    C8 1828   0.116   1.890  14.266 -0.1039 -0.2578  0.0420
  117TMC2    O1 1829   4.654   2.288  14.012 -0.8859  0.3455  0.0314
  117TMC2    O2 1830   0.166   1.781  14.272  0.1347 -0.2070 -0.8756
  117TMC2    O5 1831   0.098   1.963  14.377 -0.0171  0.0005  0.0040
  117TMC2    H5 1832   0.022   2.024  14.387 -0.3902 -0.5000  0.2372
  118MPD2     C 1833   4.232   2.267  13.918  0.4909  0.6290  0.8872
  118MPD2    C1 1834   4.363   2.303  13.943 -0.4360  0.2189  0.0801
  118MPD2    C2 1835   4.402   2.439  13.942 -0.5739 -0.1698  0.1669
  118MPD2    C3 1836   4.309   2.536  13.922  0.7065  0.1588 -0.1715
  118MPD2    C4 1837   4.174   2.496  13.900  0.5158  0.0864 -0.5211
  118MPD2    C5 1838   4.135   2.362  13.892  0.5211 -0.2717 -1.2685
  118MPD2     H 1839   4.506   2.469  13.946 -0.4982 -0.3585 -0.4396
  118MPD2    H1 1840   4.096   2.567  13.872  1.0925  1.1532  0.5906
  118MPD2    H2 1841   4.194   2.166  13.917 -1.0596  1.2133  0.7675
  118MPD2    H3 1842   4.036   2.321  13.877  0.6252  0.0398 -2.7238
  118MPD2     N 1843   4.337   2.676  13.926  0.2462  0.1063  0.0287
  118MPD2    H5 1844   4.253   2.729  13.904 -0.3632 -0.8829 -0.0119
  118MPD2    N1 1845   4.450   2.193  13.968  0.7319  0.8482  0.0732
  118MPD2    H7 1846   4.408   2.101  13.979 -0.8467  1.4685 -0.7712
  119TMC2    C1 1847   2.120   2.703  13.608  0.0501  0.3485  0.8411
  119TMC2    C2 1848   2.129   2.569  13.583 -1.0472  0.4785 -0.4445
  119TMC2    C3 1849   2.037   2.476  13.639 -0.4226  0.5453 -0.2954
  119TMC2    C4 1850   2.028   2.749  13.704  0.0121 -0.3463 -0.0860
  119TMC2    C5 1851   1.942   2.658  13.762 -0.1725  0.0076  0.5943
  119TMC2    C6 1852   1.940   2.523  13.729 -0.3308  0.3670  0.1564
  119TMC2     C 1853   2.232   2.797  13.591 -0.8829 -0.3348 -0.3841
  119TMC2     O 1854   2.211   2.912  13.629 -0.3518  0.7720  0.6498
  119TMC2     H 1855   2.187   2.525  13.502  0.8756  0.6526  0.8335
  119TMC2    H1 1856   2.038   2.847  13.748  3.7638 -0.0979 -1.4631
  119TMC2    H2 1857   1.853   2.459  13.742  1.2150 -1.7856 -0.1130
  119TMC2    C7 1858   1.899   2.705  13.894  0.7023  0.3033  0.0034
  119TMC2    C8 1859   2.008   2.370  13.554  0.1978 -0.2311 -0.2260
  119TMC2    O1 1860   1.926   2.818  13.932 -0.0696  0.6331  0.0131
  119TMC2    O2 1861   2.005   2.387  13.431 -0.4200  0.4708  0.1464
  119TMC2    O5 1862   1.930   2.277  13.615  0.4370 -0.4872 -0.1991
  119TMC2    H5 1863   1.927   2.277  13.714 -0.1051  0.3950 -0.2106
  120MPD2     C 1864   2.735   2.884  13.597 -0.0977 -0.3237  0.3773
  120MPD2    C1 1865   2.631   2.967  13.641  1.1040 -0.4563  0.0340
  120MPD2    C2 1866   2.501   2.912  13.630  0.0441  0.0169  0.0787
  120MPD2    C3 1867   2.480   2.787  13.572  0.1213  0.3900 -1.0110
  120MPD2    C4 1868   2.584   2.706  13.529 -0.2051  0.0965  0.3341
  120MPD2    C5 1869   2.715   2.757  13.541  0.6686 -0.4097 -0.1858
  120MPD2     H 1870   2.421   2.964  13.682 -0.5408  0.6449 -1.4660
  120MPD2    H1 1871   2.562   2.611  13.482 -1.2863  1.4111 -1.8132
  120MPD2    H2 1872   2.835   2.926  13.601  0.1872 -1.0929  1.4468
  120MPD2    H3 1873   2.802   2.695  13.522 -0.5400 -1.4766 -2.1737
  120MPD2     N 1874   2.348   2.729  13.562 -0.4620  0.0276 -0.2094
  120MPD2    H5 1875   2.334   2.638  13.520  1.6206  0.5341 -1.9599
  120MPD2    N1 1876   2.663   3.079  13.718  0.1702 -0.5086 -0.1932
  120MPD2    H7 1877   2.761   3.089  13.741  0.6845  1.0733 -3.0749
  121TMC2    C1 1878   4.012   0.036  14.166 -0.5594  0.2125  0.0801
  121TMC2    C2 1879   4.017   4.703  14.284 -0.3984 -0.0751 -0.9997
  121TMC2    C3 1880   3.941   4.596  14.280 -0.0860 -0.1941  0.5800
  121TMC2    C4 1881   3.932   0.002  14.057 -0.1520 -0.4686 -0.4581
  121TMC2    C5 1882   3.847   4.633  14.067 -0.2918  0.5680  0.1639
  121TMC2    C6 1883   3.862   4.554  14.174  0.2139  0.0393  0.3804
  121TMC2     C 1884   4.038   0.176  14.189  0.1429 -0.3617  0.1986
  121TMC2     O 1885   4.011   0.224  14.298 -0.4864  0.8045  0.2638
  121TMC2     H 1886   4.074   0.005  14.367  0.0053  0.1333 -1.3758
  121TMC2    H1 1887   3.943   0.060  13.966  3.3771  0.4370  0.5621
  121TMC2    H2 1888   3.794   4.471  14.184 -0.3520  0.6940  1.8827
  121TMC2    C7 1889   3.777   4.581  13.946  0.0564 -0.8055  0.0998
  121TMC2    C8 1890   3.948   4.510  14.397  0.4872  0.2019  0.1690
  121TMC2    O1 1891   3.732   4.467  13.948  0.1441 -0.1638 -0.2499
  121TMC2    O2 1892   3.989   4.544  14.507 -0.7311  0.3901  0.2413
  121TMC2    O5 1893   3.928   4.384  14.349  0.0021  0.4940  0.3558
  121TMC2    H5 1894   3.917   4.373  14.252  1.0358  0.5461  0.2344
  122MPD2     C 1895   4.170   0.448  14.202 -0.0469 -0.2319  0.0867
  122MPD2    C1 1896   4.154   0.377  14.083 -0.0220 -0.6932  0.1528
  122MPD2    C2 1897   4.193   0.434  13.965 -0.3688 -0.4374  0.4845
  122MPD2    C3 1898   4.244   0.562  13.957  0.1354 -0.0656  0.4183
  122MPD2    C4 1899   4.273   0.625  14.076 -0.2851  0.8824  0.1214
  122MPD2    C5 1900   4.243   0.567  14.197 -0.1784  0.0628 -0.4049
  122MPD2     H 1901   4.197   0.370  13.878  0.2416  0.5456 -0.2075
  122MPD2    H1 1902   4.339   0.710  14.068  0.8662  0.1850  2.1387
  122MPD2    H2 1903   4.140   0.409  14.298  2.4296 -0.5801  0.7142
  122MPD2    H3 1904   4.266   0.620  14.289  2.2487  1.0469 -1.6018
  122MPD2     N 1905   4.290   0.627  13.843  0.0788  0.2533 -0.0512
  122MPD2    H5 1906   4.360   0.700  13.854 -2.1055  1.9000  2.7818
  122MPD2    N1 1907   4.097   0.241  14.079  0.7082  0.2915 -0.0839
  122MPD2    H7 1908   4.115   0.190  13.993 -1.2349 -2.8030  1.3301
  123TMC2    C1 1909   2.978   2.212  11.214  0.0550 -0.0187 -0.2016
  123TMC2    C2 1910   3.023   2.083  11.218  0.1576 -0.6404  0.3427
  123TMC2    C3 1911   3.040   2.014  11.096 -0.6759  0.7338  0.2297
  123TMC2    C4 1912   2.949   2.278  11.097  0.6022  0.2482 -0.1109
  123TMC2    C5 1913   2.965   2.202  10.987 -0.3522  1.0555  0.8192
  123TMC2    C6 1914   3.006   2.072  10.981 -0.0796 -0.6743  0.0652
  123TMC2     C 1915   2.936   2.265  11.334  0.2296 -0.3504  0.7732
  123TMC2     O 1916   2.997   2.244  11.441  0.0772  0.3873  0.8644
  123TMC2     H 1917   3.024   2.028  11.312  0.8914 -1.0817  0.0801
  123TMC2    H1 1918   2.932   2.385  11.087  0.8774  0.4861  2.0182
  123TMC2    H2 1919   3.002   2.007  10.894  2.3222  0.1651 -0.6738
  123TMC2    C7 1920   2.930   2.263  10.868 -0.1140  0.1318  0.1453
  123TMC2    C8 1921   3.069   1.871  11.094 -0.0321  0.3676 -0.9776
  123TMC2    O1 1922   2.844   2.347  10.860  0.0441 -0.0015  0.3706
  123TMC2    O2 1923   3.053   1.809  11.198  0.1955  0.2240  0.9217
  123TMC2    O5 1924   3.167   1.849  11.003  0.0070 -0.4189  0.6240
  123TMC2    H5 1925   3.192   1.922  10.943 -0.3086 -1.0147 -0.2340
  124MPD2     C 1926   2.633   2.580  11.614 -0.2183 -0.4291 -0.6689
  124MPD2    C1 1927   2.581   2.570  11.485 -0.3802 -0.5964 -0.1830
  124MPD2    C2 1928   2.660   2.500  11.390 -0.1958  0.4171 -0.2192
  124MPD2    C3 1929   2.781   2.441  11.428 -1.1881 -0.0238 -0.1819
  124MPD2    C4 1930   2.826   2.449  11.555 -0.7954 -0.8243  0.1300
  124MPD2    C5 1931   2.749   2.519  11.648  0.2225  0.1775  0.4844
  124MPD2     H 1932   2.622   2.475  11.292 -1.6914  0.9912  0.2135
  124MPD2    H1 1933   2.915   2.391  11.574 -0.0380 -0.0092 -0.9565
  124MPD2    H2 1934   2.569   2.623  11.691  0.7555  0.9438 -0.6218
  124MPD2    H3 1935   2.777   2.522  11.752  1.1348  1.4927  0.1977
  124MPD2     N 1936   2.838   2.358  11.327 -0.1650  0.3441  0.3237
  124MPD2    H5 1937   2.781   2.346  11.244 -1.0171 -0.5569  1.0278
  124MPD2    N1 1938   2.456   2.628  11.450 -0.3483  0.1414 -0.0644
  124MPD2    H7 1939   2.406   2.680  11.521 -0.7257 -2.9354  1.9617
  125TMC2    C1 1940   2.853   1.231   9.763 -0.3888  0.7894 -0.5901
  125TMC2    C2 1941   2.820   1.109   9.824  0.6984 -0.6168 -0.3144
  125TMC2    C3 1942   2.803   1.001   9.744 -0.4285  0.3815 -0.1608
  125TMC2    C4 1943   2.877   1.237   9.630 -0.5179 -0.8983 -0.4963
  125TMC2    C5 1944   2.865   1.117   9.560 -0.2405 -0.2229  0.3318
  125TMC2    C6 1945   2.837   0.996   9.612  0.4968  0.5474 -0.6563
  125TMC2     C 1946   2.850   1.349   9.845 -0.6223 -0.5843  0.3575
  125TMC2     O 1947   2.878   1.336   9.962  0.0220  0.1456  0.6498
  125TMC2     H 1948   2.781   1.104   9.925  1.2760 -0.0213 -0.0582
  125TMC2    H1 1949   2.909   1.332   9.591 -1.8051 -0.1198  0.3510
  125TMC2    H2 1950   2.804   0.918   9.544  2.4601  1.2930 -2.4321
  125TMC2    C7 1951   2.961   1.116   9.450  0.0085 -1.0270  0.1736
  125TMC2    C8 1952   2.726   0.899   9.800  0.3129 -0.5281  0.1574
  125TMC2    O1 1953   2.983   1.223   9.402  0.0507  0.2852 -0.4894
  125TMC2    O2 1954   2.642   0.910   9.890  0.0401  0.2350 -0.0688
  125TMC2    O5 1955   2.733   0.797   9.713  0.1094 -0.6755 -0.0438
  125TMC2    H5 1956   2.820   0.788   9.668  0.1478 -1.7503  0.2575
  126MPD1     C 1957   2.826   1.853   9.920 -0.7591  0.5633  0.0446
  126MPD1    C1 1958   2.807   1.832   9.787 -0.1260 -0.4546 -0.3990
  126MPD1    C2 1959   2.801   1.709   9.737  0.0682 -0.0046 -0.8183
  126MPD1    C3 1960   2.821   1.604   9.831 -0.4474 -0.1750  0.8485
  126MPD1    C4 1961   2.840   1.628   9.962 -0.0864 -0.8433 -0.5080
  126MPD1    C5 1962   2.841   1.757  10.008  0.4420 -0.5627 -0.1112
  126MPD1     H 1963   2.774   1.690   9.634 -2.0550  0.8144 -0.4223
  126MPD1    H1 1964   2.860   1.545  10.028  0.1574 -0.9847 -0.7570
  126MPD1    H2 1965   2.827   1.954   9.961 -1.8104  0.3900  0.5052
  126MPD1    H3 1966   2.875   1.786  10.108 -2.0115  1.0601  0.2607
  126MPD1     N 1967   2.821   1.471   9.775  0.4115  0.0365  0.0631
  126MPD1    H5 1968   2.793   1.467   9.677  0.7626  1.5815 -0.0990
  126MPD1    N1 1969   2.767   1.941   9.703  0.6599 -0.3217  0.1489
  126MPD1    H6 1970   2.795   1.925   9.607 -0.5237 -0.2772 -0.2015
  126MPD1    H7 1971   2.799   2.032   9.737  1.3841 -0.4627 -0.1510
  127TMC2    C1 1972   4.633   3.750   9.442  0.5243  0.6780  0.0050
  127TMC2    C2 1973   0.001   3.728   9.520 -0.0420 -0.5392 -0.4971
  127TMC2    C3 1974   4.709   3.634   9.613  0.4795  0.8616  0.4489
  127TMC2    C4 1975   4.539   3.656   9.418 -0.2560  1.0362  0.6920
  127TMC2    C5 1976   4.513   3.558   9.506  0.0911  0.3958  0.7437
  127TMC2    C6 1977   4.594   3.553   9.616 -0.7136  0.2716  0.0658
  127TMC2     C 1978   4.608   3.873   9.371 -0.4044 -0.4301  0.7769
  127TMC2     O 1979   4.703   3.953   9.354  0.6008 -0.4407 -0.9926
  127TMC2     H 1980   0.074   3.808   9.523  1.0508 -1.5767  0.4642
  127TMC2    H1 1981   4.480   3.663   9.327  2.2790 -0.7381 -1.0927
  127TMC2    H2 1982   4.603   3.461   9.674  0.5907 -0.1675 -0.8380
  127TMC2    C7 1983   4.372   3.563   9.531 -0.3056 -0.1833  0.2596
  127TMC2    C8 1984   0.069   3.614   9.716 -1.2228 -0.1296  0.6179
  127TMC2    O1 1985   4.307   3.645   9.465  0.1370 -0.1475  0.4196
  127TMC2    O2 1986   0.050   3.569   9.825  0.2149  0.5230  0.0789
  127TMC2    O5 1987   0.178   3.685   9.687 -0.6481  0.4613  0.5844
  127TMC2    H5 1988   0.183   3.703   9.590  0.9379 -1.6238  0.2655
  128MPD2     C 1989   4.299   3.974   9.243 -0.4796  0.4709  0.3388
  128MPD2    C1 1990   4.425   3.995   9.269 -0.0103 -0.7413  0.4093
  128MPD2    C2 1991   4.488   4.110   9.229 -0.4875 -0.4335  0.0747
  128MPD2    C3 1992   4.416   4.210   9.164  0.3436 -0.4056 -0.3522
  128MPD2    C4 1993   4.284   4.181   9.131 -0.5699 -0.0708  0.3084
  128MPD2    C5 1994   4.230   4.062   9.170 -0.4882  0.2434 -0.4648
  128MPD2     H 1995   4.593   4.128   9.250 -0.4858 -0.9262  0.4873
  128MPD2    H1 1996   4.215   4.243   9.075  1.4825  1.5981 -0.3852
  128MPD2    H2 1997   4.254   3.884   9.282  1.3354 -0.6904 -0.2675
  128MPD2    H3 1998   4.131   4.042   9.131 -0.4608  0.0595 -0.4376
  128MPD2     N 1999   4.477   4.331   9.139 -0.4154 -0.4975  0.0375
  128MPD2    H5 2000   4.576   4.343   9.156 -0.9836  0.8896  2.3647
  128MPD2    N1 2001   4.480   3.888   9.342  0.1565  0.2345 -0.1670
  128MPD2    H7 2002   4.409   3.824   9.376  0.2028  1.0436  1.4261
  129TMC2    C1 2003   2.631   4.105   1.634  0.1180 -0.0505 -0.1698
  129TMC2    C2 2004   2.629   3.972   1.665 -0.2326 -0.3820  0.0369
  129TMC2    C3 2005   2.506   3.915   1.669  0.4432  0.1662 -0.2553
  129TMC2    C4 2006   2.511   4.171   1.616 -0.6575  0.8828  0.0464
  129TMC2    C5 2007   2.390   4.104   1.604  0.0322 -0.9280 -0.1529
  129TMC2    C6 2008   2.384   3.971   1.640  0.2181  0.2326 -0.2508
  129TMC2     C 2009   2.762   4.176   1.628  0.6328  0.9612  0.8535
  129TMC2     O 2010   2.854   4.099   1.648  0.4314 -0.7533 -0.4873
  129TMC2     H 2011   2.716   3.912   1.690  0.2122  0.9557  1.7106
  129TMC2    H1 2012   2.514   4.275   1.583 -2.0690  1.8323  2.8539
  129TMC2    H2 2013   2.298   3.905   1.632  2.3928 -2.7617  1.1785
  129TMC2    C7 2014   2.264   4.161   1.556 -0.4925  0.1544 -0.0692
  129TMC2    C8 2015   2.507   3.778   1.706 -0.6177 -0.6387 -0.2260
  129TMC2    O1 2016   2.182   4.075   1.526  0.8918 -0.4444  0.1101
  129TMC2    O2 2017   2.614   3.713   1.707  0.1151 -0.6434  0.5979
  129TMC2    O5 2018   2.416   3.762   1.811  0.2108 -0.0733  0.2213
  129TMC2    H5 2019   2.348   3.832   1.810  0.9035  0.6399  1.8615
  130MPD2     C 2020   2.981   4.360   1.563  0.3086 -0.4028  0.5048
  130MPD2    C1 2021   2.852   4.403   1.602  0.0886 -0.8719  0.3996
  130MPD2    C2 2022   2.824   4.541   1.602  0.1019  0.7413 -0.5241
  130MPD2    C3 2023   2.920   4.633   1.560 -0.3969  0.3376  0.0991
  130MPD2    C4 2024   3.049   4.587   1.534 -0.7229 -0.3821  0.4990
  130MPD2    C5 2025   3.081   4.454   1.541 -0.0198  0.4189  0.0396
  130MPD2     H 2026   2.721   4.568   1.621 -0.0179  0.3953 -0.6995
  130MPD2    H1 2027   3.126   4.661   1.515 -0.6081 -0.3785  0.9613
  130MPD2    H2 2028   3.008   4.255   1.562  2.5161  0.1845 -0.8909
  130MPD2    H3 2029   3.185   4.429   1.524  0.4841  2.6433 -0.2141
  130MPD2     N 2030   2.871   0.031   1.559  0.1412  0.5141 -0.2134
  130MPD2    H5 2031   2.781   0.056   1.599  0.3882  1.0121  0.0228
  130MPD2    N1 2032   2.751   4.312   1.628  0.0096 -0.1043  0.1459
  130MPD2    H7 2033   2.663   4.357   1.651 -1.3244 -2.2471 -0.7768
  131TMC2    C1 2034   2.244   3.664  10.948 -1.0286  0.5996  0.1962
  131TMC2    C2 2035   2.286   3.789  10.988  0.1887  0.0815  0.1691
  131TMC2    C3 2036   2.368   3.861  10.906  0.2216 -0.8043  0.3955
  131TMC2    C4 2037   2.295   3.617  10.827  0.2202  0.2071 -0.2455
  131TMC2    C5 2038   2.394   3.686  10.753  0.4023 -0.0323 -0.4486
  131TMC2    C6 2039   2.438   3.805  10.799  0.1408  0.3717  0.1844
  131TMC2     C 2040   2.181   3.560  11.033  0.1132 -0.4548 -0.4604
  131TMC2     O 2041   2.138   3.458  10.982  0.1789 -0.4030 -0.3008
  131TMC2     H 2042   2.203   3.839  11.036 -0.8655  0.9312 -2.5287
  131TMC2    H1 2043   2.261   3.521  10.790 -1.0958  1.0128 -1.1117
  131TMC2    H2 2044   2.522   3.857  10.754 -0.6119  1.6833  0.2847
  131TMC2    C7 2045   2.419   3.645  10.619 -0.8676 -0.2027  0.3925
  131TMC2    C8 2046   2.402   3.990  10.945  0.0291  0.2391 -0.2466
  131TMC2    O1 2047   2.350   3.552  10.576  0.5007 -0.5574  0.2769
  131TMC2    O2 2048   2.487   4.062  10.891  0.2412  0.1491  0.4492
  131TMC2    O5 2049   2.368   4.006  11.075  0.9959 -0.6474 -0.3860
  131TMC2    H5 2050   2.326   3.933  11.127  0.5018 -1.2820 -1.6775
  132MPD2     C 2051   2.212   3.544  11.402 -0.4320  0.1592  0.0833
  132MPD2    C1 2052   2.178   3.499  11.275  0.2803  0.7418 -0.0665
  132MPD2    C2 2053   2.169   3.360  11.263  0.1144 -0.1919 -0.0875
  132MPD2    C3 2054   2.180   3.274  11.366 -0.4410  0.0186  0.5753
  132MPD2    C4 2055   2.221   3.318  11.493  0.2829 -0.2576 -0.1888
  132MPD2    C5 2056   2.232   3.454  11.503  0.0238 -0.0965 -0.1337
  132MPD2     H 2057   2.153   3.313  11.167 -0.2229 -1.8171  0.7611
  132MPD2    H1 2058   2.222   3.257  11.583 -0.2141  0.5072  0.3304
  132MPD2    H2 2059   2.214   3.649  11.427  1.0147 -0.8200  4.0071
  132MPD2    H3 2060   2.244   3.503  11.599  0.0232  0.0565 -0.2105
  132MPD2     N 2061   2.180   3.137  11.335  0.4067 -0.0220  0.6523
  132MPD2    H5 2062   2.155   3.109  11.241 -0.3305  2.5987  0.0813
  132MPD2    N1 2063   2.189   3.591  11.168 -0.2892  0.3644  0.2931
  132MPD2    H7 2064   2.217   3.684  11.199  2.0721  0.0328 -0.8610
  133TMC2    C1 2065   2.529   4.670   9.424 -0.1842 -0.1577  0.1903
  133TMC2    C2 2066   2.559   0.046   9.358 -0.0051 -0.0323 -0.0831
  133TMC2    C3 2067   2.690   0.087   9.374 -0.1046 -0.4907  1.6511
  133TMC2    C4 2068   2.617   4.607   9.510 -0.3268 -0.1179  0.4621
  133TMC2    C5 2069   2.742   4.658   9.521  0.0462 -0.2282  0.0140
  133TMC2    C6 2070   2.787   0.023   9.446  0.0084  0.1192  0.1944
  133TMC2     C 2071   2.389   4.621   9.429  0.4338  0.0322  0.2241
  133TMC2     O 2072   2.366   4.539   9.514 -0.4314  0.6100 -0.5691
  133TMC2     H 2073   2.493   0.087   9.282  1.5792 -1.4439 -2.2294
  133TMC2    H1 2074   2.587   4.516   9.560  0.8851 -0.7160  0.0970
  133TMC2    H2 2075   2.891   0.055   9.450 -0.4846  1.9732 -1.8976
  133TMC2    C7 2076   2.833   4.596   9.608  0.9954  0.2479  0.4730
  133TMC2    C8 2077   2.732   0.209   9.297  0.0017  0.4253  0.1509
  133TMC2    O1 2078   2.782   4.529   9.703 -0.1588 -0.2397 -0.1237
  133TMC2    O2 2079   2.849   0.229   9.269 -0.4525  0.2468  0.4499
  133TMC2    O5 2080   2.632   0.302   9.314  0.2355  0.5024 -0.5553
  133TMC2    H5 2081   2.549   0.263   9.349 -0.5065 -0.6835 -3.6290
  134MPD2     C 2082   2.081   0.012   9.282 -0.2494  0.0920 -0.7502
  134MPD2    C1 2083   2.161   4.657   9.342 -0.3066 -0.4020  0.0886
  134MPD2    C2 2084   2.094   4.540   9.387  0.3227 -0.3499 -0.4666
  134MPD2    C3 2085   1.958   4.519   9.369  0.4354 -0.4574  0.5316
  134MPD2    C4 2086   1.888   4.612   9.283  0.2095 -0.0479 -0.3282
  134MPD2    C5 2087   1.950   4.727   9.249 -0.2274 -0.5481 -0.1409
  134MPD2     H 2088   2.154   4.475   9.449 -3.0360 -0.5143  2.6080
  134MPD2    H1 2089   1.781   4.601   9.271  0.2887 -0.1097 -0.9948
  134MPD2    H2 2090   2.122   0.105   9.245  1.0047 -0.2758 -0.3057
  134MPD2    H3 2091   1.902   0.066   9.189  1.4843  0.3415 -0.3655
  134MPD2     N 2092   1.888   4.405   9.405 -0.2656 -0.4961  0.3671
  134MPD2    H5 2093   1.796   4.390   9.367 -0.1520  2.8452 -1.1811
  134MPD2    N1 2094   2.298   4.685   9.353 -0.5872 -0.0416 -0.1337
  134MPD2    H7 2095   2.332   0.034   9.313  1.1704 -0.1711  1.1169
  135TMC2    C1 2096   3.915   1.078   9.511 -0.5028 -0.0097 -0.5433
  135TMC2    C2 2097   3.980   1.124   9.621  0.0393 -0.0318 -0.3854
  135TMC2    C3 2098   3.926   1.096   9.742  0.1278  0.1781 -0.2053
  135TMC2    C4 2099   3.797   1.024   9.524  0.0078 -0.7404 -0.1740
  135TMC2    C5 2100   3.738   1.003   9.642  0.2690  0.1833 -0.4816
  135TMC2    C6 2101   3.802   1.043   9.756 -0.1313  0.8736 -0.2027
  135TMC2     C 2102   3.968   1.103   9.371  0.5681 -0.6798 -0.1666
  135TMC2     O 2103   4.012   1.215   9.346 -0.0749  0.8138 -0.1796
  135TMC2     H 2104   4.085   1.152   9.616  0.3249 -1.2439 -1.3580
  135TMC2    H1 2105   3.753   0.994   9.430 -1.1554  1.7608 -0.4273
  135TMC2    H2 2106   3.752   1.045   9.852 -1.7108  1.6461 -1.0519
  135TMC2    C7 2107   3.613   0.939   9.647  0.0720  0.0899 -0.7628
  135TMC2    C8 2108   4.022   1.102   9.849  1.0248 -0.3846 -0.0886
  135TMC2    O1 2109   3.548   0.946   9.542 -0.0439  0.1399  0.5186
  135TMC2    O2 2110   4.094   1.200   9.859  0.6575  0.0418  0.5154
  135TMC2    O5 2111   3.983   1.020   9.951  0.2772  0.9022 -0.0734
  135TMC2    H5 2112   3.926   0.944   9.926  0.4005  1.2005 -1.2336
  136MPD2     C 2113   4.044   1.083   9.085  0.4081  0.4034 -0.1621
  136MPD2    C1 2114   3.985   0.981   9.161  0.1373 -0.1283 -0.2169
  136MPD2    C2 2115   3.968   0.859   9.091 -0.5585 -0.3196  0.2001
  136MPD2    C3 2116   4.002   0.837   8.963 -0.4851  0.3204 -0.4477
  136MPD2    C4 2117   4.074   0.937   8.895  0.2808 -0.3495  0.1135
  136MPD2    C5 2118   4.087   1.059   8.954 -0.2485 -0.0104  0.1100
  136MPD2     H 2119   3.920   0.781   9.150 -1.0975 -1.3938 -1.6777
  136MPD2    H1 2120   4.105   0.923   8.792 -1.1286  0.0735 -0.3774
  136MPD2    H2 2121   4.073   1.183   9.116  1.3167 -0.3233  1.3282
  136MPD2    H3 2122   4.141   1.137   8.901 -2.6231  2.2582  1.0447
  136MPD2     N 2123   3.970   0.714   8.898  0.0870  0.2637  0.3657
  136MPD2    H5 2124   3.938   0.647   8.967 -1.1809  0.1805 -0.3074
  136MPD2    N1 2125   3.951   0.992   9.296 -0.7750 -0.5377  0.1928
  136MPD2    H7 2126   3.914   0.911   9.343 -3.9821  0.8254 -0.0012
  137TMC2    C1 2127   3.822   3.876   9.385 -0.3852  0.2055  0.8328
  137TMC2    C2 2128   3.881   3.853   9.260 -0.0438 -0.7524 -0.0075
  137TMC2    C3 2129   3.800   3.807   9.156 -0.3355 -0.3698  0.2168
  137TMC2    C4 2130   3.681   3.873   9.400 -0.6563  0.1726 -0.2574
  137TMC2    C5 2131   3.607   3.831   9.290 -0.4982  1.0947 -0.2751
  137TMC2    C6 2132   3.666   3.791   9.177  0.4943 -0.2976  0.5652
  137TMC2     C 2133   3.901   3.915   9.500 -0.3474  0.1424  0.0734
  137TMC2     O 2134   3.996   3.991   9.481  0.7471 -0.8968 -0.2228
  137TMC2     H 2135   3.988   3.864   9.249 -0.4494  3.4497 -0.1214
  137TMC2    H1 2136   3.645   3.896   9.500  1.3333  0.6647  0.3610
  137TMC2    H2 2137   3.614   3.751   9.091  1.0770  0.7453 -0.2827
  137TMC2    C7 2138   3.467   3.801   9.314  0.2671 -0.2626 -0.3982
  137TMC2    C8 2139   3.864   3.769   9.037  0.0456  0.2066  0.8763
  137TMC2    O1 2140   3.418   3.702   9.257 -0.9627  0.6477 -0.1142
  137TMC2    O2 2141   3.793   3.754   8.940  0.0804  0.9775 -0.1507
  137TMC2    O5 2142   3.990   3.718   9.052 -0.7123  0.1597  0.4997
  137TMC2    H5 2143   4.026   3.718   9.143 -0.0264 -2.9609  0.2369
  138MPD2     C 2144   3.840   3.831   9.851 -0.0070 -0.3256  0.1266
  138MPD2    C1 2145   3.883   3.904   9.743 -0.8003  0.2828 -0.6604
  138MPD2    C2 2146   3.956   4.024   9.769 -0.1569 -0.0084 -0.0519
  138MPD2    C3 2147   3.983   4.068   9.900 -0.3190 -1.2356  0.4305
  138MPD2    C4 2148   3.958   3.983  10.007 -0.0693  0.1856  0.2414
  138MPD2    C5 2149   3.881   3.869   9.984  0.1909 -0.0137 -0.2404
  138MPD2     H 2150   3.964   4.100   9.692 -0.0691  1.6540  1.5793
  138MPD2    H1 2151   3.986   4.005  10.109 -2.1076 -2.0664  1.2865
  138MPD2    H2 2152   3.774   3.745   9.849  0.7572 -0.8625 -1.8573
  138MPD2    H3 2153   3.841   3.810  10.066  0.5848  0.8157  0.5612
  138MPD2     N 2154   4.040   4.193   9.915 -0.0710  0.1459 -0.0359
  138MPD2    H5 2155   4.065   4.247   9.833  0.4031 -1.6728 -1.0907
  138MPD2    N1 2156   3.849   3.857   9.614 -0.6475  0.0102 -0.3217
  138MPD2    H7 2157   3.777   3.786   9.605  0.5425 -1.3825  1.2986
  139TMC2    C1 2158   4.221   3.182  13.447 -0.2518 -0.4893 -0.3044
  139TMC2    C2 2159   4.257   3.282  13.368  0.9872 -0.4024 -0.4531
  139TMC2    C3 2160   4.161   3.368  13.317 -0.1334 -0.6945 -0.1851
  139TMC2    C4 2161   4.091   3.162  13.480 -0.8821  0.0178  0.5245
  139TMC2    C5 2162   3.997   3.248  13.430 -0.4609  0.3060 -0.4496
  139TMC2    C6 2163   4.027   3.357  13.344  0.1042  0.0303  0.8171
  139TMC2     C 2164   4.318   3.084  13.494 -0.3686 -0.6281 -0.2350
  139TMC2     O 2165   4.275   2.970  13.523  0.2551 -0.3251 -0.0409
  139TMC2     H 2166   4.360   3.286  13.333  1.0144 -1.4899 -0.5055
  139TMC2    H1 2167   4.058   3.070  13.526  1.5512 -1.6949 -1.1249
  139TMC2    H2 2168   3.958   3.432  13.308  1.6890 -1.0249 -4.4877
  139TMC2    C7 2169   3.855   3.200  13.444  0.1464 -0.5476  0.3404
  139TMC2    C8 2170   4.201   3.500  13.268  0.2326  0.6052  0.1360
  139TMC2    O1 2171   3.824   3.115  13.522  0.0553 -0.3127 -0.2780
  139TMC2    O2 2172   4.129   3.557  13.188 -0.1967 -0.5518  0.2042
  139TMC2    O5 2173   4.293   3.552  13.351  0.0563 -0.4467 -0.2474
  139TMC2    H5 2174   4.345   3.484  13.400 -0.0468  0.3001  0.9117
  140MPD2     C 2175   4.669   3.142  13.594 -0.0118  0.3343 -0.3160
  140MPD2    C1 2176   4.559   3.064  13.569  0.8274 -0.1815  0.9042
  140MPD2    C2 2177   4.559   2.927  13.595 -0.1728 -0.2045 -0.0685
  140MPD2    C3 2178   4.670   2.868  13.647 -1.0118  0.0982  0.4121
  140MPD2    C4 2179   0.039   2.945  13.690 -0.1343 -0.1894 -0.0179
  140MPD2    C5 2180   0.036   3.082  13.661 -0.0571  0.7038  0.5986
  140MPD2     H 2181   4.469   2.871  13.571  0.1491 -0.2448 -1.2053
  140MPD2    H1 2182   0.113   2.908  13.759  0.5019  1.2947  0.1050
  140MPD2    H2 2183   4.669   3.250  13.581 -0.7081  0.2633 -0.8852
  140MPD2    H3 2184   0.116   3.144  13.701  0.2491  0.4485  0.3857
  140MPD2     N 2185   4.671   2.726  13.650 -0.1358 -0.1944 -0.2303
  140MPD2    H5 2186   4.581   2.683  13.631  0.5796 -1.7665  0.0123
  140MPD2    N1 2187   4.442   3.139  13.528 -0.7230 -0.3283 -0.0371
  140MPD2    H7 2188   4.449   3.241  13.521 -0.3867 -0.4534 -1.6963
  141TMC2    C1 2189   4.446   3.878  13.951  0.7117  0.6463 -0.1799
  141TMC2    C2 2190   4.484   3.778  14.033  0.0551 -0.0735  0.2743
  141TMC2    C3 2191   4.572   3.816  14.129 -0.1182 -0.3428  0.7483
  141TMC2    C4 2192   4.492   4.006  13.970 -0.8906 -0.6595  0.6771
  141TMC2    C5 2193   4.579   4.043  14.067 -0.0921 -0.3361 -0.8810
  141TMC2    C6 2194   4.620   3.947  14.152 -1.0635 -0.1388  0.4221
  141TMC2     C 2195   4.364   3.837  13.836  0.4584  0.4023 -0.5205
  141TMC2     O 2196   4.304   3.734  13.846  0.8842 -0.0645 -0.2892
  141TMC2     H 2197   4.440   3.680  14.020  1.5592 -0.7022 -0.0760
  141TMC2    H1 2198   4.460   4.089  13.908  1.3356  1.3303  2.2005
  141TMC2    H2 2199   4.700   3.961  14.224 -0.7704  4.4696 -0.8268
  141TMC2    C7 2200   4.666   4.161  14.048  0.8440 -1.1827  0.5970
  141TMC2    C8 2201   4.624   3.713  14.222  0.3116  0.5175  0.4022
  141TMC2    O1 2202   4.677   4.199  13.933 -0.2225 -0.3055 -0.3972
  141TMC2    O2 2203   4.670   3.749  14.331  0.0067  0.8497 -0.1450
  141TMC2    O5 2204   4.538   3.614  14.202  0.2435  0.4220 -0.4234
  141TMC2    H5 2205   4.549   3.574  14.113 -0.8977  0.4139 -0.5689
  142TMC2    C1 2206   2.423   2.366  10.178 -0.0186  0.4099 -0.4014
  142TMC2    C2 2207   2.451   2.441  10.069  0.2285 -0.1110  0.7546
  142TMC2    C3 2208   2.541   2.537  10.089  0.9806 -0.2367 -0.7772
  142TMC2    C4 2209   2.493   2.371  10.301 -1.0342 -0.9553  0.1556
  142TMC2    C5 2210   2.588   2.461  10.306 -0.0750 -0.1657  0.2314
  142TMC2    C6 2211   2.614   2.546  10.206  0.9174 -0.3344  0.0704
  142TMC2     C 2212   2.304   2.281  10.172 -0.0508  0.3303 -0.7301
  142TMC2     O 2213   2.249   2.268  10.286 -0.1562  0.4063  0.5354
  142TMC2     H 2214   2.401   2.443   9.973 -0.0157  0.3866  0.8938
  142TMC2    H1 2215   2.460   2.314  10.388 -1.0017 -0.8380  0.2445
  142TMC2    H2 2216   2.697   2.614  10.225  0.9384 -0.1566 -0.6868
  142TMC2    C7 2217   2.692   2.432  10.407  0.7282 -0.4755  0.1752
  142TMC2    C8 2218   2.561   2.630   9.974 -0.4184  0.7303  0.4622
  142TMC2    O1 2219   2.643   2.376  10.503  0.5528  0.1356  0.1844
  142TMC2    O2 2220   2.464   2.644   9.898  0.3430  0.3503  0.1474
  142TMC2    O5 2221   2.688   2.643   9.949  0.1899  0.2200  0.0870
  142TMC2    H5 2222   2.754   2.594  10.003 -0.3641 -0.5944  0.0206
  143MPD2     C 2223   2.076   1.899   9.917 -0.1031  0.0704  0.1671
  143MPD2    C1 2224   2.088   1.916  10.051  0.3605 -0.1624 -0.8469
  143MPD2    C2 2225   2.150   2.030  10.095  0.0275  0.3981 -0.0577
  143MPD2    C3 2226   2.217   2.112  10.009 -0.4690 -0.6208 -0.1426
  143MPD2    C4 2227   2.218   2.073   9.877  0.2795 -0.5565 -0.0909
  143MPD2    C5 2228   2.140   1.971   9.830  0.5773 -0.6574 -0.8757
  143MPD2     H 2229   2.145   2.042  10.202 -0.0540 -1.0063  0.0930
  143MPD2    H1 2230   2.283   2.132   9.812 -0.7526  0.8077  0.1149
  143MPD2    H2 2231   2.036   1.802   9.887  1.3669 -0.0985 -1.2661
  143MPD2    H3 2232   2.143   1.946   9.724  0.0510  1.2404 -1.3453
  143MPD2     N 2233   2.284   2.221  10.050  0.3175  0.3954  0.1698
  143MPD2    H5 2234   2.352   2.256   9.983  0.5537 -1.5458 -0.6174
  143MPD2    N1 2235   2.030   1.830  10.146 -0.5879  0.1636 -0.3483
  143MPD2    H7 2236   2.043   1.856  10.243  0.0130 -3.6434  0.5817
  144TMC2    C1 2237   0.223   1.817   0.954 -0.0965  0.6194  0.0269
  144TMC2    C2 2238   0.307   1.869   0.858  0.3920 -0.1005 -0.2930
  144TMC2    C3 2239   0.412   1.945   0.892  0.4428 -1.1062 -0.5360
  144TMC2    C4 2240   0.251   1.823   1.086  0.1181 -0.1466  0.2124
  144TMC2    C5 2241   0.361   1.895   1.115 -0.1792  0.9540  0.5971
  144TMC2    C6 2242   0.446   1.953   1.023 -0.1706 -0.8645 -0.1428
  144TMC2     C 2243   0.105   1.751   0.905  0.4932  0.7232  0.2557
  144TMC2     O 2244   0.078   1.778   0.791 -0.4040  0.5753  0.3646
  144TMC2     H 2245   0.289   1.861   0.751 -0.1054 -4.0736  0.0647
  144TMC2    H1 2246   0.185   1.776   1.157  0.6696 -1.0497  0.1256
  144TMC2    H2 2247   0.543   1.989   1.054 -0.6453 -0.9169  1.4024
  144TMC2    C7 2248   0.439   1.844   1.224 -0.1022 -0.1634  0.3430
  144TMC2    C8 2249   0.520   1.949   0.788 -0.1804 -0.7831 -0.3663
  144TMC2    O1 2250   0.552   1.796   1.201  0.2337 -0.1702 -0.3787
  144TMC2    O2 2251   0.637   1.936   0.816 -0.0508  0.3611 -0.1415
  144TMC2    O5 2252   0.477   2.028   0.684  0.7874  0.0898 -0.3733
  144TMC2    H5 2253   0.381   2.047   0.687  1.2643  2.1025  2.6452
  145MPD2     C 2254   4.447   1.414   0.904  0.3829  0.3020 -0.4932
  145MPD2    C1 2255   4.491   1.503   0.808  0.2780 -0.0399 -0.1132
  145MPD2    C2 2256   4.601   1.580   0.834  0.4104 -0.1760 -0.2919
  145MPD2    C3 2257   4.681   1.570   0.948  0.1226  0.0919  0.6327
  145MPD2    C4 2258   4.641   1.481   1.047  0.2689  0.5815 -0.4357
  145MPD2    C5 2259   4.521   1.412   1.025  0.3207 -0.3066  0.5141
  145MPD2     H 2260   4.623   1.653   0.758 -0.9681 -0.4242 -0.9357
  145MPD2    H1 2261   4.684   1.459   1.144  3.2962 -0.2271 -1.9589
  145MPD2    H2 2262   4.355   1.358   0.896 -0.6574  1.8920  0.3123
  145MPD2    H3 2263   4.482   1.344   1.100  2.2870  0.9126  2.6353
  145MPD2     N 2264   0.052   1.654   0.984 -0.4048 -0.1546 -0.4184
  145MPD2    H5 2265   0.102   1.625   1.066 -0.0595 -0.0516 -0.5933
  145MPD2    N1 2266   4.428   1.524   0.684 -0.6088  0.3398 -0.1202
  145MPD2    H7 2267   4.473   1.583   0.616 -1.6615  0.3147 -0.8278
  146TMC2    C1 2268   1.685   0.280  11.946  0.5509  0.0296  0.3248
  146TMC2    C2 2269   1.621   0.319  11.830  0.1470  0.0051  0.1303
  146TMC2    C3 2270   1.664   0.251  11.719 -0.8164 -0.2512 -0.3379
  146TMC2    C4 2271   1.781   0.185  11.960 -0.1179  0.2467 -0.1932
  146TMC2    C5 2272   1.818   0.119  11.849 -0.6976 -0.0763 -0.1259
  146TMC2    C6 2273   1.758   0.152  11.729 -0.1990 -0.3944  0.4231
  146TMC2     C 2274   1.637   0.348  12.063 -0.7381  0.4945 -0.3541
  146TMC2     O 2275   1.563   0.443  12.050  0.4538  0.3388  0.2947
  146TMC2     H 2276   1.538   0.389  11.823  0.7217  0.6250 -0.4469
  146TMC2    H1 2277   1.824   0.151  12.054 -2.9787 -0.4628  0.8727
  146TMC2    H2 2278   1.779   0.094  11.640 -1.4268 -1.0655  0.5830
  146TMC2    C7 2279   1.910   0.005  11.864  0.1043 -0.1291 -0.3355
  146TMC2    C8 2280   1.622   0.295  11.583 -0.1251  0.4971  0.5417
  146TMC2    O1 2281   1.923   4.688  11.757 -0.0294 -0.1670 -0.5763
  146TMC2    O2 2282   1.653   0.233  11.484 -0.4158  0.5483 -0.2885
  146TMC2    O5 2283   1.565   0.416  11.587  0.5646 -0.1937 -0.3694
  146TMC2    H5 2284   1.541   0.449  11.676  0.5840 -0.8932 -0.1005
  147MPD2     C 2285   2.238   4.427  12.098 -0.0448 -0.1213  0.1613
  147MPD2    C1 2286   2.182   4.511  12.190  0.0106 -0.0212  0.1563
  147MPD2    C2 2287   2.097   4.612  12.148 -0.5315  0.5384 -0.2470
  147MPD2    C3 2288   2.059   4.619  12.016  0.1883  0.4789 -0.3114
  147MPD2    C4 2289   2.115   4.542  11.921  0.3148 -0.3593  0.5135
  147MPD2    C5 2290   2.207   4.443  11.960  0.0811 -0.3096  0.3418
  147MPD2     H 2291   2.065   4.700  12.203  1.0176  0.0467  1.4461
  147MPD2    H1 2292   2.110   4.556  11.813 -0.0481 -0.7345  0.4814
  147MPD2    H2 2293   2.313   4.352  12.119  0.7838  0.3134 -1.2280
  147MPD2    H3 2294   2.255   4.389  11.878  0.5700 -2.0844  1.7869
  147MPD2     N 2295   1.966   4.722  11.984  0.2246  0.1372  0.8420
  147MPD2    H5 2296   1.926   0.037  12.060  0.9109 -2.0886  2.7296
  147MPD2    N1 2297   2.234   4.493  12.320  0.0573  0.4795  0.9553
  147MPD2    H7 2298   2.312   4.432  12.337  1.0031  0.9985 -1.5080
  148TMC2    C1 2299   1.887   4.425  10.542 -0.6526 -0.5715  0.2257
  148TMC2    C2 2300   2.009   4.483  10.548  0.4330 -0.3425  0.4183
  148TMC2    C3 2301   2.071   4.465  10.670 -0.4999  0.4410  0.2845
  148TMC2    C4 2302   1.823   4.353  10.648 -0.3390  0.1863  0.3333
  148TMC2    C5 2303   1.911   4.321  10.747 -0.1285 -0.0431  1.1185
  148TMC2    C6 2304   2.023   4.382  10.771  0.1331 -0.8520  0.1160
  148TMC2     C 2305   1.808   4.456  10.423 -0.0601 -0.3379 -0.1604
  148TMC2     O 2306   1.850   4.556  10.361  0.1571  0.1062 -0.7808
  148TMC2     H 2307   2.055   4.546  10.473  0.4759  1.0007  1.5763
  148TMC2    H1 2308   1.731   4.297  10.638  0.7489 -1.6927  0.8639
  148TMC2    H2 2309   2.093   4.337  10.841  0.7178  1.0156  0.7151
  148TMC2    C7 2310   1.866   4.216  10.835 -0.5191 -0.2913  0.1470
  148TMC2    C8 2311   2.176   4.563  10.711  0.1740  0.0263 -0.0989
  148TMC2    O1 2312   1.769   4.146  10.798 -0.4777 -0.2270 -0.1093
  148TMC2    O2 2313   2.244   4.629  10.632  0.1076  0.3293 -0.1370
  148TMC2    O5 2314   2.164   4.589  10.847  0.0623 -0.4667 -0.0517
  148TMC2    H5 2315   2.094   4.537  10.892  0.4583 -2.0112 -1.2013
  149MPD2     C 2316   1.615   4.486  10.204  0.7169 -0.0544  0.6604
  149MPD2    C1 2317   1.630   4.371  10.279 -0.3913  0.6182  0.2119
  149MPD2    C2 2318   1.542   4.269  10.262  0.6609 -0.0602 -0.5354
  149MPD2    C3 2319   1.451   4.276  10.157 -0.1800 -0.4840 -0.5438
  149MPD2    C4 2320   1.451   4.377  10.066 -0.7520  0.9633 -0.3678
  149MPD2    C5 2321   1.525   4.484  10.099 -0.5772 -0.1030 -0.1041
  149MPD2     H 2322   1.545   4.179  10.324 -1.9626 -1.4408 -2.4106
  149MPD2    H1 2323   1.385   4.376   9.980 -2.1011 -2.6948  0.6755
  149MPD2    H2 2324   1.667   4.579  10.226  1.2900 -0.4351  0.9398
  149MPD2    H3 2325   1.527   4.566  10.028  2.5328 -1.2039 -1.2788
  149MPD2     N 2326   1.360   4.163  10.139  0.0043  0.1331  0.3868
  149MPD2    H5 2327   1.307   4.148  10.054  0.8705 -1.0855  0.0617
  149MPD2    N1 2328   1.720   4.359  10.386  0.3406  0.1149  0.2152
  149MPD2    H7 2329   1.719   4.278  10.447 -0.5170 -1.1839 -1.5239
  150TMC2    C1 2330   4.100   3.574  12.421  0.0860 -0.3256  1.0827
  150TMC2    C2 2331   4.084   3.694  12.360 -0.2741 -0.5876 -0.3484
  150TMC2    C3 2332   4.173   3.795  12.385 -0.1947  0.4070 -0.1022
  150TMC2    C4 2333   4.201   3.563  12.519 -1.2807  0.4057  0.2890
  150TMC2    C5 2334   4.294   3.664  12.533 -0.3115  0.0354 -0.0758
  150TMC2    C6 2335   4.274   3.788  12.475  0.1411 -0.2067 -0.0422
  150TMC2     C 2336   3.993   3.483  12.424  0.1493  0.1760  0.8012
  150TMC2     O 2337   3.985   3.422  12.531  1.0605  0.5013 -0.4734
  150TMC2     H 2338   4.004   3.704  12.288 -0.6516  0.6664  0.2486
  150TMC2    H1 2339   4.208   3.472  12.577  2.5338  0.2199 -0.4172
  150TMC2    H2 2340   4.351   3.863  12.488  0.2126 -0.8908  3.4833
  150TMC2    C7 2341   4.423   3.642  12.590 -0.6024 -0.5715 -0.6614
  150TMC2    C8 2342   4.174   3.910  12.298 -0.2628  0.1875 -0.2012
  150TMC2    O1 2343   4.504   3.740  12.591 -0.2226  0.0277  0.1919
  150TMC2    O2 2344   4.097   3.919  12.203  0.0970 -0.5693 -0.1906
  150TMC2    O5 2345   4.173   4.008  12.392 -0.3237 -0.2456 -0.0071
  150TMC2    H5 2346   4.203   3.982  12.482  3.5982  2.5618 -0.4967
  151MPD2     C 2347   3.569   3.277  12.219  1.1614  0.1607  0.4623
  151MPD2    C1 2348   3.638   3.344  12.123 -0.3198 -1.4152 -0.2565
  151MPD2    C2 2349   3.750   3.414  12.152 -0.4158  0.1159  0.0162
  151MPD2    C3 2350   3.805   3.408  12.280 -0.7392 -0.2599 -0.0754
  151MPD2    C4 2351   3.740   3.336  12.376 -0.1033 -0.5262  0.0731
  151MPD2    C5 2352   3.620   3.274  12.347  1.0045  0.1198  0.2787
  151MPD2     H 2353   3.795   3.484  12.082 -1.7549  1.8950  0.9209
  151MPD2    H1 2354   3.777   3.334  12.477 -1.1235  1.4071  0.4921
  151MPD2    H2 2355   3.480   3.216  12.205  0.0094  1.4788  2.0634
  151MPD2    H3 2356   3.564   3.215  12.419  0.9273 -0.5985 -0.3712
  151MPD2     N 2357   3.926   3.479  12.306 -0.7828  0.1239 -0.3015
  151MPD2    H5 2358   3.962   3.528  12.225 -0.4194 -0.6042 -0.5743
  151MPD2    N1 2359   3.579   3.339  11.997  0.4122  0.6003 -0.7648
  151MPD2    H7 2360   3.487   3.296  11.999 -0.2759  1.9538 -2.4984
  152TMC2    C1 2361   3.638   2.864  13.032  0.0603  0.2691  0.7815
  152TMC2    C2 2362   3.653   2.830  13.160 -0.1411  0.5461 -0.5124
  152TMC2    C3 2363   3.759   2.881  13.228  0.0954  0.0393  0.5139
  152TMC2    C4 2364   3.720   2.956  12.971 -0.2333 -0.4315 -0.4521
  152TMC2    C5 2365   3.836   2.995  13.041 -0.3807  0.9394 -0.4016
  152TMC2    C6 2366   3.857   2.961  13.172 -0.1694  0.0392 -0.0913
  152TMC2     C 2367   3.512   2.844  12.965  0.3686 -0.0866 -0.1096
  152TMC2     O 2368   3.421   2.845  13.046 -0.0719  0.6326  0.2643
  152TMC2     H 2369   3.608   2.736  13.190  3.2055 -1.3168 -1.3129
  152TMC2    H1 2370   3.698   3.004  12.876 -1.3031 -0.3451 -0.1610
  152TMC2    H2 2371   3.930   3.014  13.232  0.1296 -1.2444  0.6747
  152TMC2    C7 2372   3.918   3.106  12.973  0.2159  0.2656  0.3347
  152TMC2    C8 2373   3.813   2.812  13.348  0.3095 -0.1388  0.5565
  152TMC2    O1 2374   3.865   3.152  12.873  0.5641  0.9049  0.3940
  152TMC2    O2 2375   3.936   2.798  13.369 -0.5163  0.3004  0.1324
  152TMC2    O5 2376   3.712   2.781  13.438  0.3243 -0.5869 -0.4137
  152TMC2    H5 2377   3.627   2.823  13.415 -1.7493 -3.5856  1.7031
  153MPD2     C 2378   3.452   2.738  12.618 -0.4438  0.8382 -0.3436
  153MPD2    C1 2379   3.419   2.783  12.741  0.7763  0.4415 -0.3187
  153MPD2    C2 2380   3.287   2.813  12.769 -0.4449 -0.1288 -0.0807
  153MPD2    C3 2381   3.191   2.810  12.669 -0.7505 -0.2907 -0.3877
  153MPD2    C4 2382   3.224   2.766  12.544  0.2422  0.3736 -0.0657
  153MPD2    C5 2383   3.355   2.720  12.526  0.0568 -0.5467  0.6851
  153MPD2     H 2384   3.257   2.847  12.868  2.1247 -0.2279  0.7369
  153MPD2    H1 2385   3.177   2.768  12.446  0.6972 -1.2369 -0.3158
  153MPD2    H2 2386   3.552   2.705  12.592 -1.5775 -0.5345 -2.9783
  153MPD2    H3 2387   3.399   2.698  12.430 -1.7403  0.2214 -0.3178
  153MPD2     N 2388   3.067   2.870  12.697  0.0838  0.5541  0.4882
  153MPD2    H5 2389   3.051   2.916  12.786  0.7266  0.5137  0.6217
  153MPD2    N1 2390   3.526   2.802  12.836 -0.0219 -0.2210 -0.1087
  153MPD2    H7 2391   3.621   2.788  12.803  0.5125  0.2729  1.1821
  154TMC2    C1 2392   0.212   2.860   1.619  0.0728 -0.0530 -0.6855
  154TMC2    C2 2393   0.281   2.933   1.713 -0.3140 -0.0355 -0.2635
  154TMC2    C3 2394   0.409   2.904   1.747  0.6842  0.0909 -0.1591
  154TMC2    C4 2395   0.280   2.743   1.566 -0.3568 -0.1552  0.3659
  154TMC2    C5 2396   0.411   2.717   1.609  0.3870 -0.7625  0.4672
  154TMC2    C6 2397   0.474   2.795   1.700 -0.3761  0.9489 -0.1751
  154TMC2     C 2398   0.069   2.869   1.612  0.5858  0.1269 -0.5153
  154TMC2     O 2399   0.022   2.922   1.708 -0.3623 -0.3433  0.5318
  154TMC2     H 2400   0.226   3.009   1.767  0.5299  1.1191 -0.9935
  154TMC2    H1 2401   0.236   2.659   1.514 -1.2783 -0.4321  1.6089
  154TMC2    H2 2402   0.578   2.777   1.723  0.1799  4.2515 -0.1562
  154TMC2    C7 2403   0.462   2.586   1.550  0.2070 -0.4235 -0.2549
  154TMC2    C8 2404   0.464   2.972   1.867  0.6858 -0.0693  0.0620
  154TMC2    O1 2405   0.413   2.546   1.448  0.4223  0.3193  0.0240
  154TMC2    O2 2406   0.586   2.968   1.882 -0.2333 -0.1357 -0.0103
  154TMC2    O5 2407   0.373   2.974   1.964 -0.0666  0.0830 -0.4154
  154TMC2    H5 2408   0.287   2.959   1.919 -0.9714  0.4199  1.2116
  155MPD2     C 2409   4.584   2.715   1.361 -0.3571  0.5083  0.2164
  155MPD2    C1 2410   4.616   2.792   1.471  0.6581 -0.2691  0.1302
  155MPD2    C2 2411   4.516   2.835   1.559 -0.5728 -0.0166 -0.2439
  155MPD2    C3 2412   4.386   2.814   1.521 -0.0750 -0.2381 -0.7411
  155MPD2    C4 2413   4.352   2.738   1.409 -0.2613 -1.0597 -0.0224
  155MPD2    C5 2414   4.454   2.686   1.330 -0.3802  0.7642  0.1350
  155MPD2     H 2415   4.532   2.892   1.650  1.1973 -0.7540 -0.1052
  155MPD2    H1 2416   4.248   2.716   1.389  0.1298  0.4053 -3.6371
  155MPD2    H2 2417   4.659   2.677   1.293  0.9153 -0.4780  2.1523
  155MPD2    H3 2418   4.441   2.621   1.244  1.1077 -1.0835  1.2973
  155MPD2     N 2419   4.293   2.855   1.612 -0.1486 -0.4607  0.3497
  155MPD2    H5 2420   4.334   2.892   1.697  1.2240 -1.0209 -0.0728
  155MPD2    N1 2421   0.016   2.802   1.503 -0.3830  0.4953 -0.2155
  155MPD2    H7 2422   0.083   2.751   1.445  0.2798 -0.2103  1.1588
  156TMC2    C1 2423   3.596   0.492  11.217  0.0857  0.4683  0.4016
  156TMC2    C2 2424   3.656   0.409  11.122 -0.1358 -0.1575  0.4664
  156TMC2    C3 2425   3.665   0.461  10.991 -0.2498  0.6357 -0.0527
  156TMC2    C4 2426   3.542   0.616  11.185 -0.3300 -0.0780 -0.4382
  156TMC2    C5 2427   3.556   0.662  11.058  0.4755 -0.2742 -0.0691
  156TMC2    C6 2428   3.616   0.589  10.960 -0.0401  0.4306 -0.0282
  156TMC2     C 2429   3.581   0.449  11.355  0.3556  0.2804  0.3709
  156TMC2     O 2430   3.499   0.502  11.427 -0.1512  0.2081 -0.1544
  156TMC2     H 2431   3.684   0.305  11.135  1.5501  0.7277  3.9499
  156TMC2    H1 2432   3.490   0.665  11.266 -2.4473  0.4189 -2.0813
  156TMC2    H2 2433   3.610   0.629  10.859  3.3070  1.8162  0.3151
  156TMC2    C7 2434   3.544   0.808  11.052 -0.5919  0.3620  0.4325
  156TMC2    C8 2435   3.730   0.380  10.889 -0.2177  0.4988 -0.4668
  156TMC2    O1 2436   3.623   0.878  10.986  0.0344  0.1162 -0.3233
  156TMC2    O2 2437   3.687   0.379  10.770  0.4702  0.3900  0.1651
  156TMC2    O5 2438   3.855   0.356  10.931 -0.7368 -0.8189 -0.0714
  156TMC2    H5 2439   3.867   0.351  11.028  0.1670 -0.3526 -0.1629
  157MPD2     C 2440   3.835   0.255  11.527  0.6877  0.3952  0.2778
  157MPD2    C1 2441   3.723   0.332  11.518  0.2556  0.0584  0.3197
  157MPD2    C2 2442   3.677   0.392  11.637 -0.0512 -0.0206 -0.1607
  157MPD2    C3 2443   3.734   0.368  11.758 -0.4782 -0.3133 -0.6112
  157MPD2    C4 2444   3.835   0.278  11.764  0.0327 -0.3869  0.6269
  157MPD2    C5 2445   3.877   0.224  11.649 -0.2274 -0.4691 -0.0329
  157MPD2     H 2446   3.595   0.461  11.626 -0.8129 -0.8461  0.3001
  157MPD2    H1 2447   3.891   0.251  11.852  0.1774 -2.0067  0.0273
  157MPD2    H2 2448   3.882   0.212  11.439 -1.3122 -0.1213 -0.5400
  157MPD2    H3 2449   3.966   0.162  11.649 -1.4917 -2.3249  1.8106
  157MPD2     N 2450   3.679   0.425  11.876  0.1691 -0.2753  0.3227
  157MPD2    H5 2451   3.586   0.466  11.874 -0.3339 -1.3386  1.4290
  157MPD2    N1 2452   3.685   0.369  11.392 -0.4145  0.5303  0.0506
  157MPD2    H7 2453   3.746   0.343  11.316  1.2114  1.6907  0.9473
  158TMC2    C1 2454   3.994   4.145  13.742 -0.5002 -0.1197 -0.1328
  158TMC2    C2 2455   4.002   4.259  13.662 -0.1854 -0.8007 -0.4887
  158TMC2    C3 2456   3.887   4.285  13.590 -0.8230  0.3733 -0.1952
  158TMC2    C4 2457   3.886   4.064  13.756 -0.2001 -0.0367 -0.4900
  158TMC2    C5 2458   3.774   4.103  13.691  0.6086  0.0757  0.5563
  158TMC2    C6 2459   3.778   4.208  13.602  0.3133  0.1779 -0.0141
  158TMC2     C 2460   4.099   4.133  13.842  0.4030 -0.3006 -0.4849
  158TMC2     O 2461   4.177   4.226  13.860  0.3582 -0.6653 -0.6007
  158TMC2     H 2462   4.097   4.309  13.648 -0.9612  0.1052 -2.4983
  158TMC2    H1 2463   3.878   3.986  13.830  0.8261  0.3751  0.0530
  158TMC2    H2 2464   3.690   4.251  13.556 -1.2509 -0.4469  2.3909
  158TMC2    C7 2465   3.646   4.101  13.753 -0.4195  0.2887  0.6148
  158TMC2    C8 2466   3.881   4.386  13.498 -0.5667  0.4311 -0.2323
  158TMC2    O1 2467   3.574   4.196  13.730 -1.0489 -0.5338 -0.5103
  158TMC2    O2 2468   3.798   4.395  13.407 -0.4308 -0.0455 -0.0462
  158TMC2    O5 2469   3.952   4.491  13.544  0.1551  0.6023 -0.7658
  158TMC2    H5 2470   3.973   4.489  13.640 -3.7919  2.3616  0.1447
  159MPD2     C 2471   4.301   3.974  14.293 -0.6927  0.7642 -0.0287
  159MPD2    C1 2472   4.226   3.875  14.237 -0.6647 -0.0110 -0.5018
  159MPD2    C2 2473   4.154   3.908  14.127  0.5892 -0.2594 -0.1726
  159MPD2    C3 2474   4.162   4.025  14.059  1.1731 -0.1379 -0.0098
  159MPD2    C4 2475   4.226   4.131  14.126  0.4166 -0.2994  0.3086
  159MPD2    C5 2476   4.297   4.100  14.235 -0.3790 -0.3337 -0.3811
  159MPD2     H 2477   4.112   3.829  14.065  0.2508  0.2513 -0.5928
  159MPD2    H1 2478   4.237   4.236  14.101 -1.4027 -0.3840 -0.9515
  159MPD2    H2 2479   4.357   3.960  14.385  0.1116 -0.9486 -0.8030
  159MPD2    H3 2480   4.351   4.181  14.283 -1.5118 -0.1064  0.5088
  159MPD2     N 2481   4.083   4.038  13.939 -0.0261 -0.1398 -0.8356
  159MPD2    H5 2482   4.020   3.960  13.923 -0.3494  0.1177 -0.8203
  159MPD2    N1 2483   4.239   3.753  14.303 -0.0020 -0.3043  0.4656
  159MPD2    H7 2484   4.298   3.749  14.385 -1.8499  0.9827  1.8666
  160TMC2    C1 2485   2.998   2.325   1.514 -0.5367 -0.0876 -0.0293
  160TMC2    C2 2486   2.965   2.443   1.580 -0.1022 -0.4656  0.0802
  160TMC2    C3 2487   3.035   2.475   1.698  0.2628 -0.4257 -1.1568
  160TMC2    C4 2488   3.105   2.261   1.562 -0.1097 -0.5591  0.3440
  160TMC2    C5 2489   3.187   2.309   1.660  0.1007 -0.1598  0.3004
  160TMC2    C6 2490   3.142   2.408   1.747 -0.0336 -0.3239 -0.5209
  160TMC2     C 2491   2.966   2.316   1.375 -0.7049 -0.5409  0.1250
  160TMC2     O 2492   2.991   2.213   1.312  0.4837  0.0280 -0.1542
  160TMC2     H 2493   2.881   2.505   1.553 -1.5775 -2.3455  0.3234
  160TMC2    H1 2494   3.139   2.178   1.500  0.6976  0.2830 -0.3358
  160TMC2    H2 2495   3.189   2.439   1.840 -1.1775 -1.0417  0.2995
  160TMC2    C7 2496   3.307   2.232   1.684 -0.3358  0.1300  0.0283
  160TMC2    C8 2497   3.005   2.609   1.748  0.5559 -0.6186 -0.2576
  160TMC2    O1 2498   3.316   2.114   1.652 -0.0475  0.0122  0.1531
  160TMC2    O2 2499   2.894   2.651   1.764 -0.0249  0.4105  0.0501
  160TMC2    O5 2500   3.117   2.651   1.811 -0.1709 -0.4831 -0.1975
  160TMC2    H5 2501   3.198   2.626   1.762 -0.5320 -0.4809 -0.7956
  161MPD2     C 2502   2.884   2.375   1.092  0.2510  0.0921  0.3603
  161MPD2    C1 2503   2.888   2.466   1.192 -0.4957  0.2268 -0.4948
  161MPD2    C2 2504   2.869   2.605   1.167  0.1638  0.1042  0.2959
  161MPD2    C3 2505   2.831   2.643   1.033  0.1336 -0.5250  0.4589
  161MPD2    C4 2506   2.816   2.543   0.943 -0.2860  0.0842 -0.7252
  161MPD2    C5 2507   2.841   2.413   0.967 -0.3494  0.3060 -0.4971
  161MPD2     H 2508   2.889   2.686   1.236  1.2640  0.8468 -0.9089
  161MPD2    H1 2509   2.786   2.573   0.843 -1.4880  0.3389 -0.2891
  161MPD2    H2 2510   2.893   2.271   1.123 -0.3346  0.2023  0.8805
  161MPD2    H3 2511   2.827   2.346   0.883 -0.7197 -1.4807  0.9928
  161MPD2     N 2512   2.798   2.775   0.995  0.5572  0.1249 -0.1207
  161MPD2    H5 2513   2.768   2.789   0.899  0.8194  0.9314 -0.0853
  161MPD2    N1 2514   2.925   2.436   1.325  0.0122  0.0086 -0.4471
  161MPD2    H7 2515   2.899   2.505   1.394  0.1941 -0.3624 -0.0074
  162TMC2    C1 2516   0.560   4.391   0.970  0.9965 -0.6279 -0.5040
  162TMC2    C2 2517   0.423   4.376   0.950 -0.4824  0.6553 -0.1420
  162TMC2    C3 2518   0.346   4.385   1.057 -0.3995 -0.0057 -0.4126
  162TMC2    C4 2519   0.616   4.405   1.095  0.2010 -0.3709 -0.1548
  162TMC2    C5 2520   0.528   4.420   1.196  0.4310 -0.0623 -0.2001
  162TMC2    C6 2521   0.395   4.414   1.185  0.3970 -0.5120  0.3351
  162TMC2     C 2522   0.649   4.425   0.859  0.1984 -0.3851  0.2730
  162TMC2     O 2523   0.768   4.401   0.879 -0.0552  0.5587 -0.2997
  162TMC2     H 2524   0.381   4.366   0.851 -0.9676 -1.0210  0.2230
  162TMC2    H1 2525   0.723   4.421   1.107  0.1193 -0.2865  0.4595
  162TMC2    H2 2526   0.329   4.433   1.268  2.3749  0.5297  1.6814
  162TMC2    C7 2527   0.578   4.452   1.331 -0.7460 -0.0128  0.7889
  162TMC2    C8 2528   0.212   4.388   1.044 -0.6977  0.9261  0.3456
  162TMC2    O1 2529   0.506   4.516   1.407  0.0912 -0.5681 -0.1565
  162TMC2    O2 2530   0.145   4.398   0.944  0.2337 -0.6027 -0.2570
  162TMC2    O5 2531   0.184   4.298   1.142  0.4455 -0.1806 -0.4509
  162TMC2    H5 2532   0.262   4.266   1.191 -0.2912 -2.9610 -1.1243
  163MPD2     C 2533   0.729   4.540   0.362 -0.7781  0.0401  0.2212
  163MPD2    C1 2534   0.819   4.492   0.460  0.3723  0.4088  0.5886
  163MPD2    C2 2535   0.772   4.470   0.587  0.3200  0.1346  0.2501
  163MPD2    C3 2536   0.642   4.499   0.622 -0.2972  0.5525 -0.9040
  163MPD2    C4 2537   0.560   4.545   0.523  0.0522  0.0855 -0.1119
  163MPD2    C5 2538   0.604   4.571   0.398 -0.5384  0.1876 -0.3028
  163MPD2     H 2539   0.844   4.435   0.660  1.6071 -3.0555 -2.5557
  163MPD2    H1 2540   0.459   4.575   0.548  0.3337  1.4342 -0.6083
  163MPD2    H2 2541   0.764   4.561   0.261  4.9788 -1.4561  1.8545
  163MPD2    H3 2542   0.527   4.619   0.339  1.5108  0.1741 -2.9993
  163MPD2     N 2543   0.583   4.469   0.747  0.1844  0.2591 -0.1607
  163MPD2    H5 2544   0.484   4.484   0.765 -0.5038 -2.3321 -1.6968
  163MPD2    N1 2545   0.952   4.483   0.411  0.9482  0.1069 -0.0644
  163MPD2    H7 2546   0.967   4.512   0.315 -0.5230  0.5008 -0.1803
  164TMC2    C1 2547   2.658   4.104  11.253  0.7651 -0.0830 -0.0725
  164TMC2    C2 2548   2.751   4.142  11.164 -0.0353 -0.4066  0.4173
  164TMC2    C3 2549   2.714   4.234  11.064  0.1672 -0.8495  0.4253
  164TMC2    C4 2550   2.546   4.173  11.272  0.1992 -0.5987 -0.2481
  164TMC2    C5 2551   2.517   4.266  11.180  0.6741 -0.3112 -0.2548
  164TMC2    C6 2552   2.591   4.285  11.066 -0.1157 -0.4889  0.2611
  164TMC2     C 2553   2.639   3.961  11.267 -0.5577 -0.2562 -0.5268
  164TMC2     O 2554   2.584   3.918  11.366  0.1226  0.4091  0.0132
  164TMC2     H 2555   2.850   4.097  11.162  0.1572  0.0363 -0.2824
  164TMC2    H1 2556   2.476   4.134  11.344 -0.7337 -0.5105 -1.1157
  164TMC2    H2 2557   2.549   4.353  10.993  3.6034  0.2059 -1.2032
  164TMC2    C7 2558   2.391   4.334  11.191 -0.0068  0.1825 -0.0755
  164TMC2    C8 2559   2.765   4.198  10.936  1.1967  0.2564 -0.4435
  164TMC2    O1 2560   2.344   4.384  11.090 -0.1070  0.6143  0.7453
  164TMC2    O2 2561   2.825   4.093  10.915  0.0946 -0.3019  0.5683
  164TMC2    O5 2562   2.791   4.311  10.861 -0.3291 -0.6828 -0.3426
  164TMC2    H5 2563   2.772   4.398  10.902 -1.8272 -1.3584  0.4098
  165TMC2    C1 2564   2.819   1.793   0.801  0.0614  0.0753  0.7847
  165TMC2    C2 2565   2.755   1.910   0.804  0.3284  1.0035  0.1525
  165TMC2    C3 2566   2.782   1.995   0.905 -0.3175  0.0741 -0.0994
  165TMC2    C4 2567   2.920   1.770   0.887  0.6453 -0.1113  0.0845
  165TMC2    C5 2568   2.942   1.864   0.985  0.2000 -0.1022  0.9178
  165TMC2    C6 2569   2.884   1.983   0.986  0.0720 -0.1493  0.4152
  165TMC2     C 2570   2.731   1.681   0.788  0.3447  0.2289  0.3989
  165TMC2     O 2571   2.732   1.601   0.880 -0.3557  0.1561  0.4900
  165TMC2     H 2572   2.678   1.938   0.733 -0.7934 -1.2079  0.5077
  165TMC2    H1 2573   2.966   1.673   0.875 -0.9851 -0.8172 -0.5273
  165TMC2    H2 2574   2.915   2.049   1.067  1.4193 -0.3037  0.0343
  165TMC2    C7 2575   3.039   1.833   1.082  0.4406 -0.1876  0.0295
  165TMC2    C8 2576   2.690   2.108   0.919 -0.4106 -0.8551  0.2051
  165TMC2    O1 2577   3.103   1.737   1.052  0.3340 -0.3484  0.2152
  165TMC2    O2 2578   2.638   2.161   0.825 -0.1098  0.1946  0.4864
  165TMC2    O5 2579   2.658   2.139   1.049 -0.0205  0.1815  0.5442
  165TMC2    H5 2580   2.701   2.080   1.114 -0.8564 -1.1422 -0.0853
  166MPD2     C 2581   2.386   1.440   0.496  0.1381 -0.8503  0.3428
  166MPD2    C1 2582   2.423   1.415   0.624  0.6013  0.4534 -0.0436
  166MPD2    C2 2583   2.515   1.501   0.676  0.0909 -0.6224  0.3137
  166MPD2    C3 2584   2.572   1.605   0.609  0.3706  0.2284 -0.0134
  166MPD2    C4 2585   2.537   1.628   0.476  1.0349 -0.5000  0.1397
  166MPD2    C5 2586   2.429   1.556   0.426  0.1508 -0.0633  0.3291
  166MPD2     H 2587   2.551   1.482   0.777  1.6081 -2.1021 -0.4918
  166MPD2    H1 2588   2.583   1.706   0.415  1.8381 -2.3666 -1.6432
  166MPD2    H2 2589   2.309   1.382   0.446 -1.5023  1.7277 -0.1572
  166MPD2    H3 2590   2.398   1.583   0.326 -0.3373  0.1885  0.5433
  166MPD2     N 2591   2.662   1.693   0.667  0.1465  0.2340 -0.0045
  166MPD2    H5 2592   2.684   1.776   0.614 -0.6377  0.0293 -0.6593
  166MPD2    N1 2593   2.360   1.311   0.697 -0.3934 -0.2450 -0.5871
  166MPD2    H7 2594   2.299   1.251   0.640  0.7645 -1.3465 -0.6682
  167TMC2    C1 2595   1.499   3.736  12.795  0.2603  0.2878  0.0832
  167TMC2    C2 2596   1.456   3.782  12.914  0.3825 -0.2101  0.4445
  167TMC2    C3 2597   1.474   3.701  13.022  0.2032  0.8314 -0.0450
  167TMC2    C4 2598   1.558   3.613  12.779  0.2162 -0.5228 -0.2449
  167TMC2    C5 2599   1.588   3.543  12.890  0.1560 -0.5549 -0.3360
  167TMC2    C6 2600   1.545   3.587  13.013  0.1393  0.3023 -0.0581
  167TMC2     C 2601   1.485   3.827  12.682 -0.3129 -0.6560 -0.0075
  167TMC2     O 2602   1.400   3.918  12.692  0.4265 -0.3079 -0.2787
  167TMC2     H 2603   1.431   3.888  12.924  1.5126  0.0271  0.7649
  167TMC2    H1 2604   1.558   3.568  12.681 -2.8585 -2.7974  0.8123
  167TMC2    H2 2605   1.566   3.521  13.097 -1.1618 -1.3532 -1.0222
  167TMC2    C7 2606   1.645   3.407  12.873  0.3869  0.2447 -0.0231
  167TMC2    C8 2607   1.476   3.764  13.154  0.6629  0.1273  0.5527
  167TMC2    O1 2608   1.615   3.328  12.958  0.3085  0.2239  0.1587
  167TMC2    O2 2609   1.545   3.719  13.244 -0.4149 -0.0137 -0.1014
  167TMC2    O5 2610   1.355   3.825  13.173  0.4909  0.4001  0.0214
  167TMC2    H5 2611   1.311   3.813  13.087 -0.2829  0.9157  0.3469
  168MPD2     C 2612   1.559   4.039  12.488 -0.1973 -0.2264 -0.0696
  168MPD2    C1 2613   1.607   3.907  12.482  0.2070  0.2860  0.8061
  168MPD2    C2 2614   1.693   3.875  12.382 -0.4914  0.0157 -0.3249
  168MPD2    C3 2615   1.730   3.969  12.283 -0.3202  0.6031  0.2213
  168MPD2    C4 2616   1.665   4.087  12.289 -0.1721 -0.2928 -0.4098
  168MPD2    C5 2617   1.583   4.120  12.389  0.2321 -0.1609  0.0780
  168MPD2     H 2618   1.731   3.774  12.385  0.0425  0.2621  1.1566
  168MPD2    H1 2619   1.695   4.172  12.230  1.1504 -1.2629 -1.1476
  168MPD2    H2 2620   1.499   4.072  12.572  0.5618 -1.6804  1.0603
  168MPD2    H3 2621   1.548   4.222  12.401 -1.2608 -0.5437 -1.1199
  168MPD2     N 2622   1.818   3.945  12.174  0.1471 -0.6464  0.2927
  168MPD2    H5 2623   1.820   4.005  12.092  1.0543 -2.0465 -0.7097
  168MPD2    N1 2624   1.582   3.816  12.584 -0.0335  0.1681  0.1514
  168MPD2    H7 2625   1.641   3.735  12.594  0.0398 -0.2179 -3.3880
  169MPD1     C 2626   3.431   3.809  10.014  0.2844  0.0162  0.0497
  169MPD1    C1 2627   3.418   3.673  10.045 -0.6593  0.7261 -0.0287
  169MPD1    C2 2628   3.481   3.580   9.964  0.0075 -0.3820  0.3444
  169MPD1    C3 2629   3.519   3.610   9.838 -0.1672 -0.2879 -0.3226
  169MPD1    C4 2630   3.505   3.744   9.801 -1.1894  0.2558 -0.5489
  169MPD1    C5 2631   3.478   3.842   9.892 -0.1735 -0.2498  0.2284
  169MPD1     H 2632   3.487   3.473   9.980  0.8711 -0.1586  1.5088
  169MPD1    H1 2633   3.540   3.786   9.708  1.4097  1.1329  0.8526
  169MPD1    H2 2634   3.390   3.885  10.079  1.6454  0.6777  0.1325
  169MPD1    H3 2635   3.493   3.945   9.863  0.2507  0.2246  2.1429
  169MPD1     N 2636   3.565   3.506   9.759  0.8315  0.1232 -0.0483
  169MPD1    H5 2637   3.563   3.409   9.789 -0.2067 -0.1544 -1.0292
  169MPD1    N1 2638   3.392   3.636  10.177  0.7400 -0.8266 -0.1436
  169MPD1    H6 2639   3.336   3.707  10.225  0.3095 -0.6631 -0.8843
  169MPD1    H7 2640   3.357   3.541  10.189  0.8302 -0.9948 -1.2432
  170MPD1     C 2641   3.311   1.387  13.211  0.1100 -0.1070 -0.1965
  170MPD1    C1 2642   3.295   1.315  13.327  0.4658 -0.6013  0.3723
  170MPD1    C2 2643   3.175   1.315  13.386 -0.2493  0.2363  0.3725
  170MPD1    C3 2644   3.063   1.379  13.337 -0.3811 -0.4350 -0.0234
  170MPD1    C4 2645   3.077   1.443  13.213  0.9068  0.1949 -0.7932
  170MPD1    C5 2646   3.203   1.444  13.157 -0.3197  0.2235 -0.7166
  170MPD1     H 2647   3.162   1.259  13.478 -0.3854 -0.4707 -0.0864
  170MPD1    H1 2648   2.996   1.493  13.161 -1.5721 -3.3712 -0.4095
  170MPD1    H2 2649   3.402   1.398  13.153  1.6049 -0.7650  2.0348
  170MPD1    H3 2650   3.219   1.498  13.065 -0.4591 -0.0636 -0.9071
  170MPD1     N 2651   2.939   1.350  13.392 -0.1729  0.2968 -0.0322
  170MPD1    H5 2652   2.940   1.295  13.477 -0.8964 -0.1667 -0.3268
  170MPD1    N1 2653   3.407   1.274  13.401 -0.4723  0.0459  0.3114
  170MPD1    H6 2654   3.490   1.246  13.349  0.6335  0.0712  2.0941
  170MPD1    H7 2655   3.391   1.194  13.462 -3.5178  1.0106  0.7697
  171MPD1     C 2656   1.379   2.793  15.509  0.2511 -0.1223  0.3033
  171MPD1    C1 2657   1.317   2.698  15.433 -0.8978  0.0052 -0.3294
  171MPD1    C2 2658   1.325   2.564  15.468 -0.5247 -0.1723 -0.1540
  171MPD1    C3 2659   1.417   2.526  15.573 -0.5168  0.3177 -0.5958
  171MPD1    C4 2660   1.497   2.619  15.637  0.1418  0.4268 -0.1566
  171MPD1    C5 2661   1.464   2.752  15.607  0.1294 -0.0184  0.5687
  171MPD1     H 2662   1.264   2.487  15.421 -0.1441 -0.1633 -0.6638
  171MPD1    H1 2663   1.564   2.589  15.717 -0.3367 -0.9081 -0.2552
  171MPD1    H2 2664   1.364   2.900  15.506  0.1438 -0.1922 -1.4174
  171MPD1    H3 2665   1.517   2.829  15.661 -0.8073  1.5079 -0.6790
  171MPD1     N 2666   1.428   2.391  15.618  1.0675  0.2809 -0.2873
  171MPD1    H5 2667   1.502   2.367  15.683  2.2270  0.9432 -1.3672
  171MPD1    N1 2668   1.226   2.745  15.336  0.1203  0.1851  0.2001
  171MPD1    H6 2669   1.207   2.679  15.261  2.3765  1.6776 -1.6623
  171MPD1    H7 2670   1.286   2.815  15.292  1.4033 -0.5801  0.7236
  172MPD1     C 2671   0.472   1.489   0.874 -0.5517 -0.2213 -0.2384
  172MPD1    C1 2672   0.540   1.590   0.809 -0.2800 -0.1095 -0.0687
  172MPD1    C2 2673   0.481   1.636   0.692  0.5074 -0.1871  0.6115
  172MPD1    C3 2674   0.349   1.602   0.652 -0.4263  0.6609  0.0167
  172MPD1    C4 2675   0.285   1.518   0.735  0.0520  0.1497 -0.3061
  172MPD1    C5 2676   0.345   1.461   0.839 -0.2942 -0.7694 -0.5591
  172MPD1     H 2677   0.540   1.702   0.630 -1.2835  1.3535  0.5403
  172MPD1    H1 2678   0.184   1.490   0.710  0.0414 -0.2225  0.1618
  172MPD1    H2 2679   0.506   1.429   0.958  1.9091  1.3999 -0.0536
  172MPD1    H3 2680   0.286   1.390   0.896  0.6791  1.3679  3.1588
  172MPD1     N 2681   0.276   1.668   0.551  0.5078 -0.2514  0.7046
  172MPD1    H5 2682   0.176   1.655   0.542 -0.0390  3.8026  0.7648
  172MPD1    N1 2683   0.680   1.613   0.822 -0.4644 -0.4965 -0.3777
  172MPD1    H6 2684   0.720   1.703   0.795 -0.6232 -0.0484  0.8671
  172MPD1    H7 2685   0.703   1.605   0.921 -1.1663 -1.8873 -0.3317
  173MPD1     C 2686   1.755   1.690  13.712 -0.6937 -0.5538 -0.3525
  173MPD1    C1 2687   1.882   1.657  13.761  0.9013 -0.2541  0.1033
  173MPD1    C2 2688   1.893   1.637  13.895  0.9126 -0.0433 -0.0232
  173MPD1    C3 2689   1.780   1.634  13.977 -0.9635  0.9866 -0.3881
  173MPD1    C4 2690   1.660   1.663  13.925  0.2110  0.0438 -0.3770
  173MPD1    C5 2691   1.647   1.691  13.795  0.8183  0.0724 -0.2404
  173MPD1     H 2692   1.990   1.599  13.927  0.7220 -0.4254  0.0958
  173MPD1    H1 2693   1.572   1.668  13.988 -0.7764  1.0545 -1.8344
  173MPD1    H2 2694   1.731   1.728  13.614 -1.7617 -1.4590 -0.4428
  173MPD1    H3 2695   1.550   1.711  13.749  0.0379 -1.6844  0.6431
  173MPD1     N 2696   1.799   1.596  14.114 -0.0261  0.0585  0.3688
  173MPD1    H5 2697   1.891   1.574  14.151  0.2772 -0.6773 -0.8311
  173MPD1    N1 2698   1.982   1.617  13.675  0.0859 -0.3985 -0.5494
  173MPD1    H6 2699   1.977   1.656  13.581 -3.6362 -1.1645 -0.6476
  173MPD1    H7 2700   2.076   1.617  13.716  1.2640 -3.9875 -3.2635
  174MPD1     C 2701   2.412   1.078  14.558  0.1489  0.3015 -0.1450
  174MPD1    C1 2702   2.369   1.067  14.428 -0.1099 -0.1953  0.1039
  174MPD1    C2 2703   2.243   1.118  14.394 -0.0661  0.0690 -0.3569
  174MPD1    C3 2704   2.166   1.179  14.502 -0.5345  0.0810  0.1842
  174MPD1    C4 2705   2.217   1.178  14.632 -0.1064  0.3444 -0.4105
  174MPD1    C5 2706   2.339   1.125  14.655  0.0681  0.5859  0.1786
  174MPD1     H 2707   2.199   1.101  14.296  3.2965  0.6973 -1.9826
  174MPD1    H1 2708   2.149   1.198  14.714 -0.2151  1.1568 -0.7030
  174MPD1    H2 2709   2.509   1.041  14.588 -0.0156 -0.1339 -0.1458
  174MPD1    H3 2710   2.384   1.119  14.754 -0.0720 -1.6779  0.0991
  174MPD1     N 2711   2.032   1.221  14.493  0.1765  0.2484 -0.3321
  174MPD1    H5 2712   2.001   1.280  14.570 -2.2741 -0.0008 -1.1382
  174MPD1    N1 2713   2.454   1.024  14.327  0.6613 -0.4242 -0.5326
  174MPD1    H6 2714   2.401   0.981  14.251  0.2011 -2.4178  0.9536
  174MPD1    H7 2715   2.531   0.964  14.355  2.6988  1.6978 -1.4956
  175MPD1     C 2716   4.283   3.019  15.594  0.1638  0.2488 -0.6201
  175MPD1    C1 2717   4.411   3.040  15.626  0.8078 -0.1765  0.6759
  175MPD1    C2 2718   4.439   3.044  15.759  0.2444  0.8552 -0.3588
  175MPD1    C3 2719   4.342   3.024  15.861  0.3198  0.3777 -0.3306
  175MPD1    C4 2720   4.214   3.030  15.827  0.2465 -0.3449  0.2636
  175MPD1    C5 2721   4.189   3.028  15.694  0.0058 -0.5009  0.2609
  175MPD1     H 2722   4.545   3.048  15.783 -0.3309  2.3165  1.9806
  175MPD1    H1 2723   4.130   3.039  15.895  0.4192  1.0912  0.2719
  175MPD1    H2 2724   4.253   3.012  15.490  0.7867 -2.8591 -0.5932
  175MPD1    H3 2725   4.088   3.041  15.658  1.3564  4.7128 -1.6606
  175MPD1     N 2726   4.376   3.021  15.999  0.0747 -0.0260 -0.2401
  175MPD1    H5 2727   4.303   2.990  16.062  0.5492  0.1779  0.4123
  175MPD1    N1 2728   4.510   3.045  15.532  0.0501  0.2738 -0.3834
  175MPD1    H6 2729   4.602   3.028  15.572 -0.2071  0.9972  0.5206
  175MPD1    H7 2730   4.496   2.996  15.444 -0.9774 -0.0428 -0.0488
  176MPD1     C 2731   0.786   4.723  17.148 -0.4249  0.3691  0.2330
  176MPD1    C1 2732   0.836   4.640  17.245  0.0454 -0.0292 -0.3506
  176MPD1    C2 2733   0.955   4.675  17.304 -0.4248  0.2409  0.2517
  176MPD1    C3 2734   1.017   0.057  17.281 -0.0173  0.4699 -0.9654
  176MPD1    C4 2735   0.955   0.150  17.202 -0.2183  0.3472 -0.2252
  176MPD1    C5 2736   0.835   0.119  17.141 -0.0551  0.2357  0.0729
  176MPD1     H 2737   0.990   4.600  17.374 -0.9728  0.1899  0.4677
  176MPD1    H1 2738   0.989   0.252  17.187 -3.4347  1.4593  0.1511
  176MPD1    H2 2739   0.704   4.688  17.087 -0.3726 -0.0485  0.4016
  176MPD1    H3 2740   0.791   0.196  17.078  1.9270  0.8477 -0.5698
  176MPD1     N 2741   1.137   0.088  17.356 -0.2260 -0.0616  0.7014
  176MPD1    H5 2742   1.176   0.014  17.413  1.1505  0.0448 -0.1238
  176MPD1    N1 2743   0.772   4.522  17.284  0.2606  0.1234  0.7793
  176MPD1    H6 2744   0.810   4.448  17.226  3.4082  2.2563  0.1357
  176MPD1    H7 2745   0.807   4.501  17.377  2.3059 -1.5512 -0.3631
  177MPD1     C 2746   0.586   0.060   9.130  0.1176  0.0012 -0.0216
  177MPD1    C1 2747   0.514   0.159   9.198  0.3071  0.5475 -0.7268
  177MPD1    C2 2748   0.380   0.142   9.214 -0.3157  0.0248 -0.2156
  177MPD1    C3 2749   0.315   0.034   9.152  0.4396 -0.4144  0.0839
  177MPD1    C4 2750   0.393   4.680   9.079 -0.2977 -0.3521  0.0471
  177MPD1    C5 2751   0.531   4.695   9.071 -0.5954  0.1120  0.5348
  177MPD1     H 2752   0.327   0.223   9.263  0.2083  0.4580 -0.3613
  177MPD1    H1 2753   0.353   4.600   9.017  3.1881 -0.6782 -1.7644
  177MPD1    H2 2754   0.695   0.061   9.127  0.0635 -1.9150 -3.0470
  177MPD1    H3 2755   0.585   4.628   9.004 -0.5020 -0.2648  0.9915
  177MPD1     N 2756   0.171   0.029   9.156  0.5325  0.0668 -0.1725
  177MPD1    H5 2757   0.118   0.111   9.184  0.8288  0.6504 -1.3026
  177MPD1    N1 2758   0.578   0.264   9.271 -0.2228  0.0925 -0.2493
  177MPD1    H6 2759   0.532   0.354   9.257  0.5217  0.3725 -0.9284
  177MPD1    H7 2760   0.671   0.278   9.232  1.3342 -1.7788  2.8263
  178MPD1     C 2761   2.244   0.564   0.189  0.2209  0.6577  0.7355
  178MPD1    C1 2762   2.335   0.663   0.212 -0.6354  0.5350  0.1197
  178MPD1    C2 2763   2.405   0.712   0.108  0.2831 -0.1079  0.5800
  178MPD1    C3 2764   2.389   0.643  17.735  0.1474 -0.2017  0.1080
  178MPD1    C4 2765   2.304   0.534  17.718  0.2238 -0.3596  0.3721
  178MPD1    C5 2766   2.236   0.496   0.076  0.2037  0.0789  0.1576
  178MPD1     H 2767   2.475   0.793   0.119 -0.1605 -0.1042  3.3165
  178MPD1    H1 2768   2.283   0.483  17.625 -2.9990  0.9179  0.4038
  178MPD1    H2 2769   2.184   0.528   0.272  0.1039  1.3476  0.9479
  178MPD1    H3 2770   2.168   0.412   0.068  0.7850 -0.2707 -1.1542
  178MPD1     N 2771   2.452   0.692  17.620 -0.2701  0.2326  0.1479
  178MPD1    H5 2772   2.427   0.643  17.535 -0.6435  0.0660  0.3558
  178MPD1    N1 2773   2.320   0.743   0.327 -0.0006 -0.2867 -0.0400
  178MPD1    H6 2774   2.412   0.782   0.349 -0.6016 -0.2258  2.4319
  178MPD1    H7 2775   2.282   0.687   0.403  1.9757  1.1060  1.9668
  179MPD1     C 2776   2.282   4.037  15.962 -0.4214 -0.7086  0.2597
  179MPD1    C1 2777   2.201   3.973  16.051 -0.7434  0.6775  0.2095
  179MPD1    C2 2778   2.179   3.841  16.035  0.5371 -0.0970  0.2691
  179MPD1    C3 2779   2.234   3.772  15.925 -0.3156 -0.5660  0.4835
  179MPD1    C4 2780   2.311   3.844  15.833 -0.6404  0.1302  0.0121
  179MPD1    C5 2781   2.329   3.978  15.855 -0.0353  0.0234  1.0575
  179MPD1     H 2782   2.124   3.785  16.110 -1.1253  1.3714  0.1462
  179MPD1    H1 2783   2.369   3.796  15.755  1.0999  1.0512  0.7368
  179MPD1    H2 2784   2.325   4.136  15.969  0.7344 -1.2246  0.4148
  179MPD1    H3 2785   2.398   4.031  15.791 -1.0648  0.3006  0.1774
  179MPD1     N 2786   2.222   3.636  15.913 -0.2321  0.0685  0.5535
  179MPD1    H5 2787   2.275   3.588  15.842  0.5226 -1.5765  2.2219
  179MPD1    N1 2788   2.168   4.033  16.171  0.3720  0.0098  0.0171
  179MPD1    H6 2789   2.128   4.125  16.156 -0.4005 -0.0394  1.7529
  179MPD1    H7 2790   2.084   3.984  16.202 -0.2691  0.0408 -1.7168
  180MPD1     C 2791   1.463   0.220  15.302  0.7415 -0.1735 -0.2003
  180MPD1    C1 2792   1.390   0.123  15.235 -0.6307  0.5703  0.1553
  180MPD1    C2 2793   1.442   0.068  15.120  0.1422  0.3012  0.4730
  180MPD1    C3 2794   1.576   0.093  15.089 -0.2867 -0.1984 -0.2074
  180MPD1    C4 2795   1.645   0.188  15.159 -0.1335 -0.4531  0.2519
  180MPD1    C5 2796   1.587   0.251  15.264  0.2936  0.2099 -0.3788
  180MPD1     H 2797   1.380   0.007  15.056  1.1410  0.4159 -0.6100
  180MPD1    H1 2798   1.742   0.226  15.129 -0.7133  2.1233  1.6054
  180MPD1    H2 2799   1.411   0.260  15.389  2.9242 -0.3673  1.1941
  180MPD1    H3 2800   1.641   0.323  15.325 -0.2334  0.7857 -0.5914
  180MPD1     N 2801   1.634   0.033  14.978 -0.5534  0.5344  0.1482
  180MPD1    H5 2802   1.579   4.723  14.907  1.6717 -1.5881 -0.1471
  180MPD1    N1 2803   1.258   0.084  15.267  0.7722  0.6552  0.3855
  180MPD1    H6 2804   1.232   0.103  15.363 -3.7888 -1.9026 -0.3757
  180MPD1    H7 2805   1.227   4.733  15.228 -1.6193  1.4662  0.4485
  181MPD1     C 2806   3.592   1.299   9.861  0.2717  0.0572 -0.2395
  181MPD1    C1 2807   3.634   1.354   9.976  0.1870  0.6874 -0.0873
  181MPD1    C2 2808   3.754   1.426   9.979  0.3828 -0.6376 -0.5921
  181MPD1    C3 2809   3.816   1.464   9.863  0.5282  0.1272 -0.0750
  181MPD1    C4 2810   3.767   1.413   9.749  0.0118 -0.0008  0.2768
  181MPD1    C5 2811   3.656   1.330   9.741 -0.0172  0.1677 -0.0545
  181MPD1     H 2812   3.797   1.440  10.077 -1.4746  0.2030  0.0977
  181MPD1    H1 2813   3.810   1.454   9.659 -2.4261 -2.4769 -2.0218
  181MPD1    H2 2814   3.509   1.229   9.862  1.0272 -0.8398  0.0320
  181MPD1    H3 2815   3.621   1.290   9.646  1.8402 -0.9118 -0.2740
  181MPD1     N 2816   3.933   1.540   9.865 -0.3924 -0.1392  0.7106
  181MPD1    H5 2817   3.986   1.546   9.778  0.5261 -1.3320  1.1790
  181MPD1    N1 2818   3.576   1.308  10.096  0.7697 -0.2918 -0.2408
  181MPD1    H6 2819   3.602   1.375  10.168 -2.6526  0.9627 -0.1779
  181MPD1    H7 2820   3.477   1.282  10.088  0.4536  0.4676  1.2085
  182MPD1     C 2821   4.359   0.889   1.374 -0.2890  0.0550  0.3444
  182MPD1    C1 2822   4.429   0.857   1.259 -0.0820  0.3797  0.4686
  182MPD1    C2 2823   4.375   0.892   1.135  0.4723  0.3852 -0.4767
  182MPD1    C3 2824   4.247   0.959   1.127  0.5566 -0.2204 -0.4445
  182MPD1    C4 2825   4.185   0.991   1.244  0.1416  0.4175 -0.0537
  182MPD1    C5 2826   4.249   0.968   1.360  0.1172 -0.1007  0.0286
  182MPD1     H 2827   4.437   0.863   1.051 -0.4662 -0.3671 -0.9025
  182MPD1    H1 2828   4.087   1.037   1.247  0.1683  0.4545  0.3284
  182MPD1    H2 2829   4.398   0.867   1.472 -1.9061 -0.0682  0.9574
  182MPD1    H3 2830   4.193   0.999   1.448  0.3841 -2.4663  1.0364
  182MPD1     N 2831   4.185   0.997   1.001  0.5549  0.7208 -0.0407
  182MPD1    H5 2832   4.096   1.045   1.004 -1.1402 -2.4047 -0.2347
  182MPD1    N1 2833   4.551   0.787   1.264  1.1441  0.0778  0.9700
  182MPD1    H6 2834   4.531   0.698   1.310  2.2091 -1.8658 -2.2987
  182MPD1    H7 2835   4.598   0.777   1.174 -0.1827 -0.9499  0.3977
  183MPD1     C 2836   0.501   0.986   8.748 -0.8429 -0.3533 -0.3329
  183MPD1    C1 2837   0.561   1.028   8.868 -0.9322  0.0290 -0.8445
  183MPD1    C2 2838   0.524   1.147   8.925  0.0394  0.1239 -0.1980
  183MPD1    C3 2839   0.407   1.204   8.879 -0.3886  0.2551 -0.1786
  183MPD1    C4 2840   0.328   1.140   8.785 -0.3858 -0.1458 -0.2132
  183MPD1    C5 2841   0.389   1.046   8.708 -0.2571  0.1825 -0.3616
  183MPD1     H 2842   0.574   1.195   9.009  0.3865 -0.3859 -0.1158
  183MPD1    H1 2843   0.232   1.181   8.754  0.5129  0.5918 -1.9768
  183MPD1    H2 2844   0.548   0.913   8.683  0.7394  0.0494  0.3511
  183MPD1    H3 2845   0.340   1.000   8.623  1.7373 -0.7017 -1.0382
  183MPD1     N 2846   0.368   1.322   8.956 -0.0264  1.0698  0.3914
  183MPD1    H5 2847   0.422   1.342   9.040  1.5340  0.2765 -0.4256
  183MPD1    N1 2848   0.693   0.971   8.897  0.0723  0.3504  0.5612
  183MPD1    H6 2849   0.722   0.980   8.994  2.2367  0.7707 -0.1181
  183MPD1    H7 2850   0.680   0.871   8.888  1.8926  0.3208 -1.8130
  184MPD1     C 2851   4.275   3.648   9.980 -0.0580 -0.1316 -0.2008
  184MPD1    C1 2852   4.413   3.671   9.987  0.3617  1.0087  0.1430
  184MPD1    C2 2853   4.473   3.781   9.931  0.8733  0.1031 -0.0403
  184MPD1    C3 2854   4.400   3.852   9.839 -0.1309 -0.3594  0.0397
  184MPD1    C4 2855   4.269   3.813   9.814 -0.3660  1.0652  0.0544
  184MPD1    C5 2856   4.206   3.716   9.886  0.0934  0.1810  0.5520
  184MPD1     H 2857   4.577   3.801   9.955  0.3834  0.6477  1.6764
  184MPD1    H1 2858   4.210   3.875   9.747  0.4092  1.2425 -0.4739
  184MPD1    H2 2859   4.219   3.573  10.035  2.0933 -0.1551  1.9685
  184MPD1    H3 2860   4.100   3.696   9.870  0.0569  1.7734 -1.2176
  184MPD1     N 2861   4.459   3.958   9.766  0.1701  0.0495 -0.0703
  184MPD1    H5 2862   4.393   3.987   9.695  0.8318 -0.9681 -1.0926
  184MPD1    N1 2863   4.480   3.618  10.105 -0.0942  0.0961  1.1925
  184MPD1    H6 2864   4.581   3.615  10.092 -0.3090 -0.8498 -0.2463
  184MPD1    H7 2865   4.448   3.528  10.138 -0.4711 -0.2498 -0.1073
  185MPD1     C 2866   4.357   0.125   9.424  0.0477  0.0612 -0.0680
  185MPD1    C1 2867   4.281   0.016   9.427  0.1016 -0.4546 -0.3440
  185MPD1    C2 2868   4.343   4.629   9.440  0.6565  0.0291 -0.8683
  185MPD1    C3 2869   4.475   4.613   9.476  0.2700  0.1243 -0.2988
  185MPD1    C4 2870   4.552   4.726   9.488  0.2269 -0.4974 -0.7012
  185MPD1    C5 2871   4.493   0.115   9.459  0.1410  1.0165 -0.4250
  185MPD1     H 2872   4.285   4.541   9.414  0.7016 -0.2074 -0.1469
  185MPD1    H1 2873   4.655   4.727   9.522 -0.3136  0.9265  0.9189
  185MPD1    H2 2874   4.307   0.218   9.400  1.1996  0.7033  0.0434
  185MPD1    H3 2875   4.550   0.207   9.457  0.5012  0.7966 -0.1512
  185MPD1     N 2876   4.533   4.486   9.493  0.0505  0.3404  0.3340
  185MPD1    H5 2877   4.631   4.483   9.519 -0.2797 -0.2776  1.4888
  185MPD1    N1 2878   4.145   0.023   9.379 -0.6995 -0.3111 -0.1558
  185MPD1    H6 2879   4.101   4.672   9.400 -2.4674  0.6759  0.2593
  185MPD1    H7 2880   4.093   0.100   9.421  0.4077  1.5536 -2.1847
  186MPD1     C 2881   2.627   3.464  16.078 -0.3268  0.0135 -0.3896
  186MPD1    C1 2882   2.643   3.430  16.213 -0.2056 -0.1890  0.3921
  186MPD1    C2 2883   2.619   3.525  16.308 -0.4238  0.3041  0.0696
  186MPD1    C3 2884   2.557   3.645  16.272  0.7592 -0.9817 -0.8694
  186MPD1    C4 2885   2.530   3.673  16.145 -0.7316  0.3808 -0.9679
  186MPD1    C5 2886   2.564   3.583  16.042 -0.1571  0.1946  0.5190
  186MPD1     H 2887   2.655   3.508  16.409  2.2306 -2.0120 -1.2529
  186MPD1    H1 2888   2.476   3.766  16.130  1.2812  1.7478  0.2087
  186MPD1    H2 2889   2.637   3.380  16.011 -0.2667  0.1018 -0.4911
  186MPD1    H3 2890   2.541   3.611  15.940 -2.4282 -2.5076  0.2987
  186MPD1     N 2891   2.541   3.751  16.372 -0.5106  0.1751  0.3450
  186MPD1    H5 2892   2.514   3.841  16.334 -0.2552 -0.2034 -0.7210
  186MPD1    N1 2893   2.709   3.307  16.234  0.4435  0.0956 -0.3518
  186MPD1    H6 2894   2.697   3.240  16.158 -1.0268 -0.6991  0.5891
  186MPD1    H7 2895   2.685   3.260  16.321  0.4500 -0.4353 -0.6307
  187MPD1     C 2896   0.950   1.850   0.158 -0.1991 -0.4406 -0.0654
  187MPD1    C1 2897   1.030   1.880   0.053 -0.2492 -0.4713  0.0737
  187MPD1    C2 2898   1.121   1.783   0.012 -0.2461  0.2319 -0.1568
  187MPD1    C3 2899   1.121   1.653   0.061  0.5338  0.5015 -0.6740
  187MPD1    C4 2900   1.022   1.622   0.151 -0.0454 -0.3232  0.0139
  187MPD1    C5 2901   0.947   1.723   0.204 -0.4360 -0.2223 -0.0365
  187MPD1     H 2902   1.183   1.811  17.675 -0.8951 -0.4643 -0.8525
  187MPD1    H1 2903   0.997   1.526   0.195  1.5739 -0.2427  1.1306
  187MPD1    H2 2904   0.898   1.923   0.219  2.6127  0.0606  1.7333
  187MPD1    H3 2905   0.869   1.702   0.277  0.4675 -3.4739  0.0259
  187MPD1     N 2906   1.219   1.554   0.026  0.0298 -0.1021  0.0644
  187MPD1    H5 2907   1.194   1.457   0.044  1.6496 -0.8791 -1.8569
  187MPD1    N1 2908   1.041   2.005  17.741 -0.1491 -0.2419  0.1617
  187MPD1    H6 2909   1.048   1.996  17.640  1.5414  0.0912  0.2516
  187MPD1    H7 2910   0.956   2.059   0.009 -0.6502 -1.5472  1.8786
  188MPD1     C 2911   3.035   0.341   9.588 -0.2030 -0.1495  0.0821
  188MPD1    C1 2912   2.921   0.393   9.528  0.1115 -0.6570  0.0459
  188MPD1    C2 2913   2.797   0.365   9.586  0.2191 -0.3277  0.0638
  188MPD1    C3 2914   2.782   0.268   9.683 -0.4255  0.4538 -0.1059
  188MPD1    C4 2915   2.900   0.218   9.740  0.0505  0.0817  0.0662
  188MPD1    C5 2916   3.026   0.247   9.684 -0.3177 -0.4656  0.3075
  188MPD1     H 2917   2.708   0.418   9.554  0.6750 -0.1033 -0.8095
  188MPD1    H1 2918   2.899   0.143   9.817 -1.2381  0.5427  0.4910
  188MPD1    H2 2919   3.131   0.343   9.537 -0.3784 -1.0476 -0.2932
  188MPD1    H3 2920   3.116   0.205   9.729  0.0816 -1.2559 -1.2529
  188MPD1     N 2921   2.666   0.220   9.744  0.2635 -0.0086 -0.0457
  188MPD1    H5 2922   2.675   0.148   9.815  0.9167  2.3135  2.2601
  188MPD1    N1 2923   2.938   0.503   9.447  0.1580  0.1791  0.0811
  188MPD1    H6 2924   3.021   0.482   9.392  1.6157  1.6739  1.7418
  188MPD1    H7 2925   2.855   0.512   9.388  0.1468 -0.3305  0.0144
  189MPD1     C 2926   3.485   2.101   0.719  0.4993  0.1383  0.0324
  189MPD1    C1 2927   3.461   2.006   0.622  0.4759  0.3314  0.9093
  189MPD1    C2 2928   3.401   2.039   0.502 -0.5162 -0.7641 -0.3888
  189MPD1    C3 2929   3.358   2.163   0.482 -0.8260 -0.4106  0.5300
  189MPD1    C4 2930   3.382   2.258   0.574  0.2097 -0.0550 -0.1228
  189MPD1    C5 2931   3.455   2.231   0.691 -0.3340  0.1611 -0.2634
  189MPD1     H 2932   3.380   1.967   0.424  0.7245 -1.4574 -0.0802
  189MPD1    H1 2933   3.362   2.364   0.558 -0.6078 -0.3012 -0.7067
  189MPD1    H2 2934   3.546   2.083   0.806  0.3518  0.4352  0.1987
  189MPD1    H3 2935   3.495   2.314   0.748 -1.0421 -0.4684  1.1416
  189MPD1     N 2936   3.289   2.190   0.362  0.2247  0.2527 -0.2979
  189MPD1    H5 2937   3.262   2.108   0.309 -0.8016  0.5005 -0.1524
  189MPD1    N1 2938   3.495   1.869   0.639  0.6639 -0.1792 -0.6542
  189MPD1    H6 2939   3.504   1.857   0.740  0.7121  1.3125 -0.4896
  189MPD1    H7 2940   3.416   1.807   0.620  1.1766 -1.3463  0.9489
  190MPD1     C 2941   1.859   4.500  15.844  0.4382 -0.7294 -0.1094
  190MPD1    C1 2942   1.923   4.536  15.724 -0.3578 -0.2773  1.0215
  190MPD1    C2 2943   2.022   4.633  15.741 -0.0235  0.7435  0.0825
  190MPD1    C3 2944   2.039   4.696  15.860  0.0175  0.5167 -0.3029
  190MPD1    C4 2945   1.948   4.684  15.969  0.1332 -0.1599  0.3438
  190MPD1    C5 2946   1.857   4.580  15.956 -0.0055 -0.1608 -0.1554
  190MPD1     H 2947   2.090   4.663  15.661 -0.4879 -0.7428 -0.8590
  190MPD1    H1 2948   1.948   0.000  16.063 -0.1716 -0.6238  0.6037
  190MPD1    H2 2949   1.790   4.416  15.847  1.8222 -1.8736  0.0264
  190MPD1    H3 2950   1.781   4.571  16.033  1.4129 -2.5171  0.9452
  190MPD1     N 2951   2.149   0.045  15.866 -0.1620  0.4558  0.5176
  190MPD1    H5 2952   2.207   0.057  15.784 -0.2997 -0.4477  0.2839
  190MPD1    N1 2953   1.907   4.454  15.611  0.5148 -0.6532 -1.2732
  190MPD1    H6 2954   1.916   4.506  15.523  0.7098  3.6301  1.2422
  190MPD1    H7 2955   1.816   4.410  15.606 -1.4658  3.1709  1.2446
  191MPD1     C 2956   1.003   0.853  12.521 -0.3321  0.5075 -0.2124
  191MPD1    C1 2957   1.086   0.789  12.427  0.1291  0.3565  0.7017
  191MPD1    C2 2958   1.176   0.863  12.356 -0.2458  1.2542  0.3171
  191MPD1    C3 2959   1.184   0.998  12.372 -0.1880 -1.0672  0.4769
  191MPD1    C4 2960   1.111   1.059  12.467  0.1333  0.5751  0.2152
  191MPD1    C5 2961   1.022   0.990  12.543 -0.8206 -0.1868 -0.0651
  191MPD1     H 2962   1.253   0.814  12.297 -1.5794 -1.3916  0.7665
  191MPD1    H1 2963   1.120   1.165  12.489  0.4549  0.5278  0.3117
  191MPD1    H2 2964   0.936   0.791  12.581 -0.4191  1.2756  0.4762
  191MPD1    H3 2965   0.965   1.047  12.617 -1.0081  0.3189 -0.5944
  191MPD1     N 2966   1.277   1.062  12.289  0.5721 -0.0043 -0.2642
  191MPD1    H5 2967   1.321   1.004  12.218 -2.3795  0.7193 -2.7118
  191MPD1    N1 2968   1.090   0.652  12.410 -0.2295 -0.6027 -0.6334
  191MPD1    H6 2969   1.019   0.599  12.460 -1.2945  0.5613 -0.8911
  191MPD1    H7 2970   1.111   0.622  12.315 -0.4124 -3.6565  0.3178
  192MPD1     C 2971   0.979   1.095  11.483  0.0511 -0.4797 -0.3113
  192MPD1    C1 2972   1.110   1.094  11.462 -0.1550  0.3511  0.6213
  192MPD1    C2 2973   1.185   1.129  11.572 -0.3914 -0.1736 -0.3419
  192MPD1    C3 2974   1.142   1.134  11.699 -0.5429 -0.1941  0.1121
  192MPD1    C4 2975   1.003   1.125  11.717  0.0243 -0.6447 -0.4454
  192MPD1    C5 2976   0.920   1.112  11.607  0.4418  0.0590 -0.2804
  192MPD1     H 2977   1.291   1.145  11.558 -0.0637 -2.3130 -0.3473
  192MPD1    H1 2978   0.959   1.136  11.816 -1.2365 -1.0467 -0.9653
  192MPD1    H2 2979   0.906   1.084  11.403  0.6826  1.3026 -1.1301
  192MPD1    H3 2980   0.813   1.099  11.619  0.4399 -0.2268 -0.6015
  192MPD1     N 2981   1.218   1.155  11.815 -0.7056 -0.6785 -0.1469
  192MPD1    H5 2982   1.172   1.151  11.905 -1.1747  0.4552 -0.3350
  192MPD1    N1 2983   1.166   1.096  11.333  0.1161  0.2063  0.4180
  192MPD1    H6 2984   1.264   1.066  11.336 -0.1941 -0.6948  1.4327
  192MPD1    H7 2985   1.113   1.031  11.276 -1.1824  2.4117 -0.8702
  193MPD1     C 2986   1.057   2.109  15.787 -0.3619 -0.3137 -0.1095
  193MPD1    C1 2987   1.062   2.230  15.847 -0.5219  0.3455 -0.3492
  193MPD1    C2 2988   1.093   2.238  15.980  0.4412  0.3377  0.1744
  193MPD1    C3 2989   1.143   2.125  16.046 -0.0640 -0.1793  0.5819
  193MPD1    C4 2990   1.143   2.001  15.983 -0.3591  0.2399  0.6635
  193MPD1    C5 2991   1.105   1.998  15.858  0.0384 -0.3437 -0.7427
  193MPD1     H 2992   1.096   2.335  16.029  0.1476  1.6087 -2.3126
  193MPD1    H1 2993   1.173   1.908  16.028  1.0596 -0.2168 -1.2080
  193MPD1    H2 2994   1.024   2.094  15.685  0.4969 -1.1937 -0.2574
  193MPD1    H3 2995   1.084   1.907  15.804 -1.6676  0.4905 -1.4751
  193MPD1     N 2996   1.204   2.128  16.174 -0.4293 -0.3768  0.3544
  193MPD1    H5 2997   1.256   2.043  16.196 -1.0934 -0.7892  0.3343
  193MPD1    N1 2998   0.997   2.338  15.796  0.0941 -0.3301  0.5449
  193MPD1    H6 2999   0.990   2.349  15.695 -2.4860 -0.8990  0.6689
  193MPD1    H7 3000   1.035   2.419  15.844 -1.1391  1.1862 -1.0393
  194MPD1     C 3001   3.492   4.426   0.201  0.2634  0.9349  0.9996
  194MPD1    C1 3002   3.477   4.367   0.328  0.2770 -0.1971  0.3348
  194MPD1    C2 3003   3.481   4.230   0.340  0.0736  0.8104  0.3239
  194MPD1    C3 3004   3.479   4.150   0.225  0.0884  0.0530  0.1705
  194MPD1    C4 3005   3.472   4.214   0.097  0.4134 -0.3369 -0.7229
  194MPD1    C5 3006   3.471   4.348   0.091 -0.5401 -0.7372 -0.0604
  194MPD1     H 3007   3.464   4.184   0.437  1.1690  1.1876  0.6884
  194MPD1    H1 3008   3.475   4.160   0.003  0.8254  0.9707 -1.4479
  194MPD1    H2 3009   3.506   4.533   0.190  0.2270  0.6931 -1.3097
  194MPD1    H3 3010   3.468   4.398  17.743 -0.7096 -0.6942 -0.0331
  194MPD1     N 3011   3.501   4.009   0.229  0.0242 -0.1884 -0.3771
  194MPD1    H5 3012   3.500   3.965   0.138  0.6113 -0.0881 -0.4300
  194MPD1    N1 3013   3.487   4.456   0.440  0.8335  0.0064 -0.5618
  194MPD1    H6 3014   3.423   4.425   0.513  1.1322 -0.0068 -0.3116
  194MPD1    H7 3015   3.448   4.543   0.405  0.5459  0.5198  1.0342
  195MPD1     C 3016   1.152   4.674   1.420  0.0775  0.6370  0.0325
  195MPD1    C1 3017   1.031   4.729   1.410 -0.7271 -1.2974  0.3988
  195MPD1    C2 3018   0.987   0.027   1.290  0.3162 -0.3265  0.1053
  195MPD1    C3 3019   1.042   4.710   1.174  1.2235 -0.6121  0.4818
  195MPD1    C4 3020   1.161   4.635   1.183  0.4929  0.1829  0.1818
  195MPD1    C5 3021   1.220   4.636   1.310 -0.4233  0.0227  0.0709
  195MPD1     H 3022   0.898   0.087   1.274  0.3000 -0.4131 -0.1316
  195MPD1    H1 3023   1.223   4.600   1.102  1.3662 -0.7520  1.2433
  195MPD1    H2 3024   1.196   4.670   1.519 -0.9680  2.4972  0.5721
  195MPD1    H3 3025   1.319   4.600   1.337 -0.8687 -0.7155  0.7458
  195MPD1     N 3026   0.996   4.726   1.039  0.5108 -0.7289 -0.7697
  195MPD1    H5 3027   1.063   4.691   0.971  2.0978  1.8324 -0.5162
  195MPD1    N1 3028   0.966   0.047   1.523  0.2764  0.4123 -0.3022
  195MPD1    H6 3029   0.875   0.079   1.492 -0.6827 -2.7871 -0.7701
  195MPD1    H7 3030   0.965   4.713   1.595  0.6684  0.4498 -0.2560
  196MPD1     C 3031   4.698   0.608  17.583 -1.0718 -0.5552  0.0061
  196MPD1    C1 3032   0.091   0.633  17.622 -0.9637  0.1996 -0.0249
  196MPD1    C2 3033   0.121   0.594   0.009 -0.4801 -0.6929 -0.1676
  196MPD1    C3 3034   0.035   0.535   0.094  0.4559 -0.1045  0.4936
  196MPD1    C4 3035   4.650   0.505   0.045 -0.7398  0.0438 -0.5141
  196MPD1    C5 3036   4.616   0.544  17.668  0.3963 -0.2385 -0.5004
  196MPD1     H 3037   0.225   0.609   0.034 -0.5838 -2.1669  1.1177
  196MPD1    H1 3038   4.578   0.460   0.113  0.3214  1.2263  1.4195
  196MPD1    H2 3039   4.647   0.641  17.493  0.6613  0.6076 -0.5556
  196MPD1    H3 3040   4.520   0.506  17.635  0.0104 -0.0569  0.4012
  196MPD1     N 3041   0.067   0.514   0.229  0.0922 -0.4085  0.4371
  196MPD1    H5 3042   4.728   0.475   0.282 -1.7220 -0.6643 -2.3798
  196MPD1    N1 3043   0.179   0.708  17.546 -0.5031  0.2572  0.0056
  196MPD1    H6 3044   0.172   0.699  17.445 -0.2958  1.9936 -0.1661
  196MPD1    H7 3045   0.278   0.692  17.567 -0.2956 -1.3054 -2.1564
  197MPD1     C 3046   3.601   3.601  16.925  0.1681  0.4531 -0.5031
  197MPD1    C1 3047   3.587   3.582  16.791  0.4578 -0.2367  0.0362
  197MPD1    C2 3048   3.701   3.541  16.723 -0.0920 -0.0176  1.0034
  197MPD1    C3 3049   3.824   3.520  16.789  0.3649  0.1867 -0.2178
  197MPD1    C4 3050   3.838   3.555  16.923  0.3157 -0.2953 -0.2814
  197MPD1    C5 3051   3.723   3.587  16.986  0.1814  0.7191 -0.2485
  197MPD1     H 3052   3.693   3.503  16.622  0.0554  0.3074  0.8677
  197MPD1    H1 3053   3.929   3.551  16.982  0.0811 -1.2270  0.0077
  197MPD1    H2 3054   3.517   3.626  16.988  0.6532  0.8917 -0.0231
  197MPD1    H3 3055   3.729   3.611  17.092  2.7449 -1.5439  0.1127
  197MPD1     N 3056   3.941   3.482  16.722 -0.2130  0.2353  0.8940
  197MPD1    H5 3057   4.024   3.472  16.781 -0.3086 -0.5656  0.8968
  197MPD1    N1 3058   3.454   3.575  16.737  0.2479  0.6690  0.0942
  197MPD1    H6 3059   3.388   3.635  16.787  1.3479  1.9693 -0.0025
  197MPD1    H7 3060   3.459   3.613  16.643 -2.0543  0.0480 -0.2940
  198MPD1     C 3061   2.481   0.364  15.259  0.3948  0.1693  0.6145
  198MPD1    C1 3062   2.457   0.389  15.391 -0.0590  0.0511 -0.1108
  198MPD1    C2 3063   2.372   0.496  15.415 -0.0439 -0.8429  0.1226
  198MPD1    C3 3064   2.337   0.585  15.316  0.3715 -0.6284 -0.1802
  198MPD1    C4 3065   2.390   0.569  15.192 -0.2967 -0.4727  0.2077
  198MPD1    C5 3066   2.456   0.453  15.164  0.7065 -0.1733  0.1214
  198MPD1     H 3067   2.340   0.519  15.516  1.2292  0.0729  0.3178
  198MPD1    H1 3068   2.385   0.635  15.106  0.4959  0.9718  1.2665
  198MPD1    H2 3069   2.522   0.267  15.234  0.4121  0.8266 -1.8790
  198MPD1    H3 3070   2.491   0.444  15.062  3.5324  1.0235  0.9736
  198MPD1     N 3071   2.258   0.697  15.354 -0.2091  0.2327  0.7301
  198MPD1    H5 3072   2.232   0.710  15.451 -0.2526  2.1493  0.4639
  198MPD1    N1 3073   2.464   0.294  15.496  0.3924  0.6865 -0.0290
  198MPD1    H6 3074   2.542   0.230  15.480 -0.3849 -0.7605  2.0678
  198MPD1    H7 3075   2.467   0.327  15.592 -2.4845  0.4674  0.1118
  199MPD1     C 3076   0.436   2.471   9.888  0.0435  0.5355 -0.8266
  199MPD1    C1 3077   0.382   2.594   9.860  0.1009  0.4949 -0.3083
  199MPD1    C2 3078   0.246   2.603   9.845  0.5992 -0.0423 -0.4209
  199MPD1    C3 3079   0.171   2.487   9.843  0.4361 -0.4676 -0.0252
  199MPD1    C4 3080   0.225   2.361   9.866 -0.3291  0.7224 -0.7819
  199MPD1    C5 3081   0.355   2.352   9.888  0.2556  0.3498  0.3684
  199MPD1     H 3082   0.196   2.696   9.818  0.5092 -0.3849 -1.4218
  199MPD1    H1 3083   0.167   2.269   9.853  2.4412 -1.1378  0.1212
  199MPD1    H2 3084   0.544   2.467   9.898 -0.4366 -1.8442  3.5610
  199MPD1    H3 3085   0.399   2.253   9.890  2.9937  1.6300  2.5308
  199MPD1     N 3086   0.029   2.480   9.823 -0.4548 -0.4362 -0.8857
  199MPD1    H5 3087   4.731   2.385   9.824 -0.1185 -0.5720 -1.4785
  199MPD1    N1 3088   0.467   2.702   9.816 -0.2677  0.8547 -0.3267
  199MPD1    H6 3089   0.550   2.699   9.875 -0.9519 -0.6049  0.5795
  199MPD1    H7 3090   0.429   2.795   9.831 -0.3750  0.7952 -0.2274
  200MPD1     C 3091   3.055   3.020  16.051 -0.1404  0.2080  0.5388
  200MPD1    C1 3092   3.143   2.927  16.003 -0.0057 -0.1153 -0.5421
  200MPD1    C2 3093   3.233   2.960  15.902  0.1453 -0.0971  0.3045
  200MPD1    C3 3094   3.227   3.084  15.844 -0.1637 -0.5778 -0.0043
  200MPD1    C4 3095   3.142   3.175  15.901 -0.2133 -0.1128 -0.9210
  200MPD1    C5 3096   3.057   3.149  16.001 -0.7226  0.0903  0.1673
  200MPD1     H 3097   3.300   2.884  15.862  1.4151  0.4238  1.4103
  200MPD1    H1 3098   3.144   3.278  15.865 -1.3053  0.1079 -0.3632
  200MPD1    H2 3099   3.007   2.996  16.145  1.8675  2.7297  2.2139
  200MPD1    H3 3100   2.997   3.227  16.048 -1.7305 -1.4901  1.5049
  200MPD1     N 3101   3.302   3.101  15.730  0.2265  0.4171  0.0955
  200MPD1    H5 3102   3.356   3.020  15.702 -0.4622  0.1612 -0.4786
  200MPD1    N1 3103   3.162   2.808  16.086  0.2837  0.7017 -1.0878
  200MPD1    H6 3104   3.079   2.766  16.129  0.0634  1.0536 -1.1677
  200MPD1    H7 3105   3.199   2.730  16.032 -3.2421 -1.1838 -0.8111
  201MPD1     C 3106   0.818   1.708  12.971  0.4204  0.1658 -0.5647
  201MPD1    C1 3107   0.918   1.670  13.048 -0.8293  0.3086  0.1508
  201MPD1    C2 3108   0.954   1.540  13.039  0.0529  0.6508 -0.3938
  201MPD1    C3 3109   0.881   1.449  12.962  0.0463  0.6856 -0.0901
  201MPD1    C4 3110   0.769   1.491  12.894  0.1391  0.1043  0.1445
  201MPD1    C5 3111   0.731   1.624  12.901  0.1784 -0.1412  0.5155
  201MPD1     H 3112   1.038   1.500  13.095 -0.5143 -2.2012 -1.5986
  201MPD1    H1 3113   0.711   1.419  12.837 -1.2220  0.2888  1.3032
  201MPD1    H2 3114   0.797   1.812  12.950  2.5023  1.1879  2.3760
  201MPD1    H3 3115   0.647   1.669  12.849  0.6393  0.0302 -0.0799
  201MPD1     N 3116   0.915   1.308  12.964  0.6589  0.6115  0.2486
  201MPD1    H5 3117   0.976   1.285  13.041  1.4771  0.4412 -0.4541
  201MPD1    N1 3118   1.007   1.759  13.105  0.3225 -0.1710  0.0995
  201MPD1    H6 3119   0.961   1.845  13.134  1.1157  0.3737 -0.2551
  201MPD1    H7 3120   1.052   1.720  13.188  1.5019  0.7311 -0.1153
  202MPD1     C 3121   1.793   1.341   9.936 -0.2722  0.6151 -0.1039
  202MPD1    C1 3122   1.782   1.207   9.920  0.1468 -0.0198  0.1467
  202MPD1    C2 3123   1.653   1.167   9.871  0.7718 -1.0218  0.2287
  202MPD1    C3 3124   1.568   1.259   9.808  0.3807  0.4728  0.2131
  202MPD1    C4 3125   1.596   1.388   9.808  0.1485 -0.0528 -1.0998
  202MPD1    C5 3126   1.709   1.424   9.870 -0.1389 -0.0070 -0.1672
  202MPD1     H 3127   1.630   1.061   9.860 -1.1947 -0.6919  1.2068
  202MPD1    H1 3128   1.533   1.454   9.749 -0.5258  2.9646  2.9869
  202MPD1    H2 3129   1.890   1.375   9.968  0.3417 -1.6528  0.4757
  202MPD1    H3 3130   1.740   1.528   9.867  0.2755 -0.1302 -0.1580
  202MPD1     N 3131   1.449   1.223   9.743 -0.0227 -1.1376 -0.7784
  202MPD1    H5 3132   1.402   1.301   9.698  4.1522  0.2139 -2.8155
  202MPD1    N1 3133   1.849   1.125  10.010  0.0619 -0.2934 -0.3109
  202MPD1    H6 3134   1.837   1.026   9.989  0.8474 -0.0273 -1.9773
  202MPD1    H7 3135   1.949   1.143  10.017  0.4231 -1.9271 -1.3553
  203MPD1     C 3136   4.209   1.696  12.302  0.3454  0.4419  0.4033
  203MPD1    C1 3137   4.244   1.584  12.238  0.5866 -0.3216  0.1166
  203MPD1    C2 3138   4.317   1.497  12.320  0.0743 -0.0233 -0.0247
  203MPD1    C3 3139   4.379   1.536  12.444 -0.3541 -0.8238 -0.3282
  203MPD1    C4 3140   4.354   1.658  12.493  0.4353 -0.3689  0.6826
  203MPD1    C5 3141   4.254   1.733  12.427  0.0382  0.2698  0.8345
  203MPD1     H 3142   4.339   1.398  12.281 -0.1153  0.3051 -0.9640
  203MPD1    H1 3143   4.388   1.697  12.588  1.0878 -2.1578  1.1828
  203MPD1    H2 3144   4.139   1.763  12.252  1.0220  0.8558  0.0155
  203MPD1    H3 3145   4.240   1.835  12.463 -0.1483  1.4434 -2.5368
  203MPD1     N 3146   4.464   1.441  12.506 -0.1470 -0.3533  0.0541
  203MPD1    H5 3147   4.483   1.355  12.457  3.7172 -0.3433  1.5530
  203MPD1    N1 3148   4.175   1.535  12.126 -0.0471  0.5001  0.0160
  203MPD1    H6 3149   4.223   1.469  12.066 -1.9992 -1.3961  0.5077
  203MPD1    H7 3150   4.141   1.617  12.076  2.1650  0.3760 -1.6633
  204MPD1     C 3151   4.047   3.159   0.103 -0.1554  0.2097  0.2329
  204MPD1    C1 3152   3.944   3.201   0.016  0.4199  0.0647 -0.3377
  204MPD1    C2 3153   3.873   3.111  17.696  1.0413 -0.9384  0.1665
  204MPD1    C3 3154   3.895   2.973  17.706 -0.0205 -0.6570 -0.0266
  204MPD1    C4 3155   3.984   2.926   0.056  0.2540 -0.1066  0.7337
  204MPD1    C5 3156   4.057   3.022   0.133 -1.0672 -0.5676  0.3398
  204MPD1     H 3157   3.795   3.147  17.629  1.2222  3.0091  2.1082
  204MPD1    H1 3158   3.994   2.822   0.086  1.8904 -0.6008 -1.5260
  204MPD1    H2 3159   4.117   3.229   0.147 -0.1033  0.6335 -0.5151
  204MPD1    H3 3160   4.124   2.995   0.214 -1.5134 -0.9137  0.5872
  204MPD1     N 3161   3.807   2.887  17.635  0.2411 -1.1801  0.0355
  204MPD1    H5 3162   3.729   2.916  17.576 -1.0310 -2.0138  1.3084
  204MPD1    N1 3163   3.937   3.339  17.746  0.1568 -0.2016  0.0385
  204MPD1    H6 3164   3.839   3.366  17.739  0.0932  0.1675  2.3687
  204MPD1    H7 3165   3.983   3.390   0.073 -1.9533  1.2620  0.3559
  205MPD1     C 3166   2.692   1.406  17.018  0.3695 -0.0559 -0.7309
  205MPD1    C1 3167   2.728   1.534  17.037 -0.1742  0.3090 -0.0008
  205MPD1    C2 3168   2.860   1.555  17.063  0.1456  0.0816 -0.2348
  205MPD1    C3 3169   2.957   1.454  17.070  0.1757 -0.5135 -0.2551
  205MPD1    C4 3170   2.920   1.325  17.032 -0.0972 -0.1167 -0.3413
  205MPD1    C5 3171   2.784   1.307  17.017 -0.1682 -0.2661 -0.2768
  205MPD1     H 3172   2.896   1.653  17.090 -1.2779  0.2494  1.0980
  205MPD1    H1 3173   2.983   1.236  17.038  0.1069  0.0236 -0.4029
  205MPD1    H2 3174   2.587   1.381  17.008  0.2785  0.1102 -0.1892
  205MPD1    H3 3175   2.757   1.205  16.994 -0.9573 -0.1869  0.2679
  205MPD1     N 3176   3.093   1.479  17.116 -0.1834  0.3088 -0.5980
  205MPD1    H5 3177   3.161   1.405  17.102 -3.4468 -3.0491  1.0889
  205MPD1    N1 3178   2.644   1.641  17.017  0.0769 -0.7149 -0.6385
  205MPD1    H6 3179   2.679   1.720  17.070  2.3519 -1.4941 -0.9899
  205MPD1    H7 3180   2.547   1.623  17.043  0.2979  0.1083  0.7466
  206MPD1     C 3181   3.903   0.756  16.331 -0.2414  0.7833 -0.2192
  206MPD1    C1 3182   3.930   0.640  16.393  0.4300  0.0832  0.4284
  206MPD1    C2 3183   3.863   0.527  16.350 -0.9096 -0.3355 -0.0204
  206MPD1    C3 3184   3.767   0.523  16.250 -0.3498  0.4080  0.0881
  206MPD1    C4 3185   3.734   0.644  16.193 -0.4459  0.3072  0.3345
  206MPD1    C5 3186   3.806   0.755  16.231 -0.4053  0.7944 -0.1256
  206MPD1     H 3187   3.897   0.437  16.401  0.3102  0.1878  0.1004
  206MPD1    H1 3188   3.665   0.662  16.111  0.0573 -2.1458 -0.6141
  206MPD1    H2 3189   3.949   0.847  16.365  1.5004 -0.6510  1.2450
  206MPD1    H3 3190   3.772   0.852  16.196  0.4022  1.4956  1.0140
  206MPD1     N 3191   3.690   0.407  16.211  0.0331  0.3830  0.3246
  206MPD1    H5 3192   3.619   0.424  16.140  1.3320  1.3036 -0.7383
  206MPD1    N1 3193   4.034   0.631  16.490 -0.3144  0.4442  0.5161
  206MPD1    H6 3194   4.011   0.559  16.558 -1.5818  1.7860  1.5176
  206MPD1    H7 3195   4.036   0.720  16.540 -0.5035  0.8081 -0.1213
  207MPD1     C 3196   1.138   1.398  10.354 -0.0226 -0.2676 -0.6866
  207MPD1    C1 3197   1.205   1.447  10.462 -0.6288 -0.3491  0.3944
  207MPD1    C2 3198   1.340   1.462  10.461 -0.2431 -0.6785 -0.3817
  207MPD1    C3 3199   1.405   1.444  10.343  0.1978  0.0106 -0.0244
  207MPD1    C4 3200   1.335   1.399  10.235  0.6499  0.1358  0.0783
  207MPD1    C5 3201   1.201   1.371  10.236 -0.2257  0.2350 -0.6421
  207MPD1     H 3202   1.386   1.485  10.556 -1.7127 -0.3808  0.2432
  207MPD1    H1 3203   1.392   1.363  10.150  0.3591  2.8734 -1.2878
  207MPD1    H2 3204   1.034   1.367  10.359 -0.2851  0.4771 -1.4637
  207MPD1    H3 3205   1.155   1.322  10.152  0.3565 -0.6018 -0.4639
  207MPD1     N 3206   1.542   1.472  10.324 -0.0432 -0.3182 -0.6000
  207MPD1    H5 3207   1.583   1.431  10.241 -0.2946 -0.8910 -0.4401
  207MPD1    N1 3208   1.130   1.449  10.580 -0.0432 -0.0042 -0.1128
  207MPD1    H6 3209   1.161   1.517  10.649  1.3018 -0.1510 -0.5753
  207MPD1    H7 3210   1.030   1.469  10.569 -0.2270 -0.1316  1.3652
  208MPD1     C 3211   0.398   1.674  17.438 -0.3060  0.6358 -0.2244
  208MPD1    C1 3212   0.365   1.581  17.530 -0.0281 -0.4204 -0.1954
  208MPD1    C2 3213   0.248   1.513  17.521 -0.2996 -0.5008  0.5740
  208MPD1    C3 3214   0.161   1.539  17.416  0.2219 -0.6206 -0.7308
  208MPD1    C4 3215   0.200   1.620  17.313  0.0831  0.0285 -0.0728
  208MPD1    C5 3216   0.320   1.683  17.324  0.0980  0.1891 -0.0586
  208MPD1     H 3217   0.218   1.447  17.602  0.7302  1.0953  2.2640
  208MPD1    H1 3218   0.149   1.624  17.218  0.7138  0.2133 -0.4076
  208MPD1    H2 3219   0.487   1.736  17.433 -1.1972  1.9013 -0.1581
  208MPD1    H3 3220   0.347   1.753  17.246  1.3612  0.5796  0.7238
  208MPD1     N 3221   0.033   1.476  17.421 -0.1745  0.4021  0.3540
  208MPD1    H5 3222   0.002   1.415  17.497 -1.1756  0.3478 -0.1065
  208MPD1    N1 3223   0.459   1.550  17.628 -0.7770 -0.3799  0.2928
  208MPD1    H6 3224   0.418   1.510  17.711  0.4712  0.0079  1.0979
  208MPD1    H7 3225   0.521   1.627  17.654 -0.8615 -0.3952  0.5341
  209MPD1     C 3226   3.053   1.330  11.192 -0.2659 -0.0933 -0.7683
  209MPD1    C1 3227   2.968   1.334  11.095  0.1236  0.7215  0.0757
  209MPD1    C2 3228   2.849   1.405  11.107 -0.0413  0.5111 -0.5196
  209MPD1    C3 3229   2.819   1.469  11.223 -0.4857 -0.0588 -0.4949
  209MPD1    C4 3230   2.909   1.459  11.322 -0.3457 -0.2337 -0.3302
  209MPD1    C5 3231   3.028   1.399  11.310 -0.0399 -0.1282  0.1949
  209MPD1     H 3232   2.784   1.407  11.021  0.6080  2.2199 -0.9684
  209MPD1    H1 3233   2.900   1.509  11.418  0.1086  0.7915 -0.8255
  209MPD1    H2 3234   3.144   1.273  11.178  0.9267  1.5491  0.4448
  209MPD1    H3 3235   3.098   1.392  11.392 -0.1294 -1.0432  0.1908
  209MPD1     N 3236   2.696   1.543  11.235 -0.4899 -0.9702  0.8519
  209MPD1    H5 3237   2.636   1.532  11.154  0.3452 -0.7255  0.1892
  209MPD1    N1 3238   2.999   1.249  10.984  0.0818  0.5272 -0.2625
  209MPD1    H6 3239   2.965   1.290  10.898 -1.2395  0.5692  0.2771
  209MPD1    H7 3240   3.100   1.233  10.978 -0.1829 -1.7402  1.1465
  210MPD1     C 3241   2.099   2.132  11.906  0.6306 -0.2407 -0.2724
  210MPD1    C1 3242   2.029   2.073  11.807  0.2419 -0.1945  0.8073
  210MPD1    C2 3243   2.100   2.003  11.707 -0.6518  0.0906 -0.3362
  210MPD1    C3 3244   2.236   1.988  11.708 -0.5192  0.0666  0.0898
  210MPD1    C4 3245   2.300   2.051  11.811 -0.0089 -1.2456 -0.1175
  210MPD1    C5 3246   2.236   2.124  11.911 -0.0547 -1.1201 -0.1889
  210MPD1     H 3247   2.043   1.971  11.621  1.3532 -0.2292 -1.5264
  210MPD1    H1 3248   2.408   2.056  11.806 -0.1405  2.2396  0.0754
  210MPD1    H2 3249   2.058   2.206  11.974  1.8524  2.2615 -2.2251
  210MPD1    H3 3250   2.288   2.188  11.981 -0.3075  0.0145 -1.0352
  210MPD1     N 3251   2.301   1.919  11.604 -0.4114 -0.0130 -0.4956
  210MPD1    H5 3252   2.402   1.928  11.601 -0.6537  1.3797 -4.0617
  210MPD1    N1 3253   1.897   2.108  11.786  0.2821  0.7435  0.3627
  210MPD1    H6 3254   1.846   2.113  11.874 -0.0919  0.8569  0.1377
  210MPD1    H7 3255   1.846   2.028  11.749 -2.3760  2.1918  0.8589
  211MPD1     C 3256   4.114   1.291  15.910 -0.1218 -0.9032 -0.3118
  211MPD1    C1 3257   4.053   1.383  15.830  0.0237  0.7781 -0.2735
  211MPD1    C2 3258   3.979   1.485  15.883  0.2608  0.0416 -0.1664
  211MPD1    C3 3259   3.979   1.499  16.019 -0.2509 -0.1448 -0.1364
  211MPD1    C4 3260   4.043   1.412  16.097  0.1044 -0.3068 -0.5910
  211MPD1    C5 3261   4.114   1.315  16.044 -0.4004 -0.1394  0.6517
  211MPD1     H 3262   3.941   1.566  15.821  1.4157  0.5749 -0.1748
  211MPD1    H1 3263   4.041   1.418  16.206  0.8789  2.1069 -0.7306
  211MPD1    H2 3264   4.161   1.198  15.880 -0.0541 -0.5392 -1.3474
  211MPD1    H3 3265   4.162   1.245  16.111  0.6099  0.5754  0.6912
  211MPD1     N 3266   3.900   1.603  16.067  0.3009  0.2361 -0.1704
  211MPD1    H5 3267   3.850   1.659  15.999 -0.4870  1.3918  1.3297
  211MPD1    N1 3268   4.045   1.350  15.693  0.6412 -0.4327 -0.2165
  211MPD1    H6 3269   4.115   1.286  15.656  1.8858  0.3713  0.7402
  211MPD1    H7 3270   4.039   1.428  15.628 -0.8412 -0.0629  0.3708
  212MPD1     C 3271   3.447   0.060  16.994 -0.0062  0.9998 -0.0542
  212MPD1    C1 3272   3.506   4.687  17.062  0.2825  0.2079  0.0216
  212MPD1    C2 3273   3.422   4.602  17.136 -0.1910  0.0315  0.4387
  212MPD1    C3 3274   3.283   4.606  17.127 -0.3109 -0.0525  0.1618
  212MPD1    C4 3275   3.237   4.713  17.057  0.2540 -0.6485 -0.1970
  212MPD1    C5 3276   3.311   0.071  16.993  1.2328  0.1684  0.4390
  212MPD1     H 3277   3.465   4.511  17.177 -1.0731 -2.4071 -4.0377
  212MPD1    H1 3278   3.128   4.721  17.059  0.3607  0.7761 -0.6343
  212MPD1    H2 3279   3.507   0.136  16.946 -0.2583  2.2663  1.6280
  212MPD1    H3 3280   3.266   0.161  16.953  0.6569 -1.2473 -2.0790
  212MPD1     N 3281   3.199   4.511  17.190 -0.0700  0.1593  0.2663
  212MPD1    H5 3282   3.101   4.535  17.188 -0.0835 -0.0333 -1.6821
  212MPD1    N1 3283   3.648   4.666  17.061 -0.0044  0.5957 -0.2009
  212MPD1    H6 3284   3.678   4.569  17.067  0.9219  0.8683 -0.5008
  212MPD1    H7 3285   3.686   4.701  16.973  3.1620 -1.7470  0.2588
  213MPD1     C 3286   1.468   0.533  16.289 -0.0871 -0.7057 -0.5634
  213MPD1    C1 3287   1.577   0.518  16.204 -0.1268 -0.2928  0.2941
  213MPD1    C2 3288   1.547   0.521  16.069 -0.2344 -1.2023 -0.5345
  213MPD1    C3 3289   1.415   0.513  16.019  0.2853 -0.1979 -0.2957
  213MPD1    C4 3290   1.310   0.523  16.105  0.5280 -0.1917 -0.9984
  213MPD1    C5 3291   1.337   0.532  16.235  0.2600  0.4255  0.4127
  213MPD1     H 3292   1.629   0.518  15.999  1.3845  2.2781  1.2177
  213MPD1    H1 3293   1.205   0.526  16.077  0.0039  0.2033  1.0460
  213MPD1    H2 3294   1.482   0.559  16.394  1.5086 -3.0937 -0.1919
  213MPD1    H3 3295   1.249   0.526  16.296 -0.4099  2.2611 -0.3497
  213MPD1     N 3296   1.392   0.498  15.876 -0.1369 -0.1434  0.3798
  213MPD1    H5 3297   1.474   0.494  15.817 -1.2749 -0.8112 -1.1780
  213MPD1    N1 3298   1.706   0.554  16.251 -0.1059 -0.4604  0.2407
  213MPD1    H6 3299   1.775   0.512  16.189  2.5851  1.4899  1.8775
  213MPD1    H7 3300   1.713   0.521  16.347  4.1442  0.4200  0.2506
  214MPD1     C 3301   0.762   0.014  15.258 -0.6508 -0.2597  0.4068
  214MPD1    C1 3302   0.796   0.124  15.183  0.3742 -0.0053  0.2985
  214MPD1    C2 3303   0.880   0.220  15.239  0.0100 -0.1568  0.0320
  214MPD1    C3 3304   0.938   0.198  15.369  0.9486 -0.0381  0.5537
  214MPD1    C4 3305   0.902   0.083  15.437 -0.5633 -0.2685 -0.6333
  214MPD1    C5 3306   0.823   4.731  15.379  0.9615 -0.1361 -0.8630
  214MPD1     H 3307   0.898   0.313  15.185 -2.3589  0.4852  0.3517
  214MPD1    H1 3308   0.941   0.063  15.536  0.9143  0.3484 -1.0859
  214MPD1    H2 3309   0.702   4.670  15.220 -1.8616  0.1621  1.4185
  214MPD1    H3 3310   0.793   4.637  15.423  2.2326 -0.7728 -1.3655
  214MPD1     N 3311   1.022   0.296  15.425 -1.1780 -0.2440  0.2291
  214MPD1    H5 3312   1.048   0.280  15.522  1.3003  0.1305 -0.3610
  214MPD1    N1 3313   0.750   0.132  15.049  1.3667 -0.7555 -0.0788
  214MPD1    H6 3314   0.672   0.068  15.034  1.5019 -0.9400  0.0139
  214MPD1    H7 3315   0.726   0.227  15.022 -1.4541 -1.0077  1.4652
  215MPD1     C 3316   2.405   1.259  10.513 -1.0428 -0.0461 -0.2084
  215MPD1    C1 3317   2.383   1.396  10.525 -0.3029  0.0566 -0.4328
  215MPD1    C2 3318   2.314   1.440  10.635 -0.7781  0.0749 -0.0884
  215MPD1    C3 3319   2.298   1.351  10.744  0.6678  0.1546 -0.6816
  215MPD1    C4 3320   2.320   1.213  10.729  0.2229  0.3909 -0.3601
  215MPD1    C5 3321   2.372   1.167  10.611 -0.2869  0.6457  0.1013
  215MPD1     H 3322   2.285   1.544  10.649 -1.7273 -0.2515  0.3503
  215MPD1    H1 3323   2.287   1.141  10.803  1.0507 -1.2607 -1.6174
  215MPD1    H2 3324   2.441   1.218  10.419  0.5596 -0.5589  0.6279
  215MPD1    H3 3325   2.389   1.061  10.599 -1.5947  0.5066 -0.5317
  215MPD1     N 3326   2.248   1.411  10.861 -0.4819  0.3844  0.2275
  215MPD1    H5 3327   2.219   1.506  10.842  0.8029  0.6037 -0.6286
  215MPD1    N1 3328   2.395   1.478  10.404 -0.2892 -0.8122  0.0133
  215MPD1    H6 3329   2.470   1.444  10.345  0.8195 -0.5427  1.2755
  215MPD1    H7 3330   2.405   1.578  10.424 -0.2407 -1.3529  2.7656
  216MPD1     C 3331   2.016   3.819   1.131  0.3838 -0.6155 -0.3496
  216MPD1    C1 3332   2.111   3.885   1.209 -0.4796 -0.0175  0.4385
  216MPD1    C2 3333   2.247   3.852   1.194 -0.6106  0.2339 -1.1465
  216MPD1    C3 3334   2.291   3.754   1.107 -0.0693 -0.2406  0.7659
  216MPD1    C4 3335   2.193   3.674   1.045 -0.0125  0.7620  0.0827
  216MPD1    C5 3336   2.058   3.706   1.068 -0.5007  0.8774  0.5020
  216MPD1     H 3337   2.317   3.903   1.259  0.5135  0.0201 -2.2020
  216MPD1    H1 3338   2.230   3.597   0.979  2.3834  2.2821 -0.3686
  216MPD1    H2 3339   1.917   3.860   1.115  1.0799  2.7349  3.8342
  216MPD1    H3 3340   1.990   3.652   1.004 -0.4830  1.6837 -0.1917
  216MPD1     N 3341   2.428   3.747   1.081 -0.8318 -0.2044  0.4883
  216MPD1    H5 3342   2.498   3.775   1.150  0.5093 -1.5200 -0.3392
  216MPD1    N1 3343   2.067   4.001   1.278 -0.4999  0.2447  0.3389
  216MPD1    H6 3344   1.969   3.995   1.303 -0.6080  0.9370  0.0681
  216MPD1    H7 3345   2.117   4.025   1.363  0.6076  1.2164 -0.5866
  217MPD1     C 3346   3.350   0.163   9.030 -0.7099 -0.2557  0.5224
  217MPD1    C1 3347   3.463   0.073   9.044  1.0425  0.3581 -0.5248
  217MPD1    C2 3348   3.575   0.116   8.982 -0.2977 -0.8904  0.4184
  217MPD1    C3 3349   3.577   0.231   8.906  0.0668 -0.5047  0.3294
  217MPD1    C4 3350   3.456   0.298   8.878 -0.0972 -0.3386  0.0279
  217MPD1    C5 3351   3.343   0.264   8.945 -0.2963 -0.5303  0.1123
  217MPD1     H 3352   3.662   0.052   8.991  0.8015  0.4233 -0.8396
  217MPD1    H1 3353   3.450   0.385   8.814  1.4951 -0.9815 -0.9990
  217MPD1    H2 3354   3.261   0.132   9.084 -0.6096 -0.7730  0.3916
  217MPD1    H3 3355   3.248   0.313   8.929  1.3041  2.9531  1.2328
  217MPD1     N 3356   3.693   0.287   8.839 -0.4817 -0.0150 -0.3202
  217MPD1    H5 3357   3.672   0.367   8.781 -0.0564  1.9447  2.2507
  217MPD1    N1 3358   3.447   4.688   9.109  0.3717 -0.3236 -0.0414
  217MPD1    H6 3359   3.515   4.665   9.181 -1.5948 -0.1790  1.8661
  217MPD1    H7 3360   3.360   4.683   9.161  1.5453  2.0658  2.1419
  218MPD1     C 3361   1.844   2.284  12.870  0.8290  0.3874 -0.1162
  218MPD1    C1 3362   1.879   2.162  12.930 -0.3155  0.1501  0.1362
  218MPD1    C2 3363   1.806   2.053  12.877  0.3474 -0.0412 -0.2153
  218MPD1    C3 3364   1.698   2.064  12.792  0.0732  0.2125 -0.0931
  218MPD1    C4 3365   1.668   2.191  12.750  0.4640 -0.1753 -0.7383
  218MPD1    C5 3366   1.741   2.300  12.783 -0.5433  0.5674 -0.4570
  218MPD1     H 3367   1.824   1.953  12.917 -1.7536 -1.9250 -3.9887
  218MPD1    H1 3368   1.578   2.207  12.693  0.6797  0.7823 -0.8038
  218MPD1    H2 3369   1.905   2.371  12.893  1.4087  0.2132 -0.9685
  218MPD1    H3 3370   1.725   2.400  12.744  0.2928  0.3012 -1.4845
  218MPD1     N 3371   1.635   1.948  12.740  0.2744 -0.0219  0.1554
  218MPD1    H5 3372   1.663   1.859  12.779  1.4105  1.4881  2.7802
  218MPD1    N1 3373   1.997   2.146  13.008  0.2060 -0.2231  0.4673
  218MPD1    H6 3374   1.997   2.233  13.062  1.0879  0.1169 -0.0817
  218MPD1    H7 3375   1.990   2.074  13.080  0.4863 -3.0377 -2.3592
  219MPD1     C 3376   1.069   1.430  11.944  0.9686  0.4325  0.7990
  219MPD1    C1 3377   1.151   1.542  11.932  0.2519  0.2740 -0.0073
  219MPD1    C2 3378   1.213   1.584  12.044 -0.7350  0.5020 -0.3492
  219MPD1    C3 3379   1.188   1.521  12.167  1.0368 -0.1490 -0.4637
  219MPD1    C4 3380   1.094   1.416  12.177  0.1926  0.2143  0.6019
  219MPD1    C5 3381   1.042   1.378  12.064  0.1789  0.2699 -0.0966
  219MPD1     H 3382   1.291   1.657  12.028 -0.2031  0.0339  0.1347
  219MPD1    H1 3383   1.074   1.371  12.274 -0.9879 -1.0313 -0.2266
  219MPD1    H2 3384   1.015   1.400  11.855 -0.3281  1.1078  1.3650
  219MPD1    H3 3385   0.961   1.306  12.065 -0.0839  0.6209  2.8297
  219MPD1     N 3386   1.254   1.561  12.287  0.5099 -0.2140  0.4952
  219MPD1    H5 3387   1.244   1.495  12.364  1.8317  0.2603  1.0758
  219MPD1    N1 3388   1.174   1.597  11.804 -0.2164 -0.4423  0.0530
  219MPD1    H6 3389   1.231   1.680  11.813 -0.6118 -0.2086  0.4103
  219MPD1    H7 3390   1.089   1.606  11.747 -1.1082  2.3682  1.8400
  220MPD1     C 3391   1.653   1.773   9.658  0.4631 -0.0870 -0.3775
  220MPD1    C1 3392   1.522   1.751   9.656 -0.0261  0.0766  0.3824
  220MPD1    C2 3393   1.461   1.752   9.784  0.3026  0.6082 -0.3949
  220MPD1    C3 3394   1.532   1.770   9.900 -0.6187  0.2940  0.3835
  220MPD1    C4 3395   1.665   1.810   9.894  0.3401 -1.3412  0.3487
  220MPD1    C5 3396   1.726   1.819   9.767  0.7381 -0.8713 -0.0086
  220MPD1     H 3397   1.356   1.726   9.785  0.8383 -1.5739  0.5287
  220MPD1    H1 3398   1.734   1.810   9.977  0.5995  4.1719  0.1000
  220MPD1    H2 3399   1.708   1.774   9.564 -0.0546  1.0390 -0.6704
  220MPD1    H3 3400   1.833   1.835   9.764  0.3066  1.8767 -0.1737
  220MPD1     N 3401   1.455   1.764  10.019 -0.2581  0.5293 -0.0300
  220MPD1    H5 3402   1.356   1.746  10.009 -0.1974 -1.0230  2.2013
  220MPD1    N1 3403   1.454   1.714   9.537 -0.3520  0.0213 -0.4999
  220MPD1    H6 3404   1.485   1.776   9.463 -0.2148 -0.8053 -1.1309
  220MPD1    H7 3405   1.357   1.743   9.548 -0.6721 -1.2960  0.1503
  221MPD1     C 3406   4.618   4.670  16.202 -0.3313 -0.5134  0.9135
  221MPD1    C1 3407   4.681   0.050  16.226 -0.4634  0.6820 -0.3332
  221MPD1    C2 3408   4.622   0.171  16.209 -0.2157  0.0047 -0.5915
  221MPD1    C3 3409   4.483   0.173  16.201  0.3761  0.0884 -0.6966
  221MPD1    C4 3410   4.415   0.053  16.194 -0.3329 -0.3198 -0.0245
  221MPD1    C5 3411   4.479   4.673  16.198  0.1974 -0.3789 -0.1058
  221MPD1     H 3412   4.680   0.259  16.235 -0.5745 -0.0024  0.2547
  221MPD1    H1 3413   4.308   0.041  16.182 -0.2684 -0.5193 -0.3892
  221MPD1    H2 3414   4.676   4.579  16.201  0.0501 -0.2717  0.6199
  221MPD1    H3 3415   4.419   4.582  16.195 -1.3466  0.6047  1.1968
  221MPD1     N 3416   4.408   0.292  16.201 -0.2313  0.0964 -0.0595
  221MPD1    H5 3417   4.308   0.272  16.202  0.1558 -1.9269 -0.1111
  221MPD1    N1 3418   0.084   0.047  16.242  0.0514 -0.2559 -0.4791
  221MPD1    H6 3419   0.115   0.132  16.288  0.9052  0.6175 -2.6888
  221MPD1    H7 3420   0.111   4.695  16.284  2.5344  0.8457  0.2950
  222MPD1     C 3421   2.398   4.191   0.219  1.4390 -0.3492 -0.4876
  222MPD1    C1 3422   2.477   4.282   0.168  0.2837 -0.1432 -0.1940
  222MPD1    C2 3423   2.524   4.388   0.245 -0.0590  0.2250 -0.2787
  222MPD1    C3 3424   2.496   4.398   0.381  0.8462  0.3284  0.3743
  222MPD1    C4 3425   2.404   4.311   0.430  0.3113 -0.1519 -0.4218
  222MPD1    C5 3426   2.352   4.209   0.347  0.0201 -0.2879  0.3764
  222MPD1     H 3427   2.595   4.462   0.211 -1.9324  1.4760 -1.4368
  222MPD1    H1 3428   2.359   4.326   0.528  0.1033 -0.3860 -0.4849
  222MPD1    H2 3429   2.374   4.098   0.168  0.1937  0.1713 -0.8542
  222MPD1    H3 3430   2.291   4.137   0.399 -0.0507  0.1795  0.9363
  222MPD1     N 3431   2.540   4.505   0.461  0.4230 -0.0963  0.4196
  222MPD1    H5 3432   2.504   4.521   0.555 -2.5613  1.9613 -1.0769
  222MPD1    N1 3433   2.547   4.252   0.049 -0.3643 -0.5206 -0.2475
  222MPD1    H6 3434   2.484   4.198  17.739 -0.3337 -2.2591  1.3193
  222MPD1    H7 3435   2.583   4.337   0.008 -0.5039  1.1290  3.0160
  223MPD1     C 3436   2.269   4.473   1.222  0.0587 -0.1197 -0.2920
  223MPD1    C1 3437   2.304   4.389   1.125 -0.2865 -0.3042  0.7399
  223MPD1    C2 3438   2.399   4.427   1.032 -0.4776  0.8548  0.1949
  223MPD1    C3 3439   2.431   4.561   1.026 -0.0916  0.0701 -0.0723
  223MPD1    C4 3440   2.373   4.657   1.111  0.4238 -0.4646  0.2984
  223MPD1    C5 3441   2.298   4.606   1.215 -0.2798 -0.2185  0.1451
  223MPD1     H 3442   2.444   4.355   0.965  0.9247 -0.7581  2.8365
  223MPD1    H1 3443   2.413   0.020   1.121 -0.4544 -0.1093  0.2442
  223MPD1    H2 3444   2.200   4.454   1.304  1.4980  0.1932  1.0021
  223MPD1    H3 3445   2.265   4.668   1.297  0.7714  1.5580 -0.7692
  223MPD1     N 3446   2.529   4.603   0.933  0.0630  0.1791 -0.5071
  223MPD1    H5 3447   2.566   4.536   0.866 -0.1048  1.4350 -1.8620
  223MPD1    N1 3448   2.274   4.255   1.143  0.2359 -0.8285 -0.0638
  223MPD1    H6 3449   2.175   4.249   1.168 -0.7747  0.1915 -3.8226
  223MPD1    H7 3450   2.275   4.202   1.057  0.1174  1.6531 -1.5784
  224MPD1     C 3451   4.047   1.502   8.550 -0.3590 -0.5870 -0.1878
  224MPD1    C1 3452   4.144   1.411   8.517  0.4549 -0.1692 -0.9075
  224MPD1    C2 3453   4.248   1.394   8.600 -0.0881  0.0064 -0.5725
  224MPD1    C3 3454   4.243   1.437   8.734  0.5302 -0.3036 -0.4850
  224MPD1    C4 3455   4.130   1.513   8.768  0.8017 -0.8952 -0.7724
  224MPD1    C5 3456   4.043   1.558   8.673  0.1384  0.3223  0.1205
  224MPD1     H 3457   4.327   1.328   8.565  0.3535 -0.0532  0.5253
  224MPD1    H1 3458   4.119   1.560   8.866  1.9099 -0.0896 -1.0176
  224MPD1    H2 3459   3.968   1.535   8.484  1.3371  1.1533 -1.3430
  224MPD1    H3 3460   3.964   1.626   8.702 -2.1050 -3.6487  3.4773
  224MPD1     N 3461   4.339   1.407   8.829 -0.0965 -0.2611 -0.1862
  224MPD1    H5 3462   4.322   1.448   8.921  1.4404 -0.8582  0.3678
  224MPD1    N1 3463   4.147   1.372   8.386 -0.0098  0.3742  0.3157
  224MPD1    H6 3464   4.051   1.353   8.359 -0.6982 -0.0232  3.0805
  224MPD1    H7 3465   4.191   1.280   8.387  1.9508  1.2982  0.0583
  225MPD1     C 3466   1.246   2.564  12.596 -0.5571  0.2321 -0.5695
  225MPD1    C1 3467   1.243   2.427  12.589 -0.5090  0.5883  1.3927
  225MPD1    C2 3468   1.125   2.377  12.542 -0.3739  0.3803 -0.1963
  225MPD1    C3 3469   1.025   2.452  12.481  0.2982 -0.2511 -0.2349
  225MPD1    C4 3470   1.043   2.587  12.468 -0.3528 -0.3759 -1.1529
  225MPD1    C5 3471   1.155   2.641  12.533  0.2771 -0.2530 -0.3214
  225MPD1     H 3472   1.112   2.269  12.538 -0.0749  0.3203  0.4268
  225MPD1    H1 3473   0.967   2.656  12.435 -0.6158 -0.5927 -1.0041
  225MPD1    H2 3474   1.335   2.614  12.630  0.1700 -2.2048  1.0366
  225MPD1    H3 3475   1.175   2.746  12.517  2.1985 -0.2321  2.2784
  225MPD1     N 3476   0.907   2.395  12.425 -0.4921 -0.7213  0.5262
  225MPD1    H5 3477   0.836   2.459  12.392 -0.5462 -1.2581 -0.4104
  225MPD1    N1 3478   1.332   2.342  12.653 -0.1648  1.1414  0.6465
  225MPD1    H6 3479   1.428   2.375  12.650 -0.0279  0.6455 -0.4769
  225MPD1    H7 3480   1.337   2.242  12.634  0.1233  0.8419  2.3291
  226MPD1     C 3481   3.372   2.071   9.634 -0.8026  0.6839  0.0020
  226MPD1    C1 3482   3.416   2.011   9.511  0.2461  0.4541 -0.2942
  226MPD1    C2 3483   3.536   2.051   9.461 -0.1102 -0.1458 -0.4873
  226MPD1    C3 3484   3.625   2.132   9.533  0.0050  0.9017  1.3344
  226MPD1    C4 3485   3.587   2.175   9.656  0.0931 -0.0836 -0.2498
  226MPD1    C5 3486   3.458   2.155   9.693 -0.4313  0.2122  0.8926
  226MPD1     H 3487   3.556   2.031   9.357  0.8114 -1.1088 -0.1239
  226MPD1    H1 3488   3.643   2.236   9.726  2.2405 -4.2510  1.6737
  226MPD1    H2 3489   3.275   2.051   9.677  0.1563 -1.8807  0.9959
  226MPD1    H3 3490   3.432   2.209   9.783 -2.3997  0.5907  0.0802
  226MPD1     N 3491   3.749   2.169   9.478  0.2378 -0.0390  0.0910
  226MPD1    H5 3492   3.761   2.137   9.383  2.6703  2.9355 -0.5847
  226MPD1    N1 3493   3.321   1.941   9.427 -0.1739  0.0602 -0.5993
  226MPD1    H6 3494   3.356   1.875   9.358  0.1013 -0.3973 -0.0284
  226MPD1    H7 3495   3.246   1.894   9.477 -1.0233  1.7610 -0.2616
  227MPD1     C 3496   0.015   2.597   9.486  0.1961 -0.5019  0.0495
  227MPD1    C1 3497   0.014   2.463   9.467 -0.4317 -0.3090 -0.3428
  227MPD1    C2 3498   4.635   2.391   9.449  0.3055  0.2682 -0.3973
  227MPD1    C3 3499   4.516   2.457   9.459  0.4429  0.2493  0.1559
  227MPD1    C4 3500   4.521   2.591   9.491 -0.6963  1.3523 -0.3316
  227MPD1    C5 3501   4.636   2.658   9.512 -0.0954  0.4338 -0.5162
  227MPD1     H 3502   4.632   2.291   9.408 -2.5546  0.0172  0.4254
  227MPD1    H1 3503   4.429   2.648   9.494 -0.9525  0.7681  3.0707
  227MPD1    H2 3504   0.105   2.657   9.479 -0.0393 -0.4156 -2.2565
  227MPD1    H3 3505   4.621   2.764   9.527  3.7351  0.6069  2.0608
  227MPD1     N 3506   4.398   2.391   9.434  0.2309  0.1905  0.4390
  227MPD1    H5 3507   4.412   2.293   9.411 -1.5598 -0.3275  1.5194
  227MPD1    N1 3508   0.130   2.399   9.423  0.4746  0.0436 -0.5982
  227MPD1    H6 3509   0.212   2.437   9.471  0.1648  0.5521 -0.4709
  227MPD1    H7 3510   0.136   2.299   9.439 -0.9974  0.1423  0.5480
  228MPD1     C 3511   2.961   0.154  12.410  0.8814  0.1895 -0.8481
  228MPD1    C1 3512   2.840   0.191  12.357  0.2742  0.4327 -0.7799
  228MPD1    C2 3513   2.729   0.125  12.417  0.1912  0.5058  0.4871
  228MPD1    C3 3514   2.740   0.019  12.499 -0.2238  0.2747 -0.1778
  228MPD1    C4 3515   2.861   4.716  12.539  0.7045  0.5863 -0.1549
  228MPD1    C5 3516   2.968   0.051  12.504  0.0413  0.6973 -0.3209
  228MPD1     H 3517   2.628   0.158  12.397  0.4200  1.6319  1.1488
  228MPD1    H1 3518   2.877   4.639  12.613 -2.1529  0.3840  0.2609
  228MPD1    H2 3519   3.051   0.210  12.384  0.5364  1.0366 -0.2386
  228MPD1    H3 3520   3.064   0.018  12.543  0.7173  1.5554 -1.2424
  228MPD1     N 3521   2.618   4.706  12.550  0.1367 -0.0070 -0.5118
  228MPD1    H5 3522   2.538   0.012  12.506 -0.5523 -1.1611 -0.4133
  228MPD1    N1 3523   2.824   0.303  12.282  0.6761 -0.2130  0.9088
  228MPD1    H6 3524   2.907   0.329  12.229 -0.6375 -1.0076 -1.5540
  228MPD1    H7 3525   2.744   0.292  12.219  2.8797  1.1339 -2.1342
  229MPD1     C 3526   1.771   4.244  14.520 -0.1202  0.2848  0.1665
  229MPD1    C1 3527   1.760   4.262  14.656  0.9332  0.2948  0.5103
  229MPD1    C2 3528   1.851   4.205  14.741 -0.3153  0.0790 -0.4015
  229MPD1    C3 3529   1.966   4.147  14.687  0.3073 -0.4594 -0.3135
  229MPD1    C4 3530   1.981   4.132  14.547 -0.1624  0.0132 -0.4100
  229MPD1    C5 3531   1.880   4.177  14.467 -0.0799  0.5432 -0.0632
  229MPD1     H 3532   1.837   4.216  14.848 -0.0756  1.0202 -0.4643
  229MPD1    H1 3533   2.075   4.091  14.512  0.1771  1.0652 -0.7226
  229MPD1    H2 3534   1.687   4.277  14.460 -2.1495 -1.5164  2.0039
  229MPD1    H3 3535   1.884   4.156  14.361  1.9932  1.8549 -0.2592
  229MPD1     N 3536   2.072   4.096  14.759 -0.2629  0.4784 -0.3078
  229MPD1    H5 3537   2.154   4.080  14.702 -1.3094 -0.0154 -1.6834
  229MPD1    N1 3538   1.643   4.320  14.693  0.3411  0.1308  0.0007
  229MPD1    H6 3539   1.621   4.408  14.647 -0.1294 -0.1285 -0.2715
  229MPD1    H7 3540   1.634   4.326  14.794 -1.7612  1.9438 -0.3020
  230MPD1     C 3541   2.629   3.748  15.655 -0.4166  0.3405 -0.1384
  230MPD1    C1 3542   2.581   3.654  15.568  0.3095 -0.1284 -0.5505
  230MPD1    C2 3543   2.499   3.693  15.464  0.0033  0.5465  0.0636
  230MPD1    C3 3544   2.465   3.823  15.434  0.3484 -0.1251  0.2712
  230MPD1    C4 3545   2.518   3.914  15.527  0.4119  0.4038 -0.3463
  230MPD1    C5 3546   2.595   3.876  15.633  0.2021  0.1949 -0.5437
  230MPD1     H 3547   2.463   3.618  15.394 -2.0402  1.8194 -0.2409
  230MPD1    H1 3548   2.500   4.021  15.521 -3.6417 -0.1946  1.6866
  230MPD1    H2 3549   2.671   3.720  15.751 -0.1940  3.1433  0.5620
  230MPD1    H3 3550   2.622   3.953  15.703 -0.8521  1.2193 -1.2821
  230MPD1     N 3551   2.411   3.849  15.305  0.0761  0.5346 -0.2622
  230MPD1    H5 3552   2.372   3.768  15.258 -1.5094  0.0198  1.9526
  230MPD1    N1 3553   2.593   3.516  15.590  0.0136 -0.2963  0.1900
  230MPD1    H6 3554   2.674   3.487  15.644 -0.1035  1.2930  1.2136
  230MPD1    H7 3555   2.580   3.449  15.515 -1.1494  0.9068 -0.6964
  231MPD1     C 3556   0.701   0.403  15.681  1.1180  0.4038  0.6158
  231MPD1    C1 3557   0.680   0.360  15.551 -0.1861 -0.1894 -0.6243
  231MPD1    C2 3558   0.718   0.440  15.441  0.5434  0.9104 -0.3149
  231MPD1    C3 3559   0.798   0.550  15.464 -0.6375  0.2524 -0.5400
  231MPD1    C4 3560   0.832   0.583  15.593  0.3221  0.0450  0.0786
  231MPD1    C5 3561   0.773   0.519  15.696  0.3851  0.4115 -0.7043
  231MPD1     H 3562   0.683   0.419  15.341 -1.7104  1.2038  0.4220
  231MPD1    H1 3563   0.895   0.669  15.611  0.2592  0.0012  0.5109
  231MPD1    H2 3564   0.658   0.348  15.764 -1.4063 -0.0327 -0.9688
  231MPD1    H3 3565   0.802   0.558  15.792 -0.7141  0.7981 -0.5378
  231MPD1     N 3566   0.850   0.624  15.351 -0.1767  0.2762  0.1331
  231MPD1    H5 3567   0.797   0.614  15.265  0.3674 -1.0852 -0.0534
  231MPD1    N1 3568   0.596   0.249  15.535  0.1285  0.0735  0.3644
  231MPD1    H6 3569   0.619   0.199  15.450 -0.0293  0.4759  0.0806
  231MPD1    H7 3570   0.600   0.187  15.615  0.1529 -0.8490 -0.3556
  232MPD1     C 3571   1.419   3.236  16.988  0.3401  0.3208  0.1724
  232MPD1    C1 3572   1.503   3.188  17.088  0.3383 -0.9632  0.7058
  232MPD1    C2 3573   1.492   3.256  17.207 -0.2457 -0.2003  0.1440
  232MPD1    C3 3574   1.422   3.369  17.231 -0.3772  0.5218  0.5451
  232MPD1    C4 3575   1.336   3.404  17.130 -0.0502  0.4340 -0.4783
  232MPD1    C5 3576   1.336   3.343  17.011 -0.5695  0.0846 -0.1527
  232MPD1     H 3577   1.566   3.230  17.282  0.9076 -3.0732 -1.9820
  232MPD1    H1 3578   1.267   3.488  17.141 -0.9693 -0.3825  0.0560
  232MPD1    H2 3579   1.415   3.188  16.891  0.2779 -3.8802  2.2550
  232MPD1    H3 3580   1.269   3.365  16.929  0.3089  0.6330 -0.7095
  232MPD1     N 3581   1.419   3.413  17.365  0.1859  0.3617 -0.8517
  232MPD1    H5 3582   1.470   3.362  17.436 -1.2242  0.8036  0.4851
  232MPD1    N1 3583   1.556   3.057  17.084  0.7278  0.7871 -0.4553
  232MPD1    H6 3584   1.639   3.042  17.142 -1.6197 -0.3308  2.5641
  232MPD1    H7 3585   1.582   3.031  16.989  1.1547  1.6822 -0.5855
  233MPD1     C 3586   2.626   1.453   1.561 -0.2094  0.8469 -1.0356
  233MPD1    C1 3587   2.643   1.456   1.427 -0.8610  0.1399 -0.7041
  233MPD1    C2 3588   2.776   1.445   1.384  0.4058  0.2670 -0.3533
  233MPD1    C3 3589   2.881   1.476   1.466  0.8822 -0.0142  0.1079
  233MPD1    C4 3590   2.861   1.490   1.599  0.1938  0.2535 -0.0601
  233MPD1    C5 3591   2.731   1.481   1.643 -0.9532 -0.0027  0.0951
  233MPD1     H 3592   2.786   1.426   1.277 -0.8443 -1.6199 -0.1146
  233MPD1    H1 3593   2.936   1.520   1.672 -0.8406  1.0202  0.6737
  233MPD1    H2 3594   2.526   1.448   1.602  0.1684  1.2607 -0.0710
  233MPD1    H3 3595   2.718   1.493   1.750  0.0017 -1.6963  0.3955
  233MPD1     N 3596   3.013   1.485   1.426  0.0513 -0.2969 -0.0364
  233MPD1    H5 3597   3.081   1.497   1.501 -0.7832 -0.4343  0.7443
  233MPD1    N1 3598   2.544   1.406   1.342 -0.0490 -0.1772 -0.6476
  233MPD1    H6 3599   2.567   1.440   1.248  2.2634  1.8345  0.6482
  233MPD1    H7 3600   2.455   1.444   1.371 -0.4760 -0.8414 -1.0960
  234MPD1     C 3601   0.727   4.588   8.382 -0.0737 -0.0985  0.6891
  234MPD1    C1 3602   0.605   4.556   8.431 -0.9959  0.5502 -0.7909
  234MPD1    C2 3603   0.549   4.613   8.540 -0.3446 -0.1721 -0.3137
  234MPD1    C3 3604   0.590   4.735   8.585 -0.5014  0.2303  0.3048
  234MPD1    C4 3605   0.710   0.038   8.534  0.7780  0.2212 -0.3911
  234MPD1    C5 3606   0.778   4.707   8.435  0.2192  0.0679  0.1180
  234MPD1     H 3607   0.452   4.578   8.572 -0.8196  0.6635 -0.8312
  234MPD1    H1 3608   0.756   0.130   8.570 -0.2994  1.0043 -1.0000
  234MPD1    H2 3609   0.772   4.531   8.301 -0.5252 -0.5120  0.7308
  234MPD1    H3 3610   0.876   4.732   8.396  0.5877 -0.3712  0.7621
  234MPD1     N 3611   0.509   0.064   8.681 -0.3733  0.3144  0.1764
  234MPD1    H5 3612   0.419   0.017   8.691 -1.2293  1.6421 -1.3832
  234MPD1    N1 3613   0.556   4.429   8.392  0.0182 -0.3571 -0.4956
  234MPD1    H6 3614   0.575   4.412   8.294  0.4958  1.9189 -0.7928
  234MPD1    H7 3615   0.460   4.416   8.421  0.5736 -0.5891  1.2640
  235MPD1     C 3616   1.728   2.479  10.724  0.4476  0.0461  0.1038
  235MPD1    C1 3617   1.758   2.609  10.730  0.2227 -0.7643  0.2415
  235MPD1    C2 3618   1.840   2.651  10.837 -0.1672  0.7464 -0.5772
  235MPD1    C3 3619   1.890   2.564  10.934  0.2577 -0.4714  0.5084
  235MPD1    C4 3620   1.847   2.434  10.929  0.1886  0.1249  0.8070
  235MPD1    C5 3621   1.765   2.395  10.827 -0.0108  0.7387 -0.2982
  235MPD1     H 3622   1.879   2.751  10.850  0.7783  0.3946 -0.6846
  235MPD1    H1 3623   1.881   2.358  10.997  0.4195 -0.0628  0.4830
  235MPD1    H2 3624   1.674   2.443  10.637 -1.3525  2.2576  0.3079
  235MPD1    H3 3625   1.747   2.290  10.810 -0.2500  0.1843  3.3234
  235MPD1     N 3626   1.961   2.602  11.053 -0.5271 -0.2946  0.7004
  235MPD1    H5 3627   2.001   2.530  11.112  1.1912  0.9299  1.0236
  235MPD1    N1 3628   1.722   2.704  10.627  0.7008  0.0067  0.2571
  235MPD1    H6 3629   1.637   2.671  10.582 -1.7471  4.1320  1.8246
  235MPD1    H7 3630   1.715   2.797  10.667 -3.0058 -0.7230  1.2913
  236MPD1     C 3631   0.831   4.006   9.567 -0.2156  0.1448 -0.3501
  236MPD1    C1 3632   0.780   3.941   9.673  0.3080  0.3739  0.2382
  236MPD1    C2 3633   0.865   3.885   9.770  0.2976 -0.3894  0.3182
  236MPD1    C3 3634   1.000   3.895   9.758 -0.1609 -0.1100 -0.3471
  236MPD1    C4 3635   1.048   3.960   9.647  0.8834 -0.1210 -0.3575
  236MPD1    C5 3636   0.964   4.013   9.554 -0.6552  0.4130 -0.4537
  236MPD1     H 3637   0.823   3.823   9.849 -0.0016  0.9937  1.2573
  236MPD1    H1 3638   1.156   3.967   9.638  0.8273  2.9296  1.0853
  236MPD1    H2 3639   0.774   4.051   9.487 -1.2569 -1.5371 -0.5420
  236MPD1    H3 3640   1.011   4.064   9.471  1.3187  0.5765  0.7523
  236MPD1     N 3641   1.095   3.851   9.856  0.5810 -0.7250 -0.4821
  236MPD1    H5 3642   1.195   3.861   9.841  0.8399 -0.0987  1.6184
  236MPD1    N1 3643   0.645   3.910   9.660  0.8213  0.3602 -0.2181
  236MPD1    H6 3644   0.597   3.883   9.745  1.4721 -2.4242 -0.7339
  236MPD1    H7 3645   0.589   3.983   9.618  0.3004  0.3845  0.5285
  237MPD1     C 3646   1.091   2.306  14.775  0.5767 -0.1040 -0.6375
  237MPD1    C1 3647   1.088   2.291  14.913  0.1924 -0.2355  0.1637
  237MPD1    C2 3648   1.037   2.179  14.969 -0.0727  0.3816  1.0358
  237MPD1    C3 3649   0.968   2.087  14.892 -0.2916 -0.0433  0.4352
  237MPD1    C4 3650   0.943   2.119  14.760  0.1511  0.6373  0.1303
  237MPD1    C5 3651   1.013   2.218  14.700  0.3557 -0.8006 -0.4298
  237MPD1     H 3652   1.044   2.167  15.076 -0.7602  1.6429  1.2206
  237MPD1    H1 3653   0.890   2.045  14.701  0.0826  0.3519  0.5520
  237MPD1    H2 3654   1.140   2.392  14.731 -1.7330  1.6116  0.1181
  237MPD1    H3 3655   0.991   2.245  14.598  0.1679 -2.3743 -0.8051
  237MPD1     N 3656   0.893   1.977  14.933 -0.8473 -0.7772  0.5260
  237MPD1    H5 3657   0.845   1.923  14.862 -1.4064  1.6823 -0.9678
  237MPD1    N1 3658   1.154   2.388  14.992  0.1814 -0.3070 -0.0113
  237MPD1    H6 3659   1.124   2.398  15.089 -1.5260 -0.3127 -0.5483
  237MPD1    H7 3660   1.168   2.475  14.943 -2.7274 -0.0163 -0.3257
  238MPD1     C 3661   2.779   4.501  14.340  0.4119 -0.7639 -0.3692
  238MPD1    C1 3662   2.804   4.562  14.463  0.0716  0.5264  0.3222
  238MPD1    C2 3663   2.702   4.583  14.556  0.1856 -0.0103 -0.0033
  238MPD1    C3 3664   2.574   4.586  14.509 -0.4911 -0.0012  1.1833
  238MPD1    C4 3665   2.543   4.533  14.380 -0.6807 -0.0907 -0.2751
  238MPD1    C5 3666   2.649   4.492  14.298  0.3606 -0.2259 -0.6281
  238MPD1     H 3667   2.727   4.643  14.643 -0.4826 -0.0596  0.2286
  238MPD1    H1 3668   2.441   4.529  14.342 -0.3735 -0.1819 -1.0960
  238MPD1    H2 3669   2.846   4.450  14.272  1.6902  1.3307 -0.6984
  238MPD1    H3 3670   2.629   4.446  14.201  1.0830  0.0299 -0.8983
  238MPD1     N 3671   2.468   4.658  14.571 -0.2004 -0.1062 -0.4054
  238MPD1    H5 3672   2.374   4.660  14.534  0.0244 -2.3870 -1.1008
  238MPD1    N1 3673   2.932   4.551  14.514 -0.0965 -0.1666  0.0866
  238MPD1    H6 3674   3.002   4.561  14.440  2.1759 -0.0696  2.2346
  238MPD1    H7 3675   2.959   4.623  14.582 -0.2755  0.0987 -0.1224
  239MPD1     C 3676   3.275   2.057  14.288 -0.0149 -1.0835 -0.6010
  239MPD1    C1 3677   3.229   1.996  14.177 -0.1036 -0.6835  0.4744
  239MPD1    C2 3678   3.106   1.940  14.179 -0.4772 -0.2117 -0.4803
  239MPD1    C3 3679   3.016   1.966  14.290  0.7467  0.0311  0.0985
  239MPD1    C4 3680   3.058   2.038  14.402 -0.7918 -0.1677  0.1789
  239MPD1    C5 3681   3.188   2.078  14.396 -0.7943  0.6700 -0.5740
  239MPD1     H 3682   3.080   1.860  14.110  0.8909  1.7737 -3.3114
  239MPD1    H1 3683   2.994   2.065  14.486 -1.0611 -1.4779  0.3962
  239MPD1    H2 3684   3.380   2.084  14.292  0.0712 -1.7266  1.4040
  239MPD1    H3 3685   3.237   2.133  14.476 -4.1713  0.0513  1.9027
  239MPD1     N 3686   2.885   1.915  14.294  0.1074  0.1214 -0.5900
  239MPD1    H5 3687   2.827   1.927  14.376 -0.0023  0.6089 -0.7456
  239MPD1    N1 3688   3.314   1.964  14.070  0.7550  0.2231 -0.3637
  239MPD1    H6 3689   3.255   1.963  13.988  0.2721  0.0145 -0.0144
  239MPD1    H7 3690   3.376   2.043  14.053  1.6701 -0.0533  1.6998
  240MPD1     C 3691   2.257   1.074  13.864  0.3470 -1.0406  0.2696
  240MPD1    C1 3692   2.125   1.053  13.894  0.0388  0.3036  0.3074
  240MPD1    C2 3693   2.098   0.973  14.007  0.3870  0.1038  0.4413
  240MPD1    C3 3694   2.193   0.906  14.075 -0.0324 -0.9562 -0.7496
  240MPD1    C4 3695   2.326   0.914  14.026  0.2267  0.0007  0.3709
  240MPD1    C5 3696   2.353   1.006  13.930  0.5144 -0.0890 -0.0757
  240MPD1     H 3697   1.994   0.956  14.032  0.1423  0.6191 -0.2140
  240MPD1    H1 3698   2.405   0.848  14.059 -0.3595 -1.6090 -1.4230
  240MPD1    H2 3699   2.289   1.146  13.789  0.3219 -0.0443  1.2191
  240MPD1    H3 3700   2.448   1.021  13.879 -0.3649 -0.1243 -1.7005
  240MPD1     N 3701   2.160   0.835  14.195 -0.2846  0.2614  0.4842
  240MPD1    H5 3702   2.065   0.845  14.231 -0.0810  2.9103  0.2953
  240MPD1    N1 3703   2.029   1.146  13.848  0.3995 -0.4642  0.5509
  240MPD1    H6 3704   1.931   1.133  13.869  0.4821 -0.4269  0.9610
  240MPD1    H7 3705   2.036   1.177  13.751  0.3228  2.2737  1.4362
  241MPD1     C 3706   2.634   0.851  15.145 -0.7768  0.7018  0.1176
  241MPD1    C1 3707   2.659   0.735  15.074  0.0806  0.4637  0.3780
  241MPD1    C2 3708   2.587   0.714  14.960  0.0544 -0.4478  0.1743
  241MPD1    C3 3709   2.491   0.801  14.914 -0.4085 -0.0529  0.1306
  241MPD1    C4 3710   2.473   0.915  14.991 -0.4953 -0.0461 -0.2793
  241MPD1    C5 3711   2.544   0.944  15.103  0.5458 -0.2215 -0.5919
  241MPD1     H 3712   2.604   0.620  14.910  1.1715 -0.4228  0.4944
  241MPD1    H1 3713   2.404   0.992  14.957  0.9052  1.3686  0.0645
  241MPD1    H2 3714   2.687   0.877  15.236 -0.6332 -0.2861  0.3139
  241MPD1    H3 3715   2.526   1.035  15.160 -0.4633 -0.5580 -0.3719
  241MPD1     N 3716   2.405   0.785  14.800  0.0086  0.2188  0.4821
  241MPD1    H5 3717   2.323   0.845  14.806  0.5056  1.0198 -0.8995
  241MPD1    N1 3718   2.760   0.648  15.115 -0.0103 -0.2868  0.8323
  241MPD1    H6 3719   2.806   0.609  15.033 -2.2714 -1.5454  0.1702
  241MPD1    H7 3720   2.826   0.701  15.171  1.6984 -2.3548  0.7823
  242MPD1     C 3721   1.868   3.945  16.509  0.2590 -0.0154  0.3980
  242MPD1    C1 3722   1.860   4.076  16.478  0.0225  0.1560 -0.3026
  242MPD1    C2 3723   1.854   4.107  16.345 -0.1174  0.0577  0.4211
  242MPD1    C3 3724   1.838   4.012  16.248 -0.6870 -0.1425 -0.1593
  242MPD1    C4 3725   1.824   3.882  16.289  0.4380  0.0656  0.2065
  242MPD1    C5 3726   1.851   3.850  16.419  0.4518  0.2203  0.1204
  242MPD1     H 3727   1.841   4.209  16.312  0.1317 -0.1732 -0.4047
  242MPD1    H1 3728   1.818   3.805  16.212 -1.3459 -0.4394  0.8324
  242MPD1    H2 3729   1.870   3.908  16.611 -1.3334  0.2573  0.5392
  242MPD1    H3 3730   1.865   3.749  16.456 -0.4030  0.3742  0.8578
  242MPD1     N 3731   1.837   4.032  16.108 -0.4084 -0.0996 -0.1337
  242MPD1    H5 3732   1.833   3.950  16.048  1.7147 -2.2956  2.7300
  242MPD1    N1 3733   1.865   4.169  16.581 -0.0046 -0.1484 -0.1909
  242MPD1    H6 3734   1.827   4.140  16.670 -0.4139 -0.9177 -0.6171
  242MPD1    H7 3735   1.818   4.256  16.556 -0.0349 -0.1007  0.0321
  243MPD1     C 3736   3.164   3.772   0.283  0.1382 -0.0870  0.3078
  243MPD1    C1 3737   3.150   3.733   0.150 -0.1460  0.1816 -0.6095
  243MPD1    C2 3738   3.203   3.611   0.114 -0.4292 -0.8178  0.6469
  243MPD1    C3 3739   3.260   3.528   0.203  0.5589 -0.4800 -0.3179
  243MPD1    C4 3740   3.273   3.566   0.334 -0.2007 -0.6616  0.1470
  243MPD1    C5 3741   3.214   3.685   0.375  0.0659  0.0579  0.1854
  243MPD1     H 3742   3.210   3.582   0.010  0.3629  3.6674 -0.5358
  243MPD1    H1 3743   3.310   3.499   0.410  0.9910 -1.4050 -1.0927
  243MPD1    H2 3744   3.129   3.867   0.322  0.9651  0.3460  0.0047
  243MPD1    H3 3745   3.219   3.709   0.481 -0.4531 -1.3392  0.5243
  243MPD1     N 3746   3.306   3.404   0.150  0.0943 -0.6457  0.1406
  243MPD1    H5 3747   3.291   3.394   0.050  1.3265 -1.0238 -0.0075
  243MPD1    N1 3748   3.109   3.826   0.052  0.3216  0.6763  0.7032
  243MPD1    H6 3749   3.054   3.898   0.100  1.3576  1.2141  1.0897
  243MPD1    H7 3750   3.041   3.787  17.736  1.4755  0.0781 -0.1407
  244MPD1     C 3751   3.628   2.551   0.627  0.2864 -0.2167 -0.5369
  244MPD1    C1 3752   3.646   2.684   0.667  0.1203 -0.5619 -0.2835
  244MPD1    C2 3753   3.610   2.784   0.578  0.1804  0.6796 -0.0438
  244MPD1    C3 3754   3.580   2.754   0.437 -0.1354  0.4561 -0.6772
  244MPD1    C4 3755   3.575   2.622   0.403 -0.1757 -0.5745  0.0171
  244MPD1    C5 3756   3.604   2.519   0.495  0.4537 -0.2468 -0.4938
  244MPD1     H 3757   3.607   2.888   0.609 -0.0152  0.9613 -1.0044
  244MPD1    H1 3758   3.542   2.593   0.304  1.6323  0.5626 -0.9008
  244MPD1    H2 3759   3.644   2.470   0.696 -1.2018  1.6814  2.0411
  244MPD1    H3 3760   3.602   2.414   0.467  0.0187 -0.1560 -0.8089
  244MPD1     N 3761   3.541   2.859   0.358  0.4843  0.6119 -0.8222
  244MPD1    H5 3762   3.566   2.949   0.398 -0.5151  0.5692 -0.1122
  244MPD1    N1 3763   3.665   2.715   0.802  0.9758  0.6375 -0.1108
  244MPD1    H6 3764   3.736   2.648   0.830 -1.0598 -1.0544  1.0119
  244MPD1    H7 3765   3.713   2.803   0.820  1.5335  0.3249 -0.0520
  245MPD1     C 3766   0.895   3.049  13.366  0.1884  0.3146 -0.0770
  245MPD1    C1 3767   0.942   3.163  13.311 -0.2931  0.2122 -0.0831
  245MPD1    C2 3768   0.991   3.258  13.399 -0.1422  0.7156 -0.8301
  245MPD1    C3 3769   1.005   3.235  13.533 -0.1306  0.2044  0.4655
  245MPD1    C4 3770   0.958   3.113  13.587 -0.0048  0.6310 -0.7008
  245MPD1    C5 3771   0.898   3.025  13.502 -0.4902 -0.1452 -0.3666
  245MPD1     H 3772   1.014   3.354  13.354 -0.1489  1.2599  0.3395
  245MPD1    H1 3773   0.975   3.086  13.691 -3.7996 -0.8079 -0.4658
  245MPD1    H2 3774   0.845   2.969  13.312  0.5273  0.8497 -1.1748
  245MPD1    H3 3775   0.857   2.933  13.541 -1.2533  0.9347  1.3732
  245MPD1     N 3776   1.050   3.347  13.607  0.2866 -0.8630  0.5389
  245MPD1    H5 3777   1.080   3.428  13.554  0.0391 -0.9893  0.2036
  245MPD1    N1 3778   0.907   3.196  13.180 -0.5071  0.2662  0.1828
  245MPD1    H6 3779   0.976   3.242  13.120 -1.1304  0.5807 -0.2954
  245MPD1    H7 3780   0.873   3.116  13.127  1.9046 -0.9914  0.5499
  246MPD1     C 3781   3.286   4.521   9.827  0.2478 -0.2162  0.3134
  246MPD1    C1 3782   3.313   4.561   9.699 -0.1078 -0.7629 -0.3524
  246MPD1    C2 3783   3.208   4.586   9.617  0.2988 -0.0149 -0.4337
  246MPD1    C3 3784   3.070   4.590   9.660 -1.1592 -0.0290  0.2056
  246MPD1    C4 3785   3.051   4.545   9.790  0.2193  0.2706 -0.3739
  246MPD1    C5 3786   3.157   4.519   9.868 -0.1194  0.6359 -0.4056
  246MPD1     H 3787   3.233   4.626   9.519  0.2036 -0.2107 -0.5387
  246MPD1    H1 3788   2.956   4.561   9.841  1.1533 -1.1365  1.7635
  246MPD1    H2 3789   3.364   4.516   9.903 -0.3731  2.7210  1.1523
  246MPD1    H3 3790   3.136   4.496   9.971  0.6933 -0.4723 -0.4846
  246MPD1     N 3791   2.961   4.623   9.577  0.0664 -0.0217  0.7043
  246MPD1    H5 3792   2.986   4.642   9.481  0.2903 -1.0407  0.5707
  246MPD1    N1 3793   3.441   4.560   9.645  0.2061 -0.3457 -0.6781
  246MPD1    H6 3794   3.520   4.567   9.708 -1.1996  0.9688  0.9225
  246MPD1    H7 3795   3.449   4.641   9.583 -0.7705  0.1065 -0.2015
  247MPD1     C 3796   3.873   3.191  14.997  0.8135  0.3533 -0.0703
  247MPD1    C1 3797   4.012   3.164  15.001  0.0060  0.5976  0.0753
  247MPD1    C2 3798   4.087   3.216  15.105 -0.5136 -0.2744 -0.2402
  247MPD1    C3 3799   4.023   3.277  15.209 -0.5038  0.6711  0.0074
  247MPD1    C4 3800   3.893   3.310  15.203 -0.0815  0.0791  0.1785
  247MPD1    C5 3801   3.821   3.270  15.092 -0.4121  0.3835  0.6945
  247MPD1     H 3802   4.195   3.221  15.106 -0.6330  1.8031  0.9667
  247MPD1    H1 3803   3.848   3.372  15.279 -0.2178  0.5672 -0.3047
  247MPD1    H2 3804   3.812   3.150  14.918  0.9966 -0.3514  0.1478
  247MPD1    H3 3805   3.718   3.304  15.086 -1.2862 -2.0720  1.3551
  247MPD1     N 3806   4.093   3.324  15.327 -0.1964  0.7655  0.3371
  247MPD1    H5 3807   4.051   3.388  15.393  0.1473  2.0266 -0.6579
  247MPD1    N1 3808   4.071   3.072  14.905 -0.0367 -0.2608  0.1353
  247MPD1    H6 3809   4.030   3.083  14.812 -0.4696 -0.4674  0.3032
  247MPD1    H7 3810   4.172   3.082  14.899 -0.3746  1.2680 -3.3299
  248MPD1     C 3811   0.698   2.130   1.585  0.5152 -0.6231 -0.1663
  248MPD1    C1 3812   0.725   2.197   1.700 -0.1967  0.8372 -0.3717
  248MPD1    C2 3813   0.674   2.325   1.710  0.4924  0.4315 -0.2079
  248MPD1    C3 3814   0.589   2.385   1.617 -0.4373  0.8038  0.3349
  248MPD1    C4 3815   0.561   2.313   1.503  0.2375 -0.1963 -0.3592
  248MPD1    C5 3816   0.618   2.184   1.490  0.1112 -0.8362 -0.3895
  248MPD1     H 3817   0.690   2.382   1.802  0.9451 -0.4439  0.2494
  248MPD1    H1 3818   0.500   2.346   1.420 -3.0752  0.0787  2.1921
  248MPD1    H2 3819   0.726   2.029   1.556  1.8642 -0.5067  0.7192
  248MPD1    H3 3820   0.600   2.127   1.400  2.1266  0.2240 -1.4736
  248MPD1     N 3821   0.539   2.515   1.640 -0.4273  0.8503  0.5285
  248MPD1    H5 3822   0.565   2.560   1.728  2.1119 -1.1451  0.7877
  248MPD1    N1 3823   0.823   2.162   1.787  0.3226  0.4777  0.4023
  248MPD1    H6 3824   0.806   2.213   1.874  2.7243  2.2378 -0.1577
  248MPD1    H7 3825   0.845   2.067   1.814  0.1504  0.2858 -0.1409
  249MPD1     C 3826   3.141   2.061  10.035 -0.0510 -0.3589  0.0223
  249MPD1    C1 3827   3.157   1.989  10.153  0.8606  0.0301  0.5850
  249MPD1    C2 3828   3.051   1.991  10.244 -0.2621 -0.6071 -0.1746
  249MPD1    C3 3829   2.936   2.057  10.221 -0.6327 -1.0990  0.2648
  249MPD1    C4 3830   2.912   2.121  10.094 -0.1852 -0.6926  0.0762
  249MPD1    C5 3831   3.018   2.120  10.010 -0.2066 -0.1075  0.3710
  249MPD1     H 3832   3.066   1.942  10.339 -0.9631 -0.0941  0.2044
  249MPD1    H1 3833   2.828   2.186  10.071  2.5580  2.7727 -0.0807
  249MPD1    H2 3834   3.221   2.080   9.964 -0.3607  0.6190 -0.0575
  249MPD1    H3 3835   3.025   2.190   9.928 -0.4303 -0.4295  0.0744
  249MPD1     N 3836   2.837   2.060  10.328  0.2505 -0.5163  0.1990
  249MPD1    H5 3837   2.853   2.023  10.421 -0.1417 -2.3508 -0.4572
  249MPD1    N1 3838   3.283   1.950  10.200 -0.0395  0.0675 -0.2278
  249MPD1    H6 3839   3.348   1.918  10.129  0.5804  0.6625  0.0689
  249MPD1    H7 3840   3.272   1.885  10.277  0.0454  1.3277  0.8463
  250MPD2     C 3841   4.188   1.799  12.862  0.0375  0.4383 -0.2279
  250MPD2    C1 3842   4.102   1.898  12.805 -0.4214 -0.3509 -0.0305
  250MPD2    C2 3843   4.020   1.876  12.696  0.1830  0.3464 -0.8252
  250MPD2    C3 3844   4.019   1.749  12.650  0.1280 -0.8435  0.5254
  250MPD2    C4 3845   4.111   1.658  12.705  0.0148  0.0357  0.0133
  250MPD2    C5 3846   4.193   1.676  12.809 -0.2675  0.1773 -0.1615
  250MPD2     H 3847   3.948   1.948  12.661 -0.7368 -0.8080 -1.3103
  250MPD2    H1 3848   4.112   1.557  12.665 -2.2857  0.2312 -0.5278
  250MPD2    H2 3849   4.254   1.815  12.947 -0.5339 -0.8145  0.4531
  250MPD2    H3 3850   4.267   1.600  12.832 -0.7664 -0.0365  0.7254
  250MPD2     N 3851   3.932   1.706  12.547  0.0742  0.0496 -0.8408
  250MPD2    H5 3852   3.938   1.610  12.515 -0.9119 -0.0394 -0.7440
  250MPD2    N1 3853   4.102   2.026  12.874 -0.0713 -0.0576 -0.2060
  250MPD2    H7 3854   4.164   2.029  12.954 -0.5213  1.3913  0.0930
  251TMC3    C1 3855   4.058   2.259  12.919  0.0835  0.3062 -0.4468
  251TMC3    C2 3856   3.960   2.346  12.930  0.7448  0.3439  0.2706
  251TMC3    C3 3857   3.987   2.463  12.994 -0.3391 -0.7416  0.1645
  251TMC3    C4 3858   4.186   2.276  12.967  0.0972  0.0838  0.4444
  251TMC3    C5 3859   4.209   2.399  13.028  0.1714  0.3561  0.8814
  251TMC3    C6 3860   4.110   2.494  13.041 -0.4694 -0.6957 -0.4178
  251TMC3     C 3861   4.029   2.140  12.843  0.0168 -0.0530  0.4633
  251TMC3     O 3862   3.919   2.131  12.789  0.0345  0.2312  0.3413
  251TMC3     H 3863   3.857   2.321  12.904  0.9528  0.1486 -0.3657
  251TMC3    H1 3864   4.268   2.210  12.941  0.5477  0.8713 -0.1579
  251TMC3    H2 3865   4.131   2.587  13.093  0.0271 -0.4335 -1.0767
  251TMC3    C7 3866   4.341   2.409  13.090  0.0756 -0.3156 -0.7465
  251TMC3    C8 3867   3.885   2.504  13.089 -0.1864  0.7738  0.9707
  251TMC3    O1 3868   4.416   2.313  13.098  0.5860  0.1722  0.4752
  251TMC3    O2 3869   3.929   2.511  13.200  0.3154 -0.4410  0.4602
  252TMC3    C1 3870   3.658   3.406   9.580 -0.4338  0.1752 -0.2217
  252TMC3    C2 3871   3.757   3.418   9.477 -0.6051 -0.0421  0.4797
  252TMC3    C3 3872   3.850   3.316   9.465  0.1051 -0.3283  0.6178
  252TMC3    C4 3873   3.630   3.287   9.645 -0.1212 -0.3920  0.0424
  252TMC3    C5 3874   3.721   3.187   9.614  0.3610  0.2056 -0.2787
  252TMC3    C6 3875   3.838   3.197   9.538 -0.5568  0.2854 -0.1984
  252TMC3     C 3876   3.604   3.525   9.630 -0.5536  0.0060 -0.0792
  252TMC3     O 3877   3.637   3.629   9.572  0.1149 -0.0286 -0.0338
  252TMC3     H 3878   3.770   3.502   9.411  0.4589 -1.5236 -1.1896
  252TMC3    H1 3879   3.543   3.272   9.708  0.1698  0.8898  0.7630
  252TMC3    H2 3880   3.903   3.114   9.514  0.5807  0.8093  1.1138
  252TMC3    C7 3881   3.702   3.057   9.681  0.1162  0.2725 -0.2801
  252TMC3    C8 3882   3.959   3.340   9.372 -0.1891  0.7753 -0.1175
  252TMC3    O1 3883   3.585   3.024   9.713  0.0372 -0.1921  0.5123
  252TMC3    O2 3884   3.958   3.445   9.308 -0.1500  0.9629 -0.8433
  253MPD2     C 3885   0.421   2.183  15.348  0.5316  0.0819 -0.3715
  253MPD2    C1 3886   0.309   2.268  15.338 -0.2352 -0.2405  0.5824
  253MPD2    C2 3887   0.303   2.378  15.415  0.0162  0.9828 -0.0984
  253MPD2    C3 3888   0.390   2.406  15.519 -0.6253 -0.7886 -0.2485
  253MPD2    C4 3889   0.496   2.322  15.528 -0.5648 -0.4474 -0.8463
  253MPD2    C5 3890   0.507   2.212  15.445  0.8531 -0.0662  0.3998
  253MPD2     H 3891   0.213   2.437  15.398 -0.1934  0.6254 -0.2092
  253MPD2    H1 3892   0.563   2.322  15.613  0.1752 -0.9292 -1.4339
  253MPD2    H2 3893   0.447   2.103  15.280 -2.8817 -2.1949  0.9971
  253MPD2    H3 3894   0.590   2.142  15.450  1.0203  0.1693  0.9101
  253MPD2     N 3895   0.367   2.514  15.610 -0.5861  0.2564  0.1096
  253MPD2    H5 3896   0.442   2.519  15.678  1.3114 -2.6284 -1.7837
  253MPD2    N1 3897   0.201   2.249  15.240  0.3997  0.7492  0.4919
  253MPD2    H7 3898   0.140   2.327  15.219  1.9901  1.4006 -1.6963
  254TMC3    C1 3899   0.251   2.660  15.739 -0.4832 -0.8449  0.5901
  254TMC3    C2 3900   0.129   2.640  15.800  0.3955  0.3143  0.3909
  254TMC3    C3 3901   0.140   2.599  15.929 -0.3660 -0.5332  0.0042
  254TMC3    C4 3902   0.371   2.667  15.802  0.2178 -0.1112  0.2992
  254TMC3    C5 3903   0.361   2.650  15.940 -0.7111 -0.8949  0.2322
  254TMC3    C6 3904   0.253   2.602  16.001  1.0311 -0.2163  0.1268
  254TMC3     C 3905   0.253   2.593  15.614 -0.4868 -0.4916 -0.1322
  254TMC3     O 3906   0.144   2.578  15.553  0.5663  0.0058  0.6218
  254TMC3     H 3907   0.035   2.638  15.745  0.2377 -2.5912  0.7698
  254TMC3    H1 3908   0.469   2.669  15.756 -0.7068  0.9810 -1.6476
  254TMC3    H2 3909   0.247   2.591  16.109  1.8421 -0.9685  0.0924
  254TMC3    C7 3910   0.484   2.621  16.001 -0.5680  1.0043  0.5024
  254TMC3    C8 3911   0.020   2.592  16.008 -0.5876  0.0094  0.0002
  254TMC3    O1 3912   0.578   2.693  15.964 -0.2506  0.3162 -0.9992
  254TMC3    O2 3913   0.031   2.520  16.107 -0.6123  0.1186 -0.1202
  255MPD2     C 3914   3.949   0.201  10.618 -0.5363  0.2979  0.1549
  255MPD2    C1 3915   3.884   0.221  10.498  0.1466 -0.3788  0.3929
  255MPD2    C2 3916   3.948   0.160  10.391  0.1818 -0.0434  0.7222
  255MPD2    C3 3917   4.061   0.086  10.398 -0.1238  0.5734  0.6692
  255MPD2    C4 3918   4.122   0.066  10.521 -0.3172 -0.1459  0.6802
  255MPD2    C5 3919   4.064   0.127  10.633  0.4902 -0.0116 -0.1925
  255MPD2     H 3920   3.908   0.167  10.290 -1.0476  1.7742  1.3222
  255MPD2    H1 3921   4.215   0.012  10.532 -2.1844 -3.3926  0.4144
  255MPD2    H2 3922   3.905   0.237  10.710 -0.2081  0.2495  0.3298
  255MPD2    H3 3923   4.113   0.112  10.729  0.2258 -0.6918 -0.1609
  255MPD2     N 3924   4.101   0.010  10.284 -0.2039  0.2653  0.6004
  255MPD2    H5 3925   4.045   0.023  10.200  1.7089  1.2714 -0.5423
  255MPD2    N1 3926   3.762   0.290  10.486 -0.6916  0.0645 -0.0634
  255MPD2    H7 3927   3.717   0.323  10.571 -0.2738  0.5134 -0.0099
  256TMC3    C1 3928   3.567   0.357  10.383 -0.4399  0.3777 -0.0432
  256TMC3    C2 3929   3.507   0.428  10.287  0.3661  0.2961  0.3668
  256TMC3    C3 3930   3.398   0.382  10.214  0.1628 -0.2160 -0.4222
  256TMC3    C4 3931   3.496   0.251  10.433 -0.0254 -0.7477 -0.3147
  256TMC3    C5 3932   3.382   0.211  10.375  0.0281 -0.3742  0.5087
  256TMC3    C6 3933   3.336   0.273  10.262  0.3538 -0.2272 -0.1368
  256TMC3     C 3934   3.699   0.321  10.364  0.2427  0.2936  0.2178
  256TMC3     O 3935   3.739   0.325  10.248 -0.1482  0.2887 -0.1016
  256TMC3     H 3936   3.560   0.513  10.247  0.0625  0.2035 -0.2286
  256TMC3    H1 3937   3.543   0.198  10.516  1.0001  2.0388  0.9011
  256TMC3    H2 3938   3.247   0.242  10.208 -0.7847  0.2033  1.4793
  256TMC3    C7 3939   3.321   0.082  10.393  0.6044  0.0096 -0.1579
  256TMC3    C8 3940   3.345   0.444  10.102 -0.3048 -0.1663  0.8118
  256TMC3    O1 3941   3.260   0.037  10.296  0.6717  0.2384  0.0837
  256TMC3    O2 3942   3.239   0.402  10.053 -0.1938 -0.3027  0.0445
  257MPD2     C 3943   1.960   1.412  13.068  0.0079  0.0430 -0.4760
  257MPD2    C1 3944   2.071   1.497  13.050  0.1154  0.1966  0.1301
  257MPD2    C2 3945   2.198   1.469  13.114  0.2150  0.2811 -0.5848
  257MPD2    C3 3946   2.202   1.359  13.191 -0.0848  0.6875  0.0182
  257MPD2    C4 3947   2.101   1.281  13.204 -0.1222  0.0816  0.3107
  257MPD2    C5 3948   1.976   1.313  13.155 -0.0638 -0.0587 -0.1526
  257MPD2     H 3949   2.279   1.540  13.101  0.3552  0.1511 -0.4112
  257MPD2    H1 3950   2.096   1.187  13.260  0.0654 -1.5756 -2.4655
  257MPD2    H2 3951   1.864   1.437  13.026 -0.7492 -1.4337  0.3822
  257MPD2    H3 3952   1.894   1.245  13.173 -0.2410 -0.0129 -0.7997
  257MPD2     N 3953   2.326   1.336  13.257  0.1198  0.0470 -0.0559
  257MPD2    H5 3954   2.402   1.397  13.228 -0.0494  1.0611  1.6183
  257MPD2    N1 3955   2.052   1.606  12.969  0.1176  0.4873 -0.1221
  257MPD2    H7 3956   1.962   1.619  12.924  0.4776 -2.2431 -1.6332
  258TMC3    C1 3957   2.482   1.290  13.431 -0.3434 -0.2911  0.5214
  258TMC3    C2 3958   2.587   1.337  13.352 -0.1675  0.2909 -0.3859
  258TMC3    C3 3959   2.707   1.346  13.416  0.0368  0.3770  0.2585
  258TMC3    C4 3960   2.497   1.257  13.562  0.6402 -0.1794  0.4895
  258TMC3    C5 3961   2.619   1.270  13.621 -0.2405 -0.6752  0.0899
  258TMC3    C6 3962   2.727   1.312  13.549 -0.1340  0.0339 -0.5936
  258TMC3     C 3963   2.347   1.270  13.372 -0.6123  0.4681 -0.6390
  258TMC3     O 3964   2.269   1.199  13.429  0.2620  0.1712 -0.5437
  258TMC3     H 3965   2.574   1.362  13.247 -1.6324  0.0831 -0.2541
  258TMC3    H1 3966   2.414   1.215  13.617 -0.8176  1.4734 -0.4477
  258TMC3    H2 3967   2.817   1.344  13.600 -0.2271 -0.0549 -0.3761
  258TMC3    C7 3968   2.625   1.220  13.759  0.7672 -0.2590  0.1118
  258TMC3    C8 3969   2.816   1.392  13.337  0.1822  0.2455  0.2405
  258TMC3    O1 3970   2.523   1.240  13.826  0.1242 -0.2207 -0.0787
  258TMC3    O2 3971   2.793   1.452  13.231 -0.1621 -0.0495  0.1867
  259MPD2     C 3972   0.287   3.455   1.260  0.0117 -0.7107 -0.3129
  259MPD2    C1 3973   0.414   3.398   1.243 -0.1407 -0.1799 -0.5811
  259MPD2    C2 3974   0.443   3.358   1.114  0.5027  0.5992  0.6084
  259MPD2    C3 3975   0.352   3.362   1.009  0.6385  0.3748  0.5937
  259MPD2    C4 3976   0.227   3.423   1.036  0.0722  0.2878  0.4711
  259MPD2    C5 3977   0.192   3.461   1.164  0.0866  0.1893  0.2998
  259MPD2     H 3978   0.535   3.309   1.084  0.2279 -1.3879  3.0625
  259MPD2    H1 3979   0.150   3.415   0.960  0.7069  0.4765 -0.1950
  259MPD2    H2 3980   0.263   3.483   1.361 -0.9747 -0.5260 -0.6017
  259MPD2    H3 3981   0.095   3.499   1.197 -0.3455 -0.2705 -0.4418
  259MPD2     N 3982   0.384   3.316   0.879  0.5076 -0.4270 -0.0639
  259MPD2    H5 3983   0.479   3.286   0.858  1.3607  1.1929  1.4761
  259MPD2    N1 3984   0.502   3.387   1.351  0.7275 -0.4631  0.1422
  259MPD2    H7 3985   0.489   3.453   1.427  0.8923  1.7311 -1.7301
  260TMC3    C1 3986   0.390   3.312   0.644  0.4151 -0.2227  0.3136
  260TMC3    C2 3987   0.380   3.379   0.525  0.2911 -0.5295  0.3979
  260TMC3    C3 3988   0.432   3.327   0.412 -0.1996  0.0032  0.4620
  260TMC3    C4 3989   0.451   3.191   0.643 -0.1336 -0.4326 -0.2377
  260TMC3    C5 3990   0.510   3.141   0.530 -0.2258  0.8475  0.2127
  260TMC3    C6 3991   0.500   3.210   0.414  0.3038  0.3990 -1.1640
  260TMC3     C 3992   0.319   3.356   0.762  0.0123  0.1153  0.7540
  260TMC3     O 3993   0.205   3.404   0.745  0.3084 -0.0131 -0.3830
  260TMC3     H 3994   0.316   3.467   0.531 -1.1220 -1.4319 -1.3850
  260TMC3    H1 3995   0.447   3.141   0.739  0.4591  0.2464  0.1421
  260TMC3    H2 3996   0.538   3.159   0.326  1.8161 -0.4028 -0.0580
  260TMC3    C7 3997   0.616   3.038   0.548  0.0857  0.0470  0.5160
  260TMC3    C8 3998   0.443   3.416   0.293  0.0507 -0.9363  0.1263
  260TMC3    O1 3999   0.686   3.017   0.456  0.7438  0.0208  0.3635
  260TMC3    O2 4000   0.356   3.502   0.280 -0.0385 -0.1333  0.5793
  261MPD2     C 4001   3.551   1.637  11.816  0.7395  0.4358 -0.1751
  261MPD2    C1 4002   3.551   1.747  11.895 -0.0389 -0.4526 -0.1813
  261MPD2    C2 4003   3.563   1.875  11.835 -0.5186 -0.1126  1.0174
  261MPD2    C3 4004   3.579   1.884  11.694  0.1588  0.2934 -0.6942
  261MPD2    C4 4005   3.583   1.765  11.621  0.1483  0.6163 -0.1648
  261MPD2    C5 4006   3.566   1.640  11.679 -0.2724 -0.1403  0.2298
  261MPD2     H 4007   3.575   1.961  11.900 -1.0387 -0.2355  1.2788
  261MPD2    H1 4008   3.600   1.767  11.514 -2.6589 -1.4325 -0.6556
  261MPD2    H2 4009   3.553   1.535  11.852  0.8438  0.7215  0.6113
  261MPD2    H3 4010   3.591   1.548  11.628  0.7361  0.5494 -0.5350
  261MPD2     N 4011   3.604   2.011  11.640  1.2887 -0.7681  0.5080
  261MPD2    H5 4012   3.580   2.095  11.692  2.0724 -0.4852  0.4232
  261MPD2    N1 4013   3.555   1.743  12.036  0.0482  0.3994 -0.1445
  261MPD2    H7 4014   3.569   1.822  12.098 -0.5883 -0.6636  1.3537
  262TMC3    C1 4015   3.712   2.168  11.505 -0.3402  0.8044  0.3522
  262TMC3    C2 4016   3.619   2.270  11.505 -0.2804  0.3281 -0.5423
  262TMC3    C3 4017   3.646   2.385  11.433 -0.4088  0.2053  0.2107
  262TMC3    C4 4018   3.833   2.185  11.439  0.2552 -0.6581  0.2178
  262TMC3    C5 4019   3.853   2.305  11.377  0.0884  0.6737  0.1497
  262TMC3    C6 4020   3.769   2.411  11.376 -0.1756 -0.0081 -0.0640
  262TMC3     C 4021   3.670   2.031  11.519 -0.3144 -0.5909  0.4063
  262TMC3     O 4022   3.709   1.957  11.427 -0.5193  0.3096 -0.0243
  262TMC3     H 4023   3.517   2.253  11.536 -0.6920  0.9138 -1.5541
  262TMC3    H1 4024   3.909   2.108  11.446  0.6340 -0.2450  0.6806
  262TMC3    H2 4025   3.778   2.491  11.303  4.1536 -0.2687  0.1412
  262TMC3    C7 4026   3.987   2.331  11.324  0.0254  0.0837 -0.3671
  262TMC3    C8 4027   3.572   2.506  11.455  0.3196 -0.3748  0.4351
  262TMC3    O1 4028   4.046   2.227  11.299  0.5228  0.3016 -0.6049
  262TMC3    O2 4029   3.622   2.611  11.416 -0.1371  0.1929 -0.3150
  263MPD2     C 4030   4.156   0.985  11.815 -0.3004 -0.0637 -0.0003
  263MPD2    C1 4031   4.261   0.964  11.725 -0.1151 -0.3925  0.8245
  263MPD2    C2 4032   4.283   1.054  11.622  0.7392 -0.1776 -0.1426
  263MPD2    C3 4033   4.204   1.161  11.604 -0.1511  0.0181 -0.8123
  263MPD2    C4 4034   4.098   1.188  11.695 -0.1776 -0.4152  0.8685
  263MPD2    C5 4035   4.082   1.099  11.801  0.1994  0.1267  0.4318
  263MPD2     H 4036   4.366   1.041  11.554 -0.0212 -2.8961 -0.5616
  263MPD2    H1 4037   4.032   1.274  11.689  0.4638 -0.0085 -0.3481
  263MPD2    H2 4038   4.128   0.911  11.889  0.4833 -2.1332 -1.7589
  263MPD2    H3 4039   4.008   1.124  11.876 -0.7306 -1.5005  0.0675
  263MPD2     N 4040   4.239   1.237  11.487  0.0214  0.1019 -0.3499
  263MPD2    H5 4041   4.313   1.201  11.427  0.4322 -0.1895  0.3377
  263MPD2    N1 4042   4.339   0.849  11.752  0.5532 -0.4801  0.1820
  263MPD2    H7 4043   4.316   0.798  11.836  0.6880 -2.9972 -1.3234
  264TMC3    C1 4044   4.242   1.426  11.347  0.3769  0.7320 -0.1340
  264TMC3    C2 4045   4.212   1.560  11.346  0.5782 -0.4022 -0.0450
  264TMC3    C3 4046   4.240   1.632  11.230  0.1934  0.4839 -0.1928
  264TMC3    C4 4047   4.307   1.366  11.240  0.7711  0.2789 -0.4173
  264TMC3    C5 4048   4.319   1.442  11.125 -0.0120 -0.1264  0.7456
  264TMC3    C6 4049   4.282   1.569  11.116 -0.4895  0.5663 -0.2444
  264TMC3     C 4050   4.169   1.351  11.441  0.6165  0.6216 -0.4125
  264TMC3     O 4051   4.074   1.404  11.498  0.1354  1.0007  0.1944
  264TMC3     H 4052   4.181   1.607  11.439  0.4077  0.5783 -0.5917
  264TMC3    H1 4053   4.356   1.269  11.242  1.3290  0.5869  1.2178
  264TMC3    H2 4054   4.302   1.626  11.026  2.7609 -1.2182 -0.6765
  264TMC3    C7 4055   4.408   1.400  11.020  0.1831  0.4221 -0.1224
  264TMC3    C8 4056   4.272   1.771  11.242 -0.3090  0.5839  0.9235
  264TMC3    O1 4057   4.525   1.365  11.047 -0.1159 -0.1911  0.1696
  264TMC3    O2 4058   4.326   1.818  11.141 -0.3001 -0.1277  0.7587
  265MPD2     C 4059   1.341   1.521  15.556 -0.1655 -0.9119 -0.3212
  265MPD2    C1 4060   1.414   1.613  15.496 -0.1506 -0.4168 -0.2728
  265MPD2    C2 4061   1.495   1.571  15.388 -0.5269  0.5217  0.1212
  265MPD2    C3 4062   1.502   1.437  15.344  0.4911  0.1634 -0.0342
  265MPD2    C4 4063   1.419   1.346  15.404  0.0256 -0.2504 -0.0139
  265MPD2    C5 4064   1.339   1.389  15.512 -0.0589  0.0830  0.2902
  265MPD2     H 4065   1.561   1.648  15.349 -0.7672  0.6343 -0.0605
  265MPD2    H1 4066   1.427   1.240  15.388 -0.6114  0.0426 -2.3532
  265MPD2    H2 4067   1.283   1.544  15.645 -1.4270 -0.5734 -1.2347
  265MPD2    H3 4068   1.288   1.309  15.565  1.5076 -1.3013 -0.3105
  265MPD2     N 4069   1.590   1.398  15.243  0.0680  0.4569  0.1063
  265MPD2    H5 4070   1.572   1.300  15.225 -4.4407  1.2072  0.5202
  265MPD2    N1 4071   1.421   1.747  15.535 -0.6230  0.5821  0.1797
  265MPD2    H7 4072   1.486   1.802  15.478  1.0865  0.8047  2.3164
  266TMC3    C1 4073   1.394   1.935  15.663 -0.6260 -0.3750 -0.5991
  266TMC3    C2 4074   1.443   1.944  15.789  0.7044 -0.3273 -0.6528
  266TMC3    C3 4075   1.463   2.062  15.853 -0.0332  0.1082  0.4067
  266TMC3    C4 4076   1.353   2.050  15.598 -0.1061  0.2816  0.1053
  266TMC3    C5 4077   1.369   2.167  15.662 -0.7222  0.1087 -0.3454
  266TMC3    C6 4078   1.418   2.175  15.788  0.2313 -0.1934  0.1999
  266TMC3     C 4079   1.339   1.806  15.622 -0.0495 -1.0345  0.3355
  266TMC3     O 4080   1.249   1.758  15.692  0.3069 -0.4885  0.4043
  266TMC3     H 4081   1.458   1.853  15.844 -1.1700 -0.1177  0.1998
  266TMC3    H1 4082   1.303   2.053  15.502  0.6696  0.7880 -0.2854
  266TMC3    H2 4083   1.423   2.274  15.831  1.8103  0.2270 -0.9880
  266TMC3    C7 4084   1.346   2.289  15.584  0.1592 -0.3323 -0.0292
  266TMC3    C8 4085   1.526   2.059  15.977 -0.1100 -0.0135 -0.5403
  266TMC3    O1 4086   1.267   2.278  15.488  0.2363  0.3338 -0.2579
  266TMC3    O2 4087   1.570   1.959  16.027  0.2279  0.0507 -0.0277
  267MPD2     C 4088   3.147   3.613   1.643 -0.5924  0.0573 -0.9854
  267MPD2    C1 4089   3.172   3.557   1.520 -0.1175 -0.3998 -0.4891
  267MPD2    C2 4090   3.082   3.566   1.423  0.4685 -0.0032  0.1837
  267MPD2    C3 4091   2.963   3.636   1.428  0.1804 -0.2407 -0.2206
  267MPD2    C4 4092   2.938   3.709   1.546  0.3129 -0.4175  1.4940
  267MPD2    C5 4093   3.028   3.693   1.651 -0.2405 -0.2263 -0.5702
  267MPD2     H 4094   3.103   3.514   1.330  0.1885  3.5562 -1.8367
  267MPD2    H1 4095   2.852   3.769   1.572 -1.0286 -2.5356  1.9378
  267MPD2    H2 4096   3.213   3.602   1.729 -0.7418 -2.3327 -1.1787
  267MPD2    H3 4097   3.010   3.746   1.744  0.1325 -0.2894 -0.4623
  267MPD2     N 4098   2.871   3.641   1.317 -0.0520  0.1712 -0.2232
  267MPD2    H5 4099   2.807   3.720   1.308  1.4066  1.4807  0.9417
  267MPD2    N1 4100   3.300   3.495   1.502  0.0365 -0.0109  0.1935
  267MPD2    H7 4101   3.359   3.495   1.585 -2.1895  1.8349  1.7914
  268TMC3    C1 4102   3.482   3.390   1.389  0.4994  0.1849  0.1356
  268TMC3    C2 4103   3.549   3.374   1.273  0.5106 -0.0357  0.6979
  268TMC3    C3 4104   3.671   3.312   1.281 -0.5142 -0.2882 -0.0087
  268TMC3    C4 4105   3.529   3.345   1.510  0.6881 -0.0916  0.4912
  268TMC3    C5 4106   3.643   3.268   1.500 -0.1242  0.1056 -0.0760
  268TMC3    C6 4107   3.723   3.249   1.391 -0.2091  0.3468 -0.3390
  268TMC3     C 4108   3.353   3.454   1.383 -0.1771  0.2540  0.1979
  268TMC3     O 4109   3.312   3.475   1.269 -0.0655 -0.4819 -0.4713
  268TMC3     H 4110   3.514   3.421   1.181  0.1513  0.0342  0.8696
  268TMC3    H1 4111   3.467   3.348   1.599 -0.2307  1.4683 -0.2066
  268TMC3    H2 4112   3.811   3.187   1.404 -0.7374 -0.3233  0.0136
  268TMC3    C7 4113   3.679   3.203   1.625  0.2228 -0.0106 -0.0802
  268TMC3    C8 4114   3.777   3.328   1.172  0.2660 -0.0342 -0.0410
  268TMC3    O1 4115   3.760   3.115   1.615  0.5100  0.1174  0.4074
  268TMC3    O2 4116   3.887   3.292   1.205 -0.0311  0.0672  0.2016
  269MPD2     C 4117   3.759   2.582  15.331  0.2419  0.0165  0.0272
  269MPD2    C1 4118   3.765   2.575  15.470 -0.1964  0.1122  0.7807
  269MPD2    C2 4119   3.764   2.688  15.543 -0.3095 -0.0516  0.5348
  269MPD2    C3 4120   3.763   2.813  15.475 -0.4020 -0.3937  0.1156
  269MPD2    C4 4121   3.764   2.823  15.340  0.0774 -0.2565  0.1200
  269MPD2    C5 4122   3.762   2.700  15.268  0.3892  0.3517 -0.0927
  269MPD2     H 4123   3.786   2.694  15.649 -1.1631 -2.9665  0.8551
  269MPD2    H1 4124   3.757   2.915  15.284 -0.9509  0.1754  0.9494
  269MPD2    H2 4125   3.757   2.501  15.259 -1.3694 -0.7668  0.9595
  269MPD2    H3 4126   3.753   2.705  15.160 -0.4028  0.7736 -0.0058
  269MPD2     N 4127   3.762   2.930  15.559  0.1453 -0.5157  0.0125
  269MPD2    H5 4128   3.724   2.918  15.652  0.3906  0.3458  0.2197
  269MPD2    N1 4129   3.768   2.446  15.528  0.4169  0.1298  0.1012
  269MPD2    H7 4130   3.764   2.372  15.458 -0.2574  0.6716 -0.4333
  270TMC3    C1 4131   3.756   2.275  15.681 -0.4847  0.9489 -0.7848
  270TMC3    C2 4132   3.656   2.217  15.610  0.5979 -0.0984  0.3415
  270TMC3    C3 4133   3.620   2.084  15.645 -0.5399  0.5060  0.0558
  270TMC3    C4 4134   3.836   2.204  15.767  0.3068  0.3705 -0.0879
  270TMC3    C5 4135   3.816   2.067  15.771 -0.1774  0.1217 -0.2011
  270TMC3    C6 4136   3.705   2.008  15.716  0.4038 -0.3344 -0.6996
  270TMC3     C 4137   3.773   2.419  15.662 -0.0166 -1.1307  0.1316
  270TMC3     O 4138   3.821   2.489  15.749  0.1497  0.7250 -0.2765
  270TMC3     H 4139   3.597   2.271  15.536  1.8695 -0.6014 -1.0258
  270TMC3    H1 4140   3.911   2.255  15.826  2.4632 -1.2013 -1.5146
  270TMC3    H2 4141   3.670   1.909  15.742 -0.6074  0.5206  1.2570
  270TMC3    C7 4142   3.936   1.991  15.761  0.1834  0.4364 -0.2135
  270TMC3    C8 4143   3.584   2.009  15.528 -0.5144  0.3460 -0.8820
  270TMC3    O1 4144   4.030   2.015  15.839  0.7561  0.1188 -0.3319
  270TMC3    O2 4145   3.655   1.910  15.508  0.1426 -0.0034 -0.0802
  271MPD2     C 4146   3.385   1.600  13.690 -0.3234 -0.8687 -0.7572
  271MPD2    C1 4147   3.351   1.683  13.801 -0.8709  0.3225 -1.1208
  271MPD2    C2 4148   3.250   1.771  13.786  0.3076 -0.2457 -0.0445
  271MPD2    C3 4149   3.184   1.782  13.665  0.4355  0.3075 -0.3519
  271MPD2    C4 4150   3.213   1.699  13.556  0.3756  0.0301 -0.0970
  271MPD2    C5 4151   3.316   1.607  13.573 -0.8207 -0.2995 -0.2864
  271MPD2     H 4152   3.233   1.835  13.872  2.7450  0.3371 -0.0205
  271MPD2    H1 4153   3.155   1.705  13.464  1.3475  0.9513 -0.6500
  271MPD2    H2 4154   3.467   1.529  13.694 -0.5183 -1.0626 -0.1928
  271MPD2    H3 4155   3.352   1.538  13.498 -1.7129 -1.8992  0.7444
  271MPD2     N 4156   3.089   1.882  13.640  0.1796 -0.0606  0.0826
  271MPD2    H5 4157   3.036   1.886  13.553  0.6573  0.5013 -0.1851
  271MPD2    N1 4158   3.417   1.690  13.923  0.5880  0.3904 -0.5575
  271MPD2    H7 4159   3.379   1.745  13.999  1.2169 -0.8640  0.6517
  272TMC3    C1 4160   3.559   1.639  14.098 -0.2230  0.5898  0.5083
  272TMC3    C2 4161   3.682   1.598  14.133  0.5797  0.2096  0.1409
  272TMC3    C3 4162   3.708   1.585  14.268  0.0999 -0.1251 -0.6325
  272TMC3    C4 4163   3.451   1.634  14.186  0.1571  0.5100  0.1063
  272TMC3    C5 4164   3.483   1.619  14.318 -0.3762 -0.4374  0.8186
  272TMC3    C6 4165   3.609   1.594  14.363 -0.2564 -0.6246  0.1998
  272TMC3     C 4166   3.536   1.623  13.955  0.0411 -0.2870  0.1360
  272TMC3     O 4167   3.603   1.547  13.887 -0.1571  0.3886 -0.7409
  272TMC3     H 4168   3.761   1.603  14.058  0.6122  0.1949  0.1743
  272TMC3    H1 4169   3.347   1.652  14.161  0.4555 -0.4122 -1.7539
  272TMC3    H2 4170   3.621   1.581  14.470 -1.2702 -1.6219  0.1939
  272TMC3    C7 4171   3.379   1.625  14.410  0.3201 -0.8375  0.4656
  272TMC3    C8 4172   3.841   1.574  14.309 -0.6100 -0.5987  0.9634
  272TMC3    O1 4173   3.269   1.580  14.386 -0.3485 -0.0606 -0.0847
  272TMC3    O2 4174   3.918   1.622  14.227 -0.4161  0.9285  0.0161
  273MPD2     C 4175   0.116   4.666  11.732  0.3027 -0.5350 -0.2001
  273MPD2    C1 4176   0.220   0.010  11.692 -0.4494 -0.7388 -0.1886
  273MPD2    C2 4177   0.261   0.010  11.559  0.0127  0.1960 -0.6982
  273MPD2    C3 4178   0.205   4.656  11.474 -0.3760  0.6484  0.0399
  273MPD2    C4 4179   0.098   4.582  11.509 -0.8860 -0.0994  1.0623
  273MPD2    C5 4180   0.054   4.584  11.639  0.7396  0.1151  0.3258
  273MPD2     H 4181   0.336   0.079  11.522  1.4278 -1.0614 -0.1766
  273MPD2    H1 4182   0.055   4.515  11.435 -2.0550 -0.1331  1.7674
  273MPD2    H2 4183   0.079   4.670  11.834 -2.4452  0.3194 -1.2208
  273MPD2    H3 4184   4.705   4.529  11.675  1.4217 -1.3663 -0.3064
  273MPD2     N 4185   0.244   4.662  11.342  0.1337  0.0032  0.4017
  273MPD2    H5 4186   0.324   4.721  11.321  0.9206 -1.1246  0.1768
  273MPD2    N1 4187   0.272   0.099  11.788  0.3634 -0.4934  0.4751
  273MPD2    H7 4188   0.219   0.091  11.874 -0.7045 -2.6687 -0.4019
  274TMC3    C1 4189   0.255   4.674  11.122 -0.2686 -0.0217  0.0435
  274TMC3    C2 4190   0.161   4.701  11.025  0.2662  1.1268 -0.4211
  274TMC3    C3 4191   0.152   0.096  10.994  0.1205  0.5555 -0.4055
  274TMC3    C4 4192   0.363   0.024  11.147  0.1214 -0.6808 -0.8157
  274TMC3    C5 4193   0.345   0.149  11.100 -1.1538  0.8772 -0.5101
  274TMC3    C6 4194   0.237   0.195  11.036  0.2187  0.0157  0.5013
  274TMC3     C 4195   0.192   4.604  11.231  0.0318 -0.0126 -0.3527
  274TMC3     O 4196   0.097   4.531  11.213  0.2756 -0.2786 -0.2111
  274TMC3     H 4197   0.079   4.637  10.994  1.5427 -0.9994  0.5784
  274TMC3    H1 4198   0.454   4.737  11.200  0.7642 -0.4120 -1.7885
  274TMC3    H2 4199   0.220   0.293  10.992 -1.0009 -0.3096  0.2582
  274TMC3    C7 4200   0.415   0.244  11.175  0.1418 -0.3040 -0.1041
  274TMC3    C8 4201   0.039   0.139  10.916  0.3298  0.4295 -0.1070
  274TMC3    O1 4202   0.527   0.266  11.140  0.4672 -0.2928 -0.1751
  274TMC3    O2 4203   0.002   0.249  10.959 -0.3146  0.7712  0.0330
  275MPD2     C 4204   4.479   3.259  14.237 -0.0401  0.1678  0.2216
  275MPD2    C1 4205   4.521   3.133  14.286 -0.1251 -0.3780 -0.3798
  275MPD2    C2 4206   4.434   3.025  14.282 -1.1536  0.2000 -0.2797
  275MPD2    C3 4207   4.309   3.042  14.232  0.9721 -0.1829  0.4543
  275MPD2    C4 4208   4.276   3.162  14.174  0.2773 -0.3016 -0.0754
  275MPD2    C5 4209   4.357   3.269  14.176  0.1922  0.7198 -0.3307
  275MPD2     H 4210   4.468   2.933  14.329 -0.7337  1.1411  1.2517
  275MPD2    H1 4211   4.178   3.184  14.136  0.8240  0.4819 -1.0255
  275MPD2    H2 4212   4.539   3.349  14.241 -0.3027  0.2297  2.4935
  275MPD2    H3 4213   4.324   3.364  14.136  0.3282  1.6763  1.8148
  275MPD2     N 4214   4.202   2.947  14.228 -0.2201 -0.6026 -0.1991
  275MPD2    H5 4215   4.112   2.984  14.199  0.5473  3.2816  2.2778
  275MPD2    N1 4216   4.640   3.123  14.365  0.1879  0.4612  0.5090
  275MPD2    H7 4217   4.645   3.033  14.412 -1.7554  0.0528 -0.0494
  276TMC3    C1 4218   0.073   3.198  14.516 -0.0923  0.0825  0.1392
  276TMC3    C2 4219   4.736   3.112  14.601 -0.2690 -0.1644 -0.7690
  276TMC3    C3 4220   4.733   3.154  14.732 -0.1470 -0.3629 -0.3166
  276TMC3    C4 4221   0.145   3.307  14.560  0.0059 -0.8063 -0.1150
  276TMC3    C5 4222   0.135   3.341  14.688  0.3701  0.5263  0.0111
  276TMC3    C6 4223   0.054   3.269  14.772 -0.1148 -0.0427  0.0478
  276TMC3     C 4224   0.002   3.220  14.383 -0.1187  0.8445  0.0351
  276TMC3     O 4225   0.014   3.325  14.326 -0.3316  0.1531  0.3724
  276TMC3     H 4226   4.685   3.020  14.577  0.8281 -1.0228  0.1992
  276TMC3    H1 4227   0.211   3.364  14.495  0.3808 -1.3159 -0.1781
  276TMC3    H2 4228   0.055   3.303  14.875 -0.9812 -0.8221  0.3117
  276TMC3    C7 4229   0.239   3.422  14.747  0.0268  0.4231  0.5383
  276TMC3    C8 4230   4.635   3.089  14.826  0.8644  0.6667 -0.1645
  276TMC3    O1 4231   0.272   3.379  14.858  0.1425 -0.2761  0.3246
  276TMC3    O2 4232   4.571   3.164  14.902 -0.4481 -0.0524  0.4648
  277MPD2     C 4233   1.350   2.116  13.045  0.0606 -0.2415 -0.3027
  277MPD2    C1 4234   1.326   2.175  13.170 -0.6481 -0.1490  0.6309
  277MPD2    C2 4235   1.339   2.092  13.281 -0.2734  0.3143  0.2236
  277MPD2    C3 4236   1.386   1.967  13.269  0.1087  0.6718 -0.0826
  277MPD2    C4 4237   1.432   1.925  13.147  0.1905  0.3480 -0.4000
  277MPD2    C5 4238   1.415   1.997  13.034  0.0664  0.3245 -0.0856
  277MPD2     H 4239   1.319   2.121  13.384  0.2222  0.2519  0.3383
  277MPD2    H1 4240   1.479   1.828  13.139  0.8420  0.5718  0.6960
  277MPD2    H2 4241   1.330   2.174  12.956 -3.3390  1.8202  1.8284
  277MPD2    H3 4242   1.444   1.953  12.939  0.0414 -0.1388  0.1195
  277MPD2     N 4243   1.388   1.887  13.390  0.0330  0.3173  0.0057
  277MPD2    H5 4244   1.363   1.934  13.476  1.4875 -1.8184  1.5679
  277MPD2    N1 4245   1.292   2.312  13.171  0.7093 -0.0212  0.5506
  277MPD2    H7 4246   1.301   2.357  13.080  1.4770 -0.9837  0.1527
  278TMC3    C1 4247   1.415   1.689  13.525 -0.7676  0.2816  1.0041
  278TMC3    C2 4248   1.468   1.568  13.543 -0.5660 -0.2340 -0.5723
  278TMC3    C3 4249   1.422   1.500  13.649 -0.0054 -0.0058  0.1796
  278TMC3    C4 4250   1.324   1.751  13.606 -0.5444  0.1135  0.2664
  278TMC3    C5 4251   1.271   1.670  13.703 -0.2365  0.4050  0.5613
  278TMC3    C6 4252   1.328   1.549  13.734 -0.4791  0.0945  0.7336
  278TMC3     C 4253   1.436   1.758  13.394  0.4383 -0.0927 -0.7565
  278TMC3     O 4254   1.500   1.694  13.309 -0.1340  0.3029  0.2629
  278TMC3     H 4255   1.537   1.521  13.473  0.7260 -2.4642  2.1995
  278TMC3    H1 4256   1.269   1.841  13.581 -0.0493  0.6481  1.1012
  278TMC3    H2 4257   1.296   1.496  13.823 -0.0206  0.1051  0.9033
  278TMC3    C7 4258   1.206   1.739  13.808 -0.2463 -0.3534  0.1928
  278TMC3    C8 4259   1.413   1.355  13.639  0.0338  0.4761  0.0506
  278TMC3    O1 4260   1.216   1.861  13.822  0.5710 -0.6913  0.3983
  278TMC3    O2 4261   1.388   1.294  13.739  0.2899  0.4232  0.7417
  279MPD2     C 4262   0.227   2.449   0.170  0.4361 -0.2060  1.2330
  279MPD2    C1 4263   0.252   2.338   0.095  0.0527  0.6799  0.3525
  279MPD2    C2 4264   0.299   2.347  17.717 -0.2786 -0.3800 -0.3431
  279MPD2    C3 4265   0.329   2.470  17.666 -0.6403  0.5137 -0.1695
  279MPD2    C4 4266   0.294   2.583  17.737  0.4260 -0.4703  0.5477
  279MPD2    C5 4267   0.248   2.573   0.115  0.0962  0.9660  0.5291
  279MPD2     H 4268   0.307   2.253  17.665 -0.5396 -1.2145  1.1392
  279MPD2    H1 4269   0.312   2.679  17.691  0.6933 -0.3684  0.8581
  279MPD2    H2 4270   0.186   2.452   0.271 -1.6112  0.2882  0.3714
  279MPD2    H3 4271   0.228   2.660   0.177  0.7587  1.3639  0.1939
  279MPD2     N 4272   0.391   2.488  17.540 -0.7477 -0.0849 -0.4896
  279MPD2    H5 4273   0.411   2.585  17.522 -0.4747 -0.1700 -0.6446
  279MPD2    N1 4274   0.219   2.217   0.160 -0.4790  0.5305 -1.2623
  279MPD2    H7 4275   0.174   2.242   0.247  0.9332  1.0576 -0.6869
  280TMC3    C1 4276   0.202   1.990   0.224  0.5641  0.0629  0.0318
  280TMC3    C2 4277   0.293   1.918   0.299  0.3608 -0.0758  0.1504
  280TMC3    C3 4278   0.239   1.848   0.401 -0.0457 -0.2723  0.1959
  280TMC3    C4 4279   0.074   1.991   0.260 -0.0498 -0.0931  0.1520
  280TMC3    C5 4280   0.025   1.928   0.365 -0.3032 -0.1074 -0.3165
  280TMC3    C6 4281   0.110   1.847   0.437  0.3816  0.0461  0.5801
  280TMC3     C 4282   0.261   2.091   0.134  0.1463  0.2405  0.0461
  280TMC3     O 4283   0.352   2.066   0.055  0.7353 -0.5727 -0.2852
  280TMC3     H 4284   0.395   1.911   0.266 -0.3813 -1.3925 -1.8236
  280TMC3    H1 4285   0.017   2.049   0.188  0.9530 -2.4236 -2.5046
  280TMC3    H2 4286   0.081   1.812   0.536 -1.4334  2.2812  0.8321
  280TMC3    C7 4287   4.676   2.007   0.451  0.3184  0.2231 -0.1596
  280TMC3    C8 4288   0.334   1.772   0.481 -0.9354 -0.0907 -0.1047
  280TMC3    O1 4289   4.702   2.005   0.571  0.2689 -0.1372 -0.9141
  280TMC3    O2 4290   0.452   1.787   0.454 -0.0175  0.0522 -0.2005
  281TMC3    C1 4291   0.015   2.514  13.628 -0.2559 -0.3319 -0.1960
  281TMC3    C2 4292   0.111   2.458  13.553  0.2847  0.0675 -0.2609
  281TMC3    C3 4293   0.074   2.346  13.484 -0.1647  0.8090  0.4356
  281TMC3    C4 4294   4.632   2.457  13.644 -0.0274  0.4382 -0.3212
  281TMC3    C5 4295   4.618   2.325  13.601  0.9110  0.0405  0.4578
  281TMC3    C6 4296   4.702   2.274  13.510 -0.1305 -1.4908 -0.6977
  281TMC3     C 4297   0.037   2.648  13.670  0.7536  0.0927 -0.2671
  281TMC3     O 4298   0.153   2.680  13.678  0.1343 -0.6261  0.3151
  281TMC3     H 4299   0.211   2.498  13.545  1.1564 -1.5177  2.9736
  281TMC3    H1 4300   4.559   2.501  13.711 -0.1926 -2.3582  1.3204
  281TMC3    H2 4301   4.676   2.179  13.464  0.9253 -1.8387 -0.5869
  281TMC3    C7 4302   4.477   2.280  13.602 -0.3512  0.2955  0.2602
  281TMC3    C8 4303   0.084   2.366  13.344 -0.7576 -0.0881 -0.6122
  281TMC3    O1 4304   4.392   2.362  13.573  0.8779 -0.2618  0.6241
  281TMC3    O2 4305   0.037   2.281  13.269 -0.0103  0.3995  0.0324
  282MPD2     C 4306   1.744   3.546  15.507 -0.3564  0.4701 -0.0787
  282MPD2    C1 4307   1.610   3.559  15.534 -0.3573  0.1635  0.0477
  282MPD2    C2 4308   1.524   3.564  15.425  0.1177 -0.3154 -0.2695
  282MPD2    C3 4309   1.564   3.540  15.295  0.3028  0.8747 -0.0310
  282MPD2    C4 4310   1.694   3.499  15.277  0.7319 -0.2833  0.1030
  282MPD2    C5 4311   1.780   3.518  15.380 -0.1398  0.1095  0.2288
  282MPD2     H 4312   1.421   3.589  15.448  0.0730 -1.6208  0.9786
  282MPD2    H1 4313   1.730   3.469  15.179 -1.4491  0.8870 -1.0605
  282MPD2    H2 4314   1.819   3.532  15.583 -0.2175 -1.0393 -0.4793
  282MPD2    H3 4315   1.887   3.504  15.363 -0.4610 -2.1730  0.1154
  282MPD2     N 4316   1.468   3.550  15.196 -0.0594 -0.1924 -0.2207
  282MPD2    H5 4317   1.377   3.583  15.226 -0.5486 -3.0320  1.4268
  282MPD2    N1 4318   1.557   3.578  15.656 -0.4159 -0.0882 -0.0192
  282MPD2    H7 4319   1.458   3.596  15.652 -0.6833 -1.8244 -1.4160
  283TMC3    C1 4320   1.532   3.637  15.889  0.1037  1.0769 -0.4589
  283TMC3    C2 4321   1.551   3.756  15.959  0.3944  0.0307 -0.0942
  283TMC3    C3 4322   1.483   3.760  16.084  0.2038 -0.0997 -0.3582
  283TMC3    C4 4323   1.444   3.539  15.937 -0.2710  0.2237 -0.3476
  283TMC3    C5 4324   1.371   3.563  16.054 -0.0059 -0.1706 -0.8624
  283TMC3    C6 4325   1.398   3.669  16.142 -0.5093  0.5109 -0.8018
  283TMC3     C 4326   1.628   3.614  15.773  0.5869 -0.3780 -0.0767
  283TMC3     O 4327   1.736   3.670  15.778  0.1433 -0.1509  0.4432
  283TMC3     H 4328   1.621   3.830  15.920  0.2800  0.3357  0.2822
  283TMC3    H1 4329   1.424   3.461  15.866 -2.8135  2.1383 -1.7259
  283TMC3    H2 4330   1.326   3.699  16.217  0.0242 -0.0953 -0.0482
  283TMC3    C7 4331   1.240   3.500  16.080  0.0865 -0.0700 -0.1027
  283TMC3    C8 4332   1.469   3.902  16.125 -0.2267 -0.0140 -0.4215
  283TMC3    O1 4333   1.170   3.554  16.164 -0.5725 -0.1218 -0.0851
  283TMC3    O2 4334   1.426   3.918  16.242 -0.1262 -0.0370  0.3286
  284MPD2     C 4335   3.884   2.655  11.627 -0.1542 -0.2122 -0.8748
  284MPD2    C1 4336   4.021   2.661  11.632  0.6737 -0.6217 -0.3501
  284MPD2    C2 4337   4.088   2.555  11.677 -0.9658 -0.5046  0.6874
  284MPD2    C3 4338   4.026   2.442  11.721 -0.6003 -0.3827 -0.1363
  284MPD2    C4 4339   3.891   2.433  11.714  0.5599 -0.0258 -0.3183
  284MPD2    C5 4340   3.820   2.540  11.668  0.3128  0.0837 -0.0384
  284MPD2     H 4341   4.197   2.558  11.680 -0.8676 -1.7155 -1.7930
  284MPD2    H1 4342   3.839   2.351  11.762 -1.2942  0.3155 -1.7481
  284MPD2    H2 4343   3.832   2.748  11.605  0.1920 -0.0824 -1.1475
  284MPD2    H3 4344   3.711   2.544  11.673  0.3365  0.9847 -0.3596
  284MPD2     N 4345   4.115   2.351  11.783 -0.4589 -0.1359  0.4320
  284MPD2    H5 4346   4.213   2.376  11.779 -0.3529 -0.9750 -1.6343
  284MPD2    N1 4347   4.100   2.771  11.583  0.8524  0.1976 -0.1132
  284MPD2    H7 4348   4.200   2.757  11.581  0.5074 -2.6307  2.3656
  285TMC3    C1 4349   4.162   2.981  11.508 -0.7531  0.2948 -0.4121
  285TMC3    C2 4350   4.284   2.921  11.486  0.5808  0.0020 -0.1846
  285TMC3    C3 4351   4.398   2.996  11.488 -0.2614  0.2667 -0.2117
  285TMC3    C4 4352   4.156   3.108  11.566 -0.2411 -0.1166  0.6937
  285TMC3    C5 4353   4.273   3.172  11.572  0.0289  0.3809  0.2184
  285TMC3    C6 4354   4.397   3.123  11.539  0.1201  0.1896 -0.5772
  285TMC3     C 4355   4.048   2.894  11.540  0.3574 -0.3113 -0.2051
  285TMC3     O 4356   3.950   2.949  11.582 -0.3795 -0.4816 -0.1559
  285TMC3     H 4357   4.284   2.829  11.428 -0.0602 -0.5455  0.6918
  285TMC3    H1 4358   4.057   3.153  11.569  0.5672  1.7279 -0.3112
  285TMC3    H2 4359   4.484   3.188  11.538  0.2918 -0.0343  1.1822
  285TMC3    C7 4360   4.274   3.315  11.572  0.2920  0.5255  0.6923
  285TMC3    C8 4361   4.518   2.933  11.448 -0.1796 -0.2511 -0.2278
  285TMC3    O1 4362   4.366   3.369  11.631  0.2595  0.2429  0.3302
  285TMC3    O2 4363   4.508   2.813  11.414 -0.6581  0.7154 -0.3903
  286MPD2     C 4364   4.069   1.144   1.724  0.1629 -0.0249  0.0199
  286MPD2    C1 4365   4.104   1.238   1.626 -0.1099  0.3058 -0.2978
  286MPD2    C2 4366   4.231   1.252   1.576 -0.1886 -0.1663  0.1675
  286MPD2    C3 4367   4.334   1.171   1.622  0.0143 -0.5849 -0.0028
  286MPD2    C4 4368   4.302   1.086   1.728  0.2348  0.1140  0.5868
  286MPD2    C5 4369   4.171   1.075   1.780  0.7159 -0.0524  1.0404
  286MPD2     H 4370   4.249   1.326   1.499  1.6567 -0.7631  0.0131
  286MPD2    H1 4371   4.370   1.019   1.780  1.6572  2.0492  1.2167
  286MPD2    H2 4372   3.972   1.122   1.767 -0.2911  1.3174 -0.3069
  286MPD2    H3 4373   4.158   1.005   1.862  1.6370 -1.3970  0.0572
  286MPD2     N 4374   4.455   1.160   1.546  0.1174 -0.3798  0.0315
  286MPD2    H5 4375   4.523   1.096   1.586  0.4785 -1.0511 -1.6548
  286MPD2    N1 4376   4.004   1.321   1.563  0.1015 -0.1040  0.9550
  286MPD2    H7 4377   4.041   1.372   1.484  0.0931 -0.4827  0.7037
  287TMC3    C1 4378   4.589   1.154   1.351  0.5384 -0.3144  0.3506
  287TMC3    C2 4379   4.579   1.133   1.214  0.3421  0.0831 -0.2008
  287TMC3    C3 4380   4.687   1.084   1.145  0.1515  0.1502  0.0731
  287TMC3    C4 4381   4.709   1.141   1.412  0.5265  0.0192 -0.3641
  287TMC3    C5 4382   0.074   1.089   1.334  0.1793  0.0028 -1.0250
  287TMC3    C6 4383   0.065   1.060   1.201  0.3960  0.0104  0.6453
  287TMC3     C 4384   4.472   1.219   1.423 -0.0816 -0.0866  0.1120
  287TMC3     O 4385   4.401   1.267   1.334 -0.0388 -0.2732  0.4968
  287TMC3     H 4386   4.489   1.152   1.156  0.3090  0.0305 -0.1665
  287TMC3    H1 4387   4.728   1.169   1.515 -0.2844 -0.7761 -0.0077
  287TMC3    H2 4388   0.151   1.029   1.142 -0.2376 -1.1857  0.3450
  287TMC3    C7 4389   0.205   1.069   1.406  0.2428  0.1937  0.0797
  287TMC3    C8 4390   4.680   1.082   0.998  0.5780  0.1398 -0.5725
  287TMC3    O1 4391   0.218   1.123   1.512  0.2942 -0.2414 -0.3751
  287TMC3    O2 4392   4.571   1.084   0.945 -0.1397  0.3772 -0.2286
  288TMC3    C1 4393   1.852   1.309  14.385 -0.4239 -0.2376  0.2273
  288TMC3    C2 4394   1.768   1.304  14.489  0.0107 -0.0648 -0.6255
  288TMC3    C3 4395   1.674   1.398  14.510  0.3605  0.4495 -0.0891
  288TMC3    C4 4396   1.841   1.402  14.283 -0.5566  0.1967 -0.6726
  288TMC3    C5 4397   1.750   1.504  14.316  0.2440 -0.0868 -0.0817
  288TMC3    C6 4398   1.668   1.500  14.423 -0.5258  0.1302  0.8092
  288TMC3     C 4399   1.965   1.223  14.375  0.5568 -0.7336  0.4477
  288TMC3     O 4400   1.995   1.201  14.258 -0.8332 -0.4306 -0.3130
  288TMC3     H 4401   1.775   1.214  14.549  0.0760 -0.1160 -0.7086
  288TMC3    H1 4402   1.914   1.411  14.203  0.2354  0.8754  0.1303
  288TMC3    H2 4403   1.601   1.580  14.452  0.5995  1.4374 -0.1634
  288TMC3    C7 4404   1.701   1.575  14.204 -0.1059 -0.3245 -0.0637
  288TMC3    C8 4405   1.613   1.417  14.638 -0.7594 -0.3417  0.3171
  288TMC3    O1 4406   1.582   1.603  14.204  0.0753 -0.1925 -0.0785
  288TMC3    O2 4407   1.614   1.535  14.676  0.2712  0.1097 -0.5416
  289MPD2     C 4408   1.765   0.518  14.889 -0.3849  0.1543 -0.2820
  289MPD2    C1 4409   1.771   0.591  14.770  0.3481 -0.2827  0.9759
  289MPD2    C2 4410   1.649   0.622  14.703 -0.4382  0.1771  0.0791
  289MPD2    C3 4411   1.524   0.580  14.754 -0.6995 -0.6787  0.3609
  289MPD2    C4 4412   1.522   0.494  14.859  0.2483 -0.2248 -0.3229
  289MPD2    C5 4413   1.641   0.469  14.925  0.2191 -0.0988 -0.1105
  289MPD2     H 4414   1.649   0.686  14.616  0.5454  1.0755  0.7406
  289MPD2    H1 4415   1.427   0.459  14.899  2.1119 -1.8758  2.7073
  289MPD2    H2 4416   1.858   0.485  14.935 -0.1083  1.4210  0.0599
  289MPD2    H3 4417   1.634   0.426  15.024 -2.0117  1.4230  0.3897
  289MPD2     N 4418   1.401   0.615  14.691  0.4256 -0.7868 -0.2894
  289MPD2    H5 4419   1.315   0.569  14.721  0.7368 -0.9774  0.3122
  289MPD2    N1 4420   1.897   0.626  14.721 -0.2593 -0.4190  0.4649
  289MPD2    H7 4421   1.981   0.596  14.771 -0.2800  2.1514  2.0477
  290TMC3    C1 4422   1.255   0.714  14.537  0.5575  0.2672 -0.2756
  290TMC3    C2 4423   1.226   0.838  14.480 -0.0640  0.6623 -0.0961
  290TMC3    C3 4424   1.175   0.830  14.350  0.3364 -0.3804 -0.5149
  290TMC3    C4 4425   1.209   0.599  14.481  0.2580 -0.1703  0.7667
  290TMC3    C5 4426   1.143   0.593  14.363  0.2993 -0.2123 -0.8132
  290TMC3    C6 4427   1.137   0.714  14.293 -0.5309  0.1668  0.4420
  290TMC3     C 4428   1.385   0.710  14.592  0.6519 -0.3784  0.1038
  290TMC3     O 4429   1.459   0.805  14.559  1.0213  0.3255 -0.2386
  290TMC3     H 4430   1.275   0.925  14.524 -0.3196 -0.0410  1.5951
  290TMC3    H1 4431   1.235   0.508  14.535 -1.6446 -1.5748 -0.6966
  290TMC3    H2 4432   1.100   0.721  14.191  1.3244 -2.7456 -0.4186
  290TMC3    C7 4433   1.056   0.480  14.330  0.1840  0.4821 -0.8648
  290TMC3    C8 4434   1.194   0.944  14.266  0.3284 -0.7965  0.2367
  290TMC3    O1 4435   0.965   0.530  14.261 -0.2432  0.3916  0.2555
  290TMC3    O2 4436   1.176   0.936  14.146  0.1693 -0.2916  0.0470
  291MPD2     C 4437   0.236   0.219   0.271  0.9582  0.5655  0.0912
  291MPD2    C1 4438   0.228   0.132   0.379 -0.1184  0.2446  0.1835
  291MPD2    C2 4439   0.340   0.130   0.462  0.0829 -0.1412  0.9352
  291MPD2    C3 4440   0.448   0.212   0.443 -0.2739  0.4081 -0.2241
  291MPD2    C4 4441   0.455   0.296   0.329 -0.5632  0.5284  0.1328
  291MPD2    C5 4442   0.347   0.296   0.241 -1.0318  0.7029  0.2676
  291MPD2     H 4443   0.331   0.083   0.560 -1.2714 -0.6522  0.5622
  291MPD2    H1 4444   0.536   0.366   0.311 -0.5156  0.1877 -0.9330
  291MPD2    H2 4445   0.156   0.234   0.200 -0.3083  0.4644  1.4833
  291MPD2    H3 4446   0.355   0.361   0.154 -0.8175  0.4897  0.1278
  291MPD2     N 4447   0.563   0.204   0.522  0.4805 -0.2112  0.1428
  291MPD2    H5 4448   0.646   0.253   0.491  0.4009 -1.2270 -1.6361
  291MPD2    N1 4449   0.117   0.048   0.410 -0.5920  0.0092  0.3700
  291MPD2    H7 4450   0.127   4.723   0.489  3.0724  0.1097 -0.0386
  292TMC3    C1 4451   4.674   4.654   0.370 -0.3402 -0.6533  0.2154
  292TMC3    C2 4452   4.618   4.650   0.497 -0.6902 -0.4634 -0.6629
  292TMC3    C3 4453   4.545   4.538   0.534 -0.8851  0.0605  0.0869
  292TMC3    C4 4454   4.634   4.564   0.272 -0.4288  0.9235  0.1865
  292TMC3    C5 4455   4.548   4.465   0.309 -0.1073 -0.0198 -0.0064
  292TMC3    C6 4456   4.507   4.446   0.440 -0.4646 -0.2640 -0.1984
  292TMC3     C 4457   0.013   0.031   0.327  0.3065 -0.3550 -0.6357
  292TMC3     O 4458   4.712   0.093   0.227  0.1954  0.0188 -0.2363
  292TMC3     H 4459   4.648   4.713   0.580  1.4817 -1.4470 -0.7034
  292TMC3    H1 4460   4.684   4.561   0.175 -0.6419  0.8465  0.0802
  292TMC3    H2 4461   4.442   4.362   0.463 -0.5762 -0.3656 -0.8921
  292TMC3    C7 4462   4.540   4.353   0.223  0.8584  0.3521  0.2380
  292TMC3    C8 4463   4.476   4.550   0.660 -0.7200  0.4977  0.4356
  292TMC3    O1 4464   4.616   4.350   0.126 -0.2218 -0.0300  0.2223
  292TMC3    O2 4465   4.471   4.653   0.722  0.2203 -0.0283 -0.4369
  293MPD2     C 4466   2.383   1.919  12.470 -0.0337 -0.3563 -0.5864
  293MPD2    C1 4467   2.336   1.817  12.543 -0.2364 -0.0832 -0.6799
  293MPD2    C2 4468   2.398   1.786  12.666 -0.1971 -0.2881 -0.0375
  293MPD2    C3 4469   2.488   1.873  12.721 -0.2784  1.0827  0.1477
  293MPD2    C4 4470   2.527   1.983  12.652  0.0024  0.0121 -0.4808
  293MPD2    C5 4471   2.483   1.998  12.524 -0.7685 -0.0584 -0.2982
  293MPD2     H 4472   2.379   1.703  12.733 -0.3360 -0.6272 -0.5027
  293MPD2    H1 4473   2.593   2.059  12.690 -2.0064  0.7390  1.5604
  293MPD2    H2 4474   2.352   1.934  12.367 -0.8838 -0.2370 -0.3099
  293MPD2    H3 4475   2.523   2.080  12.467 -0.1988 -0.7319 -0.8675
  293MPD2     N 4476   2.544   1.833  12.838 -0.0913 -0.0389 -0.1018
  293MPD2    H5 4477   2.502   1.756  12.888 -0.3587  0.1483 -0.0373
  293MPD2    N1 4478   2.254   1.723  12.471  0.1438  0.3595 -0.4713
  293MPD2    H7 4479   2.238   1.757  12.377  1.3490  0.0857 -0.7765
  294TMC3    C1 4480   2.119   1.551  12.408  1.1690  0.2399  0.1125
  294TMC3    C2 4481   1.998   1.498  12.445  0.0509 -0.6588 -0.5466
  294TMC3    C3 4482   1.941   1.419  12.348  0.4702  0.3072  0.2193
  294TMC3    C4 4483   2.186   1.519  12.296  0.8915  0.0402  0.7990
  294TMC3    C5 4484   2.131   1.425  12.215 -0.0457  0.1471  0.2776
  294TMC3    C6 4485   2.011   1.376  12.238  0.5691  0.1051 -0.8728
  294TMC3     C 4486   2.191   1.610  12.518 -0.1082  0.7358  0.1318
  294TMC3     O 4487   2.184   1.555  12.629  0.1943  0.4576 -0.4391
  294TMC3     H 4488   1.948   1.511  12.540  1.4313 -1.7118  0.3194
  294TMC3    H1 4489   2.290   1.546  12.285  0.9465  0.6662  2.7703
  294TMC3    H2 4490   1.959   1.322  12.160  1.4244 -1.9627 -0.0170
  294TMC3    C7 4491   2.194   1.390  12.086  0.1113 -0.3948 -0.0775
  294TMC3    C8 4492   1.819   1.344  12.372  0.3794 -0.0220 -0.1937
  294TMC3    O1 4493   2.162   1.277  12.048  0.1238 -0.4075  0.1983
  294TMC3    O2 4494   1.735   1.401  12.444 -0.3025  0.4911  0.1481
  295MPD2     C 4495   3.059   1.089   1.258  0.0955 -0.5013  0.2151
  295MPD2    C1 4496   3.066   0.970   1.187 -0.5595  0.2235 -0.2853
  295MPD2    C2 4497   3.037   0.856   1.253 -0.5509  0.6773 -0.3535
  295MPD2    C3 4498   3.000   0.853   1.388  0.0087  0.8078  0.0238
  295MPD2    C4 4499   2.982   0.972   1.458 -0.0485 -0.0998 -0.0348
  295MPD2    C5 4500   3.009   1.088   1.387 -0.5396 -0.2520 -0.4716
  295MPD2     H 4501   3.030   0.764   1.196  0.9636  0.8846 -0.8504
  295MPD2    H1 4502   2.951   0.978   1.562 -1.6788  4.0556 -0.7381
  295MPD2    H2 4503   3.077   1.185   1.211 -1.1390 -0.5402 -0.3356
  295MPD2    H3 4504   3.000   1.188   1.428 -0.8164 -1.0605  1.4175
  295MPD2     N 4505   2.958   0.734   1.450 -0.0061 -0.6973  0.0972
  295MPD2    H5 4506   2.916   0.732   1.543  1.4427 -1.2889  0.7258
  295MPD2    N1 4507   3.099   0.966   1.051 -0.1701  0.1648  0.3500
  295MPD2    H7 4508   3.105   0.876   1.004 -0.2177 -0.1942  1.0340
  296TMC3    C1 4509   2.907   0.507   1.474 -0.1384 -0.9991  1.2534
  296TMC3    C2 4510   2.766   0.529   1.502 -0.2885  0.5379 -0.1920
  296TMC3    C3 4511   2.691   0.418   1.526 -0.4485  0.2852 -0.0020
  296TMC3    C4 4512   2.958   0.379   1.473  0.2475 -0.2525  0.8039
  296TMC3    C5 4513   2.878   0.272   1.503  0.5239 -0.1253  0.2174
  296TMC3    C6 4514   2.743   0.292   1.534 -0.4179  0.4195 -0.3389
  296TMC3     C 4515   2.985   0.604   1.409  0.0984  0.4888  0.5518
  296TMC3     O 4516   3.031   0.565   1.304 -0.4390 -0.1626  0.1469
  296TMC3     H 4517   2.721   0.626   1.520 -0.6892  0.1897  0.6672
  296TMC3    H1 4518   3.059   0.355   1.442 -0.0616  0.0475 -0.4105
  296TMC3    H2 4519   2.685   0.202   1.552  0.7368 -0.2017  0.2718
  296TMC3    C7 4520   2.941   0.135   1.499  0.6825 -0.0720  0.1678
  296TMC3    C8 4521   2.548   0.430   1.510  0.0138 -1.2814 -0.3961
  296TMC3    O1 4522   3.051   0.130   1.450  0.3688  0.4249 -0.3558
  296TMC3    O2 4523   2.482   0.331   1.551 -0.0825 -0.5709 -0.0032
  297MPD2     C 4524   0.263   2.636  16.451  0.3031 -0.3834 -0.5422
  297MPD2    C1 4525   0.240   2.759  16.391 -0.0337 -0.1612  0.3652
  297MPD2    C2 4526   0.348   2.828  16.342  0.4139  0.1090 -0.0993
  297MPD2    C3 4527   0.473   2.781  16.374 -0.0572 -0.3008 -0.3575
  297MPD2    C4 4528   0.508   2.665  16.433  0.6302  0.0776  0.1376
  297MPD2    C5 4529   0.398   2.595  16.478 -0.1003 -0.3579 -0.4706
  297MPD2     H 4530   0.341   2.922  16.288 -0.3019 -0.1711 -0.4890
  297MPD2    H1 4531   0.607   2.634  16.463 -0.4506 -2.8699  0.6827
  297MPD2    H2 4532   0.185   2.571  16.489 -0.4849  0.0533 -1.4118
  297MPD2    H3 4533   0.431   2.498  16.513  0.3097 -0.0845 -0.0900
  297MPD2     N 4534   0.579   2.870  16.326 -0.0163  0.4314  0.5217
  297MPD2    H5 4535   0.547   2.958  16.288 -1.8030 -0.9579 -1.1777
  297MPD2    N1 4536   0.111   2.813  16.365  0.0953 -0.5591 -0.5140
  297MPD2    H7 4537   0.111   2.893  16.303  0.1489  0.4600  0.7789
  298TMC3    C1 4538   4.613   2.851  16.364 -0.1800  0.5484  0.0522
  298TMC3    C2 4539   4.619   2.901  16.235  0.4537 -0.0281  0.2817
  298TMC3    C3 4540   4.514   2.978  16.192 -0.6384  0.4730  0.1643
  298TMC3    C4 4541   4.501   2.854  16.442 -0.0527  0.6551 -0.2157
  298TMC3    C5 4542   4.396   2.929  16.398 -0.5424 -0.5472  0.1249
  298TMC3    C6 4543   4.403   2.994  16.273 -0.3809 -0.4423  0.2796
  298TMC3     C 4544   4.728   2.774  16.420  0.2751 -0.4580 -0.4500
  298TMC3     O 4545   4.708   2.696  16.510  0.7173 -0.5201 -0.4590
  298TMC3     H 4546   4.706   2.881  16.174  1.2946  0.6624  1.2514
  298TMC3    H1 4547   4.499   2.804  16.538  1.9186  2.1683  0.5888
  298TMC3    H2 4548   4.324   3.064  16.247 -0.1264  0.7631  2.7623
  298TMC3    C7 4549   4.281   2.946  16.485 -0.1921 -0.0754 -0.3841
  298TMC3    C8 4550   4.506   3.007  16.048  0.4262  0.5384  0.0418
  298TMC3    O1 4551   4.302   2.930  16.606  0.4886  0.4256 -0.2460
  298TMC3    O2 4552   4.611   3.016  15.985  0.3422  0.2708  0.2718
  299MPD2     C 4553   1.431   2.229  11.401  0.8934 -0.0473 -0.2365
  299MPD2    C1 4554   1.382   2.334  11.328 -0.2171 -0.1379  0.9017
  299MPD2    C2 4555   1.352   2.317  11.196 -0.2447 -0.1176  0.0836
  299MPD2    C3 4556   1.359   2.190  11.137 -0.7053  0.2061 -0.3335
  299MPD2    C4 4557   1.418   2.083  11.213 -0.4615  0.8518 -0.2983
  299MPD2    C5 4558   1.457   2.109  11.341  0.3191 -0.7474 -0.3618
  299MPD2     H 4559   1.297   2.394  11.143 -0.5789 -0.2691  0.2128
  299MPD2    H1 4560   1.427   1.985  11.169 -0.5326  0.0892  1.3678
  299MPD2    H2 4561   1.430   2.237  11.509  3.0480  3.2184 -0.4761
  299MPD2    H3 4562   1.505   2.030  11.398 -1.3046 -1.4318  0.0770
  299MPD2     N 4563   1.302   2.160  11.010 -0.4647  0.2216  0.2815
  299MPD2    H5 4564   1.284   2.063  10.988  0.3415 -0.2741  1.8604
  299MPD2    N1 4565   1.345   2.448  11.399  0.1866  0.1459  0.0496
  299MPD2    H7 4566   1.346   2.437  11.500 -0.4095 -0.8112 -0.0517
  300TMC3    C1 4567   1.167   2.176  10.820 -0.4065  0.0588  0.0581
  300TMC3    C2 4568   1.129   2.239  10.705 -0.6252  0.3065  0.4444
  300TMC3    C3 4569   1.017   2.190  10.637 -0.3561 -0.0876  0.0282
  300TMC3    C4 4570   1.102   2.060  10.853 -0.1021  0.5489  0.5686
  300TMC3    C5 4571   1.006   2.007  10.773 -0.1277  0.0210 -0.2248
  300TMC3    C6 4572   0.953   2.075  10.667 -0.0974 -0.4956  0.7131
  300TMC3     C 4573   1.251   2.251  10.912 -0.3149  0.8909  0.4682
  300TMC3     O 4574   1.266   2.376  10.893  0.6887  0.0144  0.2090
  300TMC3     H 4575   1.157   2.343  10.695  0.0242  0.0770 -0.0790
  300TMC3    H1 4576   1.107   2.008  10.948 -0.0980 -0.1022  0.2154
  300TMC3    H2 4577   0.871   2.039  10.606  1.0419 -0.2828 -0.9361
  300TMC3    C7 4578   0.918   1.916  10.840 -0.0466 -0.3305 -0.0455
  300TMC3    C8 4579   0.951   2.294  10.558 -0.6278 -0.0437  0.3027
  300TMC3    O1 4580   0.965   1.809  10.878  0.0322  0.1339  0.0902
  300TMC3    O2 4581   0.978   2.404  10.598 -0.0602 -0.4484  0.2939
  301MPD2     C 4582   2.367   3.467   1.564 -0.4889  0.6687  0.4025
  301MPD2    C1 4583   2.323   3.489   1.432 -0.5965  0.1188  0.4399
  301MPD2    C2 4584   2.395   3.440   1.323  1.0184  0.3793  0.6454
  301MPD2    C3 4585   2.518   3.381   1.343 -0.3404  0.1234 -0.1293
  301MPD2    C4 4586   2.572   3.369   1.475 -0.1205 -0.0778 -0.1479
  301MPD2    C5 4587   2.495   3.412   1.584 -0.1291 -0.0260  0.6662
  301MPD2     H 4588   2.346   3.440   1.226  0.4794 -1.0445  0.9118
  301MPD2    H1 4589   2.666   3.320   1.497 -0.0841 -0.7346 -1.7645
  301MPD2    H2 4590   2.326   3.506   1.656 -2.4490  0.4242 -0.3676
  301MPD2    H3 4591   2.523   3.388   1.685  2.2732  1.7621  0.4270
  301MPD2     N 4592   2.600   3.321   1.242 -0.4984  0.0347  1.0109
  301MPD2    H5 4593   2.683   3.274   1.277 -1.2218 -2.2745 -0.3761
  301MPD2    N1 4594   2.191   3.544   1.408 -0.7113 -0.2845 -0.1142
  301MPD2    H7 4595   2.157   3.548   1.312 -0.0071 -1.1319 -0.3967
  302TMC3    C1 4596   2.655   3.219   1.037  0.2347  0.5765 -0.4380
  302TMC3    C2 4597   2.704   3.110   1.101 -0.3478  0.7277 -0.7415
  302TMC3    C3 4598   2.751   3.008   1.017 -0.3057  0.2834  1.1010
  302TMC3    C4 4599   2.633   3.234   0.899 -0.2552 -0.0828 -0.1011
  302TMC3    C5 4600   2.684   3.129   0.829 -0.4843  0.0465 -0.4565
  302TMC3    C6 4601   2.746   3.018   0.876  0.0375  0.4319  0.0138
  302TMC3     C 4602   2.570   3.310   1.106 -0.0605  0.3025 -0.0428
  302TMC3     O 4603   2.474   3.359   1.043  0.5874 -0.3419  0.1840
  302TMC3     H 4604   2.695   3.099   1.209 -1.0554  0.7770 -0.7919
  302TMC3    H1 4605   2.601   3.332   0.864  0.0491 -0.1720 -0.6424
  302TMC3    H2 4606   2.787   2.941   0.811  0.6897 -0.4110  1.4114
  302TMC3    C7 4607   2.640   3.119   0.695 -0.2379 -0.9978 -0.3896
  302TMC3    C8 4608   2.802   2.883   1.080 -0.8531 -0.4567  0.3852
  302TMC3    O1 4609   2.713   3.053   0.618  0.7590 -0.0942  0.0670
  302TMC3    O2 4610   2.823   2.892   1.200  0.6704 -0.0058 -0.5712
  303MPD2     C 4611   3.664   1.813  10.550 -0.0042 -0.3368  0.0531
  303MPD2    C1 4612   3.544   1.812  10.490  0.1743 -0.4149 -0.0006
  303MPD2    C2 4613   3.538   1.779  10.357 -0.1488 -0.0035 -0.1296
  303MPD2    C3 4614   3.648   1.773  10.276  0.1538  0.7632 -0.5863
  303MPD2    C4 4615   3.773   1.805  10.334 -0.2472 -0.1421 -0.5149
  303MPD2    C5 4616   3.781   1.809  10.471 -0.4371  0.7456 -0.4874
  303MPD2     H 4617   3.444   1.748  10.311  1.0311 -0.3244 -2.3161
  303MPD2    H1 4618   3.863   1.810  10.273  0.5994  2.4416  0.9655
  303MPD2    H2 4619   3.672   1.840  10.654  1.3839 -1.3726  0.2195
  303MPD2    H3 4620   3.879   1.832  10.511 -0.4307 -0.5704  0.2520
  303MPD2     N 4621   3.646   1.740  10.140  0.5382  0.2756 -0.0487
  303MPD2    H5 4622   3.734   1.736  10.088  0.6710  1.3874  0.0825
  303MPD2    N1 4623   3.429   1.817  10.568 -0.4204 -0.3331 -0.1175
  303MPD2    H7 4624   3.452   1.853  10.661 -2.2754 -0.8211  0.5246
  304TMC3    C1 4625   3.221   1.789  10.646  0.5236 -0.1253  0.1004
  304TMC3    C2 4626   3.105   1.858  10.645 -0.5354 -0.5587  0.0951
  304TMC3    C3 4627   2.994   1.801  10.709  0.2749  0.5713  0.0784
  304TMC3    C4 4628   3.235   1.670  10.714  0.1072 -0.9556 -1.3788
  304TMC3    C5 4629   3.134   1.625  10.785  0.3568 -0.3558 -0.4058
  304TMC3    C6 4630   3.011   1.684  10.781 -0.3975  0.9850  0.2670
  304TMC3     C 4631   3.300   1.801  10.531  0.1170 -0.5549 -0.5984
  304TMC3     O 4632   3.251   1.783  10.420 -0.4459 -0.0430  0.0414
  304TMC3     H 4633   3.092   1.940  10.576 -2.8019  0.2426  1.4866
  304TMC3    H1 4634   3.330   1.619  10.700  0.1127 -1.3269 -0.0442
  304TMC3    H2 4635   2.934   1.643  10.844  0.7369  0.1752  1.1290
  304TMC3    C7 4636   3.118   1.481  10.782  0.0663 -0.0382  0.2559
  304TMC3    C8 4637   2.882   1.781  10.608 -0.5235  0.2886 -0.3370
  304TMC3    O1 4638   3.007   1.449  10.742  0.6931  0.3070 -0.8904
  304TMC3    O2 4639   2.881   1.873  10.524  0.7376 -0.4307 -0.0351
  305MPD2     C 4640   1.575   3.983  14.230 -0.1089 -0.1778  0.1522
  305MPD2    C1 4641   1.637   3.855  14.231 -0.2771  0.0083  0.6624
  305MPD2    C2 4642   1.624   3.777  14.117 -0.2748 -0.8352  0.9223
  305MPD2    C3 4643   1.574   3.819  14.000  0.1240 -0.0578 -1.0921
  305MPD2    C4 4644   1.534   3.951  13.999  0.1433 -0.2630  0.3487
  305MPD2    C5 4645   1.528   4.028  14.111 -0.8126 -0.5469 -0.5984
  305MPD2     H 4646   1.667   3.677  14.125  2.3094  0.3271  1.7334
  305MPD2    H1 4647   1.502   3.999  13.907 -0.8606  0.2364  0.9432
  305MPD2    H2 4648   1.549   4.037  14.320 -3.5110  1.3402 -1.7571
  305MPD2    H3 4649   1.475   4.122  14.113 -1.3791 -0.8693 -0.4890
  305MPD2     N 4650   1.573   3.753  13.880 -0.1376  0.8139  0.6773
  305MPD2    H5 4651   1.542   3.806  13.799  0.7185  1.1891  0.5938
  305MPD2    N1 4652   1.692   3.793  14.351 -0.3431  0.6876  0.3401
  305MPD2    H7 4653   1.708   3.693  14.347 -3.6875  0.3143 -3.7995
  306TMC3    C1 4654   1.780   3.795  14.584 -0.3120  0.4754  0.1583
  306TMC3    C2 4655   1.849   3.678  14.571 -0.5802 -0.0209 -0.1681
  306TMC3    C3 4656   1.841   3.592  14.680  0.2953  0.2511 -0.1334
  306TMC3    C4 4657   1.741   3.832  14.706  0.5944 -0.6617 -0.3074
  306TMC3    C5 4658   1.766   3.762  14.823 -0.9586  0.9548 -0.0808
  306TMC3    C6 4659   1.802   3.633  14.804 -0.1040 -0.3055 -0.0576
  306TMC3     C 4660   1.711   3.868  14.471  0.1975  0.6096 -0.2616
  306TMC3     O 4661   1.652   3.973  14.500 -0.1252  0.2808 -0.0123
  306TMC3     H 4662   1.891   3.646  14.477 -0.5147 -0.1540 -0.0935
  306TMC3    H1 4663   1.707   3.934  14.717 -0.5111 -1.1107  0.5275
  306TMC3    H2 4664   1.766   3.569  14.884 -1.2166 -0.0368 -0.3413
  306TMC3    C7 4665   1.674   3.800  14.932 -0.0584  0.2345 -0.8300
  306TMC3    C8 4666   1.897   3.465  14.661  0.3629  0.3594  0.1389
  306TMC3    O1 4667   1.556   3.828  14.900  0.5783 -0.1019  0.0644
  306TMC3    O2 4668   1.907   3.435  14.541 -0.2671  0.1521  0.2236
  307MPD2     C 4669   4.037   2.336   1.140  0.3100  0.1029  0.0279
  307MPD2    C1 4670   3.959   2.450   1.173 -0.6224  0.2322  0.3356
  307MPD2    C2 4671   3.835   2.422   1.218 -0.3630 -0.2624  0.2612
  307MPD2    C3 4672   3.783   2.292   1.215  0.2960  0.7855 -0.6944
  307MPD2    C4 4673   3.866   2.187   1.186  0.1074 -0.2713  0.5303
  307MPD2    C5 4674   3.995   2.205   1.155 -0.0502 -0.3471 -0.2682
  307MPD2     H 4675   3.770   2.509   1.216  1.3661  1.0346  1.0238
  307MPD2    H1 4676   3.843   2.081   1.187 -1.9174  0.1550 -1.0997
  307MPD2    H2 4677   4.140   2.343   1.109  0.6642 -3.5481  0.4577
  307MPD2    H3 4678   4.058   2.124   1.119 -1.9971 -1.4861 -1.0731
  307MPD2     N 4679   3.647   2.280   1.250  0.4646  0.7122  0.6931
  307MPD2    H5 4680   3.605   2.371   1.268  1.4432  1.5896 -1.3536
  307MPD2    N1 4681   3.994   2.584   1.147 -0.1006  0.3694  0.1315
  307MPD2    H7 4682   3.925   2.658   1.149 -0.7722 -0.3104  1.6095
  308TMC3    C1 4683   3.272   2.236   1.098 -0.3622 -0.8110 -0.1757
  308TMC3    C2 4684   3.248   2.363   1.141  0.1530 -0.6180 -0.4273
  308TMC3    C3 4685   3.318   2.401   1.253 -0.3004 -0.2289 -1.1552
  308TMC3    C4 4686   3.363   2.153   1.160 -0.1747  0.1960  0.4836
  308TMC3    C5 4687   3.436   2.208   1.260 -0.2880 -0.0682  0.4875
  308TMC3    C6 4688   3.414   2.330   1.318  0.2306  0.7111  0.0543
  308TMC3     C 4689   3.218   2.191   0.965 -0.1774  0.2986  0.1072
  308TMC3     O 4690   3.220   2.070   0.944  0.3841 -0.0388  0.3840
  308TMC3     H 4691   3.156   2.403   1.099  0.6340  0.1922 -0.6867
  308TMC3    H1 4692   3.387   2.055   1.121  0.4567 -0.8152  3.3990
  308TMC3    H2 4693   3.469   2.370   1.402  0.7735 -0.3798  0.2290
  308TMC3    C7 4694   3.570   2.164   1.249 -0.4620 -0.2586 -0.3896
  308TMC3    C8 4695   3.284   2.525   1.317  0.1929 -0.2349 -0.5441
  308TMC3    O1 4696   3.587   2.051   1.202 -0.1733  0.1352  0.2556
  308TMC3    O2 4697   3.304   2.534   1.442  0.7899 -0.2788 -0.2640
  309MPD2     C 4698   2.993   2.790  17.259 -0.7735  0.1772 -0.8517
  309MPD2    C1 4699   2.929   2.762  17.144 -0.3759  0.4362  0.4888
  309MPD2    C2 4700   2.795   2.751  17.145  0.0174 -1.0248 -0.4400
  309MPD2    C3 4701   2.720   2.773  17.256  0.4876 -0.4480 -0.1080
  309MPD2    C4 4702   2.789   2.799  17.377 -0.2010 -0.2203 -0.2193
  309MPD2    C5 4703   2.924   2.804  17.373 -0.6188  0.4419 -0.3961
  309MPD2     H 4704   2.746   2.727  17.051 -3.0452  0.1443  0.8603
  309MPD2    H1 4705   2.740   2.809  17.472  1.7212 -0.0776  0.7664
  309MPD2    H2 4706   3.100   2.805  17.267 -0.4829 -1.3375 -1.8048
  309MPD2    H3 4707   2.965   2.836  17.468  0.5718 -1.0474 -0.3946
  309MPD2     N 4708   2.581   2.779  17.263 -0.8026 -0.8823 -0.3825
  309MPD2    H5 4709   2.545   2.800  17.356  1.3157  1.8010 -0.1687
  309MPD2    N1 4710   2.995   2.732  17.019  0.3376 -0.2770 -0.2958
  309MPD2    H7 4711   2.935   2.723  16.938  1.5199 -4.1560 -0.7657
  310TMC3    C1 4712   3.174   2.732  16.863 -0.8965  0.5477 -0.3249
  310TMC3    C2 4713   3.087   2.774  16.761  0.1416 -0.1827 -0.4607
  310TMC3    C3 4714   3.122   2.735  16.635  0.4675 -0.4866  0.1426
  310TMC3    C4 4715   3.286   2.660  16.832 -0.4737  0.4749 -0.1822
  310TMC3    C5 4716   3.316   2.627  16.704  0.0916  0.3943  0.0375
  310TMC3    C6 4717   3.241   2.671  16.603 -0.1108  0.7411  0.2700
  310TMC3     C 4718   3.136   2.729  17.002 -0.3434 -0.1596  0.1604
  310TMC3     O 4719   3.222   2.713  17.085 -0.3823 -0.5704 -0.5266
  310TMC3     H 4720   2.998   2.831  16.785  0.1917  0.1091 -0.9727
  310TMC3    H1 4721   3.350   2.621  16.910  1.6198  2.3220 -0.9618
  310TMC3    H2 4722   3.263   2.660  16.498 -2.0315  0.1363 -0.0790
  310TMC3    C7 4723   3.417   2.524  16.669  0.0198 -0.0634 -0.7196
  310TMC3    C8 4724   3.033   2.766  16.518 -0.4022 -0.2036 -0.2570
  310TMC3    O1 4725   3.459   2.525  16.553 -0.0254  0.4251 -0.0553
  310TMC3    O2 4726   3.066   2.737  16.404 -0.3263  0.3013 -0.1163
  311MPD2     C 4727   0.602   3.176  12.816  0.5309 -0.1359 -0.3032
  311MPD2    C1 4728   0.572   3.301  12.863  0.3650  0.0593 -0.5013
  311MPD2    C2 4729   0.470   3.311  12.951 -0.4118  0.7200  0.2085
  311MPD2    C3 4730   0.408   3.204  13.001  0.1811  0.0545  0.0278
  311MPD2    C4 4731   0.450   3.077  12.960 -0.0870  0.2167 -0.2358
  311MPD2    C5 4732   0.548   3.063  12.868  0.1929  0.3688 -0.4747
  311MPD2     H 4733   0.445   3.409  12.990 -3.8882 -0.4605  1.0170
  311MPD2    H1 4734   0.403   2.984  12.993  0.6188  0.4448  1.4154
  311MPD2    H2 4735   0.671   3.158  12.735  0.3090  1.4842 -0.8707
  311MPD2    H3 4736   0.572   2.963  12.834 -2.4890  0.6517 -3.2171
  311MPD2     N 4737   0.307   3.227  13.096 -0.0155  0.0725 -0.4426
  311MPD2    H5 4738   0.282   3.323  13.114  1.8294  0.3009  0.9479
  311MPD2    N1 4739   0.624   3.424  12.821  0.5029  0.0831  0.3742
  311MPD2    H7 4740   0.607   3.504  12.881 -2.0710 -0.4641  0.3649
  312TMC3    C1 4741   0.134   3.191  13.249 -0.1433  0.5191  0.2648
  312TMC3    C2 4742   0.006   3.161  13.221  0.0068 -0.3154  0.3759
  312TMC3    C3 4743   4.656   3.264  13.206  0.1215 -0.0909  0.1131
  312TMC3    C4 4744   0.172   3.320  13.281 -0.1082  0.1231  0.0370
  312TMC3    C5 4745   0.079   3.420  13.285 -0.3115  0.8441 -0.4515
  312TMC3    C6 4746   4.693   3.397  13.235 -0.0051 -0.2627  0.7349
  312TMC3     C 4747   0.227   3.132  13.159 -0.5293 -0.1586  0.6068
  312TMC3     O 4748   0.217   3.016  13.127 -0.2044 -0.2128 -0.5408
  312TMC3     H 4749   4.720   3.064  13.178  2.7341 -1.1467  0.7879
  312TMC3    H1 4750   0.272   3.344  13.315 -0.0254  1.4978 -1.2108
  312TMC3    H2 4751   4.625   3.482  13.240  0.3134  0.0757 -0.7026
  312TMC3    C7 4752   0.100   3.549  13.340  0.0105 -0.1947 -0.1636
  312TMC3    C8 4753   4.530   3.231  13.158  0.1084 -0.2898  0.2653
  312TMC3    O1 4754   0.050   3.648  13.289  0.4514 -0.4611 -0.0402
  312TMC3    O2 4755   4.504   3.114  13.177  0.1519  0.1269  0.0779
  313MPD2     C 4756   4.667   2.641  10.890  0.6326 -0.0439 -0.7850
  313MPD2    C1 4757   4.731   2.740  10.823 -0.1138  0.4237  0.2277
  313MPD2    C2 4758   0.094   2.704  10.733  0.8813  0.1001 -0.6601
  313MPD2    C3 4759   0.137   2.574  10.725 -0.2624 -0.0913  0.6162
  313MPD2    C4 4760   0.085   2.481  10.806 -0.7968  0.1532  0.0493
  313MPD2    C5 4761   4.721   2.518  10.889 -0.2782  0.0319  0.1789
  313MPD2     H 4762   0.153   2.786  10.692  2.9238 -1.4922 -0.8712
  313MPD2    H1 4763   0.122   2.380  10.814 -2.2284 -0.5101 -1.8518
  313MPD2    H2 4764   4.582   2.666  10.953  3.1192  2.2369  1.6533
  313MPD2    H3 4765   4.680   2.445  10.959 -1.9492  1.5043  0.7355
  313MPD2     N 4766   0.234   2.533  10.632  0.4719 -0.1384  0.0757
  313MPD2    H5 4767   0.265   2.436  10.638 -0.3168 -0.3659  0.5097
  313MPD2    N1 4768   4.705   2.877  10.838  0.0866 -0.0417  0.5513
  313MPD2    H7 4769   0.017   2.947  10.783 -0.3331 -0.3349 -0.2030
  314TMC3    C1 4770   4.593   3.066  10.896  0.0705  0.6991  0.4179
  314TMC3    C2 4771   4.684   3.151  10.948 -0.1213 -0.0243  0.0866
  314TMC3    C3 4772   4.717   3.262  10.873  0.0310 -0.8103 -0.1922
  314TMC3    C4 4773   4.542   3.077  10.766 -1.2905  1.0624  0.3238
  314TMC3    C5 4774   4.575   3.194  10.701  0.9009  0.0439 -0.2505
  314TMC3    C6 4775   4.659   3.289  10.748  0.1761 -0.0387  0.4575
  314TMC3     C 4776   4.623   2.938  10.934 -0.5568  0.2659  0.5782
  314TMC3     O 4777   4.561   2.892  11.034 -0.1066  0.0376  0.0285
  314TMC3     H 4778   0.008   3.124  11.034  0.1500 -0.5632 -0.2779
  314TMC3    H1 4779   4.493   2.996  10.714 -2.3669  0.7287  1.8861
  314TMC3    H2 4780   4.682   3.378  10.691 -0.0605 -0.9807 -1.1265
  314TMC3    C7 4781   4.501   3.231  10.589 -0.6922  0.0117 -0.0216
  314TMC3    C8 4782   0.096   3.341  10.912 -0.0103  0.1107  0.1446
  314TMC3    O1 4783   4.382   3.211  10.607 -0.3304  0.3262 -0.4244
  314TMC3    O2 4784   0.152   3.408  10.825  0.2764  0.0922 -0.6378
  315MPD2     C 4785   3.777   1.749   0.345 -0.2896 -0.2590  0.0208
  315MPD2    C1 4786   3.904   1.767   0.294  0.1271  0.0194 -1.0316
  315MPD2    C2 4787   3.924   1.898   0.251  0.0572 -0.1276  0.0431
  315MPD2    C3 4788   3.830   1.993   0.250 -0.4339  0.3943  0.2296
  315MPD2    C4 4789   3.702   1.972   0.301  0.3275 -0.7406 -1.3218
  315MPD2    C5 4790   3.683   1.848   0.357 -0.7991 -0.6697 -0.2999
  315MPD2     H 4791   4.023   1.930   0.221  0.4411 -2.5660 -1.3112
  315MPD2    H1 4792   3.630   2.049   0.325  1.7047  0.6409 -1.6399
  315MPD2    H2 4793   3.741   1.658   0.392 -1.8938  1.0056  1.2090
  315MPD2    H3 4794   3.587   1.819   0.398 -0.1771 -2.6892 -0.2476
  315MPD2     N 4795   3.865   2.123   0.195 -0.5695 -0.7239  0.0773
  315MPD2    H5 4796   3.959   2.121   0.157 -0.7169 -2.4195 -0.1991
  315MPD2    N1 4797   3.999   1.663   0.273  0.5956 -0.0904 -0.6980
  315MPD2    H7 4798   4.089   1.694   0.236  1.5038 -1.1479  0.6087
  316TMC3    C1 4799   3.872   2.346   0.158 -0.1884  0.2290 -0.7936
  316TMC3    C2 4800   3.936   2.435   0.246 -0.3120 -0.0901  0.0377
  316TMC3    C3 4801   4.047   2.497   0.196  0.4642 -0.4067 -0.1271
  316TMC3    C4 4802   3.921   2.321   0.034  0.3092  0.2154 -0.4479
  316TMC3    C5 4803   4.028   2.391  17.732  0.0758  0.0788 -0.0112
  316TMC3    C6 4804   4.091   2.483   0.062  0.8208  0.2742  0.0211
  316TMC3     C 4805   3.798   2.243   0.223 -0.0106 -0.4016  0.1010
  316TMC3     O 4806   3.739   2.257   0.326  0.2552  0.8458 -0.1434
  316TMC3     H 4807   3.918   2.428   0.353  0.9372  0.0980  0.2615
  316TMC3    H1 4808   3.875   2.241  17.726  1.3995  1.3168 -2.8944
  316TMC3    H2 4809   4.179   2.532   0.021  1.1372 -0.4792 -0.1939
  316TMC3    C7 4810   4.051   2.389  17.596  0.3547  0.0410 -0.3051
  316TMC3    C8 4811   4.162   2.503   0.290 -0.5604  0.1919  0.2659
  316TMC3    O1 4812   4.019   2.285  17.545 -0.5450  0.6199  0.3424
  316TMC3    O2 4813   4.159   2.590   0.379 -0.0584 -0.4805  0.5444
  317MPD2     C 4814   1.523   0.417  12.334  0.0391 -0.7687 -0.4614
  317MPD2    C1 4815   1.617   0.326  12.307 -0.0452  0.5154  0.0439
  317MPD2    C2 4816   1.685   0.278  12.421 -0.4059 -0.3163  0.8754
  317MPD2    C3 4817   1.640   0.303  12.555  0.3535  0.0145 -0.4376
  317MPD2    C4 4818   1.532   0.386  12.572  0.3336 -0.3202 -0.3938
  317MPD2    C5 4819   1.473   0.439  12.463  0.5484  0.0184 -0.0936
  317MPD2     H 4820   1.774   0.215  12.418  0.2523  0.7504 -2.4224
  317MPD2    H1 4821   1.488   0.415  12.667 -0.5633 -2.2929 -0.2007
  317MPD2    H2 4822   1.474   0.462  12.249 -2.4677 -1.3931  0.6503
  317MPD2    H3 4823   1.392   0.509  12.479 -0.3168 -0.8946 -0.4614
  317MPD2     N 4824   1.718   0.252  12.665  0.3706  0.3435 -0.5350
  317MPD2    H5 4825   1.808   0.206  12.659  0.5644  0.8036 -1.0649
  317MPD2    N1 4826   1.671   0.290  12.179  0.1275  0.0850 -0.4929
  317MPD2    H7 4827   1.740   0.216  12.182 -2.1175 -1.9360  0.5926
  318TMC3    C1 4828   1.768   0.201  12.895  0.2416 -0.3719  0.1066
  318TMC3    C2 4829   1.721   0.129  12.998 -0.4586 -0.0917  0.2351
  318TMC3    C3 4830   1.808   0.069  13.082 -0.4310  0.4814 -0.4008
  318TMC3    C4 4831   1.898   0.208  12.865  0.0645 -0.2512  0.4041
  318TMC3    C5 4832   1.989   0.132  12.938  0.0105  0.6325 -0.4786
  318TMC3    C6 4833   1.941   0.069  13.044  0.4459  0.1653 -0.6614
  318TMC3     C 4834   1.668   0.253  12.798 -0.5549  1.0417 -0.6877
  318TMC3     O 4835   1.558   0.272  12.847 -0.6809  0.3800  0.1749
  318TMC3     H 4836   1.614   0.125  13.018 -0.1833  0.6516  1.8121
  318TMC3    H1 4837   1.931   0.256  12.773 -2.0055 -0.3962 -0.4367
  318TMC3    H2 4838   2.005   0.008  13.107  0.8951  0.8407 -0.4646
  318TMC3    C7 4839   2.125   0.127  12.888 -0.1806  0.3837  0.6489
  318TMC3    C8 4840   1.769   4.702  13.174 -0.2579 -0.0929  0.0882
  318TMC3    O1 4841   2.140   0.133  12.766 -0.1686  0.0565 -0.3801
  318TMC3    O2 4842   1.839   4.602  13.193  0.3023 -0.3891 -0.5156
  319MPD2     C 4843   2.557   1.958  16.574 -0.6068 -0.4925  0.1684
  319MPD2    C1 4844   2.424   1.933  16.607  0.0804 -0.9920  0.1899
  319MPD2    C2 4845   2.342   1.870  16.510 -0.0879 -0.2124  0.1400
  319MPD2    C3 4846   2.392   1.827  16.393 -0.4522  0.3393 -0.3406
  319MPD2    C4 4847   2.524   1.864  16.363  0.0702 -0.5260 -0.2741
  319MPD2    C5 4848   2.604   1.932  16.450 -1.0119  0.5782  0.3131
  319MPD2     H 4849   2.242   1.839  16.537 -0.2358  0.0597 -0.0911
  319MPD2    H1 4850   2.568   1.829  16.270 -0.2783 -1.7852  0.0440
  319MPD2    H2 4851   2.631   1.993  16.646  1.4787 -1.7380 -1.3698
  319MPD2    H3 4852   2.706   1.955  16.423 -0.6987 -0.2677  0.7629
  319MPD2     N 4853   2.319   1.753  16.299  0.7008 -0.7099 -0.6075
  319MPD2    H5 4854   2.359   1.735  16.208 -0.2903  0.3581 -1.2533
  319MPD2    N1 4855   2.366   1.931  16.742  0.2896 -0.2185 -0.4109
  319MPD2    H7 4856   2.278   1.884  16.757  1.0452 -2.2870 -2.5817
  320TMC3    C1 4857   2.160   1.592  16.219 -0.3712 -0.2873 -0.1599
  320TMC3    C2 4858   2.130   1.646  16.098  0.5871 -0.6035 -1.0409
  320TMC3    C3 4859   2.018   1.604  16.033  0.2332 -0.0027  0.1465
  320TMC3    C4 4860   2.080   1.486  16.269 -0.2079 -0.2068 -0.1954
  320TMC3    C5 4861   1.982   1.435  16.188 -0.0649  0.8201  0.1240
  320TMC3    C6 4862   1.951   1.495  16.074  0.0297 -0.1905  0.7332
  320TMC3     C 4863   2.208   1.678  16.325 -0.1698 -0.1217  0.7216
  320TMC3     O 4864   2.162   1.657  16.437  0.3218  0.6915  0.3067
  320TMC3     H 4865   2.182   1.735  16.063 -3.0232  0.8909 -2.5812
  320TMC3    H1 4866   2.113   1.415  16.345 -0.4611 -1.0780 -0.9051
  320TMC3    H2 4867   1.870   1.458  16.012 -0.0082  0.8278  0.1806
  320TMC3    C7 4868   1.972   1.288  16.173 -0.5179 -0.0068  0.2684
  320TMC3    C8 4869   1.936   1.698  15.961 -0.5493  0.1006 -0.3118
  320TMC3    O1 4870   1.942   1.253  16.062 -0.1345  0.2240 -0.3199
  320TMC3    O2 4871   1.831   1.656  15.920  0.5429  0.3207 -0.1627
  321TMC3    C1 4872   2.354   1.985  16.963 -0.4247 -0.2848  1.4109
  321TMC3    C2 4873   2.292   1.869  17.001 -0.1893 -0.3386  0.0092
  321TMC3    C3 4874   2.255   1.843  17.129 -0.5479 -0.6131  0.2126
  321TMC3    C4 4875   2.378   2.085  17.048  0.5630  0.2453  0.5358
  321TMC3    C5 4876   2.339   2.060  17.181  0.6636  0.1458  0.1471
  321TMC3    C6 4877   2.272   1.945  17.218  0.4836  0.1205  0.1864
  321TMC3     C 4878   2.427   1.982  16.848 -0.2808  0.8845 -0.4104
  321TMC3     O 4879   2.533   2.041  16.847  0.1545 -0.5284 -0.1699
  321TMC3     H 4880   2.285   1.787  16.930 -3.0059 -2.0841  2.2866
  321TMC3    H1 4881   2.439   2.166  17.009 -0.5431 -0.2847 -2.2943
  321TMC3    H2 4882   2.233   1.931  17.318  1.1677 -0.8313  0.3202
  321TMC3    C7 4883   2.443   2.091  17.282 -0.5415  0.5407 -0.4865
  321TMC3    C8 4884   2.302   1.720  17.186 -0.2515  0.5956 -0.4989
  321TMC3    O1 4885   2.466   1.999  17.358  0.8918  0.2923  0.6216
  321TMC3    O2 4886   2.279   1.615  17.127 -0.1379 -0.7138  0.0241
  322MPD2     C 4887   1.638   2.809  13.411 -0.0765  0.1011  0.2606
  322MPD2    C1 4888   1.631   2.758  13.541  0.8043 -0.2350  0.0821
  322MPD2    C2 4889   1.622   2.621  13.555 -0.0369  0.1692  0.2869
  322MPD2    C3 4890   1.624   2.535  13.441 -0.1770  0.4141 -0.2775
  322MPD2    C4 4891   1.644   2.596  13.318 -0.5841 -0.2984 -0.2010
  322MPD2    C5 4892   1.653   2.728  13.302  0.6092  0.9694  0.3807
  322MPD2     H 4893   1.636   2.580  13.655  0.2313 -0.9549 -0.2072
  322MPD2    H1 4894   1.645   2.541  13.224 -2.1299  1.6163 -1.3185
  322MPD2    H2 4895   1.651   2.915  13.394  2.3978 -0.4673 -1.4378
  322MPD2    H3 4896   1.674   2.760  13.201 -0.3438 -0.0091 -0.1196
  322MPD2     N 4897   1.621   2.392  13.453  0.1010 -0.4204  0.5099
  322MPD2    H5 4898   1.613   2.357  13.548 -0.2285 -2.0571 -0.1284
  322MPD2    N1 4899   1.638   2.855  13.640 -0.4998  0.7067 -0.4001
  322MPD2    H7 4900   1.657   2.950  13.609  0.4138  0.5311 -0.3988
  323TMC3    C1 4901   1.647   2.934  13.858  1.0188 -0.2861 -0.2244
  323TMC3    C2 4902   1.740   3.032  13.824 -0.2341 -0.4987  0.8847
  323TMC3    C3 4903   1.774   3.116  13.932  0.3086 -0.3633  0.6965
  323TMC3    C4 4904   1.585   2.932  13.976 -0.1149  0.1567 -0.6162
  323TMC3    C5 4905   1.612   3.019  14.073  0.4079  0.3773  0.3136
  323TMC3    C6 4906   1.699   3.117  14.043  0.6925  0.1582 -0.0661
  323TMC3     C 4907   1.604   2.826  13.767  0.0171 -0.5057  0.3822
  323TMC3     O 4908   1.555   2.729  13.811  0.1057  0.3572  0.4033
  323TMC3     H 4909   1.804   3.025  13.737 -0.1502  0.4486  0.8662
  323TMC3    H1 4910   1.507   2.859  13.997  0.4588 -0.2368  0.1659
  323TMC3    H2 4911   1.728   3.177  14.129  0.1686  0.2884  0.0205
  323TMC3    C7 4912   1.578   2.989  14.207 -0.0179  0.9755  0.0150
  323TMC3    C8 4913   1.891   3.203  13.916  0.4988 -0.1504 -0.7943
  323TMC3    O1 4914   1.585   2.875  14.250  0.6082 -0.2626  0.2098
  323TMC3    O2 4915   1.973   3.167  13.836  0.3477 -0.7406  0.0785
  324MPD2     C 4916   3.213   3.513  14.378  0.4138 -0.5500  0.3570
  324MPD2    C1 4917   3.263   3.643  14.369 -0.1147 -0.5177  0.5616
  324MPD2    C2 4918   3.172   3.745  14.348  0.9408  0.2908  0.5021
  324MPD2    C3 4919   3.038   3.714  14.346 -0.1021  0.1318  0.2537
  324MPD2    C4 4920   2.995   3.583  14.348  0.5007 -0.9198 -0.4314
  324MPD2    C5 4921   3.082   3.483  14.361  1.2055 -0.3571 -0.5098
  324MPD2     H 4922   3.220   3.841  14.330 -0.8615  1.3700  1.4891
  324MPD2    H1 4923   2.889   3.560  14.356  0.5883 -1.1705 -0.0508
  324MPD2    H2 4924   3.277   3.433  14.412 -0.4260 -0.8131  1.2989
  324MPD2    H3 4925   3.039   3.385  14.377 -0.4057  0.5948  0.9360
  324MPD2     N 4926   2.930   3.809  14.343  0.7762  0.8093 -0.2803
  324MPD2    H5 4927   2.835   3.774  14.341  0.5633  1.3091  1.0445
  324MPD2    N1 4928   3.396   3.674  14.387 -0.0382 -0.1091  0.2451
  324MPD2    H7 4929   3.435   3.763  14.357  1.2013 -0.3654  1.1049
  325TMC3    C1 4930   2.829   4.026  14.350 -0.5876 -0.3840 -0.1370
  325TMC3    C2 4931   2.724   3.984  14.279 -0.3234 -0.0631 -0.3055
  325TMC3    C3 4932   2.610   4.057  14.282 -0.2072 -0.4596  0.2763
  325TMC3    C4 4933   2.820   4.134  14.439  0.1748 -0.6146 -0.5175
  325TMC3    C5 4934   2.691   4.195  14.444  0.5160  0.0685  0.3992
  325TMC3    C6 4935   2.589   4.154  14.367 -0.3236 -0.9840  0.1650
  325TMC3     C 4936   2.949   3.944  14.362 -0.9067  0.5719 -0.3011
  325TMC3     O 4937   3.050   4.011  14.377 -0.4670 -0.1135 -0.3632
  325TMC3     H 4938   2.737   3.896  14.217  0.3370 -0.2651  0.1274
  325TMC3    H1 4939   2.898   4.163  14.508  0.9133  0.3230 -1.7334
  325TMC3    H2 4940   2.501   4.217  14.360  1.0884  0.8502 -1.4397
  325TMC3    C7 4941   2.660   4.242  14.575 -0.1430  0.1134 -0.1779
  325TMC3    C8 4942   2.496   4.005  14.214 -0.6116  0.4082 -0.0339
  325TMC3    O1 4943   2.748   4.236  14.659  0.2504 -0.2125  0.4007
  325TMC3    O2 4944   2.533   3.921  14.134 -0.2652  0.0877  0.1350
  326MPD2     C 4945   4.115   0.787  11.182 -0.1361 -0.4710  0.1693
  326MPD2    C1 4946   4.188   0.685  11.131 -0.1845  0.2148 -0.0546
  326MPD2    C2 4947   4.317   0.664  11.181 -0.2251 -0.0196  0.1827
  326MPD2    C3 4948   4.368   0.740  11.282 -0.1402 -0.3199  0.4868
  326MPD2    C4 4949   4.281   0.832  11.343 -0.3830  0.2030  0.5259
  326MPD2    C5 4950   4.156   0.861  11.287  0.2762 -0.1241  0.0964
  326MPD2     H 4951   4.383   0.591  11.136 -1.1220 -1.8686  1.8679
  326MPD2    H1 4952   4.319   0.895  11.423 -1.8960 -0.0860  1.4609
  326MPD2    H2 4953   4.027   0.824  11.131  0.3057  1.0555  0.4896
  326MPD2    H3 4954   4.088   0.939  11.320 -1.3406 -1.9726  1.1582
  326MPD2     N 4955   4.501   0.729  11.327  0.3207 -0.7391  0.2864
  326MPD2    H5 4956   4.518   0.790  11.406  0.8979 -0.9833  0.3533
  326MPD2    N1 4957   4.157   0.610  11.017  0.3748 -0.3242 -0.0296
  326MPD2    H7 4958   4.224   0.543  10.981 -0.1062 -1.5563  1.3828
  327TMC3    C1 4959   4.047   0.554  10.813  0.1550 -0.2282  0.3702
  327TMC3    C2 4960   3.956   0.603  10.726  0.2343  0.7940 -0.9411
  327TMC3    C3 4961   3.982   0.593  10.591 -0.3827  0.0301 -0.4525
  327TMC3    C4 4962   4.163   0.486  10.782 -0.0732 -0.3453  0.0769
  327TMC3    C5 4963   4.191   0.485  10.648 -1.0314  0.1180  0.2873
  327TMC3    C6 4964   4.108   0.538  10.555  0.8369  0.2230 -0.3456
  327TMC3     C 4965   4.050   0.633  10.936 -0.0452  0.3174 -0.2563
  327TMC3     O 4966   3.967   0.723  10.946 -0.2809 -0.2513  0.2151
  327TMC3     H 4967   3.867   0.649  10.770 -0.7236  0.2247 -2.2813
  327TMC3    H1 4968   4.213   0.429  10.859  0.6474 -1.4542 -1.2179
  327TMC3    H2 4969   4.135   0.536  10.451 -1.2539  0.9968 -0.9013
  327TMC3    C7 4970   4.275   0.378  10.596  0.1879 -0.0836 -0.0988
  327TMC3    C8 4971   3.933   0.703  10.510  0.4126  0.4736  0.4393
  327TMC3    O1 4972   4.280   0.362  10.475 -0.4941  0.5352  0.3079
  327TMC3    O2 4973   4.006   0.747  10.419  0.1164 -0.1608  0.3978
  328MPD2     C 4974   1.839   0.574  17.694 -0.1535  0.0057  0.3514
  328MPD2    C1 4975   1.769   0.513  17.593  0.0338 -0.1550  0.4986
  328MPD2    C2 4976   1.740   0.593  17.484  0.9555 -0.7937 -0.0014
  328MPD2    C3 4977   1.790   0.721  17.471 -0.0766  0.4206  0.1017
  328MPD2    C4 4978   1.876   0.769  17.569  0.9833 -0.1302  0.3403
  328MPD2    C5 4979   1.903   0.693  17.676  0.0533 -0.4515 -1.1013
  328MPD2     H 4980   1.684   0.552  17.401  1.7193 -1.7510 -0.0463
  328MPD2    H1 4981   1.934   0.860  17.565  1.1089 -0.2509 -0.5748
  328MPD2    H2 4982   1.847   0.521   0.040  2.4333  1.0617  0.7380
  328MPD2    H3 4983   1.972   0.737  17.747 -0.4279  0.1537 -1.0092
  328MPD2     N 4984   1.754   0.802  17.362  0.3807 -0.1113 -0.0522
  328MPD2    H5 4985   1.788   0.897  17.364  2.0917 -0.6968 -1.5160
  328MPD2    N1 4986   1.705   0.385  17.603  0.3725 -0.0419 -0.9817
  328MPD2    H7 4987   1.678   0.371  17.700 -2.9551  0.3700 -1.8402
  329TMC3    C1 4988   1.533   0.242  17.535  0.1683 -0.4263 -0.3109
  329TMC3    C2 4989   1.505   0.203  17.657 -0.0890 -0.6049  0.4705
  329TMC3    C3 4990   1.379   0.158  17.689 -0.2791 -0.0689  0.4103
  329TMC3    C4 4991   1.434   0.253  17.435  0.0886 -0.2528  0.6501
  329TMC3    C5 4992   1.312   0.207  17.468  0.1378  0.0923 -0.1301
  329TMC3    C6 4993   1.279   0.153  17.591  0.5787  0.8499 -0.6526
  329TMC3     C 4994   1.644   0.321  17.496 -0.0652 -0.4371 -0.2085
  329TMC3     O 4995   1.673   0.324  17.376  0.2522 -0.6728  0.0039
  329TMC3     H 4996   1.586   0.203  17.730  1.6432 -0.6212 -1.4344
  329TMC3    H1 4997   1.442   0.301  17.338  1.1510 -1.0269  0.3603
  329TMC3    H2 4998   1.172   0.142  17.610  0.8027 -0.2636  0.0165
  329TMC3    C7 4999   1.209   0.206  17.364 -0.1486  0.3546  0.4923
  329TMC3    C8 5000   1.331   0.142   0.074 -0.6506  0.2276  0.4795
  329TMC3    O1 5001   1.207   0.300  17.284  0.0088  0.3326 -0.0784
  329TMC3    O2 5002   1.210   0.128   0.086  0.0062 -0.3778  0.0975
  330TMC3    C1 5003   4.500   0.070   9.107  0.0814 -0.0177  0.5810
  330TMC3    C2 5004   4.424   4.687   9.107  0.4029 -0.8694 -0.1375
  330TMC3    C3 5005   4.494   4.572   9.123 -0.1081  0.3979 -0.1294
  330TMC3    C4 5006   4.641   0.063   9.120  0.3820  0.1050  0.5869
  330TMC3    C5 5007   4.696   4.672   9.138 -0.0049  0.3042 -0.1956
  330TMC3    C6 5008   4.625   4.558   9.140 -0.6818 -0.3849 -0.1222
  330TMC3     C 5009   4.434   0.205   9.109  0.7253  0.9480 -0.3632
  330TMC3     O 5010   4.515   0.292   9.111  0.3228 -0.2265 -0.3081
  330TMC3     H 5011   4.317   4.689   9.087 -0.3137 -3.3717  3.3804
  330TMC3    H1 5012   4.700   0.154   9.119 -1.8401  1.5114 -0.1194
  330TMC3    H2 5013   4.681   4.467   9.157 -0.6593 -0.4034 -0.3009
  330TMC3    C7 5014   0.099   4.653   9.129  0.6474  0.0112  0.0623
  330TMC3    C8 5015   4.416   4.446   9.106 -0.0773 -0.0005 -1.0360
  330TMC3    O1 5016   0.134   4.539   9.103  0.3024  0.2521 -0.8222
  330TMC3    O2 5017   4.299   4.463   9.070 -0.3662 -0.0076  0.0629
  331MPD2     C 5018   3.214   3.653  13.107 -0.2076  0.3109 -0.8034
  331MPD2    C1 5019   3.241   3.658  12.971  0.3389 -0.1199  0.2295
  331MPD2    C2 5020   3.190   3.554  12.896 -0.3420  0.1624 -0.6563
  331MPD2    C3 5021   3.114   3.451  12.949  0.9468 -0.0460 -0.3777
  331MPD2    C4 5022   3.090   3.451  13.086  0.0381  0.5374 -0.4458
  331MPD2    C5 5023   3.140   3.546  13.165  0.2547  0.8757 -0.1708
  331MPD2     H 5024   3.205   3.551  12.789 -0.8909  1.8406 -0.7732
  331MPD2    H1 5025   3.035   3.367  13.128  1.3557 -1.9863 -3.7606
  331MPD2    H2 5026   3.256   3.726  13.176 -1.5562  1.6064 -1.3545
  331MPD2    H3 5027   3.122   3.538  13.272  4.1877  0.7209  0.4656
  331MPD2     N 5028   3.045   3.362  12.858  0.1044 -0.0321  0.2750
  331MPD2    H5 5029   3.072   3.385  12.763 -1.3786  2.5710  0.4635
  331MPD2    N1 5030   3.315   3.765  12.921 -0.2169  0.2885  1.1700
  331MPD2    H7 5031   3.312   3.854  12.969  2.0353  0.4243  1.0357
  332TMC3    C1 5032   2.932   3.177  12.762  0.1616 -0.1973  0.2005
  332TMC3    C2 5033   2.905   3.248  12.648  0.4654 -0.2545 -0.3449
  332TMC3    C3 5034   2.867   3.188  12.537 -0.0849 -0.5476  0.5273
  332TMC3    C4 5035   2.916   3.039  12.761  0.2116 -0.8542  0.1656
  332TMC3    C5 5036   2.877   2.975  12.644 -0.1183  0.1493 -0.1664
  332TMC3    C6 5037   2.860   3.049  12.525  0.3556 -0.1110  0.1383
  332TMC3     C 5038   2.978   3.245  12.884  0.2654  0.4319  0.1031
  332TMC3     O 5039   2.948   3.194  12.992 -0.2147 -0.0186  0.0890
  332TMC3     H 5040   2.921   3.355  12.645  0.4701 -0.2758 -1.0063
  332TMC3    H1 5041   2.917   2.987  12.856  1.0732  1.7120  1.5891
  332TMC3    H2 5042   2.821   2.992  12.442  1.2138  0.2109 -0.4871
  332TMC3    C7 5043   2.961   2.869  12.613  0.3305  0.5136 -1.1037
  332TMC3    C8 5044   2.887   3.251  12.405  0.1587 -0.3411  0.6157
  332TMC3    O1 5045   2.953   2.832  12.500 -0.3748 -0.3522 -0.5004
  332TMC3    O2 5046   2.949   3.356  12.400  0.1611  0.4615 -0.5542
  333MPD2     C 5047   3.106   3.773  10.993 -0.1022 -0.1925  0.1736
  333MPD2    C1 5048   3.124   3.664  10.904  0.5388  0.5762 -0.3810
  333MPD2    C2 5049   3.053   3.544  10.930 -0.3516 -0.5533  0.7687
  333MPD2    C3 5050   2.984   3.526  11.054 -0.2016 -0.3073 -0.8340
  333MPD2    C4 5051   2.978   3.631  11.141 -0.5256  0.0941  0.3757
  333MPD2    C5 5052   3.032   3.753  11.110 -0.6484  0.1545  0.2433
  333MPD2     H 5053   3.052   3.458  10.864 -0.5572 -1.5179  2.0321
  333MPD2    H1 5054   2.916   3.619  11.229  1.0513  1.7107  1.7143
  333MPD2    H2 5055   3.139   3.872  10.962 -0.1645 -0.4383 -0.6764
  333MPD2    H3 5056   3.004   3.830  11.181  0.2415  0.2265  0.5205
  333MPD2     N 5057   2.921   3.398  11.069 -0.2551  0.0051  0.0227
  333MPD2    H5 5058   2.942   3.326  11.000  0.3274  0.3135 -0.1187
  333MPD2    N1 5059   3.211   3.691  10.799 -0.8446 -0.1507  0.6359
  333MPD2    H7 5060   3.255   3.782  10.798  0.8051 -0.9562  0.5305
  334TMC3    C1 5061   3.348   3.638  10.617  0.4992  0.2285  0.2659
  334TMC3    C2 5062   3.428   3.534  10.564  0.2662 -0.3232  0.2283
  334TMC3    C3 5063   3.536   3.575  10.491 -0.7358 -0.1025 -0.3531
  334TMC3    C4 5064   3.371   3.771  10.599 -0.2434  0.0938  0.2543
  334TMC3    C5 5065   3.478   3.802  10.522  0.2637  0.5593 -0.2440
  334TMC3    C6 5066   3.560   3.710  10.466 -0.5433  0.0867 -0.8159
  334TMC3     C 5067   3.242   3.597  10.706  0.1280 -0.1511 -0.1653
  334TMC3     O 5068   3.203   3.481  10.694 -0.4741 -0.1845  0.0937
  334TMC3     H 5069   3.417   3.427  10.568  0.2850 -0.2094  3.1332
  334TMC3    H1 5070   3.298   3.843  10.635  0.4027 -0.1137  1.9695
  334TMC3    H2 5071   3.640   3.736  10.397  1.2768 -0.0417  1.2514
  334TMC3    C7 5072   3.471   3.939  10.481  0.0677 -0.1059  0.2471
  334TMC3    C8 5073   3.656   3.495  10.520 -0.1572 -0.3210 -0.1134
  334TMC3    O1 5074   3.427   4.024  10.559 -0.1102  0.6257 -0.1253
  334TMC3    O2 5075   3.636   3.400  10.594  0.4652  0.5068 -0.0830
  335TMC3    C1 5076   2.562   0.832  17.467 -0.8500 -0.8695  0.6048
  335TMC3    C2 5077   2.477   0.784  17.367 -0.0790  0.2648 -0.1289
  335TMC3    C3 5078   2.523   0.806  17.243  0.6901 -0.9193 -0.6171
  335TMC3    C4 5079   2.668   0.914  17.451 -0.1261  0.6194  0.8012
  335TMC3    C5 5080   2.695   0.946  17.320 -0.3119  0.0563  0.1596
  335TMC3    C6 5081   2.632   0.888  17.217  0.3929 -0.4597 -0.1298
  335TMC3     C 5082   2.522   0.811  17.608 -0.0703  0.2980 -1.0967
  335TMC3     O 5083   2.585   0.875  17.693 -0.1839 -0.1714  0.0088
  335TMC3     H 5084   2.383   0.736  17.390  0.1045 -0.5764 -1.1766
  335TMC3    H1 5085   2.734   0.937  17.534  3.2880 -0.5355 -1.5700
  335TMC3    H2 5086   2.676   0.892  17.117  0.5683 -0.8834 -0.0698
  335TMC3    C7 5087   2.835   0.984  17.290  0.2451 -0.0048  0.3807
  335TMC3    C8 5088   2.465   0.739  17.130 -0.7898  0.6740  0.3201
  335TMC3    O1 5089   2.870   0.950  17.177  0.2113  0.1585 -0.4857
  335TMC3    O2 5090   2.510   0.761  17.016  0.0496 -0.4653  0.4221
  336MPD2     C 5091   2.270   3.012  16.421  0.2074  0.2491 -0.7835
  336MPD2    C1 5092   2.278   2.960  16.289 -0.5425 -0.4975 -0.3085
  336MPD2    C2 5093   2.278   2.820  16.270 -0.1800  0.6015  0.6100
  336MPD2    C3 5094   2.303   2.736  16.374 -0.3251  0.1690 -0.1560
  336MPD2    C4 5095   2.298   2.787  16.501 -0.4742 -0.5480 -0.3605
  336MPD2    C5 5096   2.281   2.921  16.528  0.2468  0.0728  0.4990
  336MPD2     H 5097   2.264   2.786  16.168  0.8200 -1.7450  1.2629
  336MPD2    H1 5098   2.311   2.719  16.585 -0.4153 -0.7689 -0.5497
  336MPD2    H2 5099   2.257   3.118  16.441 -0.2626  0.0825 -0.2031
  336MPD2    H3 5100   2.272   2.945  16.634 -0.7031 -1.0483  0.6704
  336MPD2     N 5101   2.312   2.595  16.358  0.4771  0.1401  0.0678
  336MPD2    H5 5102   2.319   2.540  16.443 -1.6583  0.4085  0.4021
  336MPD2    N1 5103   2.251   3.035  16.173 -0.3307  0.1565 -0.0989
  336MPD2    H7 5104   2.262   2.987  16.085 -1.9845  2.2850 -1.4749
  337TMC3    C1 5105   2.214   3.213  16.037 -0.4674 -0.1337  0.1505
  337TMC3    C2 5106   2.114   3.148  15.979  0.4025 -0.7177  0.9755
  337TMC3    C3 5107   2.018   3.231  15.909  0.0913 -1.0602  0.4257
  337TMC3    C4 5108   2.241   3.342  16.016  0.5223 -0.9665 -0.4842
  337TMC3    C5 5109   2.152   3.416  15.950  0.5470  0.5737  0.4135
  337TMC3    C6 5110   2.036   3.366  15.904  0.5252 -0.4066  0.0879
  337TMC3     C 5111   2.261   3.171  16.164  0.1596 -0.3016  0.0525
  337TMC3     O 5112   2.275   3.249  16.252  0.0518 -0.3832  0.2445
  337TMC3     H 5113   2.090   3.047  16.012  0.7150 -0.6615  1.3739
  337TMC3    H1 5114   2.326   3.387  16.066 -0.0199  1.4439 -1.7581
  337TMC3    H2 5115   1.962   3.431  15.857  0.3421  0.0416  1.0045
  337TMC3    C7 5116   2.148   3.554  15.991  1.0743 -0.0326  0.5178
  337TMC3    C8 5117   1.884   3.184  15.903  0.6121 -0.0126  0.4719
  337TMC3    O1 5118   2.061   3.578  16.070  0.1925  0.4194 -0.0277
  337TMC3    O2 5119   1.856   3.103  15.989  0.0546 -0.5417 -0.1293
  338MPD2     C 5120   2.391   2.867   0.932 -0.2190  0.2251  0.0311
  338MPD2    C1 5121   2.335   2.820   0.814  0.1999  0.4561 -1.0649
  338MPD2    C2 5122   2.200   2.853   0.800  0.1899 -1.0484 -0.3091
  338MPD2    C3 5123   2.121   2.901   0.906 -0.1545  0.2648 -0.4833
  338MPD2    C4 5124   2.182   2.944   1.023 -0.4557  0.0853  0.4129
  338MPD2    C5 5125   2.318   2.932   1.034  0.6939  0.4632  0.1006
  338MPD2     H 5126   2.155   2.820   0.707  0.4945  0.7883 -1.0921
  338MPD2    H1 5127   2.130   2.984   1.110  1.8815 -2.6985  3.0898
  338MPD2    H2 5128   2.496   2.853   0.955 -0.6642 -0.9154  1.3870
  338MPD2    H3 5129   2.373   2.956   1.125  0.3757  1.4949  0.0192
  338MPD2     N 5130   1.982   2.905   0.884  0.8296 -0.0233  0.9242
  338MPD2    H5 5131   1.941   2.884   0.794  1.1716 -0.9739  0.9957
  338MPD2    N1 5132   2.399   2.766   0.702 -0.3802  0.0492 -0.2892
  338MPD2    H7 5133   2.340   2.746   0.622  0.0873  0.2737 -0.6917
  339TMC3    C1 5134   1.755   2.949   0.933  0.4857 -0.3454  0.5394
  339TMC3    C2 5135   1.655   2.945   1.029  0.5117  0.3674 -0.2838
  339TMC3    C3 5136   1.527   2.962   0.984 -0.3103 -0.7063 -0.0904
  339TMC3    C4 5137   1.732   2.986   0.807 -0.6431 -0.3089  0.0920
  339TMC3    C5 5138   1.603   2.993   0.767 -1.2039 -0.5119 -0.6083
  339TMC3    C6 5139   1.503   2.977   0.851  0.7199 -0.1484  1.2388
  339TMC3     C 5140   1.892   2.935   0.981 -0.3574  0.5188 -0.4041
  339TMC3     O 5141   1.907   2.954   1.102 -0.0581 -0.4331 -0.3374
  339TMC3     H 5142   1.677   2.923   1.133  0.3575  0.2285 -0.2788
  339TMC3    H1 5143   1.804   3.012   0.731 -2.8413 -0.7898 -2.1423
  339TMC3    H2 5144   1.401   2.988   0.818  0.9858 -0.2744  0.3712
  339TMC3    C7 5145   1.576   3.027   0.630  0.2449 -0.0958  1.0054
  339TMC3    C8 5146   1.416   2.966   1.070 -0.2469 -0.1917  0.2653
  339TMC3    O1 5147   1.462   3.062   0.601 -0.1327 -0.0935 -0.3614
  339TMC3    O2 5148   1.312   3.017   1.032  0.4396  0.3647  0.1739
  340MPD2     C 5149   3.294   4.338  10.603  0.4373  0.0369  0.0224
  340MPD2    C1 5150   3.269   4.382  10.473  0.8806  1.2116 -0.0415
  340MPD2    C2 5151   3.294   4.515  10.440 -0.5218  0.1177  0.3275
  340MPD2    C3 5152   3.347   4.612  10.529 -0.0520  0.3894  0.2086
  340MPD2    C4 5153   3.372   4.558  10.651 -0.6475  0.2308  0.5136
  340MPD2    C5 5154   3.340   4.432  10.689 -0.1590 -0.4651  0.3057
  340MPD2     H 5155   3.249   4.552  10.348  1.4239  0.2061 -0.5802
  340MPD2    H1 5156   3.416   4.623  10.726 -1.3500  2.6955 -1.1751
  340MPD2    H2 5157   3.270   4.238  10.638 -0.7328  0.0120 -0.8648
  340MPD2    H3 5158   3.382   4.391  10.780  1.4353  0.1574 -0.1473
  340MPD2     N 5159   3.365   0.014  10.505  0.4691  0.7401 -0.3299
  340MPD2    H5 5160   3.414   0.066  10.578 -1.1179  1.8924 -0.1031
  340MPD2    N1 5161   3.208   4.293  10.383  0.0515 -0.2773  0.2378
  340MPD2    H7 5162   3.180   4.204  10.423  3.4826 -1.9829 -1.2211
  341TMC3    C1 5163   3.132   4.206  10.171 -0.6656  0.3013  0.1984
  341TMC3    C2 5164   3.030   4.133  10.233 -0.2422  0.2690 -0.2433
  341TMC3    C3 5165   2.965   4.038  10.159 -0.1945 -0.4330  0.0132
  341TMC3    C4 5166   3.173   4.192  10.044 -0.4830  1.1067  0.3565
  341TMC3    C5 5167   3.104   4.097   9.975 -0.0930  0.2539 -0.3299
  341TMC3    C6 5168   3.004   4.016  10.028  0.2875  0.3174 -0.1075
  341TMC3     C 5169   3.194   4.312  10.247 -0.4273  0.3895 -0.1582
  341TMC3     O 5170   3.239   4.397  10.170  0.1696 -0.1323 -0.0262
  341TMC3     H 5171   3.007   4.154  10.337  0.5978 -0.7670  0.1543
  341TMC3    H1 5172   3.242   4.261   9.996 -0.2177  0.1604 -0.6310
  341TMC3    H2 5173   2.953   3.941   9.969  2.3662 -2.0924  1.1528
  341TMC3    C7 5174   3.166   4.065   9.844 -0.0308  0.3325  0.3626
  341TMC3    C8 5175   2.870   3.955  10.240 -0.0649 -0.4974 -0.2978
  341TMC3    O1 5176   3.230   4.152   9.777 -0.4260 -0.0897  0.4164
  341TMC3    O2 5177   2.867   3.980  10.360 -0.2907  0.1753 -0.0096
  342MPD2     C 5178   4.681   3.086  16.944 -0.6142  0.0154  0.8646
  342MPD2    C1 5179   0.066   3.101  17.015 -0.3111 -0.0559 -0.1129
  342MPD2    C2 5180   0.076   3.214  17.096  0.1195  0.0698 -0.0732
  342MPD2    C3 5181   4.715   3.308  17.108  0.1862  0.5076  1.3743
  342MPD2    C4 5182   4.595   3.281  17.048 -0.1553  0.8007 -1.0834
  342MPD2    C5 5183   4.573   3.168  16.974  0.2266 -0.1038  0.3683
  342MPD2     H 5184   0.172   3.239  17.140  0.2171 -2.1034  0.9176
  342MPD2    H1 5185   4.511   3.349  17.045  0.2446  1.3815  0.7578
  342MPD2    H2 5186   4.669   3.007  16.870  0.6754  2.5544 -2.0329
  342MPD2    H3 5187   4.476   3.163  16.926  1.0007  1.9036 -1.3882
  342MPD2     N 5188   4.735   3.419  17.187 -0.0347  0.5887  0.5783
  342MPD2    H5 5189   0.093   3.444  17.212 -0.4123  1.9325  0.6522
  342MPD2    N1 5190   0.175   3.007  17.000  0.6758  0.5307 -0.6341
  342MPD2    H7 5191   0.150   2.924  16.949 -0.1321  0.2788  0.1641
  343TMC3    C1 5192   0.377   2.904  17.009 -0.1579  0.4916  0.2305
  343TMC3    C2 5193   0.516   2.918  17.028  0.5764  0.1039  0.1501
  343TMC3    C3 5194   0.588   2.804  17.004 -0.2515  0.0585  0.8775
  343TMC3    C4 5195   0.308   2.787  16.972 -0.2130  0.0179 -0.1085
  343TMC3    C5 5196   0.386   2.679  16.956  0.2457 -0.3977 -0.3588
  343TMC3    C6 5197   0.522   2.684  16.974 -0.3949 -0.0055  0.4416
  343TMC3     C 5198   0.299   3.016  17.048  0.4408  0.3868  0.0543
  343TMC3     O 5199   0.357   3.105  17.112  0.2384  0.2323  0.5192
  343TMC3     H 5200   0.579   3.006  17.042  1.0941 -0.4782  1.5275
  343TMC3    H1 5201   0.203   2.775  16.997  0.1073  0.5034  1.4267
  343TMC3    H2 5202   0.573   2.589  16.962  1.9129  1.3008 -0.0945
  343TMC3    C7 5203   0.321   2.547  16.969  0.8495 -0.1631 -0.1991
  343TMC3    C8 5204   0.733   2.816  16.985 -0.2914 -0.5008 -0.5263
  343TMC3    O1 5205   0.223   2.523  17.033 -0.0992 -0.1810 -0.5684
  343TMC3    O2 5206   0.777   2.904  17.055  0.7858 -0.4556 -0.1721
  344MPD2     C 5207   1.284   3.320  11.458  0.0159 -0.2927 -0.7856
  344MPD2    C1 5208   1.330   3.225  11.371  0.1234 -0.1234  0.0063
  344MPD2    C2 5209   1.385   3.262  11.250 -0.1210 -0.4014 -0.3460
  344MPD2    C3 5210   1.401   3.392  11.209  0.2237 -0.2921 -0.3938
  344MPD2    C4 5211   1.362   3.486  11.297  0.0291 -0.4780 -0.6350
  344MPD2    C5 5212   1.294   3.451  11.413 -0.7522  0.3647  0.0788
  344MPD2     H 5213   1.442   3.195  11.187 -1.2338 -0.9257 -0.7877
  344MPD2    H1 5214   1.368   3.592  11.273  2.2267 -0.1794  1.2363
  344MPD2    H2 5215   1.241   3.314  11.558  2.6593 -0.5314  0.3627
  344MPD2    H3 5216   1.250   3.529  11.474 -0.7483 -0.3008  0.9224
  344MPD2     N 5217   1.461   3.443  11.096  0.8544 -0.2878 -0.2116
  344MPD2    H5 5218   1.496   3.538  11.099 -2.1235  0.7328  2.1354
  344MPD2    N1 5219   1.332   3.091  11.410 -0.1352  0.2748 -0.1972
  344MPD2    H7 5220   1.369   3.027  11.341 -1.2368 -1.3901  0.7435
  345TMC3    C1 5221   1.600   3.424  10.903 -0.0613 -0.1121  0.1007
  345TMC3    C2 5222   1.685   3.520  10.953  0.0893  0.3985 -1.0698
  345TMC3    C3 5223   1.797   3.546  10.888  0.2208 -0.3028 -0.7628
  345TMC3    C4 5224   1.620   3.373  10.778  1.0497 -0.2332 -0.1426
  345TMC3    C5 5225   1.744   3.397  10.713 -0.2261  0.1548 -0.3966
  345TMC3    C6 5226   1.832   3.484  10.773  0.6809 -0.3871  1.0446
  345TMC3     C 5227   1.498   3.359  10.989 -0.4705 -2.0476  0.4482
  345TMC3     O 5228   1.441   3.253  10.956 -0.1364 -0.1041 -0.2360
  345TMC3     H 5229   1.667   3.569  11.049  2.0210 -1.4684  0.2437
  345TMC3    H1 5230   1.555   3.297  10.736  0.2810  0.9379 -1.0705
  345TMC3    H2 5231   1.924   3.516  10.725 -0.9085  2.0544 -0.3627
  345TMC3    C7 5232   1.734   3.449  10.579  0.3020 -0.4653  0.0257
  345TMC3    C8 5233   1.868   3.673  10.907  0.0237 -0.8871 -0.0510
  345TMC3    O1 5234   1.793   3.554  10.554 -0.4371  0.0406 -0.1409
  345TMC3    O2 5235   1.919   3.729  10.810  0.0872  0.2878 -0.4790
  346MPD2     C 5236   1.509   4.416  14.071 -0.3644  0.6127 -0.0382
  346MPD2    C1 5237   1.617   4.492  14.044  0.3676  0.0513  0.8374
  346MPD2    C2 5238   1.693   4.540  14.153  0.4170 -0.4388  0.4746
  346MPD2    C3 5239   1.646   4.536  14.285  0.1273  0.2765  0.4837
  346MPD2    C4 5240   1.522   4.468  14.308  0.2221  0.3119 -0.6683
  346MPD2    C5 5241   1.465   4.405  14.198 -0.1978  0.3594 -0.0278
  346MPD2     H 5242   1.792   4.582  14.134 -1.2575  2.3166 -2.2225
  346MPD2    H1 5243   1.473   4.452  14.403 -0.3339 -1.4390 -1.2506
  346MPD2    H2 5244   1.445   4.374  13.994  1.1680 -0.4315 -0.7241
  346MPD2    H3 5245   1.372   4.352  14.214 -0.3182  0.7081  0.4220
  346MPD2     N 5246   1.718   4.603  14.388  0.4765  0.1152 -0.0787
  346MPD2    H5 5247   1.808   4.646  14.371 -0.4909  1.9117 -0.7561
  346MPD2    N1 5248   1.670   4.525  13.918  0.5111 -0.1022 -0.0748
  346MPD2    H7 5249   1.753   4.584  13.910 -1.4053  2.3824 -1.8783
  347TMC3    C1 5250   1.775   4.658  14.611  0.3208 -0.0710 -0.0081
  347TMC3    C2 5251   1.889   4.581  14.607 -0.1359  0.5450  0.0719
  347TMC3    C3 5252   1.952   4.555  14.730  0.2808 -0.1525  1.0689
  347TMC3    C4 5253   1.737   4.721  14.726 -0.3352 -0.0398 -0.5059
  347TMC3    C5 5254   1.808   4.698  14.839  0.5407  0.2249  0.0103
  347TMC3    C6 5255   1.922   4.627  14.845 -0.1018  0.1708 -0.3383
  347TMC3     C 5256   1.671   4.610  14.521 -0.1363 -0.3729 -0.5063
  347TMC3     O 5257   1.563   4.589  14.578  0.3126 -0.2161  0.8652
  347TMC3     H 5258   1.930   4.539  14.515 -2.0403 -0.8463 -0.1386
  347TMC3    H1 5259   1.647   0.045  14.727 -0.2918  0.0205 -0.0448
  347TMC3    H2 5260   1.986   4.621  14.933  0.8659  0.7941 -1.0002
  347TMC3    C7 5261   1.769   0.020  14.968  0.4636 -0.4516  0.3805
  347TMC3    C8 5262   2.087   4.500  14.711  0.5686  0.2165 -1.0325
  347TMC3    O1 5263   1.857   0.017  15.052  0.1664 -0.3705 -0.7815
  347TMC3    O2 5264   2.137   4.506  14.601 -0.0283 -0.0828  0.0453
  348MPD2     C 5265   0.987   4.184  11.950 -0.2938 -0.1577  0.7007
  348MPD2    C1 5266   0.893   4.134  11.860 -0.1219 -0.3186  0.2027
  348MPD2    C2 5267   0.854   4.205  11.751 -0.3206 -0.5785 -0.0133
  348MPD2    C3 5268   0.915   4.322  11.720 -0.2981 -0.2026  0.8871
  348MPD2    C4 5269   1.015   4.363  11.803 -0.0787  0.8452  0.4163
  348MPD2    C5 5270   1.049   4.296  11.918  0.3215  0.2324 -0.4254
  348MPD2     H 5271   0.772   4.168  11.691 -0.0425 -1.3109  0.0574
  348MPD2    H1 5272   1.066   4.454  11.775  0.4715  0.4100 -0.0001
  348MPD2    H2 5273   1.028   4.132  12.035  3.4737  1.3676 -0.1988
  348MPD2    H3 5274   1.129   4.327  11.984  1.7283  0.6737 -2.3380
  348MPD2     N 5275   0.891   4.376  11.588 -0.0095  1.2401 -0.4337
  348MPD2    H5 5276   0.836   4.318  11.526  0.1871 -0.2612  0.7761
  348MPD2    N1 5277   0.828   4.008  11.889  0.1816 -0.6940  0.2690
  348MPD2    H7 5278   0.767   3.971  11.817 -0.6970 -0.5697  0.9567
  349TMC3    C1 5279   0.756   3.822  12.004 -0.1347 -0.0080  0.1028
  349TMC3    C2 5280   0.785   3.699  12.052  0.2011 -0.1333  0.5109
  349TMC3    C3 5281   0.678   3.625  12.099  0.2898  0.2322  0.5670
  349TMC3    C4 5282   0.626   3.866  12.000 -0.3215 -0.4414  0.1066
  349TMC3    C5 5283   0.529   3.801  12.073 -0.2924  0.7333  0.7403
  349TMC3    C6 5284   0.549   3.672  12.113  0.1739 -0.6916 -0.0498
  349TMC3     C 5285   0.861   3.917  11.983  0.2499 -0.1965 -0.0597
  349TMC3     O 5286   0.962   3.906  12.045  0.1715 -0.4395  0.2836
  349TMC3     H 5287   0.889   3.668  12.047  0.9526  2.7489 -1.1978
  349TMC3    H1 5288   0.609   3.966  11.962  1.0421 -0.6072 -0.9656
  349TMC3    H2 5289   0.473   3.627  12.175  0.4281 -0.3485  0.5090
  349TMC3    C7 5290   0.393   3.856  12.073  0.2848 -0.0694 -0.4158
  349TMC3    C8 5291   0.699   3.513  12.186  0.0769  0.2553 -0.1506
  349TMC3    O1 5292   0.293   3.786  12.053  0.0202  0.2550 -0.2065
  349TMC3    O2 5293   0.809   3.520  12.239  0.1413  0.3235  0.1283
  350MPD2     C 5294   4.340   2.252  10.164  0.4393  0.4215  0.6449
  350MPD2    C1 5295   4.434   2.160  10.119 -0.2409  0.3666  0.5234
  350MPD2    C2 5296   4.563   2.194  10.111 -0.0194  0.1388 -0.8349
  350MPD2    C3 5297   4.604   2.320  10.151 -0.2888  0.1964 -0.2524
  350MPD2    C4 5298   4.513   2.413  10.197 -0.1671  0.3652  1.1679
  350MPD2    C5 5299   4.380   2.379  10.204 -0.2611 -0.0585 -0.1683
  350MPD2     H 5300   4.637   2.135  10.057 -0.1902 -0.8483  0.0088
  350MPD2    H1 5301   4.542   2.511  10.233 -0.1933  0.0881  1.9326
  350MPD2    H2 5302   4.234   2.231  10.177  0.3976  1.3311  1.7039
  350MPD2    H3 5303   4.309   2.453  10.238  0.3120  0.5286 -0.2598
  350MPD2     N 5304   0.007   2.343  10.154 -0.0824 -0.1912  0.1457
  350MPD2    H5 5305   0.067   2.261  10.145  2.8368  1.9974 -0.2036
  350MPD2    N1 5306   4.397   2.033  10.067 -0.2492  0.1049 -0.0845
  350MPD2    H7 5307   4.470   1.978  10.021  1.2165  4.5686 -3.0517
  351TMC3    C1 5308   4.258   1.851   9.994  0.0958  0.5130 -0.0835
  351TMC3    C2 5309   4.328   1.832   9.881  0.6683  0.9378 -0.1179
  351TMC3    C3 5310   4.289   1.724   9.810  0.5319  0.3042 -0.2954
  351TMC3    C4 5311   4.144   1.782  10.021 -0.3953 -0.2875  0.0110
  351TMC3    C5 5312   4.105   1.683   9.942 -0.4567 -0.0011 -0.2922
  351TMC3    C6 5313   4.176   1.645   9.834  0.6194  0.0388  0.1953
  351TMC3     C 5314   4.267   1.979  10.052  0.3363  0.3156  0.2889
  351TMC3     O 5315   4.162   2.023  10.094 -0.4840  0.3037  0.3423
  351TMC3     H 5316   4.414   1.889   9.849  0.9272  0.4753 -0.2356
  351TMC3    H1 5317   4.090   1.793  10.115  0.0622  0.4822  0.1864
  351TMC3    H2 5318   4.155   1.555   9.776 -2.1613  1.8328 -1.6104
  351TMC3    C7 5319   3.976   1.625   9.965 -0.3369 -0.0945  0.0536
  351TMC3    C8 5320   4.366   1.656   9.709 -0.8177  0.3010  0.4102
  351TMC3    O1 5321   3.916   1.663  10.065  0.3110  0.4583  0.2515
  351TMC3    O2 5322   4.305   1.604   9.618 -0.3115 -0.0677  0.3577
  352MPD2     C 5323   1.498   4.293   1.150 -0.9075 -0.6167  0.9623
  352MPD2    C1 5324   1.633   4.269   1.172 -0.6018  0.1425  0.1359
  352MPD2    C2 5325   1.680   4.148   1.225 -0.5390 -0.5639  0.7254
  352MPD2    C3 5326   1.590   4.056   1.259 -0.7260 -0.2063  0.2451
  352MPD2    C4 5327   1.455   4.077   1.241 -0.9104 -0.4114  0.3466
  352MPD2    C5 5328   1.412   4.190   1.184  0.3522 -0.2685  0.1593
  352MPD2     H 5329   1.787   4.134   1.231 -0.2855  1.1115  0.0654
  352MPD2    H1 5330   1.384   3.996   1.247 -2.7914  1.2505  0.5305
  352MPD2    H2 5331   1.466   4.391   1.119 -1.4768 -1.0568  0.1671
  352MPD2    H3 5332   1.313   4.202   1.142  1.1253  2.1411 -1.0008
  352MPD2     N 5333   1.635   3.938   1.333  0.2102 -0.7318 -0.0770
  352MPD2    H5 5334   1.577   3.857   1.313  0.0694 -0.7182  0.2791
  352MPD2    N1 5335   1.720   4.377   1.141  0.1336  0.4619  0.8584
  352MPD2    H7 5336   1.678   4.466   1.116  1.2466  0.8929  0.5132
  353TMC3    C1 5337   1.801   3.783   1.404 -0.6458 -0.2263  0.3687
  353TMC3    C2 5338   1.925   3.756   1.466 -0.4556 -0.3885  0.0320
  353TMC3    C3 5339   1.983   3.637   1.448  0.2820  0.1224  0.1517
  353TMC3    C4 5340   1.747   3.683   1.323  0.0879 -0.3388 -0.6301
  353TMC3    C5 5341   1.811   3.562   1.319  0.5620 -0.2048 -0.2703
  353TMC3    C6 5342   1.929   3.538   1.376  0.4226 -0.9638 -0.6423
  353TMC3     C 5343   1.758   3.924   1.394 -0.2469  0.2400 -0.5169
  353TMC3     O 5344   1.836   4.011   1.432  0.5635 -0.0220 -0.2084
  353TMC3     H 5345   1.969   3.811   1.548  0.4097 -0.4042 -0.4266
  353TMC3    H1 5346   1.650   3.689   1.274 -0.0770  0.4887 -0.2020
  353TMC3    H2 5347   1.977   3.441   1.367 -0.2367 -1.3187 -0.3820
  353TMC3    C7 5348   1.777   3.455   1.228 -0.2711 -0.2613 -0.0153
  353TMC3    C8 5349   2.116   3.608   1.504 -0.1162 -0.3078  0.1594
  353TMC3    O1 5350   1.868   3.384   1.180 -1.1202 -0.1532  0.2007
  353TMC3    O2 5351   2.144   3.645   1.618 -0.3904 -0.0675 -0.2622
  354TMC3    C1 5352   4.350   0.633  13.609 -0.2527  0.2418  1.0864
  354TMC3    C2 5353   4.399   0.762  13.626 -0.9198 -0.0820  0.2034
  354TMC3    C3 5354   4.423   0.837  13.518 -0.5581 -0.9384 -0.1727
  354TMC3    C4 5355   4.324   0.583  13.482 -0.1277  0.0577  0.2921
  354TMC3    C5 5356   4.338   0.674  13.379 -0.0855  0.2742  0.5612
  354TMC3    C6 5357   4.397   0.796  13.393  0.6092  0.4569 -0.5954
  354TMC3     C 5358   4.273   0.568  13.717 -0.4279  0.7963  0.3370
  354TMC3     O 5359   4.173   0.504  13.690  0.1295 -0.3946 -0.2178
  354TMC3     H 5360   4.415   0.796  13.728 -2.3799 -1.8649  1.0260
  354TMC3    H1 5361   4.264   0.495  13.460 -0.0313  0.4645 -1.5503
  354TMC3    H2 5362   4.377   0.868  13.314  0.9214  0.3055 -0.8162
  354TMC3    C7 5363   4.341   0.607  13.252 -0.3477  0.3760 -0.3851
  354TMC3    C8 5364   4.472   0.973  13.538 -0.2252  0.1702 -0.1834
  354TMC3    O1 5365   4.270   0.510  13.231 -0.5280 -0.3930 -0.2900
  354TMC3    O2 5366   4.449   1.030  13.644 -0.1174  0.8469  0.1393
  355MPD2     C 5367   4.343   1.374  11.825  0.3728 -0.4875 -0.2315
  355MPD2    C1 5368   4.450   1.394  11.729  0.8436 -0.0288  0.4605
  355MPD2    C2 5369   4.569   1.331  11.754  0.0082 -0.3833  0.7684
  355MPD2    C3 5370   4.582   1.249  11.867 -0.8779  0.1556 -0.9086
  355MPD2    C4 5371   4.467   1.212  11.938 -0.2102 -0.2279 -0.9141
  355MPD2    C5 5372   4.353   1.274  11.917  0.2980 -0.3954  0.7040
  355MPD2     H 5373   4.660   1.360  11.702 -0.1081 -1.0812  0.1655
  355MPD2    H1 5374   4.471   1.141  12.020  0.0500  1.0935  0.2135
  355MPD2    H2 5375   4.245   1.417  11.812 -0.1943 -1.2852  1.4423
  355MPD2    H3 5376   4.258   1.245  11.960 -0.4129 -0.3930 -0.8754
  355MPD2     N 5377   4.712   1.208  11.899  0.5279  0.3734 -0.0966
  355MPD2    H5 5378   0.043   1.244  11.834  0.2525  2.0682  0.5751
  355MPD2    N1 5379   4.441   1.509  11.645  0.5608 -0.0061 -0.5266
  355MPD2    H7 5380   4.363   1.574  11.654  0.0415 -0.4256 -2.0426
  356TMC3    C1 5381   0.151   1.128  12.028 -0.0959 -0.2848  0.1448
  356TMC3    C2 5382   0.212   1.177  11.917  0.1893  0.4833 -0.3422
  356TMC3    C3 5383   0.298   1.285  11.916 -0.7126  0.6157  0.3672
  356TMC3    C4 5384   0.179   1.193  12.143  0.6563  0.0692  0.0593
  356TMC3    C5 5385   0.259   1.313  12.145  0.1904  0.4182 -0.0691
  356TMC3    C6 5386   0.332   1.343  12.034 -0.8774 -0.3207 -0.5991
  356TMC3     C 5387   0.007   1.138  12.014  0.0225  0.0899 -0.6620
  356TMC3     O 5388   4.675   1.099  12.108 -0.7812  0.1313  0.9888
  356TMC3     H 5389   0.184   1.123  11.827 -3.0008  1.5114  0.0479
  356TMC3    H1 5390   0.120   1.168  12.230 -1.4201  1.0200 -1.0926
  356TMC3    H2 5391   0.408   1.420  12.041 -1.0255 -0.4294  1.9108
  356TMC3    C7 5392   0.310   1.353  12.271  0.0948 -0.1968 -0.2057
  356TMC3    C8 5393   0.321   1.348  11.791 -0.0940  0.2221 -0.6844
  356TMC3    O1 5394   0.334   1.264  12.351  0.6405 -0.3586 -0.1412
  356TMC3    O2 5395   0.264   1.294  11.697 -0.6577 -0.0515 -0.4412
  357MPD2     C 5396   3.614   1.444   0.554 -0.1610 -0.0105  0.5529
  357MPD2    C1 5397   3.678   1.394   0.664  0.0323 -0.7808 -0.2507
  357MPD2    C2 5398   3.622   1.404   0.792  0.5937 -0.2547 -0.2196
  357MPD2    C3 5399   3.493   1.453   0.804  1.0203 -0.4623  0.5818
  357MPD2    C4 5400   3.437   1.517   0.695  0.3435  0.1970 -0.2930
  357MPD2    C5 5401   3.494   1.512   0.577  0.3391 -0.0511  0.4226
  357MPD2     H 5402   3.680   1.370   0.876  1.0144  0.5695 -0.1820
  357MPD2    H1 5403   3.344   1.571   0.704  0.5975  0.6444 -0.3340
  357MPD2    H2 5404   3.643   1.427   0.451  1.5131 -0.1385  1.0418
  357MPD2    H3 5405   3.452   1.558   0.489 -0.6267  0.3743  1.1100
  357MPD2     N 5406   3.424   1.448   0.930 -0.0725  0.0706  0.3877
  357MPD2    H5 5407   3.340   1.503   0.947  0.8008  1.0481  1.5213
  357MPD2    N1 5408   3.799   1.313   0.643 -0.2593  0.0138  0.0212
  357MPD2    H7 5409   3.820   1.315   0.544 -0.2247  1.2685  0.0594
  358TMC3    C1 5410   3.970   1.152   0.689 -0.0040 -0.2413  0.2928
  358TMC3    C2 5411   4.016   1.151   0.557 -0.1529  0.0397 -1.1438
  358TMC3    C3 5412   4.139   1.088   0.537 -0.3901 -0.0139 -0.1767
  358TMC3    C4 5413   4.044   1.106   0.795  0.7403  1.0112  0.0561
  358TMC3    C5 5414   4.160   1.040   0.770 -0.2228 -0.7210  0.9052
  358TMC3    C6 5415   4.206   1.032   0.641  0.3487 -0.3409  0.2262
  358TMC3     C 5416   3.852   1.218   0.726  0.0673  0.4439 -0.2515
  358TMC3     O 5417   3.812   1.192   0.839  0.1403 -0.0272 -0.1427
  358TMC3     H 5418   3.955   1.186   0.475 -0.4401  2.0999 -0.0434
  358TMC3    H1 5419   4.001   1.112   0.895 -2.6647 -0.1261 -1.3540
  358TMC3    H2 5420   4.290   0.967   0.619  0.1767 -1.4297  2.7870
  358TMC3    C7 5421   4.238   0.971   0.877 -0.0013 -0.0175  0.8214
  358TMC3    C8 5422   4.209   1.115   0.416 -0.1426 -0.0555 -0.7464
  358TMC3    O1 5423   4.340   0.913   0.839  0.0024  0.0501 -0.2752
  358TMC3    O2 5424   4.146   1.140   0.312  0.2077 -0.2680  0.6578
  359MPD2     C 5425   0.028   0.462  12.371  0.7233  0.1083  0.4685
  359MPD2    C1 5426   0.023   0.357  12.281  0.0034 -0.4573  0.3862
  359MPD2    C2 5427   4.645   0.292  12.253  0.3419 -0.1613 -0.0478
  359MPD2    C3 5428   4.527   0.333  12.315  0.3165  0.1659 -0.4521
  359MPD2    C4 5429   4.534   0.436  12.408  0.1326  0.2082 -0.0006
  359MPD2    C5 5430   4.653   0.494  12.442  0.1746 -0.3204 -0.1457
  359MPD2     H 5431   4.650   0.210  12.183  2.6437 -0.2895  0.2559
  359MPD2    H1 5432   4.444   0.477  12.453 -0.6623 -0.7973 -0.6520
  359MPD2    H2 5433   0.116   0.522  12.387  1.0193  0.1405 -1.2357
  359MPD2    H3 5434   4.657   0.574  12.515  0.2073 -1.2603  0.8795
  359MPD2     N 5435   4.401   0.270  12.284  0.9286 -1.0955 -0.0687
  359MPD2    H5 5436   4.321   0.301  12.340  1.8555  0.0854  0.6078
  359MPD2    N1 5437   0.128   0.322  12.192 -0.6069  0.3529 -0.3483
  359MPD2    H7 5438   0.111   0.247  12.126  0.5486 -3.1805  3.3228
  360TMC3    C1 5439   0.324   0.374  12.061 -0.2752  0.1981 -0.3458
  360TMC3    C2 5440   0.412   0.476  12.030 -0.0488  0.2709  0.6913
  360TMC3    C3 5441   0.514   0.450  11.938  0.0357  0.2011  0.5035
  360TMC3    C4 5442   0.319   0.264  11.983  0.3886  1.1408 -0.0107
  360TMC3    C5 5443   0.418   0.247  11.890  0.4892  0.9748 -0.3143
  360TMC3    C6 5444   0.524   0.330  11.875 -0.0600 -0.6290  0.1242
  360TMC3     C 5445   0.244   0.394  12.184 -0.2693 -0.0944 -0.2881
  360TMC3     O 5446   0.294   0.474  12.261 -0.3216 -0.5035  0.1116
  360TMC3     H 5447   0.411   0.566  12.089  1.1463  0.7247  0.0147
  360TMC3    H1 5448   0.259   0.177  12.008 -0.6116  1.4201 -1.4553
  360TMC3    H2 5449   0.596   0.301  11.799  0.0693 -1.3509  0.5266
  360TMC3    C7 5450   0.389   0.168  11.775 -0.4263 -0.1307  0.0713
  360TMC3    C8 5451   0.590   0.555  11.885 -0.4974 -0.0702  0.6031
  360TMC3    O1 5452   0.468   0.169  11.684 -0.5266  0.5778  0.1467
  360TMC3    O2 5453   0.528   0.659  11.888  0.3099  0.0014  0.1923
  361MPD2     C 5454   0.850   3.609  16.904  0.5274 -0.6376 -0.0664
  361MPD2    C1 5455   0.904   3.726  16.944 -0.2478  0.4837  0.4911
  361MPD2    C2 5456   1.040   3.745  16.935 -0.1454 -0.3752  0.3552
  361MPD2    C3 5457   1.119   3.649  16.871  0.4100 -0.4934  0.4411
  361MPD2    C4 5458   1.058   3.537  16.818  0.5899  0.3085 -0.1976
  361MPD2    C5 5459   0.930   3.514  16.848 -0.1217 -0.3089 -0.1598
  361MPD2     H 5460   1.078   3.840  16.971 -0.3066  0.9117 -2.8522
  361MPD2    H1 5461   1.116   3.465  16.760  0.4394 -1.5915  2.0413
  361MPD2    H2 5462   0.743   3.592  16.911  0.1284  0.5756 -3.2667
  361MPD2    H3 5463   0.876   3.425  16.818  0.6769 -1.0076  0.4752
  361MPD2     N 5464   1.255   3.669  16.861 -0.0778 -0.3620  0.3566
  361MPD2    H5 5465   1.304   3.596  16.811 -2.9030 -0.4910 -2.2262
  361MPD2    N1 5466   0.820   3.830  16.988  0.5913  0.0492 -0.3764
  361MPD2    H7 5467   0.876   3.907  17.022  0.7863 -0.2722  0.0319
  362TMC3    C1 5468   0.623   3.956  17.044  0.8058  0.6256 -0.3053
  362TMC3    C2 5469   0.490   3.953  17.060 -0.5620 -0.0166 -0.4894
  362TMC3    C3 5470   0.434   4.072  17.075 -0.5115  0.9198  0.7484
  362TMC3    C4 5471   0.698   4.067  17.027  0.3381 -0.8722  0.7268
  362TMC3    C5 5472   0.633   4.185  17.033  0.5998 -0.6557 -0.1338
  362TMC3    C6 5473   0.503   4.189  17.060  0.7966  0.2854  0.4214
  362TMC3     C 5474   0.684   3.829  17.007 -0.1873  0.1597 -0.3638
  362TMC3     O 5475   0.605   3.743  16.970 -0.7693  0.6311 -0.9808
  362TMC3     H 5476   0.429   3.864  17.072 -0.6986 -0.0045 -1.0720
  362TMC3    H1 5477   0.803   4.061  17.003 -0.0855 -0.4514 -1.2169
  362TMC3    H2 5478   0.460   4.286  17.042 -1.2816 -0.7124  0.0483
  362TMC3    C7 5479   0.712   4.306  17.022 -0.3423 -0.6623  0.0385
  362TMC3    C8 5480   0.294   4.084  17.122  0.1214  0.4222 -1.0976
  362TMC3    O1 5481   0.655   4.406  16.973  0.1052  0.4637  0.2313
  362TMC3    O2 5482   0.210   4.009  17.075  0.0465  0.2350 -0.6189
  363TMC3    C1 5483   0.236   1.508   9.019 -0.1637  0.0672  0.1764
  363TMC3    C2 5484   0.340   1.550   9.095 -0.4037  0.1206 -0.4804
  363TMC3    C3 5485   0.324   1.662   9.174 -0.4396 -0.8252  0.0315
  363TMC3    C4 5486   0.108   1.560   9.028 -0.8091  0.7927 -0.3312
  363TMC3    C5 5487   0.106   1.682   9.097  0.0383  0.3772  0.1945
  363TMC3    C6 5488   0.207   1.734   9.176 -0.0388 -0.6598  0.0933
  363TMC3     C 5489   0.251   1.391   8.928  0.2763 -0.6073 -0.3802
  363TMC3     O 5490   0.161   1.360   8.852 -0.4708  0.3579  0.1951
  363TMC3     H 5491   0.441   1.525   9.065 -0.8010 -0.2180 -1.5419
  363TMC3    H1 5492   0.021   1.532   8.970 -1.2278  2.0061 -0.2800
  363TMC3    H2 5493   0.204   1.827   9.231  2.0392 -0.9510  0.6932
  363TMC3    C7 5494   4.712   1.741   9.123  0.0519 -0.1069 -0.2384
  363TMC3    C8 5495   0.423   1.705   9.270  0.3010 -0.5523 -0.4580
  363TMC3    O1 5496   4.708   1.822   9.214 -0.2971  0.0156 -0.2380
  363TMC3    O2 5497   0.396   1.804   9.333  0.8874  0.8287 -0.2982
  364MPD2     C 5498   3.653   1.118  10.399  0.4307 -0.4118  0.1994
  364MPD2    C1 5499   3.789   1.101  10.389  0.2368  0.3870  0.7418
  364MPD2    C2 5500   3.839   0.988  10.439 -0.3641 -0.4101 -0.0157
  364MPD2    C3 5501   3.757   0.890  10.502  0.1638  0.9369  0.0595
  364MPD2    C4 5502   3.626   0.915  10.516  0.0664 -0.2704 -0.3512
  364MPD2    C5 5503   3.572   1.025  10.462  0.0160 -1.1823 -0.1984
  364MPD2     H 5504   3.946   0.971  10.433 -0.5956 -1.2420 -1.7222
  364MPD2    H1 5505   3.570   0.840  10.571 -3.0615  1.7967 -0.7480
  364MPD2    H2 5506   3.608   1.200  10.344  0.7560 -0.4646 -0.1424
  364MPD2    H3 5507   3.465   1.035  10.463  0.3497  2.4586 -3.4929
  364MPD2     N 5508   3.814   0.763  10.547  0.0656  0.2814  0.8257
  364MPD2    H5 5509   3.755   0.689  10.584 -0.3311  0.7550  1.1440
  364MPD2    N1 5510   3.869   1.204  10.335  0.1593  0.0079 -0.4034
  364MPD2    H7 5511   3.828   1.296  10.324  1.5541  0.8856  1.8916
  365TMC3    C1 5512   4.055   1.315  10.256 -0.3556  0.3048  0.4917
  365TMC3    C2 5513   4.140   1.309  10.149 -0.0434 -0.8450  0.1509
  365TMC3    C3 5514   4.219   1.421  10.132  0.1386 -0.4464 -0.2397
  365TMC3    C4 5515   4.044   1.420  10.347  0.3562 -0.0247 -0.5734
  365TMC3    C5 5516   4.110   1.532  10.311 -0.4769  0.8925 -0.0836
  365TMC3    C6 5517   4.198   1.529  10.208 -0.5369 -0.0000 -0.5193
  365TMC3     C 5518   3.991   1.186  10.282 -0.3862 -0.5289 -0.1141
  365TMC3     O 5519   4.059   1.084  10.265  0.0231 -0.0596  0.0418
  365TMC3     H 5520   4.150   1.215  10.097  2.6615  0.6688 -2.0996
  365TMC3    H1 5521   3.973   1.416  10.430 -0.8075  0.2657 -1.5563
  365TMC3    H2 5522   4.271   1.608  10.199  0.1756 -0.7252 -1.1857
  365TMC3    C7 5523   4.099   1.654  10.389 -0.2379 -0.4927  0.6253
  365TMC3    C8 5524   4.341   1.416  10.057  0.4251 -0.0812 -0.2550
  365TMC3    O1 5525   4.135   1.761  10.337 -0.2795  0.1050  0.0339
  365TMC3    O2 5526   4.433   1.485  10.098  0.1792 -0.2031  0.7644
  366MPD2     C 5527   2.110   1.990  15.060 -0.4038  0.0343  0.3164
  366MPD2    C1 5528   2.118   2.123  15.074  1.0317 -0.2422  0.7954
  366MPD2    C2 5529   2.242   2.183  15.068 -0.5374  0.0086  0.2116
  366MPD2    C3 5530   2.356   2.108  15.061  0.0794 -0.0799  0.4233
  366MPD2    C4 5531   2.351   1.974  15.039 -0.6114  0.3555  0.2065
  366MPD2    C5 5532   2.223   1.920  15.036  0.0867  0.5145 -1.3634
  366MPD2     H 5533   2.234   2.287  15.098  2.3042  0.0283  0.8915
  366MPD2    H1 5534   2.433   1.905  15.024 -1.5483 -0.9299  0.9502
  366MPD2    H2 5535   2.019   1.936  15.083  0.9395 -2.7056 -0.8987
  366MPD2    H3 5536   2.211   1.814  15.013 -1.3641  0.6598 -1.2312
  366MPD2     N 5537   2.477   2.177  15.092  0.2571 -0.5248 -0.1158
  366MPD2    H5 5538   2.457   2.274  15.115 -1.9036 -1.1596  0.7291
  366MPD2    N1 5539   2.012   2.199  15.116 -0.3683  0.3226 -0.9261
  366MPD2    H7 5540   2.037   2.294  15.143 -1.2072  0.8591 -1.9945
  367TMC3    C1 5541   1.807   2.254  15.202  0.0555  0.0373 -0.1064
  367TMC3    C2 5542   1.874   2.298  15.317  1.0060 -0.7094 -0.5304
  367TMC3    C3 5543   1.819   2.396  15.393  0.3593 -0.2539 -0.8864
  367TMC3    C4 5544   1.690   2.314  15.162 -0.7326 -0.3616  0.3746
  367TMC3    C5 5545   1.641   2.418  15.244  0.4045  0.1553  0.1720
  367TMC3    C6 5546   1.695   2.449  15.373  0.3072 -1.2641  0.3118
  367TMC3     C 5547   1.875   2.173  15.105 -0.2916  0.1169  0.9582
  367TMC3     O 5548   1.802   2.089  15.052 -0.1173  0.3659 -0.2230
  367TMC3     H 5549   1.963   2.248  15.356 -0.4074 -1.8950  1.1963
  367TMC3    H1 5550   1.659   2.289  15.061 -2.1507  0.0128  0.7146
  367TMC3    H2 5551   1.639   2.511  15.442  2.3385 -1.5595  2.2183
  367TMC3    C7 5552   1.572   2.531  15.186 -0.2173  0.2285  0.3560
  367TMC3    C8 5553   1.912   2.468  15.485 -0.6259  0.2282 -0.2957
  367TMC3    O1 5554   1.607   2.637  15.237  0.2681  0.0558 -0.1708
  367TMC3    O2 5555   2.025   2.418  15.491  0.6996  0.3550 -0.0379
  368MPD2     C 5556   3.497   3.931  13.389 -0.3938  0.1354 -0.1205
  368MPD2    C1 5557   3.438   3.964  13.273  0.3618 -0.9319 -0.6484
  368MPD2    C2 5558   3.524   3.982  13.165  0.1578  0.0029 -0.1814
  368MPD2    C3 5559   3.661   3.991  13.171 -0.2251  0.2886 -0.4822
  368MPD2    C4 5560   3.717   3.965  13.297 -0.0100 -0.5919  0.1949
  368MPD2    C5 5561   3.634   3.929  13.401 -0.8135  1.0417  0.4755
  368MPD2     H 5562   3.476   4.005  13.071 -0.9657  1.4531  0.7556
  368MPD2    H1 5563   3.824   3.960  13.311  0.4825  4.2840 -1.6475
  368MPD2    H2 5564   3.433   3.907  13.473  1.6426 -0.5492  1.2324
  368MPD2    H3 5565   3.671   3.899  13.498 -0.1343 -1.2080 -0.4771
  368MPD2     N 5566   3.743   4.023  13.060  0.1871 -0.2505 -0.3958
  368MPD2    H5 5567   3.839   4.046  13.081  0.3547  0.1159 -1.5620
  368MPD2    N1 5568   3.299   3.984  13.264 -0.4350  0.4620 -0.3069
  368MPD2    H7 5569   3.243   3.971  13.348  1.1348 -1.2687  0.4818
  369TMC3    C1 5570   3.100   4.070  13.167  0.8110  0.9437  0.0234
  369TMC3    C2 5571   3.087   4.182  13.092 -0.0521  0.2868  0.0095
  369TMC3    C3 5572   2.989   4.190  12.992 -0.4769  0.7655 -0.5413
  369TMC3    C4 5573   3.002   3.970  13.158 -0.3696 -0.2121 -0.1549
  369TMC3    C5 5574   2.905   3.984  13.059  0.6191 -0.1383 -0.2993
  369TMC3    C6 5575   2.894   4.094  12.978  0.5933 -0.0294  0.4073
  369TMC3     C 5576   3.235   4.030  13.149 -0.0165 -0.9274 -0.5657
  369TMC3     O 5577   3.270   4.058  13.038 -0.5749  0.1961 -0.0270
  369TMC3     H 5578   3.154   4.266  13.105  0.9661 -0.7264  1.3502
  369TMC3    H1 5579   3.015   3.878  13.213 -1.0934 -0.9821 -1.2715
  369TMC3    H2 5580   2.825   4.109  12.896  1.2769 -0.7526 -0.2933
  369TMC3    C7 5581   2.793   3.890  13.061 -0.8256  0.1728  0.2151
  369TMC3    C8 5582   3.033   4.263  12.876 -0.1846 -0.3688 -0.3732
  369TMC3    O1 5583   2.796   3.797  13.142 -0.9393  0.2975  0.6244
  369TMC3    O2 5584   2.958   4.277  12.779 -0.3640 -0.3062 -1.1260
  370TMC3    C1 5585   2.544   0.196  16.531  0.4515 -0.1779  0.5537
  370TMC3    C2 5586   2.446   0.120  16.593 -0.0534 -1.0570  0.1142
  370TMC3    C3 5587   2.442   4.719  16.591  0.3924  0.1777 -0.0437
  370TMC3    C4 5588   2.638   0.127  16.457  0.2157 -0.2933 -0.2589
  370TMC3    C5 5589   2.627   4.726  16.457  1.1249 -0.9537 -0.5510
  370TMC3    C6 5590   2.538   4.650  16.526  0.1067 -0.1224 -0.3256
  370TMC3     C 5591   2.557   0.324  16.590 -0.0016  0.2540 -0.6575
  370TMC3     O 5592   2.480   0.351  16.682  0.0956 -0.0019 -0.4745
  370TMC3     H 5593   2.353   0.167  16.622  0.7782 -0.0452  1.1241
  370TMC3    H1 5594   2.720   0.179  16.410  0.0445  0.1856 -0.0292
  370TMC3    H2 5595   2.527   4.542  16.525 -0.2937 -0.0875  0.9962
  370TMC3    C7 5596   2.686   4.664  16.341 -0.0206  0.5787  0.4587
  370TMC3    C8 5597   2.409   4.651  16.719 -0.1368 -0.8373  0.5611
  370TMC3    O1 5598   2.713   4.727  16.242 -0.1588  0.1921  0.1718
  370TMC3    O2 5599   2.404   4.529  16.719  0.1644 -0.1022 -0.0602
  371TMC3    C1 5600   3.778   3.156  15.601  0.2002  0.0730  0.4074
  371TMC3    C2 5601   3.694   3.141  15.704 -0.1625 -0.9135  1.0975
  371TMC3    C3 5602   3.666   3.242  15.784 -0.5479 -0.2415 -0.8327
  371TMC3    C4 5603   3.813   3.284  15.563 -0.9158 -0.8435  0.4979
  371TMC3    C5 5604   3.783   3.386  15.644  0.6741 -0.1978  0.7989
  371TMC3    C6 5605   3.701   3.373  15.752 -0.2060 -1.1481  0.3394
  371TMC3     C 5606   3.804   3.049  15.510  0.2036 -0.4688  0.8145
  371TMC3     O 5607   3.874   3.077  15.414  0.5631  0.6265 -0.5993
  371TMC3     H 5608   3.641   3.050  15.729 -2.0557  0.5317  2.2942
  371TMC3    H1 5609   3.881   3.294  15.480  1.3905  1.1566  2.6729
  371TMC3    H2 5610   3.672   3.452  15.819 -1.3773 -2.1772  1.0368
  371TMC3    C7 5611   3.843   3.511  15.625 -0.6040  0.2755 -0.0172
  371TMC3    C8 5612   3.635   3.203  15.921 -0.5450  0.1493  1.2500
  371TMC3    O1 5613   3.878   3.530  15.507  0.3505 -0.8841  0.1930
  371TMC3    O2 5614   3.682   3.100  15.961  0.0041 -0.1221 -0.1937
  372MPD2     C 5615   3.398   4.013  13.875  0.0905  0.3577  0.2892
  372MPD2    C1 5616   3.496   3.927  13.843  0.5287  0.2131  0.1919
  372MPD2    C2 5617   3.473   3.790  13.844  0.0706 -0.4413  0.7375
  372MPD2    C3 5618   3.353   3.736  13.884  0.0803 -0.2450  0.2260
  372MPD2    C4 5619   3.253   3.825  13.918 -0.3759  0.8204  0.1826
  372MPD2    C5 5620   3.276   3.960  13.917  0.5501 -0.2563  0.6010
  372MPD2     H 5621   3.550   3.715  13.824 -0.8225 -1.1858  0.0972
  372MPD2    H1 5622   3.154   3.786  13.939  1.2671 -2.3970  1.9512
  372MPD2    H2 5623   3.404   4.121  13.873 -3.2320  0.5104 -2.2052
  372MPD2    H3 5624   3.197   4.027  13.948  2.2835  0.3748  3.6408
  372MPD2     N 5625   3.334   3.602  13.882  0.2890  0.2857 -0.3111
  372MPD2    H5 5626   3.408   3.541  13.849 -0.1537 -0.2243 -0.3519
  372MPD2    N1 5627   3.619   3.974  13.799 -0.1881 -0.2230 -0.4351
  372MPD2    H7 5628   3.695   3.907  13.793  0.9397  1.0990 -0.9364
  373TMC3    C1 5629   3.251   3.395  13.937  0.3147 -0.4905  1.1817
  373TMC3    C2 5630   3.288   3.336  14.060  0.5812  0.3258 -0.0900
  373TMC3    C3 5631   3.342   3.207  14.042 -0.6360  0.3993 -0.1325
  373TMC3    C4 5632   3.277   3.337  13.815  0.7751 -0.1486  0.4341
  373TMC3    C5 5633   3.326   3.214  13.810 -0.0195 -0.3554 -0.2084
  373TMC3    C6 5634   3.362   3.146  13.921 -1.0398  0.0377  0.7868
  373TMC3     C 5635   3.235   3.536  13.943 -0.6665 -0.0361 -0.3532
  373TMC3     O 5636   3.132   3.573  13.997 -0.1226  0.3034 -0.3896
  373TMC3     H 5637   3.270   3.392  14.151  1.6753 -0.3528  0.5472
  373TMC3    H1 5638   3.268   3.403  13.729  1.2789  2.2098  2.2001
  373TMC3    H2 5639   3.401   3.045  13.920 -1.1323  0.0058  0.4428
  373TMC3    C7 5640   3.396   3.167  13.690 -0.1314  0.4897  0.3599
  373TMC3    C8 5641   3.435   3.171  14.144  0.8646  0.5435 -0.1833
  373TMC3    O1 5642   3.487   3.087  13.701  0.4436 -0.3171 -0.2531
  373TMC3    O2 5643   3.545   3.139  14.104 -0.1887 -0.0986 -0.2933
  374TMC3    C1 5644   4.620   4.093   9.672 -0.4966 -0.0306  0.2170
  374TMC3    C2 5645   0.015   4.112   9.646  0.5218  0.2442  0.4536
  374TMC3    C3 5646   0.050   4.205   9.549  0.2002  0.0209  0.4317
  374TMC3    C4 5647   4.523   4.167   9.618  0.6962 -0.5016 -0.0906
  374TMC3    C5 5648   4.565   4.260   9.526 -0.0736 -0.7932 -0.0888
  374TMC3    C6 5649   4.695   4.276   9.481 -0.1522  0.1354  0.0026
  374TMC3     C 5650   4.593   3.990   9.767 -0.5327 -0.7872  0.0030
  374TMC3     O 5651   4.686   3.946   9.829  0.0866 -0.2837 -0.0184
  374TMC3     H 5652   0.087   4.046   9.691  2.2067  1.2689 -0.7302
  374TMC3    H1 5653   4.421   4.161   9.655  0.6335 -0.8873 -0.3337
  374TMC3    H2 5654   4.725   4.353   9.411  2.1033  0.6291  1.5119
  374TMC3    C7 5655   4.468   4.366   9.495  0.3558 -0.0941  0.6449
  374TMC3    C8 5656   0.191   4.234   9.529  0.3821  0.1990 -0.4691
  374TMC3    O1 5657   4.355   4.323   9.478  0.0654  0.1870 -0.1851
  374TMC3    O2 5658   0.220   4.281   9.420 -0.4679  0.1221 -0.2802
  375MPD2     C 5659   4.102   0.783  17.040 -1.0972  0.0311 -0.7339
  375MPD2    C1 5660   3.987   0.752  16.971 -0.4488 -0.2003  0.5368
  375MPD2    C2 5661   3.977   0.633  16.902 -0.2325  0.4703  0.6283
  375MPD2    C3 5662   4.095   0.551  16.897 -0.0894  0.0416 -0.0543
  375MPD2    C4 5663   4.209   0.591  16.969  0.0918  0.0720 -0.3258
  375MPD2    C5 5664   4.211   0.697  17.041 -0.7168 -0.6095 -0.7536
  375MPD2     H 5665   3.883   0.621  16.848  0.1185  0.0980  0.1012
  375MPD2    H1 5666   4.292   0.521  16.969 -1.3501 -1.6616 -1.4585
  375MPD2    H2 5667   4.125   0.868  17.104 -1.0873 -1.0463  0.7140
  375MPD2    H3 5668   4.298   0.724  17.100 -1.9207  1.7410 -0.0272
  375MPD2     N 5669   4.109   0.425  16.838 -0.2019  0.0117 -0.3261
  375MPD2    H5 5670   4.203   0.389  16.851 -0.2523  0.5589  1.5323
  375MPD2    N1 5671   3.880   0.845  16.963  0.2464  0.5512  0.1443
  375MPD2    H7 5672   3.808   0.824  16.894 -0.3402  1.8840  0.3598
  376TMC3    C1 5673   4.059   0.233  16.719  0.5380  0.4451 -0.1262
  376TMC3    C2 5674   4.170   0.175  16.781  0.5240 -0.1613  0.3664
  376TMC3    C3 5675   4.206   0.048  16.726  0.8609  0.1061 -0.5369
  376TMC3    C4 5676   4.024   0.197  16.588  0.5027  0.5775 -0.3998
  376TMC3    C5 5677   4.062   0.077  16.535  0.1387 -0.0490  0.2442
  376TMC3    C6 5678   4.156   0.005  16.604 -0.0329 -0.0305  0.3055
  376TMC3     C 5679   4.015   0.365  16.757 -0.1982  1.0044 -0.2477
  376TMC3     O 5680   3.927   0.418  16.693  0.2306 -0.3635 -0.0249
  376TMC3     H 5681   4.189   0.197  16.885  2.8799 -0.6714  0.0428
  376TMC3    H1 5682   3.946   0.251  16.535 -0.4720 -0.1330  0.3182
  376TMC3    H2 5683   4.192   4.650  16.560  0.8333  1.7180 -2.6147
  376TMC3    C7 5684   4.061   0.073  16.390  0.3432 -0.1111 -0.2299
  376TMC3    C8 5685   4.326   4.715  16.775  0.2509  0.4769  0.3105
  376TMC3    O1 5686   4.113   0.174  16.339  0.0141  0.5382 -0.3785
  376TMC3    O2 5687   4.336   4.595  16.753  0.0725 -0.4837  0.1206
  377MPD2     C 5688   2.622   4.223  12.695 -0.5979 -0.0644 -0.0999
  377MPD2    C1 5689   2.545   4.228  12.581  0.3017  0.1402  0.0835
  377MPD2    C2 5690   2.406   4.212  12.587 -0.3739 -0.0823 -0.2668
  377MPD2    C3 5691   2.349   4.195  12.713  0.5149 -0.4533  0.3105
  377MPD2    C4 5692   2.426   4.202  12.829 -0.4105  0.2886  0.3149
  377MPD2    C5 5693   2.564   4.219  12.818 -0.1770  0.2922  0.1691
  377MPD2     H 5694   2.341   4.214  12.500  1.4889 -1.1887 -1.7063
  377MPD2    H1 5695   2.376   4.214  12.925 -1.5964  0.2140 -0.2979
  377MPD2    H2 5696   2.730   4.234  12.689 -0.6359  0.4788  0.2156
  377MPD2    H3 5697   2.611   4.227  12.915  0.7651  0.7423 -0.3294
  377MPD2     N 5698   2.205   4.190  12.737 -0.0829  0.0732  0.1329
  377MPD2    H5 5699   2.179   4.167  12.833  0.0748  2.4675  0.7427
  377MPD2    N1 5700   2.610   4.248  12.461  0.0159  0.4527 -0.0586
  377MPD2    H7 5701   2.711   4.261  12.467  0.1753  0.1103 -2.0901
  378TMC3    C1 5702   2.676   4.387  12.006 -0.4122  0.4041 -0.5002
  378TMC3    C2 5703   2.602   4.379  12.121  0.4107 -0.6742  0.0201
  378TMC3    C3 5704   2.653   4.309  12.230  0.2835 -0.8960 -0.4616
  378TMC3    C4 5705   2.798   4.324  12.007  0.5109  0.5689 -0.0636
  378TMC3    C5 5706   2.847   4.259  12.115  0.4335 -0.8264 -0.0594
  378TMC3    C6 5707   2.767   4.238  12.224  0.3593 -0.6588  0.1927
  378TMC3     C 5708   2.639   4.469  11.890 -0.0900 -0.0617 -0.1954
  378TMC3     O 5709   2.684   4.442  11.781  0.0344  0.1836  0.3479
  378TMC3     H 5710   2.503   4.422  12.127  1.2647  1.1086  1.5527
  378TMC3    H1 5711   2.866   4.337  11.924  1.1214 -0.3480  0.2992
  378TMC3    H2 5712   2.796   4.187  12.316  0.2131 -0.4663  0.3455
  378TMC3    C7 5713   2.979   4.195  12.116  0.9349  0.2045  0.6634
  378TMC3    C8 5714   2.558   4.284  12.337 -0.4062 -0.2482 -0.1407
  378TMC3    O1 5715   3.009   4.149  12.228 -0.1010 -0.4030 -0.2760
  378TMC3    O2 5716   2.445   4.290  12.304  0.2704 -0.3209 -0.3203
  379MPD2     C 5717   2.619   3.020  16.317 -0.3605 -0.0371 -0.3780
  379MPD2    C1 5718   2.701   2.917  16.263  0.1581 -0.6312  0.1993
  379MPD2    C2 5719   2.812   2.872  16.336  0.7503  0.2036 -0.7144
  379MPD2    C3 5720   2.829   2.903  16.471 -0.0598 -0.6226  0.6720
  379MPD2    C4 5721   2.737   2.986  16.525 -0.0693  0.2583  0.0437
  379MPD2    C5 5722   2.640   3.046  16.451 -0.4116 -0.6382  0.0619
  379MPD2     H 5723   2.872   2.799  16.283 -0.0207  0.3953 -1.8413
  379MPD2    H1 5724   2.735   3.016  16.629 -0.5991  0.2495  0.0381
  379MPD2    H2 5725   2.529   3.058  16.269 -0.9962  0.1911  0.9756
  379MPD2    H3 5726   2.571   3.115  16.499  1.6957  2.3693 -1.2373
  379MPD2     N 5727   2.934   2.851  16.552 -0.1501  0.3119 -0.3883
  379MPD2    H5 5728   2.921   2.859  16.652 -0.1892  1.8805 -0.5118
  379MPD2    N1 5729   2.674   2.877  16.135 -0.5003  0.2338 -0.1108
  379MPD2    H7 5730   2.589   2.919  16.098  1.5564  4.5792  0.0354
  380TMC3    C1 5731   2.648   2.736  15.957 -0.5775 -0.5387 -0.3790
  380TMC3    C2 5732   2.712   2.700  15.846 -0.0330 -0.3566  0.4006
  380TMC3    C3 5733   2.635   2.697  15.732  0.5207  0.0313  1.1384
  380TMC3    C4 5734   2.521   2.797  15.955 -0.1228 -0.4504  0.9062
  380TMC3    C5 5735   2.448   2.790  15.842  0.4301 -0.0219  0.4544
  380TMC3    C6 5736   2.500   2.735  15.729 -0.1244 -0.0743  0.0446
  380TMC3     C 5737   2.731   2.771  16.069 -0.5776  0.5970 -0.3495
  380TMC3     O 5738   2.816   2.687  16.098 -0.2169  0.4602  0.2160
  380TMC3     H 5739   2.817   2.672  15.849  0.0279 -0.0163  1.6074
  380TMC3    H1 5740   2.464   2.820  16.045 -0.4946  1.3456  0.2082
  380TMC3    H2 5741   2.446   2.714  15.638 -2.5212  1.1146  1.2211
  380TMC3    C7 5742   2.307   2.808  15.855  0.1376 -0.6824 -0.3610
  380TMC3    C8 5743   2.693   2.668  15.603 -0.0934 -0.0432  0.4342
  380TMC3    O1 5744   2.269   2.876  15.947  0.1037  0.6581 -0.7133
  380TMC3    O2 5745   2.629   2.708  15.503 -0.3856 -0.2982  0.5233
  381TMC3    C1 5746   2.516   3.835  16.588  0.2301  0.4749  0.6849
  381TMC3    C2 5747   2.591   3.948  16.558  0.1162  0.6938 -0.0389
  381TMC3    C3 5748   2.607   4.050  16.655 -0.7100  0.2121  0.3415
  381TMC3    C4 5749   2.468   3.818  16.714  0.1567 -0.0495 -0.1641
  381TMC3    C5 5750   2.482   3.921  16.806  0.6407 -0.0914 -0.2582
  381TMC3    C6 5751   2.553   4.038  16.779 -0.0469  0.3915  0.2600
  381TMC3     C 5752   2.517   3.720  16.504  0.4139 -0.8880  0.1279
  381TMC3     O 5753   2.521   3.610  16.558  0.2505 -0.0744 -0.2736
  381TMC3     H 5754   2.645   3.963  16.464  1.9312  0.3728  0.9470
  381TMC3    H1 5755   2.427   3.720  16.738  0.2319 -0.0206  0.0811
  381TMC3    H2 5756   2.561   4.117  16.853  0.8840 -1.3536  2.0403
  381TMC3    C7 5757   2.384   3.914  16.908  0.6794 -0.0771  0.7325
  381TMC3    C8 5758   2.713   4.144  16.625  0.3434  0.0759 -0.5375
  381TMC3    O1 5759   2.326   3.808  16.934 -0.8128 -0.1912 -0.6187
  381TMC3    O2 5760   2.802   4.115  16.545 -0.3340 -0.8086  0.2798
  382MPD2     C 5761   2.117   1.752  17.489  0.2725  0.2573  0.5570
  382MPD2    C1 5762   1.996   1.823  17.507 -0.0338  0.2076 -0.1678
  382MPD2    C2 5763   1.882   1.745  17.522  0.4562  0.2433  0.1688
  382MPD2    C3 5764   1.888   1.606  17.516  0.4005  0.7972 -0.2980
  382MPD2    C4 5765   2.001   1.540  17.495  0.0908  0.7520  0.5033
  382MPD2    C5 5766   2.118   1.613  17.477 -0.2763  0.2140 -0.3863
  382MPD2     H 5767   1.789   1.800  17.526 -0.0872 -0.6253 -0.7775
  382MPD2    H1 5768   2.014   1.434  17.510  1.9528  0.5721 -2.4078
  382MPD2    H2 5769   2.216   1.797  17.491 -0.0045  0.9780 -1.2274
  382MPD2    H3 5770   2.216   1.567  17.473  1.1077  3.0061  1.2073
  382MPD2     N 5771   1.765   1.540  17.545 -0.5155  0.2277  0.1037
  382MPD2    H5 5772   1.682   1.596  17.563  1.1059  2.4535  0.6743
  382MPD2    N1 5773   1.981   1.964  17.514 -0.3598 -0.3824 -0.0884
  382MPD2    H7 5774   1.889   1.999  17.538 -0.3797 -0.4241 -0.1030
  383TMC3    C1 5775   1.598   1.379  17.580 -0.1215 -0.5247  0.0904
  383TMC3    C2 5776   1.534   1.270  17.529  0.5587 -0.6239 -0.1452
  383TMC3    C3 5777   1.396   1.268  17.532  0.1645 -0.0935  0.2844
  383TMC3    C4 5778   1.531   1.481  17.642  0.7688  1.0493  0.4901
  383TMC3    C5 5779   1.394   1.469  17.648  0.0228 -0.0689  0.2540
  383TMC3    C6 5780   1.318   1.365  17.593 -0.1126  0.0441 -0.4956
  383TMC3     C 5781   1.734   1.400  17.543 -0.4176 -0.6553  0.9294
  383TMC3     O 5782   1.806   1.309  17.507 -0.0621  0.0717 -0.0538
  383TMC3     H 5783   1.589   1.193  17.477 -1.0802 -0.9725 -1.3408
  383TMC3    H1 5784   1.579   1.567  17.686 -0.8595  1.6786  1.0676
  383TMC3    H2 5785   1.211   1.349  17.600  0.4294 -3.6755 -0.6457
  383TMC3    C7 5786   1.330   1.586  17.698  0.2984  0.3325 -0.5814
  383TMC3    C8 5787   1.325   1.178  17.448  1.3242  0.4364  0.4223
  383TMC3    O1 5788   1.377   1.697  17.683 -0.4634  0.1024  0.0719
  383TMC3    O2 5789   1.210   1.218  17.419  0.9922 -0.1591 -0.0943
  384MPD2     C 5790   3.046   2.360  11.922  0.8878 -0.0022  0.8275
  384MPD2    C1 5791   3.104   2.381  12.042  0.1616  0.5815  0.2450
  384MPD2    C2 5792   3.237   2.364  12.056 -0.4962  0.0205 -0.5994
  384MPD2    C3 5793   3.320   2.319  11.952  0.0507  0.0251 -0.5991
  384MPD2    C4 5794   3.263   2.285  11.830 -0.3225 -0.3709  1.1054
  384MPD2    C5 5795   3.127   2.314  11.821  0.7378 -0.0813  0.5578
  384MPD2     H 5796   3.291   2.397  12.144  0.0510  2.6295 -1.9441
  384MPD2    H1 5797   3.320   2.256  11.742 -2.4024  0.7184 -0.6002
  384MPD2    H2 5798   2.943   2.388  11.903  0.7401  0.7485  2.7627
  384MPD2    H3 5799   3.064   2.315  11.733  0.0356 -0.8265  1.0517
  384MPD2     N 5800   3.457   2.306  11.985  0.2625  0.4716 -0.4474
  384MPD2    H5 5801   3.471   2.327  12.083  1.4977 -2.4766 -0.0045
  384MPD2    N1 5802   3.032   2.430  12.156 -0.7178  0.1130  0.4370
  384MPD2    H7 5803   3.094   2.436  12.237  0.4180  1.1885 -0.5159
  385TMC3    C1 5804   3.686   2.278  11.967  0.4803  0.5354  0.3601
  385TMC3    C2 5805   3.752   2.165  11.967 -0.1545 -0.1193 -0.0049
  385TMC3    C3 5806   3.794   2.113  12.089  0.4975  0.0135 -0.2210
  385TMC3    C4 5807   3.674   2.356  12.082  0.7622 -0.3798 -0.5396
  385TMC3    C5 5808   3.714   2.303  12.203  0.7145 -0.1850  0.0333
  385TMC3    C6 5809   3.778   2.181  12.212  0.6107  0.1376 -0.0126
  385TMC3     C 5810   3.556   2.275  11.901 -0.0694  0.7506 -0.6500
  385TMC3     O 5811   3.557   2.227  11.788 -0.3700 -0.1227 -0.0460
  385TMC3     H 5812   3.747   2.104  11.877 -1.8241 -0.5117  0.3501
  385TMC3    H1 5813   3.631   2.456  12.077 -0.9033 -1.0984 -0.6130
  385TMC3    H2 5814   3.784   2.122  12.303  0.3914  0.5567  0.2729
  385TMC3    C7 5815   3.618   2.346  12.302  0.7038  0.7528 -0.5326
  385TMC3    C8 5816   3.858   1.985  12.094 -0.4703 -0.2385  0.6732
  385TMC3    O1 5817   3.523   2.402  12.249 -0.2692  0.3948 -1.3848
  385TMC3    O2 5818   3.896   1.945  12.204  0.0377  0.4165  0.2850
  386TMC3    C1 5819   4.110   4.222  11.786  0.3993  0.3293  0.6602
  386TMC3    C2 5820   4.165   4.184  11.662 -0.3395 -0.9940 -1.0422
  386TMC3    C3 5821   4.090   4.211  11.546  0.2676  0.0069 -0.4372
  386TMC3    C4 5822   4.002   4.316  11.778  0.1450 -0.5261 -0.0879
  386TMC3    C5 5823   3.927   4.336  11.670  0.0231 -0.1214  0.2880
  386TMC3    C6 5824   3.976   4.284  11.556  0.0038  0.1121 -0.4453
  386TMC3     C 5825   4.202   4.266  11.880  0.4293 -0.1554 -0.8162
  386TMC3     O 5826   4.208   4.386  11.900  0.0043 -0.2087  0.0583
  386TMC3     H 5827   4.269   4.160  11.646  0.4179  1.1538  0.5969
  386TMC3    H1 5828   3.962   4.361  11.869 -1.9937 -0.5711 -1.0123
  386TMC3    H2 5829   3.918   4.310  11.468  0.4082 -1.2691 -1.1198
  386TMC3    C7 5830   3.786   4.357  11.702  0.4132  0.0492  0.2981
  386TMC3    C8 5831   4.143   4.176  11.415  0.4151 -0.3319 -0.1391
  386TMC3    O1 5832   3.751   4.320  11.813  0.4396  0.2395 -0.0271
  386TMC3    O2 5833   4.242   4.109  11.417  0.3692 -0.2469 -0.4377
  387MPD2     C 5834   1.819   4.690   9.646 -0.2138 -0.2578  0.1169
  387MPD2    C1 5835   1.922   4.640   9.724 -0.2555 -0.5136  0.4202
  387MPD2    C2 5836   1.910   4.518   9.783 -0.1344  0.5266 -0.2117
  387MPD2    C3 5837   1.790   4.445   9.784 -0.1823  0.1457 -0.4087
  387MPD2    C4 5838   1.686   4.500   9.711 -0.5445  0.2771 -0.1511
  387MPD2    C5 5839   1.701   4.614   9.643  0.1639  0.5704  0.3192
  387MPD2     H 5840   1.992   4.493   9.850  0.4083  0.5466 -0.8655
  387MPD2    H1 5841   1.587   4.456   9.710  0.2877 -1.6192 -0.4841
  387MPD2    H2 5842   1.821   0.049   9.598  0.9501 -1.2534 -1.8610
  387MPD2    H3 5843   1.617   4.653   9.586  1.6360 -2.1766 -3.7033
  387MPD2     N 5844   1.780   4.331   9.859  0.1829  0.2088  0.0891
  387MPD2    H5 5845   1.861   4.298   9.910  0.9114 -1.3634 -2.0780
  387MPD2    N1 5846   2.042   4.709   9.750 -0.2520  0.9708 -0.4846
  387MPD2    H7 5847   2.115   4.657   9.797 -0.3819  0.6688 -0.6162
  388TMC3    C1 5848   2.208   0.115   9.773  0.1870 -0.2174 -0.0714
  388TMC3    C2 5849   2.300   0.180   9.709  0.4298  0.2481 -0.7242
  388TMC3    C3 5850   2.425   0.182   9.775  0.2407  0.4979 -0.3178
  388TMC3    C4 5851   2.228   0.053   9.895  0.1713 -0.5330  0.1682
  388TMC3    C5 5852   2.352   0.065   9.959 -0.3890  0.3372  0.2144
  388TMC3    C6 5853   2.453   0.132   9.903 -0.2443  0.1002 -0.0264
  388TMC3     C 5854   2.077   0.102   9.718 -0.1468 -0.7130  0.0168
  388TMC3     O 5855   2.010   0.197   9.674 -0.4464 -0.4561 -0.2907
  388TMC3     H 5856   2.281   0.241   9.621  1.3716  1.9991  0.2809
  388TMC3    H1 5857   2.144   0.021   9.957  1.1614  1.7651  2.6899
  388TMC3    H2 5858   2.546   0.139   9.959 -0.1718  0.9882 -0.2537
  388TMC3    C7 5859   2.382   4.707  10.061  0.3746 -0.2387 -0.0760
  388TMC3    C8 5860   2.537   0.242   9.690 -0.1445  0.2720 -0.3184
  388TMC3    O1 5861   2.479   4.722  10.136  0.2972  0.3776  0.5389
  388TMC3    O2 5862   2.505   0.285   9.583  0.1977 -0.1334 -0.0398
  389MPD2     C 5863   0.574   3.176  11.082  0.2854  0.3372 -0.1956
  389MPD2    C1 5864   0.579   3.050  11.034  0.2232  0.0543  0.0514
  389MPD2    C2 5865   0.577   2.944  11.125 -0.3377 -0.5218 -0.3302
  389MPD2    C3 5866   0.542   2.971  11.255  0.1110 -0.4209  0.4122
  389MPD2    C4 5867   0.549   3.101  11.305 -0.4838 -1.2863  0.4400
  389MPD2    C5 5868   0.577   3.198  11.221  0.4716 -0.1156 -0.3589
  389MPD2     H 5869   0.583   2.842  11.087 -1.5070 -0.5381 -0.4691
  389MPD2    H1 5870   0.518   3.127  11.406 -1.1782 -3.1037  0.6871
  389MPD2    H2 5871   0.565   3.264  11.020 -0.3655  0.2557 -0.2264
  389MPD2    H3 5872   0.571   3.303  11.245 -1.4470 -0.6055  1.2757
  389MPD2     N 5873   0.495   2.869  11.347  0.0034 -0.6956  0.7363
  389MPD2    H5 5874   0.465   2.906  11.436 -2.3665 -2.5866  0.7273
  389MPD2    N1 5875   0.591   3.047  10.892 -0.7169 -0.4164 -0.5967
  389MPD2    H7 5876   0.604   3.139  10.851 -0.3830 -1.0277 -1.8705
  390TMC3    C1 5877   0.426   2.660  11.442  0.3508 -0.3166  0.1036
  390TMC3    C2 5878   0.484   2.536  11.468  0.0143 -0.3017 -0.0497
  390TMC3    C3 5879   0.484   2.487  11.594 -0.1915  0.3176 -0.3435
  390TMC3    C4 5880   0.364   2.736  11.542 -0.9077  0.1338  0.0921
  390TMC3    C5 5881   0.375   2.678  11.668 -0.5494 -0.5071 -0.0056
  390TMC3    C6 5882   0.437   2.558  11.696 -0.3277 -0.3158 -0.0615
  390TMC3     C 5883   0.483   2.732  11.327  0.5605 -0.2119 -0.2318
  390TMC3     O 5884   0.527   2.665  11.230  0.3644  0.0932  0.0648
  390TMC3     H 5885   0.518   2.474  11.386  0.9740 -1.1273  0.9580
  390TMC3    H1 5886   0.303   2.824  11.528 -0.7987  0.1035 -0.5939
  390TMC3    H2 5887   0.481   2.549  11.794  2.9938  1.9510 -1.3621
  390TMC3    C7 5888   0.275   2.728  11.766  0.2162  0.3118  0.3028
  390TMC3    C8 5889   0.434   2.354  11.597  0.3323  0.5295  0.1791
  390TMC3    O1 5890   0.269   2.846  11.793 -0.2204  1.2744  0.5704
  390TMC3    O2 5891   0.415   2.306  11.486 -0.1326  0.3149  0.2500
  391MPD2     C 5892   0.615   4.189  11.055  0.7982 -0.0487 -0.3958
  391MPD2    C1 5893   0.726   4.259  11.008  0.3886  0.1577 -0.1096
  391MPD2    C2 5894   0.744   4.288  10.876  0.6519 -0.6340 -1.1975
  391MPD2    C3 5895   0.647   4.248  10.783 -0.2205 -0.0031  0.0023
  391MPD2    C4 5896   0.527   4.190  10.824 -0.2764 -0.1270 -0.1326
  391MPD2    C5 5897   0.515   4.163  10.961 -0.8153  0.8309  0.7573
  391MPD2     H 5898   0.825   4.346  10.832 -0.4934  0.7314 -1.4722
  391MPD2    H1 5899   0.451   4.156  10.754  0.3466 -1.1688 -0.3075
  391MPD2    H2 5900   0.600   4.165  11.160 -0.4965  1.6500 -0.1746
  391MPD2    H3 5901   0.424   4.124  11.004 -2.1908  0.6749 -2.3258
  391MPD2     N 5902   0.671   4.296  10.655 -0.3945 -0.0821 -0.1487
  391MPD2    H5 5903   0.758   4.340  10.630 -0.0982  0.4797  1.8631
  391MPD2    N1 5904   0.813   4.315  11.099 -0.1541  0.8049  0.1008
  391MPD2    H7 5905   0.803   4.286  11.195  1.3438  0.7214  0.2355
  392TMC3    C1 5906   0.652   4.329  10.423  0.2466  0.0468  0.1240
  392TMC3    C2 5907   0.586   4.303  10.303 -0.1842 -0.5437  0.1490
  392TMC3    C3 5908   0.635   4.355  10.187 -0.1165  0.1308  0.7900
  392TMC3    C4 5909   0.751   4.430  10.422 -0.5237 -0.1490 -0.4019
  392TMC3    C5 5910   0.773   4.495  10.297  0.0880 -0.0208  1.0547
  392TMC3    C6 5911   0.723   4.457  10.182 -0.2571 -0.1739 -1.0295
  392TMC3     C 5912   0.590   4.282  10.544  0.0935 -0.2038  0.2024
  392TMC3     O 5913   0.475   4.238  10.538 -0.2664 -0.0649  0.4558
  392TMC3     H 5914   0.502   4.235  10.304 -1.3530  0.8855 -0.9283
  392TMC3    H1 5915   0.791   4.470  10.514 -0.6073  4.1496 -2.2561
  392TMC3    H2 5916   0.754   4.500  10.088  1.3404 -1.8884 -1.2754
  392TMC3    C7 5917   0.820   4.632  10.307 -0.3542  0.0903  0.6521
  392TMC3    C8 5918   0.557   4.312  10.069 -0.7964 -0.0662  0.0871
  392TMC3    O1 5919   0.868   4.665  10.412 -0.4077 -0.2928 -0.4314
  392TMC3    O2 5920   0.441   4.281  10.078  0.2294 -0.2289  0.3828
  393TMC3    C1 5921   4.291   2.496  10.787 -0.4618  0.0405 -0.1285
  393TMC3    C2 5922   4.174   2.475  10.850  0.1607 -1.3031  0.1354
  393TMC3    C3 5923   4.162   2.354  10.916 -0.2440 -0.3639  0.2305
  393TMC3    C4 5924   4.406   2.421  10.793 -0.3031  0.0927 -0.3026
  393TMC3    C5 5925   4.385   2.300  10.860  0.2533 -0.7156 -0.4336
  393TMC3    C6 5926   4.267   2.267  10.925  0.6066 -0.3059 -0.1697
  393TMC3     C 5927   4.285   2.610  10.697 -0.3894  0.0317  0.1499
  393TMC3     O 5928   4.203   2.700  10.717 -0.2079 -0.2280  0.0869
  393TMC3     H 5929   4.095   2.549  10.849 -1.9321 -3.5477 -0.0026
  393TMC3    H1 5930   4.505   2.449  10.759 -0.8131  1.5586 -0.5468
  393TMC3    H2 5931   4.261   2.172  10.976 -3.5694  0.9706  1.7048
  393TMC3    C7 5932   4.496   2.194  10.866  0.2467  0.4775 -0.1636
  393TMC3    C8 5933   4.037   2.305  10.962  0.3224  0.0883  0.4664
  393TMC3    O1 5934   4.497   2.127  10.968 -0.7238 -0.8586 -0.3709
  393TMC3    O2 5935   4.027   2.181  10.964  0.0836 -0.3524 -0.3870
  394TMC3    C1 5936   0.602   2.958  10.675 -0.0829 -0.0713  0.7142
  394TMC3    C2 5937   0.562   2.864  10.589 -0.4258 -0.3217  0.3412
  394TMC3    C3 5938   0.584   2.880  10.451 -0.3069  0.5510  0.1067
  394TMC3    C4 5939   0.693   3.056  10.645 -0.1216  0.1095  0.2859
  394TMC3    C5 5940   0.733   3.050  10.512  0.5872 -0.4192  0.2948
  394TMC3    C6 5941   0.666   2.981  10.417  0.0908  0.2003  0.4402
  394TMC3     C 5942   0.580   2.933  10.818 -0.4608 -0.6038  0.4663
  394TMC3     O 5943   0.550   2.818  10.852 -0.0349 -0.1022  0.0858
  394TMC3     H 5944   0.499   2.781  10.620 -2.4038  1.5568  1.2987
  394TMC3    H1 5945   0.751   3.119  10.712  0.4402 -0.7409  0.6043
  394TMC3    H2 5946   0.695   2.981  10.313 -0.2906 -0.7613  0.3340
  394TMC3    C7 5947   0.859   3.117  10.469 -0.1830  0.7178 -0.5326
  394TMC3    C8 5948   0.578   2.773  10.363 -0.0150 -0.2332 -0.0264
  394TMC3    O1 5949   0.870   3.157  10.356  0.2914  0.1450 -0.0246
  394TMC3    O2 5950   0.566   2.800  10.240 -0.1329  0.2218 -0.1384
  395TMC3    C1 5951   0.215   0.024  14.743  0.3250 -0.7793  0.3492
  395TMC3    C2 5952   0.227   4.663  14.641 -0.0912 -0.9094 -0.4015
  395TMC3    C3 5953   0.347   4.660  14.580 -0.1542  0.0852  0.1130
  395TMC3    C4 5954   0.311   0.111  14.784 -0.5192 -0.5391 -0.3290
  395TMC3    C5 5955   0.436   0.100  14.721  0.9759  0.3599  0.4448
  395TMC3    C6 5956   0.449   0.010  14.616  0.0935  0.2757  0.4455
  395TMC3     C 5957   0.122   4.724  14.851  0.3224 -0.2504  0.4254
  395TMC3     O 5958   0.084   0.071  14.926 -0.0697 -0.1355 -0.1317
  395TMC3     H 5959   0.136   4.616  14.605 -1.7852  0.9880  1.4085
  395TMC3    H1 5960   0.305   0.172  14.873  1.0771 -1.1452  0.2025
  395TMC3    H2 5961   0.537   0.021  14.552  0.5275  1.0283  1.1662
  395TMC3    C7 5962   0.550   0.178  14.772 -0.4097  0.0212 -0.2242
  395TMC3    C8 5963   0.350   4.609  14.450  0.1831 -0.6801 -0.8399
  395TMC3    O1 5964   0.517   0.283  14.825 -0.2232 -0.6554 -0.3411
  395TMC3    O2 5965   0.432   4.655  14.375 -0.6326  0.6113 -0.1830
  396MPD2     C 5966   0.034   1.432  16.668  0.2648 -0.6260 -0.2247
  396MPD2    C1 5967   0.147   1.422  16.746  0.2382  0.5133 -0.6515
  396MPD2    C2 5968   0.270   1.471  16.692  0.5606  0.2284 -0.6912
  396MPD2    C3 5969   0.268   1.531  16.570 -0.0617  0.3982 -0.3679
  396MPD2    C4 5970   0.151   1.554  16.498  0.2656 -0.2593  0.0151
  396MPD2    C5 5971   0.038   1.498  16.547  0.2506 -0.4988  0.7172
  396MPD2     H 5972   0.360   1.471  16.752  1.3458 -1.9353 -1.8728
  396MPD2    H1 5973   0.144   1.612  16.406 -0.6769  1.9809  1.5054
  396MPD2    H2 5974   4.674   1.416  16.711 -1.0892  0.3500 -2.9184
  396MPD2    H3 5975   4.683   1.513  16.493  0.2265 -1.4135  0.4927
  396MPD2     N 5976   0.390   1.583  16.520 -0.1033  0.4199 -0.5917
  396MPD2    H5 5977   0.476   1.550  16.563 -0.8337  0.1946  0.7057
  396MPD2    N1 5978   0.132   1.374  16.878  0.0415  0.3525 -0.7302
  396MPD2    H7 5979   0.053   1.315  16.903 -0.8728  1.3626 -1.2522
  397TMC3    C1 5980   0.188   1.322  17.108 -0.2364  0.0104 -0.4827
  397TMC3    C2 5981   0.307   1.287  17.164  0.2278 -0.3883  0.4547
  397TMC3    C3 5982   0.320   1.171  17.234 -0.2179  0.4689 -0.3529
  397TMC3    C4 5983   0.094   1.229  17.098 -0.6039 -0.4399  0.4381
  397TMC3    C5 5984   0.107   1.111  17.169  0.2573 -0.7068 -0.2788
  397TMC3    C6 5985   0.224   1.078  17.236  0.0724 -0.0600  0.2246
  397TMC3     C 5986   0.222   1.392  16.980  0.0949  0.1176 -1.0808
  397TMC3     O 5987   0.308   1.478  16.986 -0.4730 -0.0264 -0.0663
  397TMC3     H 5988   0.391   1.354  17.175  0.2228 -0.8009  2.9830
  397TMC3    H1 5989   4.732   1.252  17.062  0.0914  1.1266 -0.4904
  397TMC3    H2 5990   0.240   0.984  17.286  0.9889 -0.1673 -0.2641
  397TMC3    C7 5991   4.714   1.048  17.196  0.3710 -0.4643 -0.4602
  397TMC3    C8 5992   0.439   1.123  17.303 -0.0299 -0.9056 -0.6317
  397TMC3    O1 5993   4.638   1.055  17.098 -0.4697  0.1476 -0.5862
  397TMC3    O2 5994   0.421   1.043  17.393  0.3283  0.2372 -0.2123
  398MPD2     C 5995   2.828   2.797   0.113  0.1946 -0.7760 -0.5931
  398MPD2    C1 5996   2.940   2.750   0.176 -0.0279  0.0239  0.2577
  398MPD2    C2 5997   2.994   2.826   0.276 -0.1681 -0.4336  0.1638
  398MPD2    C3 5998   2.939   2.945   0.315  0.5326 -0.0892  0.2454
  398MPD2    C4 5999   2.817   2.975   0.263  0.1025  0.1268 -0.1357
  398MPD2    C5 6000   2.761   2.908   0.162  0.1225 -0.7337  0.0924
  398MPD2     H 6001   3.080   2.780   0.323  2.2445  0.2449 -3.5214
  398MPD2    H1 6002   2.769   3.066   0.297 -0.7354 -0.4981  0.3319
  398MPD2    H2 6003   2.775   2.747   0.033 -0.5975  1.2493 -1.3403
  398MPD2    H3 6004   2.667   2.941   0.121 -0.1193 -0.8077  0.5879
  398MPD2     N 6005   3.000   3.032   0.417  0.5552  0.1067  1.0968
  398MPD2    H5 6006   2.943   3.096   0.471 -0.2650  0.6315 -0.3983
  398MPD2    N1 6007   2.988   2.619   0.159 -0.4640 -0.3505 -0.0319
  398MPD2    H7 6008   3.065   2.592   0.219  0.8219  0.6892 -1.2242
  399TMC3    C1 6009   3.029   2.417   0.050  0.1915  1.1038 -1.0676
  399TMC3    C2 6010   3.138   2.413   0.137  0.3493 -0.1535 -0.2265
  399TMC3    C3 6011   3.149   2.305   0.217 -0.1820 -0.1732  0.2832
  399TMC3    C4 6012   2.934   2.320   0.054 -0.0079  0.8178  0.3292
  399TMC3    C5 6013   2.947   2.221   0.145  0.5850 -0.4067  0.5247
  399TMC3    C6 6014   3.056   2.216   0.231  0.8776  0.1600  0.1947
  399TMC3     C 6015   2.950   2.538   0.060  0.4167  0.8983 -0.9171
  399TMC3     O 6016   2.852   2.531  17.735  0.0866 -0.3472 -0.0300
  399TMC3     H 6017   3.201   2.500   0.146 -1.1989  1.0760 -1.1709
  399TMC3    H1 6018   2.858   2.307  17.726 -1.2313  0.5978  1.5891
  399TMC3    H2 6019   3.062   2.137   0.306 -0.8897  0.3813  0.5756
  399TMC3    C7 6020   2.847   2.124   0.172  0.2701 -0.7868 -0.1374
  399TMC3    C8 6021   3.248   2.314   0.321 -0.2718 -0.7023  0.4309
  399TMC3    O1 6022   2.874   2.036   0.251 -0.2193 -0.5894 -0.2256
  399TMC3    O2 6023   3.271   2.422   0.368 -0.0757 -0.4764  1.0215
  400TMC3    C1 6024   1.633   0.891  17.173 -0.3648  0.4090  0.3092
  400TMC3    C2 6025   1.514   0.892  17.103 -0.4626  0.5157  0.3827
  400TMC3    C3 6026   1.475   1.012  17.049 -0.3125 -0.3570 -0.0262
  400TMC3    C4 6027   1.717   0.999  17.176  0.5735  0.2084 -0.2014
  400TMC3    C5 6028   1.674   1.110  17.116 -0.7098 -0.8631 -0.7834
  400TMC3    C6 6029   1.547   1.127  17.063 -0.1399  0.2488  0.1294
  400TMC3     C 6030   1.664   0.775  17.257  0.3326  0.4368  0.1615
  400TMC3     O 6031   1.598   0.673  17.234  0.9379 -0.4178  0.1676
  400TMC3     H 6032   1.457   0.800  17.102  1.0646 -0.3994 -1.1398
  400TMC3    H1 6033   1.822   0.989  17.201  0.5062  2.8615  1.1762
  400TMC3    H2 6034   1.497   1.218  17.033  0.4551  0.6184  0.2557
  400TMC3    C7 6035   1.761   1.220  17.112  0.1786  0.0238 -0.0339
  400TMC3    C8 6036   1.364   1.035  16.959  0.4653 -0.3229 -0.0051
  400TMC3    O1 6037   1.883   1.197  17.100 -0.3026 -0.0837 -1.0493
  400TMC3    O2 6038   1.348   1.132  16.884 -0.2027  0.7485  0.0911
  401MPD2     C 6039   3.820   3.663   1.470  0.4891  0.5880 -0.7241
  401MPD2    C1 6040   3.922   3.597   1.404  0.8455  0.1303  0.7533
  401MPD2    C2 6041   3.978   3.491   1.466 -0.7693  0.0109 -1.0696
  401MPD2    C3 6042   3.940   3.452   1.597  0.3869 -0.0511  0.0147
  401MPD2    C4 6043   3.835   3.515   1.661 -0.0464 -0.0925  0.5041
  401MPD2    C5 6044   3.784   3.625   1.598  0.6365  0.4829  0.9139
  401MPD2     H 6045   4.070   3.449   1.427  1.1540  2.1051  1.2661
  401MPD2    H1 6046   3.790   3.490   1.756 -0.1617  4.7088  1.7500
  401MPD2    H2 6047   3.772   3.753   1.435 -2.1734  0.1478  1.8166
  401MPD2    H3 6048   3.707   3.676   1.655 -1.3787 -1.8747  0.2740
  401MPD2     N 6049   3.997   3.343   1.653  0.4231 -0.1953  0.2517
  401MPD2    H5 6050   4.060   3.297   1.588  1.0473 -1.6626  1.8942
  401MPD2    N1 6051   3.977   3.636   1.281 -0.7879 -0.3010  0.5828
  401MPD2    H7 6052   4.065   3.590   1.259 -0.9144  0.4580 -1.5314
  402TMC3    C1 6053   4.047   3.163   1.790 -0.1477  0.2975  0.2155
  402TMC3    C2 6054   4.081   3.124   1.917 -0.7747 -0.2100 -0.6587
  402TMC3    C3 6055   4.118   2.987   1.936 -0.4237  0.5917  0.8922
  402TMC3    C4 6056   4.052   3.080   1.679  0.2534 -0.3079 -0.0376
  402TMC3    C5 6057   4.105   2.955   1.702 -0.4543  0.1242  1.0446
  402TMC3    C6 6058   4.126   2.904   1.823 -0.2501 -0.0022 -0.1535
  402TMC3     C 6059   3.982   3.291   1.780 -0.5886  0.0549 -0.0263
  402TMC3     O 6060   3.946   3.343   1.886  0.5668  0.4042  0.4731
  402TMC3     H 6061   4.071   3.205   1.988  1.3629  0.0809 -0.6857
  402TMC3    H1 6062   4.030   3.115   1.579 -2.6046  1.9015  1.3613
  402TMC3    H2 6063   4.146   2.799   1.841 -1.5090 -0.3335 -0.7447
  402TMC3    C7 6064   4.164   2.891   1.588 -0.3582 -1.2436  0.3084
  402TMC3    C8 6065   4.202   2.949   2.044  0.8403 -0.4607 -0.3194
  402TMC3    O1 6066   4.104   2.889   1.480 -0.6882 -0.1977 -0.3572
  402TMC3    O2 6067   4.261   2.840   2.035  0.3052  0.2992 -0.2843
  403MPD2     C 6068   3.282   1.749  13.076  0.1757  0.0718 -0.6658
  403MPD2    C1 6069   3.210   1.822  13.163  0.1221  0.0918 -0.1564
  403MPD2    C2 6070   3.268   1.862  13.282 -0.4820 -0.3349  0.1649
  403MPD2    C3 6071   3.398   1.825  13.306  1.1973 -0.2312  0.1558
  403MPD2    C4 6072   3.474   1.750  13.216  0.2961  0.3714  0.3242
  403MPD2    C5 6073   3.413   1.719  13.094  0.8577 -0.1646  0.3420
  403MPD2     H 6074   3.221   1.921  13.360 -0.3631 -0.4220  0.3018
  403MPD2    H1 6075   3.579   1.729  13.233  0.3468  0.2393 -0.1691
  403MPD2    H2 6076   3.242   1.727  12.977 -1.6215  1.7891 -0.3039
  403MPD2    H3 6077   3.469   1.658  13.024  1.0569  1.9496 -1.3094
  403MPD2     N 6078   3.454   1.873  13.434  0.0259 -0.1765 -0.5746
  403MPD2    H5 6079   3.399   1.936  13.492 -0.2853 -0.2703 -0.7649
  403MPD2    N1 6080   3.073   1.836  13.135 -0.3483 -0.2228 -0.0450
  403MPD2    H7 6081   3.032   1.808  13.046  2.0946 -0.4191 -1.0921
  404TMC3    C1 6082   2.843   1.843  13.196  0.2059 -0.1095 -0.2163
  404TMC3    C2 6083   2.755   1.794  13.284  0.0407 -0.7874  0.1185
  404TMC3    C3 6084   2.630   1.767  13.231 -0.3412  0.5594 -0.1545
  404TMC3    C4 6085   2.812   1.877  13.070 -0.3410 -0.5496 -0.0289
  404TMC3    C5 6086   2.686   1.847  13.023  0.1103 -0.3174  0.1727
  404TMC3    C6 6087   2.595   1.792  13.104  0.4507 -0.3313  0.2940
  404TMC3     C 6088   2.982   1.847  13.240 -0.1766  0.3977  0.0374
  404TMC3     O 6089   2.996   1.837  13.363 -0.2690 -0.0437  0.0255
  404TMC3     H 6090   2.791   1.762  13.381 -2.2400 -0.0573  1.2199
  404TMC3    H1 6091   2.884   1.922  13.004 -2.3416 -1.7708 -3.0503
  404TMC3    H2 6092   2.494   1.769  13.070  0.4917  0.5220 -0.3940
  404TMC3    C7 6093   2.660   1.881  12.887 -0.2780  0.0524  0.4898
  404TMC3    C8 6094   2.540   1.679  13.308 -0.4809 -0.2754  0.0472
  404TMC3    O1 6095   2.755   1.938  12.833 -0.1930  0.2242  0.3058
  404TMC3    O2 6096   2.473   1.596  13.249  0.2028 -0.1941 -0.3973
  405MPD2     C 6097   3.282   3.742  15.267 -0.1421 -0.4198 -0.6220
  405MPD2    C1 6098   3.327   3.615  15.222  0.0778 -0.6130 -0.1524
  405MPD2    C2 6099   3.277   3.576  15.097 -0.5406 -0.2534 -0.1052
  405MPD2    C3 6100   3.179   3.648  15.031 -0.1752 -0.6540  0.5048
  405MPD2    C4 6101   3.129   3.765  15.082  0.5796 -0.0938  0.7280
  405MPD2    C5 6102   3.181   3.810  15.199  0.3460 -0.8941  0.3904
  405MPD2     H 6103   3.300   3.478  15.056 -0.3106 -0.2434 -0.0021
  405MPD2    H1 6104   3.053   3.820  15.028  1.6628  0.8835  0.2027
  405MPD2    H2 6105   3.325   3.784  15.357 -1.5598  0.4160 -0.3315
  405MPD2    H3 6106   3.132   3.899  15.235  3.7249  1.9255 -2.0122
  405MPD2     N 6107   3.130   3.595  14.911  0.3359 -0.0527  0.1530
  405MPD2    H5 6108   3.183   3.514  14.879  0.2981 -0.3843  0.9569
  405MPD2    N1 6109   3.410   3.526  15.298  0.1409 -0.5035  0.9766
  405MPD2    H7 6110   3.436   3.550  15.394 -3.1604 -0.3445  1.8419
  406TMC3    C1 6111   2.812   3.462  14.617  0.2075 -1.0900  0.1899
  406TMC3    C2 6112   2.872   3.334  14.608  0.5475 -0.5575  0.4924
  406TMC3    C3 6113   3.008   3.321  14.653  0.5982 -0.0765  0.3117
  406TMC3    C4 6114   2.864   3.568  14.685  0.1653  0.1291 -0.9053
  406TMC3    C5 6115   2.998   3.548  14.726  0.7816 -0.4956  0.4920
  406TMC3    C6 6116   3.068   3.426  14.712  0.3943  0.4716  0.0655
  406TMC3     C 6117   2.672   3.478  14.587 -0.4698 -0.1655  0.9099
  406TMC3     O 6118   2.620   3.582  14.623 -0.4624 -0.1422 -0.5360
  406TMC3     H 6119   2.825   3.244  14.570  1.7737 -1.5957  1.4368
  406TMC3    H1 6120   2.809   3.661  14.693  2.1449  1.1542  0.8550
  406TMC3    H2 6121   3.175   3.425  14.725  0.3923  0.4447  0.0792
  406TMC3    C7 6122   3.029   3.640  14.832 -0.2422  0.2649 -0.1030
  406TMC3    C8 6123   3.038   3.182  14.690  0.0202  1.1777 -0.3508
  406TMC3    O1 6124   2.935   3.715  14.869  0.1490  0.3932  0.1208
  406TMC3    O2 6125   2.959   3.095  14.661 -0.7974 -0.3684 -0.1264
  407MPD2     C 6126   1.198   4.302   9.512 -0.4618 -0.3435  0.5642
  407MPD2    C1 6127   1.311   4.354   9.576  0.4766  0.3969 -0.3059
  407MPD2    C2 6128   1.307   4.479   9.636 -0.2693 -0.9711  0.9103
  407MPD2    C3 6129   1.187   4.533   9.674 -0.5741 -0.1191 -0.2272
  407MPD2    C4 6130   1.069   4.481   9.619 -0.5027 -0.0614  0.9516
  407MPD2    C5 6131   1.084   4.370   9.532 -0.1237 -0.7677 -0.4402
  407MPD2     H 6132   1.400   4.526   9.667 -0.2235 -1.0878  0.9529
  407MPD2    H1 6133   0.976   4.532   9.644 -0.8035 -1.2770  2.3805
  407MPD2    H2 6134   1.196   4.205   9.465 -0.7961  0.0999 -0.3242
  407MPD2    H3 6135   0.998   4.325   9.483 -0.0658  0.3314 -1.5476
  407MPD2     N 6136   1.185   4.648   9.762  0.5292 -0.0107 -0.3880
  407MPD2    H5 6137   1.092   4.687   9.774  0.0263 -1.3330  0.0358
  407MPD2    N1 6138   1.441   4.293   9.557 -0.1242  0.9009  0.1910
  407MPD2    H7 6139   1.525   4.339   9.589 -1.1871  2.3625  0.8386
  408TMC3    C1 6140   1.624   4.138   9.506  0.4001 -0.0619 -0.3980
  408TMC3    C2 6141   1.662   4.010   9.546  0.9051  0.4065 -0.3591
  408TMC3    C3 6142   1.792   3.989   9.585  0.1320 -0.1497  0.6168
  408TMC3    C4 6143   1.711   4.244   9.505  0.1599 -0.8370 -0.9303
  408TMC3    C5 6144   1.842   4.210   9.520  0.6519  0.6816  0.3851
  408TMC3    C6 6145   1.886   4.088   9.564  0.6310 -0.2879  0.1664
  408TMC3     C 6146   1.476   4.169   9.504 -0.2960  0.2204 -0.7648
  408TMC3     O 6147   1.401   4.073   9.478  0.5221  0.4187  0.4990
  408TMC3     H 6148   1.599   3.923   9.556 -0.9441  1.8119  0.0450
  408TMC3    H1 6149   1.675   4.344   9.484  0.5391 -0.4865  0.1134
  408TMC3    H2 6150   1.993   4.077   9.583  0.7899 -1.3530 -1.3430
  408TMC3    C7 6151   1.939   4.304   9.489 -0.0129  0.2935  0.6204
  408TMC3    C8 6152   1.824   3.868   9.657 -0.1883  0.0543 -0.0621
  408TMC3    O1 6153   2.049   4.282   9.532  0.0628  0.2745 -0.0391
  408TMC3    O2 6154   1.727   3.803   9.690  0.0538 -0.5260  1.1969
  409MPD2     C 6155   0.039   0.639  17.114 -0.5533 -0.1607 -1.0489
  409MPD2    C1 6156   0.153   0.591  17.174  0.0688 -0.5532  0.3549
  409MPD2    C2 6157   0.273   0.643  17.130  0.0751  0.2810  0.0658
  409MPD2    C3 6158   0.290   0.737  17.036  0.6667 -0.7291 -0.4429
  409MPD2    C4 6159   0.178   0.783  16.977  0.4731  0.0226 -0.1731
  409MPD2    C5 6160   0.057   0.739  17.018 -0.1175 -0.2809 -0.1931
  409MPD2     H 6161   0.356   0.590  17.176  0.3911  0.0546 -0.7478
  409MPD2    H1 6162   0.181   0.849  16.891 -2.9010  0.1150 -0.2149
  409MPD2    H2 6163   4.687   0.580  17.132  0.2779 -0.6215  1.5026
  409MPD2    H3 6164   4.707   0.765  16.959 -0.6740  0.4610  0.9547
  409MPD2     N 6165   0.417   0.789  17.006  0.4996  0.6746 -0.2653
  409MPD2    H5 6166   0.418   0.864  16.938 -2.2490  1.2450  0.3278
  409MPD2    N1 6167   0.156   0.479  17.263  0.1565 -0.1956 -0.8219
  409MPD2    H7 6168   0.240   0.464  17.318 -1.1816  1.6804  1.7403
  410TMC3    C1 6169   0.646   0.838  17.024  0.1633  0.2253 -0.7639
  410TMC3    C2 6170   0.744   0.871  17.113  0.3010 -0.4275 -0.1144
  410TMC3    C3 6171   0.849   0.946  17.067 -0.4711  1.1006  0.5369
  410TMC3    C4 6172   0.651   0.869  16.896 -0.5719  0.4147  0.1959
  410TMC3    C5 6173   0.761   0.933  16.852  0.3064 -0.2879 -0.0314
  410TMC3    C6 6174   0.857   0.982  16.935 -0.1830  0.6776  0.1689
  410TMC3     C 6175   0.536   0.770  17.081  0.4024 -0.1488 -0.0524
  410TMC3     O 6176   0.557   0.708  17.180 -0.4867 -0.3503  0.0241
  410TMC3     H 6177   0.732   0.848  17.218 -0.5557  0.1639 -0.0848
  410TMC3    H1 6178   0.578   0.827  16.827 -0.9934  1.2648  0.1154
  410TMC3    H2 6179   0.949   1.022  16.896  0.1322  0.6819  0.9145
  410TMC3    C7 6180   0.770   0.953  16.707  0.6442 -0.1074  0.0988
  410TMC3    C8 6181   0.979   0.967  17.131 -1.3472  0.4993 -0.1297
  410TMC3    O1 6182   0.694   0.880  16.642  0.1797 -0.0675 -0.2361
  410TMC3    O2 6183   1.033   1.077  17.117  0.1288 -0.2715  0.3805
  411MPD2     C 6184   0.927   0.852  14.663 -0.3542 -0.3208 -0.3090
  411MPD2    C1 6185   0.863   0.912  14.771  0.5377 -0.8520 -0.3596
  411MPD2    C2 6186   0.738   0.874  14.806 -0.4748 -0.0978 -0.8364
  411MPD2    C3 6187   0.670   0.772  14.743  0.1740  0.1612 -0.3124
  411MPD2    C4 6188   0.742   0.699  14.650 -0.2834  0.3548  0.3491
  411MPD2    C5 6189   0.857   0.753  14.603  0.1350  0.2827  0.0864
  411MPD2     H 6190   0.683   0.919  14.887  1.6812  0.4842  0.2997
  411MPD2    H1 6191   0.688   0.632  14.584 -2.2035  1.2422  1.0069
  411MPD2    H2 6192   1.027   0.876  14.629  0.8345 -0.2769  3.2194
  411MPD2    H3 6193   0.904   0.699  14.522  0.1228  0.7953 -0.2607
  411MPD2     N 6194   0.534   0.727  14.763 -0.7121 -0.3244 -0.3239
  411MPD2    H5 6195   0.499   0.653  14.703 -2.3352 -0.6302  1.0146
  411MPD2    N1 6196   0.925   1.028  14.822 -0.5682 -0.2748  0.3845
  411MPD2    H7 6197   1.002   1.067  14.769 -1.1870 -0.6551 -0.7858
  412TMC3    C1 6198   0.327   0.700  14.861 -0.3849 -0.1805  0.0532
  412TMC3    C2 6199   0.212   0.776  14.831 -0.5631  0.2933 -0.0881
  412TMC3    C3 6200   0.108   0.704  14.796  0.2066 -0.0320 -0.0059
  412TMC3    C4 6201   0.340   0.561  14.836  0.5166  0.1963 -0.2120
  412TMC3    C5 6202   0.228   0.503  14.785  0.0310  0.3771  0.5855
  412TMC3    C6 6203   0.107   0.568  14.780  0.7951  0.5315 -0.6752
  412TMC3     C 6204   0.450   0.783  14.854  0.0263  0.2252  0.1399
  412TMC3     O 6205   0.460   0.886  14.918 -0.2199  0.6110  0.0257
  412TMC3     H 6206   0.203   0.883  14.838 -0.7175  0.2705  0.0657
  412TMC3    H1 6207   0.436   0.512  14.851 -0.7224 -2.8332 -2.2388
  412TMC3    H2 6208   0.017   0.515  14.753  1.6978 -3.2973  3.9363
  412TMC3    C7 6209   0.251   0.440  14.656  0.3946  1.0340  0.2838
  412TMC3    C8 6210   0.057   0.768  14.678 -0.8154  0.5595 -0.0066
  412TMC3    O1 6211   0.156   0.442  14.580  0.1991 -0.2487  0.3518
  412TMC3    O2 6212   0.136   0.842  14.626 -0.4602  0.2673  0.3463
  413MPD2     C 6213   2.337   4.493  15.671  0.1164 -0.1368  0.0615
  413MPD2    C1 6214   2.304   4.370  15.627 -0.2366  0.1303 -0.3074
  413MPD2    C2 6215   2.378   4.307  15.522  0.3395  0.0602 -0.6626
  413MPD2    C3 6216   2.487   4.379  15.467  0.4403 -0.3108 -0.2695
  413MPD2    C4 6217   2.508   4.510  15.510  0.0443  0.5048 -0.1320
  413MPD2    C5 6218   2.433   4.567  15.607  0.2494  0.0111 -0.3288
  413MPD2     H 6219   2.356   4.206  15.488  3.9684 -1.2155  0.7031
  413MPD2    H1 6220   2.588   4.569  15.465 -0.4228 -0.0554 -1.6852
  413MPD2    H2 6221   2.271   4.534  15.747 -0.4195  0.8785 -0.9465
  413MPD2    H3 6222   2.444   4.672  15.632  3.1202 -0.2242 -0.6451
  413MPD2     N 6223   2.553   4.312  15.368 -0.8337 -0.0107  0.1573
  413MPD2    H5 6224   2.519   4.220  15.341 -2.7258  1.2349 -1.7238
  413MPD2    N1 6225   2.196   4.312  15.692 -0.1265 -0.4945 -0.5206
  413MPD2    H7 6226   2.153   4.366  15.766  2.2965 -1.4897  1.6227
  414TMC3    C1 6227   2.742   4.237  15.243  0.2067 -0.0677 -0.3080
  414TMC3    C2 6228   2.714   4.111  15.283  0.5317  0.2879  0.4414
  414TMC3    C3 6229   2.784   4.013  15.217  0.5558 -0.7482 -0.2055
  414TMC3    C4 6230   2.793   4.266  15.118 -0.5786 -0.2096 -0.0738
  414TMC3    C5 6231   2.850   4.158  15.049  0.0491 -0.6250  0.0751
  414TMC3    C6 6232   2.848   4.031  15.101 -0.2175 -0.7280 -0.5662
  414TMC3     C 6233   2.678   4.350  15.322 -0.5646  0.3159  0.1935
  414TMC3     O 6234   2.746   4.444  15.365  0.1404 -0.4834 -0.4554
  414TMC3     H 6235   2.657   4.083  15.371 -2.7979  2.1099 -1.1164
  414TMC3    H1 6236   2.820   4.366  15.087 -2.4806  0.2635 -0.1872
  414TMC3    H2 6237   2.891   3.944  15.052  1.6534  0.6417 -1.3478
  414TMC3    C7 6238   2.978   4.183  14.982  0.4338  0.6111  0.2550
  414TMC3    C8 6239   2.777   3.875  15.270 -0.8344 -0.1265 -0.2563
  414TMC3    O1 6240   3.057   4.254  15.043 -0.1382 -0.2280 -0.0970
  414TMC3    O2 6241   2.733   3.795  15.192  0.2696  0.2265  0.1153
  415TMC3    C1 6242   3.551   1.713   9.923 -0.2143  0.0074  0.0450
  415TMC3    C2 6243   3.647   1.783   9.861 -0.0943  0.1006  1.0569
  415TMC3    C3 6244   3.633   1.795   9.720 -0.3819 -0.0280 -0.3871
  415TMC3    C4 6245   3.457   1.648   9.854 -0.8762 -0.5591 -0.3983
  415TMC3    C5 6246   3.446   1.662   9.719  0.3163 -0.3458  1.0628
  415TMC3    C6 6247   3.544   1.723   9.644  0.2969  0.0232  0.2498
  415TMC3     C 6248   3.530   1.722  10.060  0.3476  0.1734 -0.2479
  415TMC3     O 6249   3.415   1.714  10.101 -0.6634  0.2011  0.2933
  415TMC3     H 6250   3.722   1.846   9.908  0.8548 -0.5280  0.3803
  415TMC3    H1 6251   3.383   1.597   9.915  2.4893 -2.6295  1.9122
  415TMC3    H2 6252   3.532   1.709   9.538  0.8380 -0.4263  0.2516
  415TMC3    C7 6253   3.391   1.539   9.659 -0.0478  0.3885  0.0307
  415TMC3    C8 6254   3.744   1.838   9.644 -0.6207 -0.0777 -0.7693
  415TMC3    O1 6255   3.449   1.494   9.558  0.0968 -0.0398 -0.2792
  415TMC3    O2 6256   3.746   1.820   9.519  0.8848 -0.3645 -0.1426
  416MPD2     C 6257   0.423   0.563  11.574  0.2462 -0.6985  1.0915
  416MPD2    C1 6258   0.297   0.506  11.560  0.0980  0.0762  0.4392
  416MPD2    C2 6259   0.260   0.410  11.458 -0.2318 -0.2046  0.4212
  416MPD2    C3 6260   0.366   0.369  11.379  0.5194 -0.6630  0.1688
  416MPD2    C4 6261   0.492   0.421  11.397  0.8367  1.0485  0.5077
  416MPD2    C5 6262   0.520   0.513  11.493  0.1154 -0.4051 -0.4235
  416MPD2     H 6263   0.161   0.371  11.435 -0.1181 -0.4195  0.2985
  416MPD2    H1 6264   0.578   0.377  11.348  0.6769 -0.0052  1.1721
  416MPD2    H2 6265   0.454   0.638  11.645 -0.2133  0.1663  0.3739
  416MPD2    H3 6266   0.621   0.541  11.520 -0.5204  2.7872 -1.3233
  416MPD2     N 6267   0.331   0.280  11.274  0.2225  0.0685  0.4064
  416MPD2    H5 6268   0.235   0.248  11.271  0.2216  0.2120 -1.1363
  416MPD2    N1 6269   0.201   0.551  11.650  0.3893 -0.2289 -0.0464
  416MPD2    H7 6270   0.231   0.625  11.712  2.1579 -2.5008  1.8272
  417TMC3    C1 6271   4.723   0.598  11.729 -0.2558  0.6086  0.2017
  417TMC3    C2 6272   0.024   0.623  11.861 -0.1573 -0.2448 -0.2941
  417TMC3    C3 6273   4.679   0.702  11.934 -0.3747  0.2814  0.0420
  417TMC3    C4 6274   4.613   0.650  11.677 -0.2136  0.5958 -0.0411
  417TMC3    C5 6275   4.531   0.726  11.753  0.5910  0.1758  0.1185
  417TMC3    C6 6276   4.559   0.745  11.885  0.0361  1.0046 -0.1998
  417TMC3     C 6277   0.067   0.516  11.642  0.1194  0.2496 -0.4377
  417TMC3     O 6278   4.737   0.441  11.567 -0.2037 -0.3988  0.0872
  417TMC3     H 6279   0.107   0.568  11.903 -0.5773 -1.6468 -1.3164
  417TMC3    H1 6280   4.604   0.628  11.571 -2.2115 -3.4582  0.9656
  417TMC3    H2 6281   4.490   0.799  11.949  1.5605  1.6923  0.8490
  417TMC3    C7 6282   4.448   0.818  11.679 -0.3853 -0.0315 -0.2106
  417TMC3    C8 6283   4.723   0.747  12.068  0.2760 -0.3682 -0.1413
  417TMC3    O1 6284   4.504   0.851  11.575  0.4574  0.1876 -0.0904
  417TMC3    O2 6285   4.637   0.749  12.152  0.2291  0.5394  0.0129
  418TMC3    C1 6286   3.323   3.200   0.682 -0.1297  0.1223  0.2071
  418TMC3    C2 6287   3.266   3.162   0.566  0.0456  0.5628  0.6996
  418TMC3    C3 6288   3.142   3.109   0.569  0.2100 -0.0618 -0.3382
  418TMC3    C4 6289   3.252   3.191   0.797 -0.9247  0.0017 -0.1915
  418TMC3    C5 6290   3.126   3.122   0.801 -0.4550 -0.0130  0.7294
  418TMC3    C6 6291   3.066   3.091   0.683  0.0718 -0.4226  0.2552
  418TMC3     C 6292   3.466   3.205   0.704 -0.5408  0.3932  0.1035
  418TMC3     O 6293   3.512   3.193   0.816  0.1288  0.5144 -0.5181
  418TMC3     H 6294   3.326   3.145   0.477 -2.7887 -1.5712 -0.8039
  418TMC3    H1 6295   3.293   3.205   0.896 -0.3706  1.5647 -0.6399
  418TMC3    H2 6296   2.970   3.042   0.682 -1.2160  2.0547  2.2756
  418TMC3    C7 6297   3.115   3.013   0.893  0.3185  0.0037  0.9303
  418TMC3    C8 6298   3.125   3.014   0.469 -0.5385 -0.0998  0.5739
  418TMC3    O1 6299   3.061   2.912   0.843 -0.3649 -0.6131 -0.4106
  418TMC3    O2 6300   3.216   2.946   0.426 -0.4046 -0.0703  0.2941
  419MPD2     C 6301   2.177   0.477  12.849 -0.0082  0.2556  1.1176
  419MPD2    C1 6302   2.058   0.522  12.798  0.4205  0.7287  0.0544
  419MPD2    C2 6303   1.984   0.607  12.883  0.0754  0.2876 -0.1060
  419MPD2    C3 6304   2.036   0.645  13.004  0.1451  0.9072  0.2863
  419MPD2    C4 6305   2.149   0.592  13.054 -0.5761  0.0686 -0.5688
  419MPD2    C5 6306   2.217   0.504  12.977  0.1679 -0.5445  0.3811
  419MPD2     H 6307   1.888   0.647  12.853 -0.0637  0.0118 -0.0312
  419MPD2    H1 6308   2.184   0.619  13.153  1.3604 -0.0640 -1.2165
  419MPD2    H2 6309   2.239   0.406  12.794  0.8986  1.2518  0.8628
  419MPD2    H3 6310   2.298   0.444  13.018  1.4188  0.9158  0.0500
  419MPD2     N 6311   1.953   0.740  13.073 -0.0874 -0.5584  1.0526
  419MPD2    H5 6312   1.860   0.759  13.037  1.3029  1.5198 -1.4714
  419MPD2    N1 6313   2.005   0.491  12.673  0.1425 -0.5951 -0.0890
  419MPD2    H7 6314   1.919   0.532  12.639 -1.0351 -0.9125  2.5059
  420TMC3    C1 6315   1.869   0.879  13.250  0.2128  0.9111  0.9612
  420TMC3    C2 6316   1.790   0.955  13.168  0.0787  0.1556  0.0495
  420TMC3    C3 6317   1.719   1.062  13.215 -0.6455 -0.2943 -0.0517
  420TMC3    C4 6318   1.876   0.928  13.378 -0.2892  0.2057  0.1402
  420TMC3    C5 6319   1.796   1.037  13.426 -0.5201  0.6972  0.7589
  420TMC3    C6 6320   1.719   1.108  13.345  0.1877 -0.1164 -1.3981
  420TMC3     C 6321   1.969   0.786  13.204  0.3564  0.3927  0.2017
  420TMC3     O 6322   2.066   0.772  13.280 -0.0435  0.2083 -0.5386
  420TMC3     H 6323   1.795   0.935  13.061 -0.9894  1.1039 -0.1816
  420TMC3    H1 6324   1.942   0.878  13.448  1.4921  2.3628  0.0274
  420TMC3    H2 6325   1.647   1.183  13.376  0.3905 -0.4556 -0.0862
  420TMC3    C7 6326   1.755   1.035  13.565  0.3527 -0.2222  0.1667
  420TMC3    C8 6327   1.649   1.141  13.118 -0.5058 -0.8704 -1.5563
  420TMC3    O1 6328   1.796   0.941  13.629 -0.5862  0.0385 -0.1376
  420TMC3    O2 6329   1.641   1.260  13.141  0.1059 -0.7634  0.0837
  421TMC3    C1 6330   3.618   1.913  13.604  0.1537 -0.0527  0.0438
  421TMC3    C2 6331   3.529   2.004  13.659  0.1811 -0.3284  0.2940
  421TMC3    C3 6332   3.570   2.068  13.775 -0.0473  0.4779 -0.4064
  421TMC3    C4 6333   3.736   1.879  13.667  0.2751  0.1193  0.1130
  421TMC3    C5 6334   3.765   1.948  13.780  0.5874 -0.3632  0.0247
  421TMC3    C6 6335   3.686   2.042  13.840  0.6478 -1.1586 -0.2290
  421TMC3     C 6336   3.580   1.841  13.479  0.9885 -0.3485  0.0854
  421TMC3     O 6337   3.656   1.757  13.443  0.2431  0.4934 -0.5313
  421TMC3     H 6338   3.427   2.020  13.628  0.5838 -1.6043 -1.6736
  421TMC3    H1 6339   3.800   1.803  13.624  3.1682  0.1265  4.4288
  421TMC3    H2 6340   3.723   2.084  13.933 -2.3584  1.2555 -0.1152
  421TMC3    C7 6341   3.897   1.908  13.832 -0.0535 -0.4649  0.0145
  421TMC3    C8 6342   3.476   2.144  13.853 -0.0475  0.1094 -0.6884
  421TMC3    O1 6343   3.949   1.996  13.897  0.2597 -0.2959  0.4858
  421TMC3    O2 6344   3.491   2.139  13.973 -0.1592 -0.5468 -0.0781
  422TMC3    C1 6345   0.965   3.688  12.645 -0.1949  0.0473  0.1174
  422TMC3    C2 6346   0.937   3.783  12.739 -0.2986  0.1480 -0.3273
  422TMC3    C3 6347   0.815   3.771  12.801 -0.2508 -0.5845  0.1836
  422TMC3    C4 6348   0.889   3.575  12.626 -0.1524  0.7029 -0.0553
  422TMC3    C5 6349   0.765   3.571  12.687 -0.1998  0.0661  0.4384
  422TMC3    C6 6350   0.726   3.672  12.779 -0.5413  0.0578  0.3340
  422TMC3     C 6351   1.099   3.676  12.596 -0.1888  0.2343  0.3919
  422TMC3     O 6352   1.149   3.772  12.537  0.1154 -0.2555  0.1728
  422TMC3     H 6353   1.002   3.870  12.743  0.6429 -0.6254  1.4528
  422TMC3    H1 6354   0.912   3.500  12.551 -0.4781  0.0233  0.5237
  422TMC3    H2 6355   0.632   3.663  12.832  0.2837 -1.8306  1.4700
  422TMC3    C7 6356   0.697   3.444  12.707 -0.5155 -0.3134 -0.2208
  422TMC3    C8 6357   0.793   3.877  12.891  0.7260  0.1304 -0.1132
  422TMC3    O1 6358   0.729   3.354  12.629  0.0570  0.4910 -0.3756
  422TMC3    O2 6359   0.872   3.973  12.897  0.2663 -0.2242  0.1126
  423MPD2     C 6360   2.253   0.012   0.668  0.5228 -0.0618  1.1279
  423MPD2    C1 6361   2.158   4.648   0.674 -0.1052 -0.3328 -0.5383
  423MPD2    C2 6362   2.127   4.581   0.553 -0.4438 -1.2166  0.7372
  423MPD2    C3 6363   2.183   4.610   0.430  0.2282 -0.1574  0.0883
  423MPD2    C4 6364   2.276   4.706   0.432 -1.3905  0.9315  0.5784
  423MPD2    C5 6365   2.313   0.030   0.545  0.9449 -0.1456 -0.5342
  423MPD2     H 6366   2.048   4.507   0.565  1.2472 -3.3191 -1.0099
  423MPD2    H1 6367   2.322   0.003   0.340 -0.5330  0.0946  0.6861
  423MPD2    H2 6368   2.281   0.075   0.752 -0.4162  1.2564  0.4463
  423MPD2    H3 6369   2.398   0.097   0.535  1.9313 -1.0420  1.8716
  423MPD2     N 6370   2.155   4.549   0.308 -0.4653 -0.2480 -0.0203
  423MPD2    H5 6371   2.206   4.581   0.226  2.5414 -2.2285  1.0432
  423MPD2    N1 6372   2.090   4.623   0.800  0.4531  0.0367 -0.1677
  423MPD2    H7 6373   2.029   4.542   0.808  0.2007  0.3405  1.0656
  424TMC3    C1 6374   2.031   4.664   1.026 -0.0620  0.3124 -0.0763
  424TMC3    C2 6375   1.989   4.533   1.038  0.0064  0.4295 -0.8871
  424TMC3    C3 6376   1.896   4.510   1.132 -0.4777 -0.2078 -0.6384
  424TMC3    C4 6377   1.990   0.015   1.119 -0.4662  0.1630 -0.7120
  424TMC3    C5 6378   1.888   4.723   1.207 -1.0381  0.1741 -0.2328
  424TMC3    C6 6379   1.850   4.595   1.227 -0.4992  0.2378  0.3293
  424TMC3     C 6380   2.099   4.709   0.907 -0.1268  0.4247  0.0663
  424TMC3     O 6381   2.148   0.081   0.920  0.0595 -0.1957  0.2712
  424TMC3     H 6382   2.032   4.458   0.973  0.9601  0.3345 -0.1490
  424TMC3    H1 6383   2.028   0.117   1.112 -1.4269  0.5890  0.2844
  424TMC3    H2 6384   1.802   4.566   1.319  0.6017 -1.4552  0.3636
  424TMC3    C7 6385   1.832   0.076   1.298 -0.5091 -0.0051 -0.6902
  424TMC3    C8 6386   1.856   4.381   1.151 -1.2744 -0.0437  0.6512
  424TMC3    O1 6387   1.902   0.173   1.323  0.1682 -0.8361  0.3990
  424TMC3    O2 6388   1.935   4.290   1.170  0.0773 -0.5806 -0.4957
  425MPD2     C 6389   0.702   3.771  17.400 -0.5693 -0.3354  0.0139
  425MPD2    C1 6390   0.634   3.656  17.370  0.0541 -0.6158 -0.5264
  425MPD2    C2 6391   0.501   3.650  17.361 -0.5368 -0.1364  0.7622
  425MPD2    C3 6392   0.426   3.763  17.384 -0.2857  0.4629  0.2945
  425MPD2    C4 6393   0.492   3.879  17.405  0.8584 -0.6466  0.0707
  425MPD2    C5 6394   0.631   3.885  17.416 -0.0428  0.4299  0.2160
  425MPD2     H 6395   0.451   3.557  17.336 -3.0889  1.1134  1.1915
  425MPD2    H1 6396   0.446   3.977  17.410  1.3720 -0.4222  0.5685
  425MPD2    H2 6397   0.810   3.776  17.392 -0.5697 -0.9767 -0.4029
  425MPD2    H3 6398   0.677   3.983  17.412 -0.4158  0.6109  0.3716
  425MPD2     N 6399   0.290   3.744  17.373 -0.2151 -0.4091  0.5404
  425MPD2    H5 6400   0.258   3.649  17.360  2.1056 -1.0208 -0.7822
  425MPD2    N1 6401   0.715   3.543  17.346  0.1061 -0.2651  0.3973
  425MPD2    H7 6402   0.814   3.562  17.345  0.2495 -1.0265 -1.1864
  426TMC3    C1 6403   0.808   3.343  17.270  0.0721 -0.2002 -0.5528
  426TMC3    C2 6404   0.843   3.295  17.143 -0.3527 -0.2629 -0.3554
  426TMC3    C3 6405   0.964   3.233  17.134 -0.2385 -0.4314  0.5232
  426TMC3    C4 6406   0.889   3.334  17.382  0.6503  0.1367 -0.2269
  426TMC3    C5 6407   1.005   3.265  17.365 -0.7180  0.8458  0.7112
  426TMC3    C6 6408   1.047   3.217  17.245  0.0509  0.5619 -0.8622
  426TMC3     C 6409   0.684   3.424  17.286 -0.3533  0.2806 -0.0863
  426TMC3     O 6410   0.580   3.394  17.225  0.2465  0.0734 -0.1836
  426TMC3     H 6411   0.784   3.331  17.060  2.2436 -0.4350 -2.2811
  426TMC3    H1 6412   0.853   3.362  17.481  0.9283  1.0200 -0.3731
  426TMC3    H2 6413   1.151   3.188  17.240  0.5769  2.3270 -0.1287
  426TMC3    C7 6414   1.065   3.207  17.475 -0.3073  0.0512  0.4542
  426TMC3    C8 6415   1.024   3.182  17.008 -0.2433  0.3621 -0.1163
  426TMC3    O1 6416   1.186   3.222  17.496 -0.3650 -0.3160  0.0272
  426TMC3    O2 6417   1.130   3.117  17.014 -0.3266  0.0544  0.0791
  427MPD2     C 6418   0.088   1.364  15.249  0.3702  0.3271  0.1923
  427MPD2    C1 6419   0.012   1.291  15.340 -0.3365  0.6639 -0.4914
  427MPD2    C2 6420   4.610   1.318  15.347  0.0275  0.6461 -0.1881
  427MPD2    C3 6421   4.558   1.417  15.268 -0.0240  0.2940  0.1278
  427MPD2    C4 6422   4.643   1.505  15.191  0.0813 -0.0451 -0.1761
  427MPD2    C5 6423   0.040   1.473  15.188  0.0780 -0.4672 -0.9555
  427MPD2     H 6424   4.548   1.261  15.414  2.4589 -0.5048  1.0732
  427MPD2    H1 6425   4.606   1.586  15.130  1.7419  1.1062  0.3345
  427MPD2    H2 6426   0.191   1.345  15.222  0.6265  0.6540  0.9475
  427MPD2    H3 6427   0.102   1.534  15.123 -0.6050  0.1856 -0.9948
  427MPD2     N 6428   4.416   1.442  15.256  0.2357  0.7655  0.0257
  427MPD2    H5 6429   4.385   1.528  15.212 -2.1226  0.4176  1.0095
  427MPD2    N1 6430   0.074   1.183  15.408 -0.3739  0.3182 -0.5036
  427MPD2    H7 6431   0.171   1.165  15.383 -0.0640 -0.8584  1.5478
  428TMC3    C1 6432   0.070   0.966  15.517  0.1524 -0.1672  0.1423
  428TMC3    C2 6433   4.733   0.853  15.530 -0.2057 -0.7969 -0.6605
  428TMC3    C3 6434   0.062   0.736  15.536  0.0135  0.9408  0.6175
  428TMC3    C4 6435   0.208   0.962  15.512  0.6034  0.6032  0.6180
  428TMC3    C5 6436   0.270   0.838  15.508 -0.2363  0.6024 -0.2456
  428TMC3    C6 6437   0.200   0.724  15.530  0.3522 -0.6356  0.3455
  428TMC3     C 6438   4.735   1.074  15.447  0.0707  0.5914 -0.1787
  428TMC3     O 6439   4.623   1.037  15.412  0.2210 -0.3674  0.1080
  428TMC3     H 6440   4.633   0.875  15.565  0.1555  2.3828 -1.6185
  428TMC3    H1 6441   0.270   1.051  15.516 -1.5032  2.1357 -1.2643
  428TMC3    H2 6442   0.245   0.626  15.532  2.3706  0.2892 -0.4740
  428TMC3    C7 6443   0.410   0.827  15.514  0.0007  0.2251  0.1580
  428TMC3    C8 6444   4.729   0.612  15.507  0.7790  0.3984 -0.4846
  428TMC3    O1 6445   0.454   0.740  15.590 -0.7462 -0.8152  0.0643
  428TMC3    O2 6446   0.036   0.501  15.535  0.3233  0.5311 -0.1085
  429MPD2     C 6447   0.795   1.495  17.497  0.3083  0.0763 -0.4304
  429MPD2    C1 6448   0.917   1.452  17.460  0.2712  0.4224 -0.0677
  429MPD2    C2 6449   1.024   1.536  17.422  0.4944 -0.0086 -0.0664
  429MPD2    C3 6450   1.004   1.676  17.430 -0.5050  0.2269  0.0143
  429MPD2    C4 6451   0.872   1.720  17.450 -0.3351  0.7982  0.0365
  429MPD2    C5 6452   0.774   1.633  17.479  0.5941  0.1907  0.1322
  429MPD2     H 6453   1.126   1.499  17.421  0.1864 -0.8508 -0.4256
  429MPD2    H1 6454   0.844   1.824  17.447 -1.6756  0.4851  1.2949
  429MPD2    H2 6455   0.711   1.435  17.528 -0.7370  0.5667 -2.2887
  429MPD2    H3 6456   0.679   1.678  17.509  2.0627  1.7668  2.4817
  429MPD2     N 6457   1.114   1.762  17.408  0.6753 -0.3416  0.8464
  429MPD2    H5 6458   1.200   1.713  17.387  0.0693 -0.4627 -1.3004
  429MPD2    N1 6459   0.949   1.319  17.470  0.2244 -0.0633  0.7226
  429MPD2    H7 6460   1.047   1.291  17.464 -0.1290 -1.3140  0.7864
  430TMC3    C1 6461   1.240   1.941  17.350  0.2429  0.1239 -0.0238
  430TMC3    C2 6462   1.225   2.034  17.249  0.1454 -0.2022  0.7230
  430TMC3    C3 6463   1.340   2.049  17.166 -0.1260  0.0906 -0.0328
  430TMC3    C4 6464   1.352   1.868  17.370 -0.2508  0.2091 -0.0087
  430TMC3    C5 6465   1.461   1.886  17.287 -0.3982  0.1038 -0.0518
  430TMC3    C6 6466   1.457   1.978  17.183 -1.0090  0.3428 -0.0800
  430TMC3     C 6467   1.118   1.894  17.410  0.3824  0.4899 -0.4901
  430TMC3     O 6468   1.028   1.965  17.438  0.1019  0.1415  0.4072
  430TMC3     H 6469   1.120   2.048  17.225  0.5038  1.0787 -0.0597
  430TMC3    H1 6470   1.361   1.802  17.455 -2.0814  0.3543  0.2810
  430TMC3    H2 6471   1.543   2.003  17.122 -1.2596  0.7066 -0.2856
  430TMC3    C7 6472   1.569   1.797  17.312 -0.0934  0.0993 -0.2568
  430TMC3    C8 6473   1.313   2.058  17.024 -0.3972  0.6004 -0.4529
  430TMC3    O1 6474   1.562   1.714  17.404  0.9569  0.1660  0.3679
  430TMC3    O2 6475   1.387   1.996  16.949  0.1911 -0.6901 -0.3654
  431MPD2     C 6476   1.635   1.137  12.455  0.0676 -0.3396  0.3983
  431MPD2    C1 6477   1.754   1.113  12.387 -0.5579  0.1812 -0.4898
  431MPD2    C2 6478   1.799   0.994  12.351  0.4957 -0.2606 -0.3843
  431MPD2    C3 6479   1.716   0.887  12.379 -0.1592 -0.4144 -0.5963
  431MPD2    C4 6480   1.603   0.903  12.453 -0.4571  0.2887  0.1156
  431MPD2    C5 6481   1.562   1.027  12.497  0.4314 -0.4477  0.9967
  431MPD2     H 6482   1.891   0.981  12.296  1.2374  1.1317  0.5368
  431MPD2    H1 6483   1.539   0.822  12.484 -1.0519  1.0319  0.8157
  431MPD2    H2 6484   1.596   1.237  12.472  0.7807 -0.4387  2.5450
  431MPD2    H3 6485   1.468   1.032  12.550 -0.2277  0.7973 -0.2991
  431MPD2     N 6486   1.762   0.755  12.358  0.1915  0.0255 -0.6970
  431MPD2    H5 6487   1.714   0.680  12.406 -1.6310  0.5780 -1.6683
  431MPD2    N1 6488   1.841   1.214  12.349  0.5967 -0.3852 -0.1103
  431MPD2    H7 6489   1.932   1.191  12.310  1.1682 -0.3696  1.2376
  432TMC3    C1 6490   1.904   0.591  12.291  0.2816  0.0965  0.7665
  432TMC3    C2 6491   1.917   0.505  12.186 -0.0375 -0.5183  0.1446
  432TMC3    C3 6492   1.975   0.384  12.221 -0.3628 -0.6102 -0.2206
  432TMC3    C4 6493   1.930   0.560  12.421  0.1911 -0.5700  0.0439
  432TMC3    C5 6494   1.998   0.449  12.451 -0.2241 -0.2876  0.1356
  432TMC3    C6 6495   2.019   0.358  12.348 -0.2694  0.1324  0.4715
  432TMC3     C 6496   1.852   0.718  12.260  0.1579 -0.2353 -0.2812
  432TMC3     O 6497   1.916   0.783  12.178  0.1392 -0.2920 -0.5549
  432TMC3     H 6498   1.883   0.538  12.088  0.4024  0.2004  0.2324
  432TMC3    H1 6499   1.930   0.638  12.496 -1.9132 -0.0154 -0.5498
  432TMC3    H2 6500   2.067   0.264  12.372  0.4251  0.4048  0.1493
  432TMC3    C7 6501   2.073   0.434  12.573 -0.3801 -0.3407  0.2061
  432TMC3    C8 6502   2.079   0.357  12.127 -0.5167  0.6796  0.1148
  432TMC3    O1 6503   2.189   0.391  12.569  0.0645 -0.0818  0.4118
  432TMC3    O2 6504   2.129   0.245  12.125  0.1042  0.0684 -0.1151
  433MPD2     C 6505   1.367   0.307  10.657 -0.5492  0.1816  0.3607
  433MPD2    C1 6506   1.314   0.200  10.721  0.1440 -0.3372 -0.8280
  433MPD2    C2 6507   1.311   0.207  10.857 -0.6917 -0.4422 -0.3421
  433MPD2    C3 6508   1.375   0.302  10.930 -0.6802  0.3621 -0.4292
  433MPD2    C4 6509   1.429   0.414  10.864 -0.0131 -1.1378  0.1964
  433MPD2    C5 6510   1.424   0.418  10.731 -0.3234 -0.0193  0.3115
  433MPD2     H 6511   1.246   0.135  10.905 -0.6649 -0.1467  0.1386
  433MPD2    H1 6512   1.479   0.494  10.916  0.0744  0.2372 -1.9856
  433MPD2    H2 6513   1.356   0.319  10.550  0.9802 -2.3137 -0.0728
  433MPD2    H3 6514   1.455   0.502  10.670 -0.4759 -0.6256 -0.6041
  433MPD2     N 6515   1.371   0.292  11.068 -0.5784 -0.7572  0.2987
  433MPD2    H5 6516   1.330   0.204  11.099 -0.9566 -1.6959 -2.8560
  433MPD2    N1 6517   1.259   0.095  10.641 -0.1664  0.6647  0.4572
  433MPD2    H7 6518   1.284   0.092  10.543  0.7834 -2.5100  0.7948
  434TMC3    C1 6519   1.144   4.613  10.610  0.2614 -0.4089  0.0473
  434TMC3    C2 6520   1.159   4.500  10.681  0.2731 -0.0489 -0.1244
  434TMC3    C3 6521   1.224   4.396  10.620 -0.1986 -0.1135 -0.3137
  434TMC3    C4 6522   1.180   4.633  10.481  0.0211 -0.3900 -0.6368
  434TMC3    C5 6523   1.245   4.524  10.432 -0.5080 -0.6455 -0.0101
  434TMC3    C6 6524   1.278   4.411  10.502  0.1617 -0.7824  0.0285
  434TMC3     C 6525   1.174   4.731  10.698 -0.0389 -0.2980 -0.1152
  434TMC3     O 6526   1.119   4.731  10.808 -0.2831  0.1092 -0.4367
  434TMC3     H 6527   1.144   4.512  10.787 -2.1141 -0.2106 -0.4257
  434TMC3    H1 6528   1.134   4.709  10.419  1.2706 -0.2067 -1.3448
  434TMC3    H2 6529   1.329   4.327  10.455 -1.6763 -0.8238 -1.9038
  434TMC3    C7 6530   1.195   4.505  10.295 -0.5813  0.3723  0.0628
  434TMC3    C8 6531   1.277   4.302  10.713  0.3841 -0.1410 -0.0956
  434TMC3    O1 6532   1.166   4.592  10.220 -0.1392 -0.2943 -0.3554
  434TMC3    O2 6533   1.268   4.326  10.832 -0.2997  0.2143 -0.1985
  435MPD2     C 6534   2.920   0.033  15.787 -0.1596 -0.0058  0.1767
  435MPD2    C1 6535   2.887   0.030  15.920 -0.3200 -0.8439 -0.0377
  435MPD2    C2 6536   2.983   4.727  16.015  0.7994  0.2375 -0.3425
  435MPD2    C3 6537   3.107   4.687  15.973 -0.0497 -0.0711  0.0225
  435MPD2    C4 6538   3.145   4.697  15.842  0.1007  1.0891  0.0450
  435MPD2    C5 6539   3.050   0.002  15.755  0.5805 -0.1387 -0.0173
  435MPD2     H 6540   2.949   4.711  16.116  1.0099  3.3527  0.2041
  435MPD2    H1 6541   3.243   4.674  15.801  0.4859  0.5112  1.3134
  435MPD2    H2 6542   2.848   0.052  15.708 -0.3616  1.2009  0.6488
  435MPD2    H3 6543   3.078   4.734  15.650 -1.8532 -1.3249 -0.6294
  435MPD2     N 6544   3.180   4.621  16.070  0.3812  0.8082 -0.2254
  435MPD2    H5 6545   3.138   4.622  16.163  0.1698  1.6100 -0.3234
  435MPD2    N1 6546   2.749   0.053  15.965  0.0627  0.9200 -0.1983
  435MPD2    H7 6547   2.735   0.053  16.066 -1.4584 -1.0721 -0.4022
  436TMC3    C1 6548   2.464   0.277  16.133  1.1464  0.7119 -0.3665
  436TMC3    C2 6549   2.561   0.203  16.071  0.4686 -0.1635 -1.1505
  436TMC3    C3 6550   2.533   0.133  15.960 -0.3630 -0.3117 -0.2720
  436TMC3    C4 6551   2.338   0.261  16.078  0.4837  0.3749 -0.3332
  436TMC3    C5 6552   2.312   0.177  15.978 -0.0163  0.2787  0.1135
  436TMC3    C6 6553   2.410   0.113  15.916 -0.0820  0.4360 -0.3754
  436TMC3     C 6554   2.523   0.405  16.158 -0.5952  0.1592  0.1035
  436TMC3     O 6555   2.615   0.441  16.082 -0.0912 -0.2469  0.5176
  436TMC3     H 6556   2.664   0.225  16.098 -0.0463  0.6986  0.1343
  436TMC3    H1 6557   2.261   0.326  16.119  0.7465 -0.5107  1.5636
  436TMC3    H2 6558   2.395   0.045  15.833  0.5110 -1.3088  0.9560
  436TMC3    C7 6559   2.173   0.129  15.971  0.1884 -0.2383  0.0385
  436TMC3    C8 6560   2.647   0.089  15.882 -0.1936 -0.1187 -0.0392
  436TMC3    O1 6561   2.100   0.173  16.056 -0.2492 -0.1916 -0.8122
  436TMC3    O2 6562   2.633   0.074  15.760  0.0694  0.6918  0.1217
  437TMC3    C1 6563   1.387   1.239  12.178  0.4411  0.1441  0.2309
  437TMC3    C2 6564   1.343   1.186  12.058 -0.1823  0.3844 -0.1243
  437TMC3    C3 6565   1.392   1.241  11.946  0.2427 -0.1561  0.1416
  437TMC3    C4 6566   1.464   1.350  12.195  0.3077 -0.5143 -0.0781
  437TMC3    C5 6567   1.523   1.389  12.074 -0.1904 -0.4223  0.8960
  437TMC3    C6 6568   1.494   1.330  11.949  0.3713 -0.6604 -0.0888
  437TMC3     C 6569   1.315   1.192  12.294 -0.5094 -1.0678 -0.1369
  437TMC3     O 6570   1.299   1.280  12.380 -0.3148 -0.7334  0.5198
  437TMC3     H 6571   1.271   1.105  12.052  2.3300 -1.7973 -0.7077
  437TMC3    H1 6572   1.480   1.405  12.288  0.9679 -1.3598  0.3004
  437TMC3    H2 6573   1.543   1.356  11.856  0.5764  0.5853  0.3604
  437TMC3    C7 6574   1.580   1.527  12.062  0.0980  0.2994  0.1662
  437TMC3    C8 6575   1.348   1.204  11.811  0.2586 -0.6307  0.1326
  437TMC3    O1 6576   1.577   1.568  11.948 -1.0586  0.4463 -0.3281
  437TMC3    O2 6577   1.422   1.245  11.720 -0.2004 -0.1318  1.0225
  438MPD2     C 6578   3.740   2.706  16.684 -0.2761 -0.3368  0.5909
  438MPD2    C1 6579   3.805   2.597  16.742 -0.3571 -0.5277  0.0993
  438MPD2    C2 6580   3.798   2.589  16.883 -0.9573 -0.1764  0.0071
  438MPD2    C3 6581   3.737   2.687  16.959 -0.3574  0.0545  0.9439
  438MPD2    C4 6582   3.678   2.796  16.892 -0.1747  1.4093 -0.4898
  438MPD2    C5 6583   3.675   2.802  16.753  0.3810 -0.0794 -0.4924
  438MPD2     H 6584   3.844   2.509  16.940 -1.7178  0.2243  1.1883
  438MPD2    H1 6585   3.627   2.871  16.951  0.6988 -1.4177  3.8407
  438MPD2    H2 6586   3.747   2.724  16.577  0.1671 -1.3519  0.4512
  438MPD2    H3 6587   3.633   2.893  16.712  1.5933  0.5070 -0.4142
  438MPD2     N 6588   3.717   2.659  17.099  0.3079  0.0990 -0.3035
  438MPD2    H5 6589   3.751   2.567  17.127  0.7003  0.1229 -0.7040
  438MPD2    N1 6590   3.886   2.503  16.665 -0.2565 -0.3818  0.3942
  438MPD2    H7 6591   3.916   2.426  16.723 -0.3782 -0.1621  0.7489
  439TMC3    C1 6592   4.024   2.430  16.508  0.2355  0.7144 -0.5897
  439TMC3    C2 6593   4.134   2.474  16.442 -0.5734 -0.1031 -0.0320
  439TMC3    C3 6594   4.241   2.393  16.425 -0.3380 -0.0339 -0.4082
  439TMC3    C4 6595   4.035   2.305  16.566 -0.0319  0.3330  0.1774
  439TMC3    C5 6596   4.140   2.224  16.540 -0.1925  0.1466  0.4603
  439TMC3    C6 6597   4.248   2.266  16.469  0.7305 -0.3157 -0.8962
  439TMC3     C 6598   3.927   2.530  16.537 -0.1377 -0.4225 -0.2159
  439TMC3     O 6599   3.924   2.627  16.466 -0.0201 -0.0508 -0.2001
  439TMC3     H 6600   4.136   2.576  16.407  0.2622 -1.1812 -3.1976
  439TMC3    H1 6601   3.963   2.263  16.636 -1.9883  1.9866 -0.8219
  439TMC3    H2 6602   4.342   2.212  16.459  0.0347 -1.7202  0.1849
  439TMC3    C7 6603   4.165   2.114  16.628  0.2888 -0.5464 -0.0620
  439TMC3    C8 6604   4.335   2.421  16.321 -0.2903  0.6113 -0.4402
  439TMC3    O1 6605   4.143   2.130  16.749  0.2968  0.3457  0.4833
  439TMC3    O2 6606   4.452   2.390  16.331  0.4997 -0.0494  0.6789
  440MPD2     C 6607   2.329   3.368  14.837  0.2901 -0.2855  0.4902
  440MPD2    C1 6608   2.434   3.455  14.869 -0.6239 -1.0119  0.1663
  440MPD2    C2 6609   2.561   3.408  14.899 -0.6675 -0.7677  0.4313
  440MPD2    C3 6610   2.595   3.273  14.883  0.6221  0.0118 -0.2752
  440MPD2    C4 6611   2.500   3.190  14.846  0.1284 -0.3025  0.1248
  440MPD2    C5 6612   2.371   3.235  14.833 -0.2620 -0.7261  0.0493
  440MPD2     H 6613   2.634   3.480  14.935  0.1681 -1.4163  0.0268
  440MPD2    H1 6614   2.514   3.084  14.832  1.0284 -0.4082  1.8767
  440MPD2    H2 6615   2.229   3.405  14.818  0.3315  0.4490  1.6960
  440MPD2    H3 6616   2.291   3.163  14.824  1.0573 -2.1760  0.0105
  440MPD2     N 6617   2.722   3.225  14.912 -0.6281 -0.2000  0.0714
  440MPD2    H5 6618   2.742   3.127  14.896  1.2816  0.1297  0.4055
  440MPD2    N1 6619   2.419   3.591  14.890 -0.1228  0.6866  0.1967
  440MPD2    H7 6620   2.500   3.650  14.907  0.6315 -0.2072 -0.2535
  441TMC3    C1 6621   2.932   3.217  15.009  0.3707 -0.0403 -1.0095
  441TMC3    C2 6622   3.018   3.288  15.081 -0.3265 -0.9309  0.1406
  441TMC3    C3 6623   3.084   3.227  15.183 -0.0099  0.7385  0.0121
  441TMC3    C4 6624   2.905   3.085  15.036  0.1449 -0.4473  0.0720
  441TMC3    C5 6625   2.988   3.021  15.125 -0.0478 -0.6209 -0.0653
  441TMC3    C6 6626   3.071   3.093  15.203 -0.3236  0.3669  0.9096
  441TMC3     C 6627   2.814   3.295  14.979  0.4189 -0.8186  0.3011
  441TMC3     O 6628   2.811   3.411  15.025  0.3469  0.7670 -0.0468
  441TMC3     H 6629   3.036   3.391  15.052 -0.6304 -1.3646 -1.5690
  441TMC3    H1 6630   2.856   3.027  14.959  0.9476  0.9286 -1.4496
  441TMC3    H2 6631   3.128   3.048  15.283 -2.1185 -0.8699  1.4943
  441TMC3    C7 6632   2.939   2.900  15.180 -0.1471 -0.1418  1.2996
  441TMC3    C8 6633   3.077   3.299  15.312  0.5772 -0.6985 -0.1098
  441TMC3    O1 6634   2.816   2.879  15.182  0.0580 -0.4327  0.1029
  441TMC3    O2 6635   3.114   3.240  15.409  0.3933  0.0768  0.1363
  442MPD2     C 6636   0.908   3.759  16.576  0.3016  0.0581  0.5434
  442MPD2    C1 6637   0.787   3.697  16.553  0.8183 -0.2280 -0.2135
  442MPD2    C2 6638   0.779   3.568  16.497 -0.3110  0.4793  0.4549
  442MPD2    C3 6639   0.895   3.500  16.465  0.8108 -0.2888  0.4607
  442MPD2    C4 6640   1.016   3.560  16.493 -0.5425  0.5967 -0.3354
  442MPD2    C5 6641   1.023   3.690  16.544 -0.0776  0.1253  0.5632
  442MPD2     H 6642   0.681   3.527  16.480  0.7447 -2.1150  0.5880
  442MPD2    H1 6643   1.112   3.517  16.467  0.4168  1.2640  2.1302
  442MPD2    H2 6644   0.919   3.846  16.640 -2.1411 -0.1993  1.3104
  442MPD2    H3 6645   1.114   3.738  16.577 -1.1105  1.8176  0.9265
  442MPD2     N 6646   0.901   3.373  16.409  0.6057 -0.6041  0.3535
  442MPD2    H5 6647   0.995   3.335  16.407  0.1680 -1.6554 -0.3031
  442MPD2    N1 6648   0.661   3.747  16.592 -0.0639  0.2912  0.0658
  442MPD2    H7 6649   0.574   3.698  16.572 -1.0027  2.4391 -1.1772
  443TMC3    C1 6650   0.511   3.910  16.691 -0.5433  0.2317 -0.5279
  443TMC3    C2 6651   0.494   4.043  16.711  0.5255 -0.0372 -0.0813
  443TMC3    C3 6652   0.370   4.093  16.752  0.4130  0.1413 -0.2308
  443TMC3    C4 6653   0.414   3.821  16.715  0.3873  0.1272 -0.2794
  443TMC3    C5 6654   0.296   3.875  16.763 -0.5293 -0.4670 -0.0307
  443TMC3    C6 6655   0.268   4.006  16.780  0.1358  0.1603 -0.1528
  443TMC3     C 6656   0.645   3.877  16.638 -0.4665 -0.0509 -0.7089
  443TMC3     O 6657   0.725   3.966  16.670 -0.3190 -0.5655  0.5981
  443TMC3     H 6658   0.567   4.122  16.699  2.2270 -1.7358 -0.9326
  443TMC3    H1 6659   0.427   3.717  16.688 -0.5641 -0.1674  0.3699
  443TMC3    H2 6660   0.171   4.049  16.804  1.1150  0.8811  2.5608
  443TMC3    C7 6661   0.184   3.784  16.764  0.1898 -0.0921 -0.1533
  443TMC3    C8 6662   0.334   4.227  16.718  0.7895 -0.2093  0.0096
  443TMC3    O1 6663   0.184   3.677  16.698 -0.3708 -0.0250 -0.4254
  443TMC3    O2 6664   0.273   4.287  16.807 -0.4765  0.4726 -0.5721
  444MPD2     C 6665   1.021   2.788  16.943  0.0068  0.1730  0.3631
  444MPD2    C1 6666   0.932   2.706  16.881 -0.5787  0.6896  0.5205
  444MPD2    C2 6667   0.976   2.604  16.801  0.0168 -0.1260 -0.2275
  444MPD2    C3 6668   1.115   2.579  16.787 -0.2471  0.1715 -0.2969
  444MPD2    C4 6669   1.202   2.663  16.839 -0.9423  0.3269  0.4882
  444MPD2    C5 6670   1.157   2.770  16.907  0.3408 -0.0800  0.0997
  444MPD2     H 6671   0.901   2.538  16.759  1.3776  0.4133 -3.5095
  444MPD2    H1 6672   1.309   2.653  16.829 -0.9671 -0.5972  1.1148
  444MPD2    H2 6673   0.996   2.870  17.009 -2.3023  0.4979 -0.9211
  444MPD2    H3 6674   1.232   2.832  16.955  0.3400 -0.7841  1.0096
  444MPD2     N 6675   1.152   2.460  16.714  0.2344  0.6689  0.3934
  444MPD2    H5 6676   1.080   2.400  16.675 -0.0576  1.4608 -0.2739
  444MPD2    N1 6677   0.795   2.715  16.908 -0.2277  0.2256  0.4763
  444MPD2    H7 6678   0.743   2.646  16.855  0.8477  0.0111 -0.3023
  445TMC3    C1 6679   1.296   2.293  16.611  0.3341  0.6727 -0.1272
  445TMC3    C2 6680   1.228   2.300  16.495  0.5857 -1.3271 -0.0645
  445TMC3    C3 6681   1.268   2.213  16.394  0.0132  0.2559  0.0650
  445TMC3    C4 6682   1.404   2.207  16.631 -0.1502  1.0871 -0.2363
  445TMC3    C5 6683   1.441   2.129  16.528 -0.0953  0.3101  0.0587
  445TMC3    C6 6684   1.375   2.127  16.407 -0.9532  0.6242  0.1536
  445TMC3     C 6685   1.282   2.408  16.696  0.3615  0.1939 -0.2681
  445TMC3     O 6686   1.379   2.456  16.747  0.4861  0.8035 -0.9886
  445TMC3     H 6687   1.153   2.377  16.484 -0.8262 -2.7136 -0.0914
  445TMC3    H1 6688   1.444   2.215  16.731  1.9096  2.2472 -1.1508
  445TMC3    H2 6689   1.408   2.068  16.322 -1.0406  0.2975  0.3463
  445TMC3    C7 6690   1.572   2.073  16.520  0.0923 -0.3240 -0.2928
  445TMC3    C8 6691   1.205   2.235  16.265  0.0015  0.4694  0.4266
  445TMC3    O1 6692   1.612   2.002  16.424 -0.3073 -0.2098 -0.1582
  445TMC3    O2 6693   1.149   2.343  16.248  0.4400 -0.4514 -0.5517
  446MPD2     C 6694   1.038   4.074  11.291  0.0480  0.6810  0.2464
  446MPD2    C1 6695   1.051   4.074  11.154 -0.3226 -0.0881  0.3841
  446MPD2    C2 6696   1.143   4.161  11.101 -0.1828  0.3512 -0.5307
  446MPD2    C3 6697   1.230   4.237  11.178 -0.3988 -0.7457 -0.7810
  446MPD2    C4 6698   1.215   4.243  11.311 -0.2917 -0.0220  0.4827
  446MPD2    C5 6699   1.123   4.158  11.367  0.3266  0.2678  0.0332
  446MPD2     H 6700   1.157   4.161  10.993 -0.2123  1.0726 -0.5384
  446MPD2    H1 6701   1.278   4.309  11.369  2.7692 -1.8433 -0.7471
  446MPD2    H2 6702   0.964   4.015  11.342 -1.4778  1.1444 -1.4304
  446MPD2    H3 6703   1.120   4.155  11.475  1.8191 -1.2384  0.0392
  446MPD2     N 6704   1.326   4.320  11.113  0.0657 -0.4521  0.1396
  446MPD2    H5 6705   1.304   4.357  11.021 -0.8375  1.9860  1.3385
  446MPD2    N1 6706   0.977   3.997  11.069 -0.5928 -0.6207 -0.3306
  446MPD2    H7 6707   1.000   4.011  10.971 -0.2043  1.2204  0.0260
  447TMC3    C1 6708   1.531   4.447  11.087  1.1990 -0.0295  0.1602
  447TMC3    C2 6709   1.515   4.487  10.957  0.0790 -0.0177  0.6328
  447TMC3    C3 6710   1.618   4.544  10.890 -0.1607 -0.0185 -0.2477
  447TMC3    C4 6711   1.656   4.457  11.148  0.7565 -0.1090 -0.1002
  447TMC3    C5 6712   1.753   4.518  11.075  0.4111  0.0062 -0.0286
  447TMC3    C6 6713   1.741   4.555  10.943 -0.1312  0.6915  0.4653
  447TMC3     C 6714   1.438   4.370  11.175  0.0845 -0.1941 -0.3409
  447TMC3     O 6715   1.492   4.318  11.272 -0.1676  0.6092  0.0884
  447TMC3     H 6716   1.414   4.478  10.917  0.3603 -1.4526  0.2395
  447TMC3    H1 6717   1.669   4.445  11.254 -0.2977  3.3729  0.4078
  447TMC3    H2 6718   1.825   4.599  10.890 -1.5686 -0.1471 -2.5126
  447TMC3    C7 6719   1.892   4.509  11.119 -0.5318 -0.7022 -0.5257
  447TMC3    C8 6720   1.588   4.590  10.746  0.1221  0.8617 -0.0523
  447TMC3    O1 6721   1.975   4.483  11.030 -0.2326  0.0253 -0.1632
  447TMC3    O2 6722   1.491   4.546  10.689 -0.1622  0.2490 -0.0519
  448TMC3    C1 6723   3.574   3.795   0.315 -0.2470  0.1626 -0.0782
  448TMC3    C2 6724   3.574   3.738   0.189  0.4981  0.5016 -0.1999
  448TMC3    C3 6725   3.643   3.622   0.167 -0.0435 -0.0231 -0.0934
  448TMC3    C4 6726   3.649   3.728   0.413  0.2783  0.8921  0.5703
  448TMC3    C5 6727   3.718   3.610   0.387 -0.4643  0.3997 -0.0170
  448TMC3    C6 6728   3.727   3.562   0.262 -0.1425  0.3541 -0.4396
  448TMC3     C 6729   3.521   3.928   0.342  0.8845 -0.0543  0.2322
  448TMC3     O 6730   3.489   3.956   0.459  0.0009  0.0037 -0.5802
  448TMC3     H 6731   3.527   3.788   0.105  0.6249  0.4924 -0.2774
  448TMC3    H1 6732   3.638   3.773   0.511 -1.3950  3.9445 -1.0367
  448TMC3    H2 6733   3.784   3.472   0.241 -1.8432 -0.4418 -1.6614
  448TMC3    C7 6734   3.816   3.563   0.481 -0.7612  0.7612  0.3946
  448TMC3    C8 6735   3.621   3.550   0.043  0.1949  0.0344 -0.5533
  448TMC3    O1 6736   3.920   3.527   0.431 -0.1260 -0.1502  0.0775
  448TMC3    O2 6737   3.695   3.458   0.014 -0.6678 -0.2054  0.2213
  449MPD2     C 6738   0.973   2.708  14.661 -0.3764  0.3022 -0.2842
  449MPD2    C1 6739   0.913   2.763  14.544 -0.5785  0.5699 -0.0224
  449MPD2    C2 6740   0.812   2.689  14.486  0.2556  0.2886 -0.0442
  449MPD2    C3 6741   0.794   2.558  14.520  0.0370  0.3342  0.3130
  449MPD2    C4 6742   0.856   2.502  14.629  0.0517 -0.5865  0.0142
  449MPD2    C5 6743   0.945   2.580  14.702  0.2049 -0.0567 -0.4602
  449MPD2     H 6744   0.768   2.726  14.394 -0.2952  0.1451  0.1597
  449MPD2    H1 6745   0.823   2.404  14.660 -2.1124  0.3589  0.7006
  449MPD2    H2 6746   1.051   2.758  14.716  1.6544 -1.7609 -1.2803
  449MPD2    H3 6747   0.996   2.541  14.789 -1.5266 -0.0066  0.5859
  449MPD2     N 6748   0.687   2.498  14.441 -0.6305 -0.2951 -0.2464
  449MPD2    H5 6749   0.655   2.544  14.357 -0.3511 -1.1051 -0.7942
  449MPD2    N1 6750   0.938   2.891  14.486  0.1562 -0.7629  0.0545
  449MPD2    H7 6751   0.871   2.906  14.411 -0.4554  1.6569  1.1009
  450TMC3    C1 6752   1.053   3.067  14.385  0.1365  0.5181  0.5916
  450TMC3    C2 6753   1.161   3.071  14.295  0.0698  0.0873  0.0224
  450TMC3    C3 6754   1.132   3.088  14.162  0.1878 -0.4007 -1.0203
  450TMC3    C4 6755   0.928   3.109  14.352 -0.5542  0.4362  0.3828
  450TMC3    C5 6756   0.906   3.131  14.217 -0.8125 -0.4051 -0.2155
  450TMC3    C6 6757   1.004   3.125  14.126  0.3807  1.1518  0.4272
  450TMC3     C 6758   1.056   2.970  14.490  0.7657  0.0297  0.5100
  450TMC3     O 6759   1.165   2.929  14.534 -0.1719  0.0663  0.3058
  450TMC3     H 6760   1.260   3.035  14.321 -0.6471 -1.1746  1.0479
  450TMC3    H1 6761   0.844   3.095  14.419 -0.7632 -1.6830 -0.3225
  450TMC3    H2 6762   0.981   3.118  14.020  0.7726  1.1645  0.3404
  450TMC3    C7 6763   0.795   3.047  14.181 -0.5660  0.3040 -0.8215
  450TMC3    C8 6764   1.240   3.122  14.074 -0.1982  0.2869 -0.3493
  450TMC3    O1 6765   0.778   2.956  14.256  0.6365 -0.3963  0.1974
  450TMC3    O2 6766   1.335   3.190  14.113  0.2043 -0.0361  0.0598
  451MPD2     C 6767   1.792   0.645   1.277 -0.4600 -0.5876  0.2436
  451MPD2    C1 6768   1.821   0.720   1.161  0.0766  0.1582 -0.2525
  451MPD2    C2 6769   1.929   0.685   1.085  0.2868  0.3167 -0.0180
  451MPD2    C3 6770   2.013   0.582   1.126 -0.0585  0.1741 -0.5444
  451MPD2    C4 6771   1.977   0.499   1.228 -0.2229 -0.7750 -0.5204
  451MPD2    C5 6772   1.873   0.536   1.308  0.2095  0.2465 -0.6588
  451MPD2     H 6773   1.953   0.749   1.001 -1.3298  0.0043 -0.7141
  451MPD2    H1 6774   2.035   0.422   1.278  1.2007 -0.4938 -1.7397
  451MPD2    H2 6775   1.707   0.667   1.342 -1.4424 -2.4943 -0.3874
  451MPD2    H3 6776   1.846   0.471   1.391 -0.7383  1.1972 -0.2169
  451MPD2     N 6777   2.130   0.540   1.059 -0.3568  0.2895  0.1410
  451MPD2    H5 6778   2.168   0.448   1.076  0.9043  0.7424 -0.1526
  451MPD2    N1 6779   1.728   0.818   1.126  0.2441  0.2540 -0.5109
  451MPD2    H7 6780   1.659   0.836   1.198  1.4514 -1.6234  1.1106
  452TMC3    C1 6781   2.316   0.540   0.911 -0.8986 -0.0425  0.1971
  452TMC3    C2 6782   2.277   0.446   0.818  0.6190  0.5697 -0.6600
  452TMC3    C3 6783   2.338   0.451   0.696  0.4913  0.0436  0.0260
  452TMC3    C4 6784   2.414   0.630   0.884 -0.0423 -0.1893  0.3283
  452TMC3    C5 6785   2.468   0.625   0.759 -0.0165  1.0011 -0.0208
  452TMC3    C6 6786   2.431   0.542   0.664  0.0747 -0.2302  0.3207
  452TMC3     C 6787   2.201   0.617   0.971 -0.4639 -0.2517  0.8221
  452TMC3     O 6788   2.184   0.724   0.917 -0.0965  0.1687 -0.5876
  452TMC3     H 6789   2.200   0.371   0.833 -0.2310  1.4796 -0.4861
  452TMC3    H1 6790   2.426   0.712   0.955 -0.2969  1.8620 -1.9829
  452TMC3    H2 6791   2.463   0.550   0.561  0.4133 -0.7632  0.3832
  452TMC3    C7 6792   2.507   0.748   0.705  0.5768  0.0663  0.3405
  452TMC3    C8 6793   2.282   0.390   0.580  0.1530 -0.5107  0.6425
  452TMC3    O1 6794   2.449   0.790   0.604  0.1768 -0.6303 -0.1990
  452TMC3    O2 6795   2.360   0.363   0.485 -0.0785  0.3532  0.4421
  453TMC3    C1 6796   3.566   3.336  11.763 -0.1148 -0.0102  0.5343
  453TMC3    C2 6797   3.458   3.251  11.772 -0.2315 -0.0031  0.5060
  453TMC3    C3 6798   3.417   3.192  11.660 -0.4960  0.6892  0.1870
  453TMC3    C4 6799   3.633   3.357  11.646  0.0915 -0.2606  0.2231
  453TMC3    C5 6800   3.582   3.295  11.530 -0.3994 -0.2380  0.3388
  453TMC3    C6 6801   3.467   3.221  11.533  0.0725 -0.1952 -1.0535
  453TMC3     C 6802   3.641   3.374  11.882  0.0109  0.1547 -1.0347
  453TMC3     O 6803   3.754   3.428  11.862  0.0215 -0.4313 -0.1108
  453TMC3     H 6804   3.406   3.223  11.863 -0.5167  0.7244  0.5740
  453TMC3    H1 6805   3.735   3.392  11.649 -0.4701  1.3393  0.5399
  453TMC3    H2 6806   3.434   3.162  11.449  0.0394 -1.8983  0.1591
  453TMC3    C7 6807   3.625   3.354  11.405  0.0767  0.2673 -0.5400
  453TMC3    C8 6808   3.328   3.081  11.665 -0.9340  0.1412  0.7863
  453TMC3    O1 6809   3.713   3.439  11.407  0.2617  0.2820  0.2238
  453TMC3    O2 6810   3.235   3.095  11.745  0.4608 -0.0785 -0.1891
  454MPD2     C 6811   1.993   2.493  16.529  0.4367 -0.3522 -0.1956
  454MPD2    C1 6812   1.936   2.609  16.486  1.0114 -0.1703 -0.6260
  454MPD2    C2 6813   1.859   2.673  16.578 -0.2817  0.3858  0.0708
  454MPD2    C3 6814   1.847   2.629  16.711  0.2797 -0.5496  0.4691
  454MPD2    C4 6815   1.924   2.523  16.748 -0.2861 -0.0374  0.2945
  454MPD2    C5 6816   1.986   2.452  16.654  0.8894  0.3913  0.1899
  454MPD2     H 6817   1.800   2.756  16.541  0.5961  1.0905  0.2541
  454MPD2    H1 6818   1.916   2.494  16.852  1.3141  2.6704  1.1893
  454MPD2    H2 6819   2.042   2.424  16.461  2.3411  1.3558 -0.5674
  454MPD2    H3 6820   2.030   2.357  16.679  1.5815  1.0994  1.6697
  454MPD2     N 6821   1.766   2.673  16.814 -0.1097  0.4340 -0.3838
  454MPD2    H5 6822   1.790   2.642  16.908  0.7929 -0.9427 -1.0767
  454MPD2    N1 6823   1.943   2.662  16.352  0.0760 -0.8592  0.3111
  454MPD2    H7 6824   1.923   2.761  16.341  0.3790 -0.9437 -0.9608
  455TMC3    C1 6825   1.588   2.765  16.676 -0.0196  0.8384  0.4170
  455TMC3    C2 6826   1.531   2.887  16.659 -0.7508  0.6866  0.6186
  455TMC3    C3 6827   1.429   2.896  16.567  0.7229 -0.5287 -0.1609
  455TMC3    C4 6828   1.554   2.654  16.612  0.0655  0.1155  0.4089
  455TMC3    C5 6829   1.480   2.680  16.501 -0.5179  0.3117  0.3791
  455TMC3    C6 6830   1.405   2.796  16.477 -0.6330 -0.9435 -0.2597
  455TMC3     C 6831   1.657   2.755  16.805  0.7664 -0.3684  1.0196
  455TMC3     O 6832   1.591   2.793  16.904  0.2471 -0.4243  0.3659
  455TMC3     H 6833   1.549   2.974  16.721  0.9329 -0.6339  1.9662
  455TMC3    H1 6834   1.600   2.560  16.640 -2.2310 -1.3481 -0.6557
  455TMC3    H2 6835   1.340   2.805  16.391 -0.6207 -0.9479 -0.2696
  455TMC3    C7 6836   1.490   2.586  16.390 -0.2587  0.7426  0.1794
  455TMC3    C8 6837   1.315   2.981  16.598 -0.1533  0.0932 -0.2582
  455TMC3    O1 6838   1.405   2.587  16.300 -0.5385  0.0727 -0.3291
  455TMC3    O2 6839   1.336   3.087  16.655  0.4631  0.1500  0.9443
  456MPD2     C 6840   3.921   2.987  16.404 -0.7196  0.2353  0.2510
  456MPD2    C1 6841   4.037   2.988  16.477 -0.6830 -0.0094  0.7466
  456MPD2    C2 6842   4.031   3.031  16.607  0.1906 -0.3063  0.7691
  456MPD2    C3 6843   3.912   3.075  16.655  0.2341 -0.4174 -0.4026
  456MPD2    C4 6844   3.798   3.086  16.578 -0.4265 -0.0883 -0.3632
  456MPD2    C5 6845   3.803   3.034  16.449  0.5905  0.7540 -0.5712
  456MPD2     H 6846   4.122   3.041  16.665  0.4423  0.9477  0.1731
  456MPD2    H1 6847   3.701   3.123  16.610 -0.5610 -0.7388 -0.0304
  456MPD2    H2 6848   3.927   2.934  16.310 -3.9205 -0.6745  0.5708
  456MPD2    H3 6849   3.706   3.028  16.399  1.7553  0.2804 -2.7698
  456MPD2     N 6850   3.915   3.108  16.794 -0.5252  0.3743  0.3248
  456MPD2    H5 6851   3.999   3.072  16.840 -1.8046 -2.5830  0.3313
  456MPD2    N1 6852   4.163   2.969  16.414 -0.4091 -0.2988 -0.0998
  456MPD2    H7 6853   4.162   2.959  16.313 -1.2687 -0.7414 -0.0521
  457TMC3    C1 6854   3.859   3.163  17.015  0.2754 -0.4068  0.3388
  457TMC3    C2 6855   3.782   3.241  17.099  0.5089 -0.4969  0.9941
  457TMC3    C3 6856   3.799   3.229  17.233  1.0146  0.1615  0.1371
  457TMC3    C4 6857   3.942   3.060  17.063 -0.3338 -0.1250 -0.0961
  457TMC3    C5 6858   3.959   3.054  17.198 -0.4204 -0.1869 -0.0704
  457TMC3    C6 6859   3.895   3.142  17.278 -0.2608  0.5047 -0.4377
  457TMC3     C 6860   3.824   3.166  16.881  0.2177 -0.0189 -0.2168
  457TMC3     O 6861   3.710   3.202  16.841  0.3301  0.0459  0.2909
  457TMC3     H 6862   3.722   3.318  17.052  1.0755  0.0749  1.1990
  457TMC3    H1 6863   4.003   3.000  16.997  0.4109 -1.0950  1.4819
  457TMC3    H2 6864   3.905   3.127  17.385  0.8899 -0.2894 -0.6565
  457TMC3    C7 6865   3.996   2.930  17.258 -0.0934  0.1015  0.9194
  457TMC3    C8 6866   3.755   3.331  17.329 -0.3836 -0.4349  0.3180
  457TMC3    O1 6867   3.989   2.937  17.379 -0.2945  0.0617 -0.0921
  457TMC3    O2 6868   3.818   3.343  17.434  0.4970  0.1638 -0.0689
  458MPD2     C 6869   1.856   1.928  12.213  0.0544 -0.0232 -0.4683
  458MPD2    C1 6870   1.846   1.838  12.320  0.5916 -0.1214 -0.0074
  458MPD2    C2 6871   1.763   1.726  12.315  0.3847 -0.3498  1.0198
  458MPD2    C3 6872   1.696   1.698  12.191  0.4593 -0.3277  0.8613
  458MPD2    C4 6873   1.715   1.785  12.089  0.4393  0.1455  0.5045
  458MPD2    C5 6874   1.783   1.899  12.100  0.3706  0.5701  0.0392
  458MPD2     H 6875   1.741   1.663  12.400  1.3891 -0.3278  1.2958
  458MPD2    H1 6876   1.669   1.771  11.991  1.4618 -2.5233  0.4309
  458MPD2    H2 6877   1.902   2.026  12.227  0.5793 -0.2546 -0.5708
  458MPD2    H3 6878   1.771   1.966  12.016 -2.1024  0.7314  0.5012
  458MPD2     N 6879   1.620   1.581  12.180 -0.2936  0.5841 -0.2520
  458MPD2    H5 6880   1.608   1.519  12.260  1.2258 -1.2519 -1.4346
  458MPD2    N1 6881   1.903   1.877  12.439 -0.1632 -1.0400  0.4098
  458MPD2    H7 6882   1.952   1.966  12.449 -3.6098  0.9697 -0.4922
  459TMC3    C1 6883   1.966   1.864  12.666  0.5142  0.4360 -0.3332
  459TMC3    C2 6884   2.039   1.982  12.652 -0.4982  0.8438 -0.3087
  459TMC3    C3 6885   2.129   2.012  12.743  0.0995  0.7603  0.0102
  459TMC3    C4 6886   1.989   1.776  12.771  0.1440 -0.8716 -0.2861
  459TMC3    C5 6887   2.099   1.807  12.853 -0.1472  0.3770  0.5616
  459TMC3    C6 6888   2.159   1.932  12.850  0.2406  0.5923  0.2763
  459TMC3     C 6889   1.877   1.823  12.562 -0.4697 -0.5123  0.6540
  459TMC3     O 6890   1.803   1.729  12.594 -0.1824  0.0335  0.1073
  459TMC3     H 6891   2.027   2.043  12.564  0.0036  1.1187 -0.1900
  459TMC3    H1 6892   1.942   1.678  12.767  1.1015 -1.1939 -3.2602
  459TMC3    H2 6893   2.244   1.951  12.915  1.2203 -0.9710 -0.5662
  459TMC3    C7 6894   2.149   1.709  12.944  0.2116  0.2366 -0.7476
  459TMC3    C8 6895   2.223   2.114  12.708  0.8995  0.2071 -0.0028
  459TMC3    O1 6896   2.258   1.731  12.993  0.0591 -0.2611 -0.4267
  459TMC3    O2 6897   2.235   2.146  12.593 -0.0308  0.2673  0.3517
  460MPD2     C 6898   1.730   0.144  10.595  0.1780 -0.4810 -0.7231
  460MPD2    C1 6899   1.641   0.042  10.606 -0.7247  0.3914 -0.6931
  460MPD2    C2 6900   1.558   0.015  10.497  0.0925  0.5280  0.5997
  460MPD2    C3 6901   1.532   0.111  10.400  0.2553  0.1740 -0.0440
  460MPD2    C4 6902   1.617   0.221  10.395  0.3597  0.2569  0.5578
  460MPD2    C5 6903   1.710   0.236  10.497 -0.4756  0.5127 -0.4606
  460MPD2     H 6904   1.488   4.670  10.495  0.9670 -0.2047  0.2581
  460MPD2    H1 6905   1.622   0.294  10.314  1.7989 -0.7593 -0.2635
  460MPD2    H2 6906   1.808   0.151  10.671  0.6444  0.3637 -1.2768
  460MPD2    H3 6907   1.770   0.325  10.509  1.3609 -0.8457  0.5481
  460MPD2     N 6908   1.431   0.095  10.302 -0.3219  0.0365 -0.0311
  460MPD2    H5 6909   1.398   4.737  10.294  0.6479 -0.1647 -1.7318
  460MPD2    N1 6910   1.658   4.703  10.724  0.9480  0.3285  0.1159
  460MPD2    H7 6911   1.720   0.004  10.795  1.1014 -1.6091  1.0448
  461TMC3    C1 6912   1.297   0.180  10.123 -0.6226 -0.4830  0.0518
  461TMC3    C2 6913   1.308   0.059  10.060  0.9646 -0.3056  0.1557
  461TMC3    C3 6914   1.240   0.059   9.940 -1.3023 -0.6034  0.2280
  461TMC3    C4 6915   1.232   0.292  10.069  0.3500  0.1833  0.0339
  461TMC3    C5 6916   1.171   0.278   9.941 -0.1119  0.3841  0.1757
  461TMC3    C6 6917   1.182   0.160   9.877  0.1134  0.1450 -0.2901
  461TMC3     C 6918   1.378   0.207  10.239  0.6859  0.5039  0.3690
  461TMC3     O 6919   1.386   0.321  10.282 -0.1084 -0.6156 -0.0780
  461TMC3     H 6920   1.359   4.709  10.098  0.7577  0.0617  1.2657
  461TMC3    H1 6921   1.232   0.380  10.133 -0.5481  1.6292 -1.9816
  461TMC3    H2 6922   1.145   0.138   9.777 -1.6098 -2.5569  0.9191
  461TMC3    C7 6923   1.101   0.392   9.887 -0.0512 -0.0561  0.5386
  461TMC3    C8 6924   1.285   4.699   9.845  0.2525  0.1174 -0.5898
  461TMC3    O1 6925   1.117   0.499   9.944  0.1591 -0.1492  0.1136
  461TMC3    O2 6926   1.399   4.663   9.851  0.3842 -0.0443 -0.4546
  462TMC3    C1 6927   0.860   0.062   0.856  0.7404 -0.4057  0.1167
  462TMC3    C2 6928   0.964   0.054   0.770 -0.0874 -0.2973  0.5149
  462TMC3    C3 6929   0.935   0.074   0.633  0.1005 -0.4393  0.1252
  462TMC3    C4 6930   0.728   0.089   0.822  0.3407 -0.7540 -0.3275
  462TMC3    C5 6931   0.709   0.115   0.690 -0.4540  0.0286 -0.3311
  462TMC3    C6 6932   0.807   0.107   0.592  0.0541 -0.0273  0.0053
  462TMC3     C 6933   0.879   0.052   1.002 -0.1849  0.5126  0.3077
  462TMC3     O 6934   0.790   0.082   1.078  0.2864  0.0817 -0.6536
  462TMC3     H 6935   1.068   0.038   0.795  0.3243  1.4064 -0.1062
  462TMC3    H1 6936   0.653   0.112   0.897  1.5767  1.7300  0.1449
  462TMC3    H2 6937   0.778   0.105   0.488  1.0318 -0.4871 -0.2546
  462TMC3    C7 6938   0.573   0.142   0.648 -0.5160 -0.3692  0.0562
  462TMC3    C8 6939   1.038   0.064   0.522 -0.6592 -0.6179 -0.3339
  462TMC3    O1 6940   0.483   0.112   0.730 -0.3396  0.1815 -0.2440
  462TMC3    O2 6941   1.000   0.079   0.411 -0.8523 -0.3638 -0.3373
  463MPD2     C 6942   1.894   4.505   1.608 -0.6099 -0.2227  0.0663
  463MPD2    C1 6943   1.892   4.377   1.547 -0.0807 -0.4670 -0.0814
  463MPD2    C2 6944   2.013   4.306   1.544  0.1885  0.1000 -0.6951
  463MPD2    C3 6945   2.133   4.363   1.586 -0.2745  0.2222 -0.5298
  463MPD2    C4 6946   2.135   4.491   1.634  0.1611  0.7933  0.0746
  463MPD2    C5 6947   2.018   4.560   1.647  0.1845  0.4856 -0.7878
  463MPD2     H 6948   2.007   4.217   1.482 -0.1756 -0.4229  0.1008
  463MPD2    H1 6949   2.230   4.537   1.659 -0.2806  2.4870 -1.3907
  463MPD2    H2 6950   1.810   4.572   1.623 -0.3179 -0.1865  1.5351
  463MPD2    H3 6951   2.004   4.656   1.696  0.2712 -0.5514  1.2371
  463MPD2     N 6952   2.254   4.291   1.589  0.1197 -0.4352 -0.3583
  463MPD2    H5 6953   2.330   4.334   1.641  0.5809 -1.2383 -0.3665
  463MPD2    N1 6954   1.774   4.304   1.521  0.0043 -0.0995 -0.3737
  463MPD2    H7 6955   1.785   4.204   1.514 -2.6435 -0.4626  0.5302
  464TMC3    C1 6956   1.546   4.267   1.527 -0.0438 -0.5073  0.3401
  464TMC3    C2 6957   1.417   4.315   1.507  0.1884 -0.0502  0.6659
  464TMC3    C3 6958   1.317   4.228   1.530 -0.1877  0.4847 -0.6630
  464TMC3    C4 6959   1.567   4.141   1.584 -0.0952 -0.1843  0.8285
  464TMC3    C5 6960   1.454   4.060   1.605  0.3424  0.3207  0.3253
  464TMC3    C6 6961   1.325   4.099   1.574 -0.7593 -0.4886 -0.0340
  464TMC3     C 6962   1.649   4.364   1.515  0.2201  0.1127  0.4013
  464TMC3     O 6963   1.622   4.484   1.530 -0.3079  0.1056  0.0492
  464TMC3     H 6964   1.394   4.415   1.472 -1.2004 -1.2795 -1.9177
  464TMC3    H1 6965   1.668   4.103   1.598  0.0794 -0.2998 -0.8173
  464TMC3    H2 6966   1.237   4.050   1.614 -0.2627 -1.2722  0.1028
  464TMC3    C7 6967   1.483   3.921   1.642 -0.2365  0.5549 -1.0505
  464TMC3    C8 6968   1.180   4.263   1.486 -0.1054  1.0348  0.3942
  464TMC3    O1 6969   1.594   3.894   1.697 -0.1353 -0.0580 -0.1594
  464TMC3    O2 6970   1.158   4.252   1.366  0.0899 -0.2026  0.1341
  465MPD2     C 6971   3.486   3.083  17.254 -0.2722  0.0024 -0.5482
  465MPD2    C1 6972   3.372   3.130  17.329  0.0626  0.1652 -0.9089
  465MPD2    C2 6973   3.251   3.143  17.265 -0.3267 -0.0778  0.0086
  465MPD2    C3 6974   3.227   3.105  17.130  0.2848 -0.5633 -0.5641
  465MPD2    C4 6975   3.335   3.069  17.055  0.6716 -0.4079  0.0075
  465MPD2    C5 6976   3.462   3.061  17.118 -0.0489 -0.5072  0.0732
  465MPD2     H 6977   3.166   3.176  17.324  0.7997 -0.4507  1.8224
  465MPD2    H1 6978   3.330   3.043  16.949  3.1200 -0.8245  0.0161
  465MPD2    H2 6979   3.585   3.068  17.295 -0.9693  0.8233  1.4520
  465MPD2    H3 6980   3.543   3.022  17.058  1.1235  0.4771  1.0290
  465MPD2     N 6981   3.092   3.109  17.080  0.1133 -0.7905  0.1758
  465MPD2    H5 6982   3.019   3.146  17.139  0.1623  1.1283 -0.9789
  465MPD2    N1 6983   3.373   3.149  17.475  0.5761  0.5790  0.4962
  465MPD2    H7 6984   3.294   3.196  17.517  0.8818  2.2918 -0.8188
  466TMC3    C1 6985   2.704   3.152  16.997  0.0436  0.3610 -0.8460
  466TMC3    C2 6986   2.677   3.219  16.879 -0.7165  0.1919 -0.3382
  466TMC3    C3 6987   2.777   3.241  16.785  0.1403 -0.0820  0.6439
  466TMC3    C4 6988   2.821   3.095  17.017  1.1981 -0.3883  0.2157
  466TMC3    C5 6989   2.918   3.121  16.925  0.1468 -0.0586  0.6437
  466TMC3    C6 6990   2.894   3.185  16.806 -0.3005 -0.1400  0.2395
  466TMC3     C 6991   2.600   3.125  17.092  0.3592  0.3926  0.0557
  466TMC3     O 6992   2.647   3.101  17.205 -0.2926 -0.5103 -0.7410
  466TMC3     H 6993   2.584   3.272  16.863 -1.0177  0.0593  0.9399
  466TMC3    H1 6994   2.839   3.044  17.111  2.1394 -0.2663  0.1056
  466TMC3    H2 6995   2.977   3.191  16.737  0.3476 -1.4585  0.9005
  466TMC3    C7 6996   3.052   3.074  16.955  0.2187  0.4559 -0.2873
  466TMC3    C8 6997   2.795   3.378  16.750 -0.0976  0.1041  0.4112
  466TMC3    O1 6998   3.118   3.049  16.858  0.0652  0.1325 -0.2068
  466TMC3    O2 6999   2.867   3.388  16.652 -0.0372  0.2434 -0.2945
  467TMC3    C1 7000   4.475   1.316  13.794 -0.1189 -0.1886 -0.5051
  467TMC3    C2 7001   4.487   1.435  13.721 -0.3462 -0.1185 -0.1371
  467TMC3    C3 7002   4.370   1.487  13.673  0.4766 -0.1935  0.2132
  467TMC3    C4 7003   4.357   1.259  13.830 -0.6414 -0.3351  0.4031
  467TMC3    C5 7004   4.242   1.319  13.780 -0.3614  0.4310 -0.1854
  467TMC3    C6 7005   4.248   1.430  13.702  0.2998 -0.0439  0.1463
  467TMC3     C 7006   4.593   1.251  13.839  0.2725 -0.3719 -0.0051
  467TMC3     O 7007   4.576   1.178  13.935 -0.1388  0.4170  0.1137
  467TMC3     H 7008   4.588   1.469  13.699 -0.0954 -0.7460  0.0362
  467TMC3    H1 7009   4.347   1.159  13.872  0.8840 -0.7207 -0.1547
  467TMC3    H2 7010   4.155   1.477  13.673  2.1227  1.6468 -2.9152
  467TMC3    C7 7011   4.112   1.256  13.808  0.4227 -0.6100 -0.2214
  467TMC3    C8 7012   4.385   1.626  13.633  0.2835 -0.0441 -0.3377
  467TMC3    O1 7013   4.106   1.195  13.916 -0.5780  0.2856  0.5083
  467TMC3    O2 7014   4.499   1.669  13.626  0.3372  0.2148  0.2975
  468MPD2     C 7015   3.683   4.293  10.204 -0.1732  0.2398  0.3932
  468MPD2    C1 7016   3.653   4.293  10.340 -0.2799 -0.2330 -0.5188
  468MPD2    C2 7017   3.585   4.181  10.382 -0.0548 -0.7224  0.0366
  468MPD2    C3 7018   3.566   4.072  10.296 -0.2301 -0.1602  0.4253
  468MPD2    C4 7019   3.601   4.076  10.164 -0.2071  0.6628 -0.5926
  468MPD2    C5 7020   3.666   4.187  10.119  1.0613 -0.0201 -0.0838
  468MPD2     H 7021   3.551   4.183  10.485  0.5800 -1.1422  0.2564
  468MPD2    H1 7022   3.581   3.988  10.105 -0.1862 -0.0721  0.5085
  468MPD2    H2 7023   3.736   4.373  10.152 -1.5196  0.5671 -0.4747
  468MPD2    H3 7024   3.699   4.208  10.018 -0.6099 -0.2154 -0.6540
  468MPD2     N 7025   3.520   3.946  10.353  0.0160 -0.0506  0.0455
  468MPD2    H5 7026   3.523   3.859  10.302  0.9806 -0.6699  1.1538
  468MPD2    N1 7027   3.696   4.395  10.435 -0.0657 -0.0792  0.0527
  468MPD2    H7 7028   3.670   4.377  10.531 -0.6056  0.0646 -0.0660
  469TMC3    C1 7029   3.793   4.585  10.516  0.3084  0.1974  0.1034
  469TMC3    C2 7030   3.911   4.538  10.568  0.1318 -0.4169  0.9470
  469TMC3    C3 7031   3.925   4.566  10.702 -0.3338  0.1739  0.4002
  469TMC3    C4 7032   3.692   4.646  10.583 -0.3121 -0.1683 -0.3511
  469TMC3    C5 7033   3.711   4.670  10.710  0.3318 -0.1834  0.2998
  469TMC3    C6 7034   3.828   4.634  10.779  0.5135  0.6325 -0.5457
  469TMC3     C 7035   3.762   4.504  10.401 -0.3976  0.1060  0.3582
  469TMC3     O 7036   3.820   4.527  10.294 -0.0199 -0.3174  0.6592
  469TMC3     H 7037   3.985   4.477  10.518  0.6502 -0.0177  1.2225
  469TMC3    H1 7038   3.603   4.679  10.531  0.9896  1.9649 -1.2221
  469TMC3    H2 7039   3.852   4.658  10.882 -0.4853  3.7893 -1.0629
  469TMC3    C7 7040   3.613   0.018  10.769  0.6035  0.7764 -0.0285
  469TMC3    C8 7041   4.045   4.506  10.763  0.0304 -0.0477 -0.5079
  469TMC3    O1 7042   3.543   0.084  10.695 -0.2190  0.7183  0.5184
  469TMC3    O2 7043   4.146   4.491  10.695 -0.3944  0.0208  0.5764
  470TMC3    C1 7044   0.177   0.534   0.440  0.2860 -0.4560 -0.1436
  470TMC3    C2 7045   0.256   0.619   0.513 -0.2078 -0.4979  0.4091
  470TMC3    C3 7046   0.244   0.622   0.648  0.1236  0.8309 -0.0278
  470TMC3    C4 7047   0.084   0.454   0.494  0.3018  0.1212 -0.3684
  470TMC3    C5 7048   0.070   0.453   0.633 -0.2486 -0.4698  0.1228
  470TMC3    C6 7049   0.150   0.539   0.707  0.7997 -0.2610 -0.4327
  470TMC3     C 7050   0.174   0.565   0.297 -0.1805 -0.4316 -0.0691
  470TMC3     O 7051   0.270   0.627   0.256  0.4371 -0.1275 -0.5923
  470TMC3     H 7052   0.309   0.703   0.470 -0.1677  0.3416  2.0883
  470TMC3    H1 7053   0.024   0.386   0.434  0.2318  0.4684 -0.6856
  470TMC3    H2 7054   0.124   0.552   0.811 -1.0251  0.1071 -0.9224
  470TMC3    C7 7055   0.024   0.326   0.694 -0.0966  0.9029  0.0327
  470TMC3    C8 7056   0.320   0.722   0.735  0.1933  0.5891  0.9442
  470TMC3    O1 7057   4.673   0.270   0.629 -0.1693  0.2373 -0.5376
  470TMC3    O2 7058   0.306   0.714   0.851  0.7590 -0.0744 -0.0649
  471MPD2     C 7059   0.987   2.161  16.648  0.9162  0.0338  0.2300
  471MPD2    C1 7060   1.083   2.058  16.651 -0.4365 -0.2816 -1.1423
  471MPD2    C2 7061   1.161   2.051  16.759  0.1981 -0.4280 -0.6434
  471MPD2    C3 7062   1.125   2.132  16.876  0.0525 -0.2378 -0.4968
  471MPD2    C4 7063   1.013   2.213  16.878 -0.2512 -0.4975 -0.4657
  471MPD2    C5 7064   0.953   2.238  16.757 -0.8387 -0.6233  0.3831
  471MPD2     H 7065   1.241   1.977  16.761 -1.1157 -1.8358  0.6660
  471MPD2    H1 7066   0.973   2.267  16.963  1.2261 -0.7393  0.3953
  471MPD2    H2 7067   0.920   2.182  16.565  1.1713  1.2092  0.3222
  471MPD2    H3 7068   0.869   2.306  16.749 -0.2565  0.0446 -0.1506
  471MPD2     N 7069   1.199   2.128  16.997  0.0615 -0.1177  0.0384
  471MPD2    H5 7070   1.148   2.170  17.074 -1.1969 -0.8770 -0.3782
  471MPD2    N1 7071   1.104   1.964  16.552  0.2927  0.1399  0.4458
  471MPD2    H7 7072   1.179   1.897  16.561  0.2577  0.2060  1.2374
  472TMC3    C1 7073   1.055   1.824  16.360 -0.7666 -0.7788 -0.4026
  472TMC3    C2 7074   1.024   1.834  16.227 -0.0264 -0.2269  0.1864
  472TMC3    C3 7075   1.033   1.719  16.157 -0.2313 -1.0856 -0.5013
  472TMC3    C4 7076   1.097   1.713  16.426  0.1667  0.1577 -0.5761
  472TMC3    C5 7077   1.106   1.598  16.355  0.7127  0.1794 -0.0677
  472TMC3    C6 7078   1.069   1.603  16.219 -0.3008 -0.4291  0.0993
  472TMC3     C 7079   1.040   1.953  16.434 -0.0504  0.4060 -0.3229
  472TMC3     O 7080   0.973   2.040  16.379 -0.4692 -0.3578 -0.2363
  472TMC3     H 7081   0.968   1.918  16.187 -0.2578 -1.9006 -3.0356
  472TMC3    H1 7082   1.113   1.717  16.533  1.8030  2.8717 -0.9211
  472TMC3    H2 7083   1.081   1.514  16.158  1.9240 -1.4118  1.9962
  472TMC3    C7 7084   1.089   1.473  16.432 -0.2981  0.3486  0.6755
  472TMC3    C8 7085   0.923   1.704  16.061  0.4929  0.3790 -0.1448
  472TMC3    O1 7086   1.074   1.483  16.552  0.0077  0.2825  0.3522
  472TMC3    O2 7087   0.876   1.806  16.015 -0.1727 -0.4216  1.2536
  473MPD2     C 7088   1.401   3.636  14.362 -0.1682  0.7261  0.7920
  473MPD2    C1 7089   1.308   3.712  14.293  0.1284 -0.4165  0.0481
  473MPD2    C2 7090   1.256   3.821  14.357 -0.0183 -0.0138 -0.3372
  473MPD2    C3 7091   1.286   3.850  14.491  0.1777  0.2582  0.3572
  473MPD2    C4 7092   1.370   3.768  14.559 -0.1448 -0.2464  0.0503
  473MPD2    C5 7093   1.435   3.665  14.494  0.2275  0.0644 -0.3613
  473MPD2     H 7094   1.185   3.880  14.301  0.2745  1.4269  0.8297
  473MPD2    H1 7095   1.398   3.792  14.662 -2.1859  0.8138  0.3708
  473MPD2    H2 7096   1.447   3.548  14.317  1.8553  2.5669 -0.7903
  473MPD2    H3 7097   1.506   3.598  14.540  1.0951  0.0181 -1.7526
  473MPD2     N 7098   1.233   3.959  14.559 -0.9777  0.1078 -0.5285
  473MPD2    H5 7099   1.275   3.986  14.647  0.3589 -0.2695 -1.0391
  473MPD2    N1 7100   1.273   3.692  14.161 -0.2259  0.3912 -0.3045
  473MPD2    H7 7101   1.201   3.750  14.118 -0.7439  1.0830  1.5260
  474TMC3    C1 7102   1.139   4.190  14.564 -0.2025 -0.1928  0.7000
  474TMC3    C2 7103   1.101   4.293  14.487  0.8524 -0.2678 -0.6038
  474TMC3    C3 7104   1.094   4.418  14.538  0.2999  0.8245  0.4977
  474TMC3    C4 7105   1.181   4.209  14.689 -0.2658  0.7551 -0.0772
  474TMC3    C5 7106   1.166   4.331  14.749  0.9296  0.0629 -0.6660
  474TMC3    C6 7107   1.121   4.443  14.672 -0.1549 -0.6316 -0.1586
  474TMC3     C 7108   1.163   4.061  14.492  0.3515 -0.0366 -0.4332
  474TMC3     O 7109   1.112   4.068  14.379  0.0555  0.3326  0.3292
  474TMC3     H 7110   1.081   4.280  14.381 -1.0911 -1.0926 -0.1304
  474TMC3    H1 7111   1.202   4.122  14.750 -0.0306 -0.0219 -1.2502
  474TMC3    H2 7112   1.115   4.537  14.726 -0.3585 -0.8209  0.1431
  474TMC3    C7 7113   1.245   4.359  14.863 -0.1706 -0.4959 -0.2572
  474TMC3    C8 7114   1.009   4.509  14.456 -0.2131  0.1500  0.2448
  474TMC3    O1 7115   1.234   4.469  14.913  0.2077 -0.7007 -0.4020
  474TMC3    O2 7116   0.918   4.461  14.389  0.0124  0.4172  0.0866
  475MPD2     C 7117   0.234   2.020  10.736  0.6800  0.3157  0.2124
  475MPD2    C1 7118   0.192   2.111  10.639  0.1718  0.4805 -0.2269
  475MPD2    C2 7119   0.058   2.159  10.641  0.4461  0.2394 -0.6577
  475MPD2    C3 7120   4.714   2.138  10.751 -0.3020  0.3662  0.0589
  475MPD2    C4 7121   0.028   2.062  10.856 -0.9614 -0.6131  0.3988
  475MPD2    C5 7122   0.151   1.993  10.841  0.4031  0.8387  0.3042
  475MPD2     H 7123   0.017   2.218  10.560 -0.8325 -1.3509 -1.1542
  475MPD2    H1 7124   4.720   2.034  10.950 -1.8949 -0.5970 -0.0485
  475MPD2    H2 7125   0.334   1.979  10.738  0.3099 -0.5816  0.1162
  475MPD2    H3 7126   0.183   1.916  10.910 -0.9998 -2.3046 -2.5410
  475MPD2     N 7127   4.583   2.198  10.757 -0.6399  0.1215 -0.7029
  475MPD2    H5 7128   4.559   2.266  10.686 -1.1162  0.5273 -0.1535
  475MPD2    N1 7129   0.277   2.132  10.528  0.5904 -0.0952  0.1115
  475MPD2    H7 7130   0.378   2.135  10.537  0.4508  0.6180  1.4886
  476TMC3    C1 7131   0.305   2.271  10.349  0.8939 -0.6233 -0.7984
  476TMC3    C2 7132   0.248   2.310  10.225 -0.2440 -0.4007 -0.7943
  476TMC3    C3 7133   0.215   2.440  10.205  0.3983  1.2045 -0.3203
  476TMC3    C4 7134   0.338   2.373  10.449  0.6839  0.4012  0.1646
  476TMC3    C5 7135   0.310   2.506  10.416  0.2727  0.6299 -0.3785
  476TMC3    C6 7136   0.260   2.540  10.291  0.8157  0.0568 -0.2375
  476TMC3     C 7137   0.233   2.159  10.407  0.5143  0.1696  0.5824
  476TMC3     O 7138   0.129   2.130  10.348  0.0248  0.2610 -0.2002
  476TMC3     H 7139   0.226   2.227  10.160 -2.5078 -0.9600  0.6782
  476TMC3    H1 7140   0.403   2.353  10.532 -0.4154  0.1897  0.9790
  476TMC3    H2 7141   0.236   2.642  10.261 -2.7460 -0.7491 -0.1264
  476TMC3    C7 7142   0.276   2.611  10.522  0.4750  0.7056 -1.0430
  476TMC3    C8 7143   0.069   2.457  10.184 -0.0457 -0.6881 -0.2709
  476TMC3    O1 7144   0.230   2.719  10.485 -0.1355  0.3798 -0.4338
  476TMC3    O2 7145   0.025   2.569  10.214  0.1042  0.6656 -0.0859
  477MPD2     C 7146   1.995   3.874  11.768 -0.3696 -0.4747  0.2851
  477MPD2    C1 7147   1.912   3.776  11.714 -0.7725  0.0947 -0.1705
  477MPD2    C2 7148   1.931   3.645  11.749  0.3524 -0.5086  0.0624
  477MPD2    C3 7149   2.017   3.612  11.851  0.2833 -0.0034  0.0326
  477MPD2    C4 7150   2.093   3.712  11.907 -0.6660 -0.1497  0.3916
  477MPD2    C5 7151   2.077   3.840  11.863  0.5188  0.5922  0.3524
  477MPD2     H 7152   1.864   3.568  11.713 -0.4721  0.5017 -0.5527
  477MPD2    H1 7153   2.163   3.678  11.982  1.2030 -1.1003 -1.7612
  477MPD2    H2 7154   1.997   3.980  11.747  2.1727 -0.5512  0.1414
  477MPD2    H3 7155   2.134   3.916  11.915  0.3162 -0.3619  1.9723
  477MPD2     N 7156   2.029   3.474  11.886  0.9465  0.4768  0.3704
  477MPD2    H5 7157   1.985   3.405  11.826 -1.3972  1.7196  0.6499
  477MPD2    N1 7158   1.822   3.824  11.618 -0.5910 -0.1820  0.0560
  477MPD2    H7 7159   1.846   3.919  11.590 -1.4021  0.3969  1.3327
  478TMC3    C1 7160   1.631   3.825  11.476 -0.0843 -0.5179  0.5532
  478TMC3    C2 7161   1.578   3.935  11.541  0.2080  1.0931  0.2768
  478TMC3    C3 7162   1.499   4.017  11.466  0.5755 -0.1192 -0.1194
  478TMC3    C4 7163   1.591   3.789  11.350  0.0526 -0.0651 -0.7249
  478TMC3    C5 7164   1.503   3.869  11.283 -0.1460  0.2779 -0.5872
  478TMC3    C6 7165   1.454   3.985  11.336 -0.2629  0.2509 -0.3692
  478TMC3     C 7166   1.730   3.750  11.548  0.2229 -0.2032  0.5193
  478TMC3     O 7167   1.711   3.629  11.555  0.4633 -0.2257  0.0454
  478TMC3     H 7168   1.609   3.960  11.642  0.7817  1.0311  0.1138
  478TMC3    H1 7169   1.635   3.705  11.298  1.8142  0.2810  0.2209
  478TMC3    H2 7170   1.375   4.042  11.288  1.2093  1.4106 -1.4452
  478TMC3    C7 7171   1.494   3.844  11.137  0.4332 -0.5714 -0.1365
  478TMC3    C8 7172   1.417   4.102  11.552 -0.4314 -1.0119  0.0988
  478TMC3    O1 7173   1.533   3.732  11.099 -0.3194 -0.3792 -0.4536
  478TMC3    O2 7174   1.380   4.045  11.656 -0.0097  0.2183  0.1005
  479MPD2     C 7175   0.652   1.040  15.336 -0.5617  0.5238  0.0436
  479MPD2    C1 7176   0.610   0.958  15.442 -0.6858 -0.3529  0.1571
  479MPD2    C2 7177   0.694   0.934  15.547  0.4239  0.2724  0.3550
  479MPD2    C3 7178   0.828   0.977  15.543  0.8102 -0.3446 -0.0580
  479MPD2    C4 7179   0.869   1.038  15.430 -0.0618  0.7791 -0.0034
  479MPD2    C5 7180   0.781   1.071  15.330 -0.0363 -0.5726 -0.0242
  479MPD2     H 7181   0.657   0.878  15.633  1.4339 -0.5986  0.2315
  479MPD2    H1 7182   0.967   1.085  15.420  0.3647 -0.1528 -0.1973
  479MPD2    H2 7183   0.582   1.067  15.257 -0.9618 -3.8070 -1.1008
  479MPD2    H3 7184   0.821   1.135  15.252 -1.0249  0.9476  0.6954
  479MPD2     N 7185   0.919   0.952  15.642 -0.0502  0.0217 -0.1115
  479MPD2    H5 7186   1.016   0.941  15.616  0.2603  1.6138  0.3412
  479MPD2    N1 7187   0.476   0.927  15.443 -0.0699  0.0861  0.1474
  479MPD2    H7 7188   0.424   0.981  15.375 -1.9926 -1.5568  0.3093
  480TMC3    C1 7189   0.645   0.997  16.013 -0.8948 -1.0946 -0.5900
  480TMC3    C2 7190   0.592   1.113  15.963  0.7214  0.3162  0.2445
  480TMC3    C3 7191   0.644   1.177  15.853  0.5831 -1.0072  0.2687
  480TMC3    C4 7192   0.749   0.941  15.959 -0.0538 -0.8691  0.9845
  480TMC3    C5 7193   0.798   1.001  15.846 -0.1235 -0.3330  0.3833
  480TMC3    C6 7194   0.750   1.118  15.792  0.4604 -0.6898 -0.2076
  480TMC3     C 7195   0.579   0.928  16.123 -0.3376  0.3513  0.2394
  480TMC3     O 7196   0.634   0.829  16.171 -0.0348 -0.1819 -0.2573
  480TMC3     H 7197   0.505   1.163  16.006 -1.1339 -2.4616 -0.3102
  480TMC3    H1 7198   0.787   0.844  15.990 -1.7334 -1.7120  0.3836
  480TMC3    H2 7199   0.815   1.165  15.719  0.6880  1.4664  1.3710
  480TMC3    C7 7200   0.899   0.924  15.778  0.5537  0.1287  0.3092
  480TMC3    C8 7201   0.550   1.239  15.761  0.1991  0.1895 -0.5672
  480TMC3    O1 7202   0.968   0.852  15.854 -0.2332 -0.0084  0.2985
  480TMC3    O2 7203   0.432   1.245  15.788  0.1418 -0.0294  0.4415
  481MPD2     C 7204   2.041   0.549  14.175 -0.1109  0.5637  0.7748
  481MPD2    C1 7205   1.958   0.527  14.280 -0.1144  0.3810  0.2532
  481MPD2    C2 7206   2.010   0.441  14.379 -0.3746  0.5561 -0.2242
  481MPD2    C3 7207   2.135   0.378  14.365  0.1318  0.2877 -0.2116
  481MPD2    C4 7208   2.215   0.397  14.257 -0.5132  0.7357  0.2970
  481MPD2    C5 7209   2.159   0.479  14.161  0.2487  0.2251  0.0204
  481MPD2     H 7210   1.954   0.413  14.467 -1.8769  3.8161 -0.1732
  481MPD2    H1 7211   2.305   0.339  14.239 -1.2624 -0.5999  0.7921
  481MPD2    H2 7212   2.003   0.620  14.101 -0.8805  0.1146  0.7382
  481MPD2    H3 7213   2.214   0.482  14.067  0.5136  0.8582  0.1926
  481MPD2     N 7214   2.191   0.307  14.472 -0.7224  0.6269  0.4436
  481MPD2    H5 7215   2.266   0.240  14.454 -1.4695 -0.0568 -0.1236
  481MPD2    N1 7216   1.825   0.586  14.288  0.5187  0.3630 -0.3259
  481MPD2    H7 7217   1.802   0.663  14.226  0.2999 -0.5922 -1.4188
  482TMC3    C1 7218   1.605   0.619  14.331 -0.3784  0.4248  0.3433
  482TMC3    C2 7219   1.511   0.547  14.266  0.7654  0.3034 -0.2869
  482TMC3    C3 7220   1.455   0.603  14.151 -0.7046 -0.4780  0.1893
  482TMC3    C4 7221   1.627   0.751  14.314 -0.0321 -0.3688 -0.3888
  482TMC3    C5 7222   1.555   0.807  14.214  0.4717 -0.2581  0.2291
  482TMC3    C6 7223   1.475   0.734  14.130 -0.0292  0.6753  0.3174
  482TMC3     C 7224   1.721   0.538  14.363 -0.3340  0.0234  0.1269
  482TMC3     O 7225   1.709   0.426  14.410  0.2983 -0.2976  0.0435
  482TMC3     H 7226   1.504   0.441  14.287  1.2611  0.3119 -0.0746
  482TMC3    H1 7227   1.703   0.802  14.372  0.5257  0.9200 -2.2590
  482TMC3    H2 7228   1.413   0.783  14.056 -1.2203  0.0688  0.9035
  482TMC3    C7 7229   1.587   0.945  14.179  0.1116 -0.2611 -0.0343
  482TMC3    C8 7230   1.490   0.511  14.044 -0.8111  0.6701 -0.0341
  482TMC3    O1 7231   1.601   1.022  14.269  0.2962  0.2156 -0.9197
  482TMC3    O2 7232   1.546   0.410  14.085  0.1519 -1.0478 -0.3212
  483TMC3    C1 7233   4.027   3.737   1.085 -0.6798  0.4374 -0.3805
  483TMC3    C2 7234   4.035   3.850   1.013 -0.2245  0.3576 -0.2210
  483TMC3    C3 7235   4.145   3.866   0.927 -0.7215 -0.2123 -0.0861
  483TMC3    C4 7236   4.117   3.626   1.063  0.4515  0.1762  0.0277
  483TMC3    C5 7237   4.222   3.656   0.977  0.1034  0.5666 -0.0656
  483TMC3    C6 7238   4.234   3.768   0.905  1.1471 -0.6492 -0.0929
  483TMC3     C 7239   3.939   3.737   1.202  0.4213  0.4182  0.0187
  483TMC3     O 7240   3.846   3.819   1.217 -0.3138 -0.5604  0.2927
  483TMC3     H 7241   3.970   3.935   1.034 -0.3925  0.0711  0.4254
  483TMC3    H1 7242   4.124   3.532   1.117  1.2903  0.0638 -0.2759
  483TMC3    H2 7243   4.322   3.793   0.847  0.5677 -4.1323 -2.4644
  483TMC3    C7 7244   4.327   3.557   0.962  0.4970  0.3661 -0.2032
  483TMC3    C8 7245   4.179   3.990   0.867  0.2300  0.1117  0.0603
  483TMC3    O1 7246   4.346   3.472   1.047  0.0970 -0.5468  0.1041
  483TMC3    O2 7247   4.241   3.981   0.760 -0.0629  0.2623 -0.1295
  484MPD2     C 7248   2.369   2.317  12.969 -0.7159  0.1844  0.3707
  484MPD2    C1 7249   2.360   2.269  12.845  0.3353 -0.5749  0.0514
  484MPD2    C2 7250   2.449   2.296  12.744  0.1663  0.4727 -0.0991
  484MPD2    C3 7251   2.560   2.378  12.774 -0.0001  0.7216 -0.1804
  484MPD2    C4 7252   2.569   2.423  12.901  0.5466  0.3732 -0.1109
  484MPD2    C5 7253   2.473   2.397  12.995  1.0085 -0.1893 -0.1448
  484MPD2     H 7254   2.439   2.253  12.645 -0.1796 -0.4493  0.3328
  484MPD2    H1 7255   2.655   2.481  12.934  0.7668  0.9444 -1.7032
  484MPD2    H2 7256   2.300   2.286  13.047  1.8875 -1.7403  1.9106
  484MPD2    H3 7257   2.471   2.437  13.096  1.2274 -0.1073 -0.1738
  484MPD2     N 7258   2.674   2.397  12.691  0.5731 -0.1471 -0.0453
  484MPD2    H5 7259   2.748   2.453  12.733 -0.7083  0.0626  1.9530
  484MPD2    N1 7260   2.256   2.177  12.830 -0.5379 -0.0690 -0.5412
  484MPD2    H7 7261   2.193   2.143  12.903  1.6246 -1.8469  0.4761
  485TMC3    C1 7262   2.795   2.417  12.497 -0.0734 -0.2347 -0.5068
  485TMC3    C2 7263   2.917   2.430  12.568 -0.0258  0.0087 -0.1361
  485TMC3    C3 7264   3.018   2.509  12.514 -0.2393  0.0614  0.2147
  485TMC3    C4 7265   2.782   2.450  12.367 -0.0938  0.1070 -0.0117
  485TMC3    C5 7266   2.880   2.518  12.312  0.2796  0.0056 -0.1860
  485TMC3    C6 7267   2.991   2.556  12.385  0.3998 -0.0734  0.1689
  485TMC3     C 7268   2.678   2.372  12.561 -0.3532  0.0412 -0.6775
  485TMC3     O 7269   2.588   2.340  12.486  0.3036 -0.4278 -0.1953
  485TMC3     H 7270   2.926   2.387  12.667 -0.5144  1.0419  0.3554
  485TMC3    H1 7271   2.700   2.427  12.300 -1.3335  0.5465  1.3305
  485TMC3    H2 7272   3.066   2.608  12.326  0.4717 -1.1761 -0.7109
  485TMC3    C7 7273   2.905   2.476  12.174  0.5183 -0.1004  0.5680
  485TMC3    C8 7274   3.145   2.447  12.510  0.9433 -0.6604 -0.7770
  485TMC3    O1 7275   2.822   2.492  12.085 -0.1289  0.3377 -0.1492
  485TMC3    O2 7276   3.187   2.426  12.396 -0.6728 -0.5012 -0.1701
  486MPD2     C 7277   0.556   1.187  13.078  0.2162  0.8198 -0.5212
  486MPD2    C1 7278   0.468   1.142  12.978  0.0587  0.5977  0.0434
  486MPD2    C2 7279   0.404   1.236  12.899 -0.9034 -0.2591  0.3978
  486MPD2    C3 7280   0.412   1.369  12.932  0.0946  0.4557  0.3734
  486MPD2    C4 7281   0.488   1.412  13.038 -0.2261 -0.1075  0.3154
  486MPD2    C5 7282   0.561   1.320  13.112 -0.3078  0.1900  0.7870
  486MPD2     H 7283   0.342   1.212  12.813 -0.4734  1.1448 -0.2962
  486MPD2    H1 7284   0.503   1.516  13.062 -0.6321  0.2204 -0.8306
  486MPD2    H2 7285   0.614   1.117  13.136 -0.2471  1.1542  0.3518
  486MPD2    H3 7286   0.624   1.358  13.192  0.7024 -0.0395  0.0980
  486MPD2     N 7287   0.330   1.457  12.861  0.4576  0.0492 -0.4670
  486MPD2    H5 7288   0.286   1.425  12.776 -1.6074 -0.3090  0.7397
  486MPD2    N1 7289   0.462   0.999  12.960 -0.3508  0.4035 -0.5820
  486MPD2    H7 7290   0.513   0.941  13.025 -1.5115  1.5569  1.3931
  487TMC3    C1 7291   0.412   0.787  12.854  0.1696  0.3573 -0.2826
  487TMC3    C2 7292   0.323   0.722  12.771 -0.1075 -0.1296  0.1979
  487TMC3    C3 7293   0.285   0.594  12.797 -0.5334  0.0002  0.1194
  487TMC3    C4 7294   0.450   0.727  12.967  0.4581  0.5767  0.1644
  487TMC3    C5 7295   0.404   0.600  12.995  0.2969  0.3666  0.0871
  487TMC3    C6 7296   0.330   0.523  12.907 -0.1511 -0.5766 -0.3343
  487TMC3     C 7297   0.398   0.935  12.858  0.1600  0.0367 -0.2027
  487TMC3     O 7298   0.337   0.975  12.759  0.1314 -0.4022  0.0929
  487TMC3     H 7299   0.274   0.777  12.691  0.1197  1.7444  1.3521
  487TMC3    H1 7300   0.499   0.783  13.045 -1.9045  0.4850  1.6989
  487TMC3    H2 7301   0.270   0.437  12.935  0.2160 -0.4107  0.9543
  487TMC3    C7 7302   0.375   0.584  13.137 -0.7177 -0.3431 -0.0563
  487TMC3    C8 7303   0.149   0.561  12.758 -0.8848  0.4457 -0.0157
  487TMC3    O1 7304   0.434   0.656  13.217 -0.4504 -0.3121 -0.0246
  487TMC3    O2 7305   0.131   0.473  12.678  0.0089 -0.1802 -0.9907
  488MPD2     C 7306   4.685   3.414  16.005  0.0663 -0.0911 -0.1523
  488MPD2    C1 7307   4.719   3.457  16.129  0.6074  0.2626 -0.3002
  488MPD2    C2 7308   4.630   3.449  16.229 -0.5860  0.1466  0.1552
  488MPD2    C3 7309   4.506   3.390  16.215  0.7915  0.3961 -0.0657
  488MPD2    C4 7310   4.465   3.346  16.090  0.3153  0.3737 -0.1302
  488MPD2    C5 7311   4.560   3.353  15.994  0.4922 -0.2017 -0.4260
  488MPD2     H 7312   4.664   3.476  16.329 -0.7095 -0.9051  0.4857
  488MPD2    H1 7313   4.369   3.308  16.056  0.2256 -1.0934  1.7543
  488MPD2    H2 7314   0.003   3.408  15.912 -0.0342  1.0865 -0.2904
  488MPD2    H3 7315   4.541   3.295  15.905 -0.3650 -0.6835  0.0650
  488MPD2     N 7316   4.428   3.363  16.329 -0.4446 -0.0915  0.1553
  488MPD2    H5 7317   4.474   3.391  16.415 -0.4848 -2.3090  0.9100
  488MPD2    N1 7318   0.109   3.490  16.164  0.1791 -0.0425  0.3452
  488MPD2    H7 7319   0.115   3.531  16.256  2.4703 -0.1069  0.2238
  489TMC3    C1 7320   4.256   3.297  16.461 -0.2152  0.1769 -0.2421
  489TMC3    C2 7321   4.351   3.334  16.551  0.0204  0.1625 -0.4121
  489TMC3    C3 7322   4.316   3.436  16.635  0.2605  0.1854  0.6269
  489TMC3    C4 7323   4.126   3.334  16.469 -0.3328 -0.2896  0.7515
  489TMC3    C5 7324   4.096   3.437  16.557 -0.6467  0.1131 -0.4847
  489TMC3    C6 7325   4.191   3.495  16.638  0.3845  0.7326 -0.3243
  489TMC3     C 7326   4.309   3.307  16.329 -0.7099  0.4053 -0.2217
  489TMC3     O 7327   4.233   3.285  16.233  0.0760  0.1619 -0.8801
  489TMC3     H 7328   4.449   3.287  16.559  1.3674  2.5088 -3.3132
  489TMC3    H1 7329   4.049   3.306  16.399 -0.2950 -1.4821  1.1876
  489TMC3    H2 7330   4.170   3.575  16.707  0.7662  1.2525 -0.8046
  489TMC3    C7 7331   3.956   3.461  16.586 -0.2286 -0.0819 -0.1079
  489TMC3    C8 7332   4.427   3.515  16.671 -0.2135 -0.2364 -0.2743
  489TMC3    O1 7333   3.878   3.450  16.495 -0.0063 -0.2772 -0.1393
  489TMC3    O2 7334   4.518   3.535  16.598  0.2848 -0.1233  0.7138
  490MPD2     C 7335   1.085   2.703  17.457  0.5360  0.2143  0.3729
  490MPD2    C1 7336   1.002   2.610  17.508  0.2693 -0.1330 -0.0155
  490MPD2    C2 7337   1.033   2.546  17.627 -0.1584  0.6260 -0.1543
  490MPD2    C3 7338   1.146   2.577  17.702  1.1639  0.0455  0.1620
  490MPD2    C4 7339   1.228   2.670  17.650  0.4007  0.1644  0.2312
  490MPD2    C5 7340   1.200   2.721  17.526 -0.8655  0.7477  0.4509
  490MPD2     H 7341   0.965   2.464  17.647  0.5423  0.6006  2.1225
  490MPD2    H1 7342   1.319   2.692  17.705  1.5628  0.5502 -1.8573
  490MPD2    H2 7343   1.062   2.756  17.365  0.1019 -1.6166 -0.5683
  490MPD2    H3 7344   1.264   2.792  17.475 -1.1948 -0.0638 -1.0823
  490MPD2     N 7345   1.160   2.539   0.084  0.1797 -0.5356  0.1044
  490MPD2    H5 7346   1.246   2.563   0.133  0.0779  2.8761 -1.3148
  490MPD2    N1 7347   0.877   2.569  17.445 -0.2504 -0.1344 -0.2935
  490MPD2    H7 7348   0.818   2.512  17.504  0.7462 -0.2589  0.5804
  491TMC3    C1 7349   0.713   2.539  17.282  0.0154  0.2044 -0.0341
  491TMC3    C2 7350   0.607   2.525  17.366 -1.0181 -0.3592 -0.4823
  491TMC3    C3 7351   0.517   2.425  17.346 -0.1478  0.3206  0.5819
  491TMC3    C4 7352   0.725   2.464  17.172  0.8001  0.2844  0.2345
  491TMC3    C5 7353   0.624   2.376  17.148 -0.0193 -0.3463  0.0860
  491TMC3    C6 7354   0.532   2.342  17.240 -0.2931 -0.2519  0.1223
  491TMC3     C 7355   0.837   2.603  17.321 -0.2769 -0.1775 -0.3027
  491TMC3     O 7356   0.910   2.638  17.230  0.0151 -0.1122 -0.0549
  491TMC3     H 7357   0.604   2.592  17.451 -0.9046 -0.0425 -0.7236
  491TMC3    H1 7358   0.796   2.496  17.097 -0.2413 -0.9102 -1.2656
  491TMC3    H2 7359   0.465   2.262  17.211 -0.4017  0.0632 -0.4905
  491TMC3    C7 7360   0.675   2.264  17.065  0.4022 -0.2649 -0.1747
  491TMC3    C8 7361   0.431   2.382  17.458 -0.3932  0.6828  0.2998
  491TMC3    O1 7362   0.713   2.285  16.954 -0.1939 -0.1567  0.0719
  491TMC3    O2 7363   0.406   2.262  17.458 -0.5898 -0.3151  0.3499
  492MPD2     C 7364   1.320   2.687  12.093 -0.6395 -0.4597 -0.2202
  492MPD2    C1 7365   1.235   2.629  11.999  0.4324  0.9669  0.2637
  492MPD2    C2 7366   1.197   2.498  12.028  0.2666 -0.6091 -0.1172
  492MPD2    C3 7367   1.212   2.435  12.146 -0.1322  0.0011  0.2088
  492MPD2    C4 7368   1.285   2.502  12.242  0.2347  0.1429 -0.3193
  492MPD2    C5 7369   1.337   2.628  12.217  0.3223  0.2639  1.0820
  492MPD2     H 7370   1.160   2.442  11.943 -1.0779 -0.7160  0.5443
  492MPD2    H1 7371   1.316   2.446  12.330  1.2824  1.4209  0.1322
  492MPD2    H2 7372   1.373   2.779  12.069  0.8605 -0.7222  2.0993
  492MPD2    H3 7373   1.406   2.669  12.290 -0.2370 -1.3825  2.5407
  492MPD2     N 7374   1.169   2.299  12.163 -0.1157  0.1586  0.9663
  492MPD2    H5 7375   1.218   2.250  12.237 -1.6428 -1.9775  0.5683
  492MPD2    N1 7376   1.217   2.700  11.877 -0.0425  0.0894 -0.6194
  492MPD2    H7 7377   1.275   2.782  11.864 -0.1876 -0.1463 -2.8587
  493TMC3    C1 7378   1.173   2.719  11.644  0.0413  0.3187  0.8820
  493TMC3    C2 7379   1.195   2.854  11.634  0.3134 -0.3594  0.0642
  493TMC3    C3 7380   1.262   2.900  11.529 -0.6648  0.3449 -0.0113
  493TMC3    C4 7381   1.212   2.630  11.551  0.4073  0.4485  0.2433
  493TMC3    C5 7382   1.276   2.677  11.438  0.0678  0.2340  0.2350
  493TMC3    C6 7383   1.293   2.817  11.417  0.0145 -0.3234  0.3146
  493TMC3     C 7384   1.139   2.656  11.772 -0.5780  0.2663 -0.3619
  493TMC3     O 7385   1.062   2.560  11.773 -0.2277  0.0821 -0.1876
  493TMC3     H 7386   1.174   2.923  11.716 -0.7823 -0.0567 -0.4802
  493TMC3    H1 7387   1.169   2.531  11.563 -0.6943  0.7643 -1.2325
  493TMC3    H2 7388   1.351   2.837  11.327  1.1768 -1.3753  0.8295
  493TMC3    C7 7389   1.319   2.571  11.340 -0.6932 -0.1069 -0.0207
  493TMC3    C8 7390   1.265   3.046  11.517  0.0396  0.0404  0.0781
  493TMC3    O1 7391   1.334   2.610  11.223  0.3553 -0.2727 -0.2602
  493TMC3    O2 7392   1.176   3.093  11.590 -0.2065  0.3925 -0.1599
  494TMC3    C1 7393   1.162   4.388   0.379  0.7758  0.1104  0.1783
  494TMC3    C2 7394   1.167   4.253   0.352  0.2108 -0.2207  0.0044
  494TMC3    C3 7395   1.188   4.205   0.226 -0.6119  0.0523  0.8228
  494TMC3    C4 7396   1.194   4.479   0.283  0.1622  0.0717 -0.2327
  494TMC3    C5 7397   1.220   4.429   0.161  0.2970 -0.5011  1.0701
  494TMC3    C6 7398   1.210   4.289   0.125 -0.3091  0.2097 -0.1706
  494TMC3     C 7399   1.053   4.415   0.472 -0.0371  0.4909  0.5191
  494TMC3     O 7400   1.057   4.358   0.579  0.1989 -0.1582  0.8835
  494TMC3     H 7401   1.163   4.184   0.436 -1.9014  2.1066  1.8271
  494TMC3    H1 7402   1.177   4.585   0.300  1.4702  0.1334  0.7126
  494TMC3    H2 7403   1.233   4.247   0.028 -0.1469  0.7989 -0.3920
  494TMC3    C7 7404   1.324   4.494   0.083  0.0787  0.0237 -0.0133
  494TMC3    C8 7405   1.246   4.068   0.219 -0.3251 -0.0501 -0.2682
  494TMC3    O1 7406   1.305   4.484  17.712 -0.3149  0.3280 -0.3192
  494TMC3    O2 7407   1.299   4.025   0.320  0.6240 -0.1028 -0.6478
  495TMC3    C1 7408   0.925   1.231  14.937  0.3016  0.3454  0.5933
  495TMC3    C2 7409   0.899   1.289  14.816  0.2342  0.9065  0.0606
  495TMC3    C3 7410   0.819   1.399  14.815  0.1057 -0.6089 -0.2970
  495TMC3    C4 7411   0.887   1.287  15.055 -0.3962 -0.0051 -0.2647
  495TMC3    C5 7412   0.828   1.411  15.053 -0.5991 -0.2360  0.3825
  495TMC3    C6 7413   0.786   1.472  14.934  0.9788 -0.4732 -0.6785
  495TMC3     C 7414   0.891   1.090  14.937  0.1640 -1.0155 -0.0279
  495TMC3     O 7415   0.806   1.060  15.019  0.2122 -0.0848  0.0333
  495TMC3     H 7416   0.941   1.244  14.727  1.7974  2.1635  0.1651
  495TMC3    H1 7417   0.924   1.236  15.143 -1.6688 -0.9131 -0.2623
  495TMC3    H2 7418   0.730   1.564  14.933  1.0790 -0.4357 -2.0239
  495TMC3    C7 7419   0.775   1.435  15.185 -0.3577 -0.8851  0.8461
  495TMC3    C8 7420   0.700   1.373  14.728  0.2850 -0.6742  0.0749
  495TMC3    O1 7421   0.861   1.443  15.270  0.2384  0.6295  0.0147
  495TMC3    O2 7422   0.607   1.434  14.768  0.1702 -0.2621  0.4679
  496MPD2     C 7423   2.509   1.572  14.881 -0.2069 -0.7953  0.2183
  496MPD2    C1 7424   2.568   1.553  15.010 -0.0713 -0.4985 -0.0501
  496MPD2    C2 7425   2.507   1.456  15.090 -0.2683 -0.0573  0.4597
  496MPD2    C3 7426   2.403   1.381  15.039  0.9995  0.2999  0.0263
  496MPD2    C4 7427   2.360   1.394  14.914  0.2330  0.5015 -0.0289
  496MPD2    C5 7428   2.408   1.492  14.830  0.4759  0.6858 -0.1764
  496MPD2     H 7429   2.538   1.439  15.192  0.6222 -2.6285 -0.2494
  496MPD2    H1 7430   2.284   1.327  14.876 -0.2907  0.6105  0.8189
  496MPD2    H2 7431   2.553   1.632  14.802 -1.7211 -1.0123 -0.7876
  496MPD2    H3 7432   2.390   1.499  14.723  1.9003 -1.6305 -0.5728
  496MPD2     N 7433   2.349   1.288  15.130  0.2392 -0.4991  0.4104
  496MPD2    H5 7434   2.386   1.285  15.225  0.0985 -0.2350  0.4723
  496MPD2    N1 7435   2.688   1.621  15.051 -0.5761  0.1219 -0.4555
  496MPD2    H7 7436   2.722   1.682  14.978 -0.8050 -1.3973 -1.8121
  497TMC3    C1 7437   2.182   1.143  15.228  0.3143  0.4782  0.4727
  497TMC3    C2 7438   2.162   1.012  15.207  0.6823  0.0433  0.1910
  497TMC3    C3 7439   2.169   0.921  15.309  0.4188  0.1527  0.0874
  497TMC3    C4 7440   2.219   1.191  15.351 -0.6841  0.5242  0.0451
  497TMC3    C5 7441   2.234   1.099  15.452  0.2963 -0.1927  0.1492
  497TMC3    C6 7442   2.209   0.964  15.435  0.4825 -0.1497 -0.6586
  497TMC3     C 7443   2.236   1.215  15.113 -0.2146 -0.4693  0.8190
  497TMC3     O 7444   2.162   1.197  15.017  0.2261  0.5898 -0.1531
  497TMC3     H 7445   2.132   0.976  15.110  1.2019 -4.0084  1.5382
  497TMC3    H1 7446   2.222   1.298  15.373  1.3115  0.6725 -1.0136
  497TMC3    H2 7447   2.238   0.895  15.513 -1.0034  0.7237  0.6881
  497TMC3    C7 7448   2.256   1.138  15.586 -0.5358  0.6755 -0.3612
  497TMC3    C8 7449   2.218   0.790  15.260  0.3376 -0.4989 -0.2697
  497TMC3    O1 7450   2.228   1.053  15.668 -0.2502 -0.1195 -0.0379
  497TMC3    O2 7451   2.198   0.760  15.142  0.1707 -0.2069 -0.3633
  498MPD2     C 7452   4.231   2.010   9.608 -0.4335  0.0362 -0.9134
  498MPD2    C1 7453   4.173   2.081   9.709 -0.0221 -1.0599  0.0816
  498MPD2    C2 7454   4.044   2.030   9.750 -0.5735 -0.9749 -0.4018
  498MPD2    C3 7455   3.965   1.938   9.683 -0.4841  0.5988 -0.7392
  498MPD2    C4 7456   4.028   1.874   9.574  0.5450  0.8472  0.8372
  498MPD2    C5 7457   4.155   1.916   9.544  0.3503 -0.1107 -0.7371
  498MPD2     H 7458   3.996   2.091   9.826 -0.2241 -1.3429  0.1203
  498MPD2    H1 7459   3.981   1.802   9.506  1.7074 -1.2107  2.2052
  498MPD2    H2 7460   4.332   2.028   9.574  0.0095  0.5037  0.6447
  498MPD2    H3 7461   4.203   1.867   9.460  1.8045 -1.4782  0.8855
  498MPD2     N 7462   3.836   1.911   9.720  0.2866 -0.0624 -0.2006
  498MPD2    H5 7463   3.811   1.943   9.813 -0.2489 -2.2315  0.4091
  498MPD2    N1 7464   4.228   2.202   9.765  0.6079 -0.6902  0.3918
  498MPD2    H7 7465   4.165   2.257   9.824  0.6734 -0.3458  0.1414
  499TMC3    C1 7466   4.390   2.379   9.808 -0.6260  0.2979  0.7091
  499TMC3    C2 7467   4.522   2.413   9.817 -0.0633 -0.5344 -0.3315
  499TMC3    C3 7468   4.547   2.546   9.825 -0.5121  0.9839 -0.6430
  499TMC3    C4 7469   4.287   2.468   9.826 -0.2421 -0.1261 -0.0190
  499TMC3    C5 7470   4.321   2.599   9.853 -0.2754 -0.0337  0.5056
  499TMC3    C6 7471   4.449   2.644   9.848 -0.4200  0.1669  0.7535
  499TMC3     C 7472   4.358   2.242   9.747 -0.0215 -0.3636 -0.1638
  499TMC3     O 7473   4.449   2.176   9.708 -0.3359  0.3350  0.0482
  499TMC3     H 7474   4.591   2.337   9.783 -0.0139  0.9594 -3.6132
  499TMC3    H1 7475   4.186   2.449   9.791 -0.9435  0.9448  1.3773
  499TMC3    H2 7476   4.479   2.744   9.877  0.2887  1.1769 -3.3592
  499TMC3    C7 7477   4.219   2.699   9.855  0.3778 -0.1250  0.2762
  499TMC3    C8 7478   4.682   2.585   9.814 -0.0364  0.1298  0.5861
  499TMC3    O1 7479   4.245   2.815   9.829  0.5680  0.0057 -0.2672
  499TMC3    O2 7480   4.700   2.707   9.813  0.2721  0.4018 -0.4989
  500MPD2     C 7481   0.717   3.560   9.827 -0.2282  0.1668 -0.2087
  500MPD2    C1 7482   0.629   3.536   9.933 -0.2394  0.3816 -0.8835
  500MPD2    C2 7483   0.509   3.472   9.909 -0.5791 -0.2829 -0.6632
  500MPD2    C3 7484   0.468   3.430   9.781 -0.1828 -0.3791 -0.0599
  500MPD2    C4 7485   0.554   3.459   9.675  0.4793  0.7337 -0.1891
  500MPD2    C5 7486   0.676   3.520   9.701  0.5102  0.3557 -0.2367
  500MPD2     H 7487   0.445   3.450   9.993 -0.9207  0.3617 -0.7548
  500MPD2    H1 7488   0.536   3.421   9.575  1.7049  1.8652 -0.8390
  500MPD2    H2 7489   0.818   3.593   9.848 -0.3935  1.3280 -1.2390
  500MPD2    H3 7490   0.739   3.536   9.614  0.7153 -1.7763 -0.4746
  500MPD2     N 7491   0.343   3.360   9.777  0.3734  0.3036  0.4893
  500MPD2    H5 7492   0.286   3.359   9.861  0.9047 -0.1403  0.8460
  500MPD2    N1 7493   0.659   3.593  10.053 -0.5877 -0.5259  0.5092
  500MPD2    H7 7494   0.751   3.637  10.052  0.1147 -1.9863  0.0798
  501TMC3    C1 7495   0.690   3.630  10.278  0.2447  0.2176 -0.5040
  501TMC3    C2 7496   0.750   3.748  10.245  1.1985 -0.0817  0.4175
  501TMC3    C3 7497   0.856   3.786  10.320  0.3729  0.3779  0.1176
  501TMC3    C4 7498   0.724   3.560  10.386  0.1759  0.2826  0.0590
  501TMC3    C5 7499   0.824   3.611  10.470  0.2203  0.2123  0.3831
  501TMC3    C6 7500   0.894   3.724  10.430 -0.5190  0.9769 -0.7070
  501TMC3     C 7501   0.601   3.570  10.179  0.0655 -0.4917 -0.1619
  501TMC3     O 7502   0.504   3.504  10.208  0.0860 -0.0396 -0.0653
  501TMC3     H 7503   0.713   3.806  10.160 -0.5586  1.1910  2.0459
  501TMC3    H1 7504   0.671   3.469  10.412  0.8036  0.9972  3.8886
  501TMC3    H2 7505   0.982   3.763  10.479 -0.9716  0.6863  0.3383
  501TMC3    C7 7506   0.850   3.540  10.593  0.3795  0.0917 -1.0119
  501TMC3    C8 7507   0.927   3.912  10.297 -0.1946  0.7313  0.3665
  501TMC3    O1 7508   0.766   3.468  10.637 -0.3544  0.4078 -0.2073
  501TMC3    O2 7509   1.012   3.945  10.379  0.6953  0.4131  0.2321
  502TMC3    C1 7510   0.077   2.146  15.069 -0.4273  0.5105  0.5668
  502TMC3    C2 7511   0.061   2.271  15.006  0.5135 -0.3893  0.2206
  502TMC3    C3 7512   4.673   2.308  14.965  0.4420 -0.6810 -0.3952
  502TMC3    C4 7513   4.708   2.067  15.078  0.5155 -0.0874  0.1454
  502TMC3    C5 7514   4.584   2.108  15.034  0.2244  0.7888  0.3054
  502TMC3    C6 7515   4.559   2.234  14.975  0.1991  0.1939 -0.9897
  502TMC3     C 7516   0.170   2.128  15.175 -0.2486  0.1437  0.3104
  502TMC3     O 7517   0.210   2.015  15.194 -0.4723  0.6345 -0.4067
  502TMC3     H 7518   0.144   2.339  14.995 -1.3685  1.9776  0.8516
  502TMC3    H1 7519   4.725   1.965  15.110  1.8173 -0.2546 -1.0368
  502TMC3    H2 7520   4.463   2.263  14.934  1.0271  1.2305 -2.1955
  502TMC3    C7 7521   4.470   2.052  15.106 -0.0933  0.0577 -0.3204
  502TMC3    C8 7522   4.652   2.436  14.914  0.9143 -0.3239 -0.4151
  502TMC3    O1 7523   4.499   1.956  15.185 -0.3146 -0.4213 -0.2478
  502TMC3    O2 7524   4.735   2.481  14.833 -0.7450 -0.2424  0.0151
  503MPD2     C 7525   1.797   3.203  16.659 -0.0270 -0.3552  0.6419
  503MPD2    C1 7526   1.780   3.228  16.793 -0.7549 -0.1315 -0.2705
  503MPD2    C2 7527   1.837   3.147  16.890 -0.2990 -0.0413 -0.3029
  503MPD2    C3 7528   1.917   3.039  16.856  0.3892 -0.1239  0.1223
  503MPD2    C4 7529   1.913   3.001  16.722 -0.1172 -0.0199 -0.5333
  503MPD2    C5 7530   1.855   3.083  16.623  0.2102 -0.1017 -0.5591
  503MPD2     H 7531   1.824   3.164  16.997  0.5067  0.6510 -0.3092
  503MPD2    H1 7532   1.969   2.917  16.682 -0.5324  0.3864 -1.9618
  503MPD2    H2 7533   1.759   3.272  16.584  0.3488 -0.5902  0.2378
  503MPD2    H3 7534   1.859   3.056  16.518 -2.0046 -0.0170 -0.6570
  503MPD2     N 7535   1.982   2.969  16.958 -0.2202  0.4234 -0.4352
  503MPD2    H5 7536   1.966   3.005  17.051  2.3212 -0.8393  0.4882
  503MPD2    N1 7537   1.721   3.349  16.837  0.4894 -0.7583  0.4366
  503MPD2    H7 7538   1.729   3.363  16.937  0.7856 -0.8693  0.4287
  504TMC3    C1 7539   2.145   2.832  17.061  0.8445  0.3236  0.4940
  504TMC3    C2 7540   2.078   2.831  17.184  0.4900  1.2202 -0.0182
  504TMC3    C3 7541   2.160   2.804  17.299 -1.2115  0.1092 -0.4383
  504TMC3    C4 7542   2.279   2.802  17.054  0.6177 -0.3584  0.4542
  504TMC3    C5 7543   2.352   2.784  17.166 -0.0165 -0.3244 -0.1278
  504TMC3    C6 7544   2.301   2.791  17.292  0.3245  0.4641 -0.9035
  504TMC3     C 7545   2.074   2.870  16.939 -0.6172  0.7661  0.4264
  504TMC3     O 7546   2.119   2.827  16.833  0.1499  0.1470 -0.2478
  504TMC3     H 7547   1.970   2.837  17.191  0.5017  1.0537  0.2974
  504TMC3    H1 7548   2.337   2.815  16.963  0.4101 -0.8655  0.2508
  504TMC3    H2 7549   2.370   2.768  17.372 -0.9636 -1.5977 -0.3712
  504TMC3    C7 7550   2.499   2.779  17.149  0.5416  0.8770  0.1698
  504TMC3    C8 7551   2.092   2.771  17.421 -0.4302  0.2126 -0.3100
  504TMC3    O1 7552   2.533   2.783  17.033 -0.5832 -0.3680  0.1149
  504TMC3    O2 7553   1.969   2.771  17.416 -0.4124  0.2520 -0.0653
  505MPD2     C 7554   2.681   1.485  10.243  0.5449  0.0789  0.1884
  505MPD2    C1 7555   2.746   1.407  10.340 -0.0462  1.5505 -0.2557
  505MPD2    C2 7556   2.791   1.466  10.459  0.4475  1.0465 -0.4553
  505MPD2    C3 7557   2.788   1.602  10.476 -0.4436 -0.2377  0.4014
  505MPD2    C4 7558   2.718   1.681  10.387  0.1055 -0.0311 -0.5905
  505MPD2    C5 7559   2.662   1.621  10.279  0.4117 -0.1389 -0.6266
  505MPD2     H 7560   2.827   1.404  10.541  0.0558  0.0059 -1.0733
  505MPD2    H1 7561   2.713   1.787  10.408  1.3912  0.3008 -1.9222
  505MPD2    H2 7562   2.643   1.445  10.150  0.6248 -2.3624  1.2247
  505MPD2    H3 7563   2.609   1.681  10.205  1.6093 -1.3235 -2.4634
  505MPD2     N 7564   2.848   1.653  10.591 -0.7237 -0.5109 -0.2038
  505MPD2    H5 7565   2.878   1.577  10.652  1.3820  0.9644  0.6009
  505MPD2    N1 7566   2.765   1.268  10.310 -0.1631 -0.3687  0.4198
  505MPD2    H7 7567   2.746   1.254  10.211  0.8935 -0.0610  0.1753
  506TMC3    C1 7568   2.856   1.040  10.317  0.7963  0.3875  0.4832
  506TMC3    C2 7569   2.904   1.057  10.194 -0.0065  0.3411 -1.0580
  506TMC3    C3 7570   3.017   0.983  10.153  0.0824  1.0625 -0.3096
  506TMC3    C4 7571   2.912   0.952  10.402  0.6745 -0.1821 -0.4140
  506TMC3    C5 7572   3.032   0.894  10.369  0.2087 -0.7586  0.2632
  506TMC3    C6 7573   3.075   0.898  10.245 -0.2417  0.5578 -0.6956
  506TMC3     C 7574   2.815   1.162  10.388 -0.1276 -0.2665  0.6008
  506TMC3     O 7575   2.866   1.164  10.500 -0.0431 -0.2240 -0.1456
  506TMC3     H 7576   2.854   1.121  10.121 -1.2907  0.7775  0.2092
  506TMC3    H1 7577   2.867   0.936  10.499  0.4029 -1.8736 -0.8183
  506TMC3    H2 7578   3.175   0.865  10.219 -1.7411 -4.7446  0.2679
  506TMC3    C7 7579   3.129   0.913  10.473  0.2189 -0.8240  0.7185
  506TMC3    C8 7580   3.077   0.990  10.027 -0.0208 -0.1950  0.9222
  506TMC3    O1 7581   3.224   0.837  10.470  0.1592  0.0341 -0.0934
  506TMC3    O2 7582   3.121   0.882   9.995  0.6059  0.5499 -0.0284
  507TMC3    C1 7583   3.382   3.208  15.526 -0.5197  0.2478  0.0263
  507TMC3    C2 7584   3.405   3.087  15.469  0.2804 -0.1508  0.3980
  507TMC3    C3 7585   3.477   3.088  15.356  0.3729  0.1933  0.1006
  507TMC3    C4 7586   3.430   3.326  15.477  0.4739 -0.2986 -0.0490
  507TMC3    C5 7587   3.510   3.327  15.367  0.1471  0.1188 -0.3951
  507TMC3    C6 7588   3.545   3.202  15.316 -0.0378 -0.0765  0.0085
  507TMC3     C 7589   3.313   3.218  15.659  0.5976  0.0430  0.3684
  507TMC3     O 7590   3.288   3.331  15.694 -0.0309  0.2453  0.2011
  507TMC3     H 7591   3.366   2.994  15.509 -0.1669  0.3858  1.2309
  507TMC3    H1 7592   3.389   3.418  15.517 -3.1974 -2.2747  0.8033
  507TMC3    H2 7593   3.612   3.205  15.231 -1.5643  0.2624 -1.1860
  507TMC3    C7 7594   3.447   3.397  15.261 -0.0683  0.6331  0.3145
  507TMC3    C8 7595   3.433   2.997  15.257  0.3759 -0.4615 -0.5524
  507TMC3    O1 7596   3.440   3.329  15.160  0.4787  0.0659  0.4127
  507TMC3    O2 7597   3.358   2.912  15.299 -0.2544  0.0260 -0.1957
  508MPD2     C 7598   4.024   4.531  16.146 -1.1397 -0.2143  0.1060
  508MPD2    C1 7599   4.047   4.659  16.196 -0.0182 -0.3293 -0.7830
  508MPD2    C2 7600   4.041   0.028  16.103 -0.0894  0.7255  0.3508
  508MPD2    C3 7601   4.049   0.005  15.973  0.1080  0.4017 -0.1961
  508MPD2    C4 7602   4.026   4.612  15.923 -0.7543 -0.6125  0.9544
  508MPD2    C5 7603   4.021   4.509  16.009  0.1170  0.2114 -0.5247
  508MPD2     H 7604   4.049   0.134  16.128  0.0564  1.0850 -1.2495
  508MPD2    H1 7605   4.025   4.601  15.815  1.5425  0.3280  0.8337
  508MPD2    H2 7606   4.037   4.446  16.212  0.9929  0.2977  0.3339
  508MPD2    H3 7607   4.000   4.407  15.978 -0.7367 -0.3357  1.8604
  508MPD2     N 7608   4.051   0.116  15.883  0.0445  0.6193 -0.1276
  508MPD2    H5 7609   4.055   0.209  15.923  2.7889  1.3329 -2.1186
  508MPD2    N1 7610   4.054   4.684  16.332 -0.1002 -0.4486  0.2918
  508MPD2    H7 7611   4.047   4.605  16.396  1.8738  1.1460  2.4751
  509TMC3    C1 7612   4.092   0.420  15.534  0.2127 -0.1909 -0.2128
  509TMC3    C2 7613   4.184   0.500  15.608 -0.0240 -0.1689  0.0720
  509TMC3    C3 7614   4.215   0.448  15.735  0.7749 -0.3703 -0.3538
  509TMC3    C4 7615   4.047   0.297  15.580 -0.0015 -0.6722 -1.2799
  509TMC3    C5 7616   4.096   0.245  15.696 -0.0103 -0.6004 -0.1471
  509TMC3    C6 7617   4.171   0.324  15.779  0.9375  0.0055  0.3157
  509TMC3     C 7618   4.032   0.449  15.409  0.1727  0.1472 -0.5533
  509TMC3     O 7619   3.981   0.366  15.336 -0.1094 -0.2423 -0.0662
  509TMC3     H 7620   4.224   0.587  15.559 -0.6845  1.5713  2.6152
  509TMC3    H1 7621   3.975   0.232  15.532 -0.4925 -0.1183 -1.2899
  509TMC3    H2 7622   4.229   0.281  15.860  1.7501  1.6712  0.6373
  509TMC3    C7 7623   4.041   0.120  15.745  0.2133 -0.1179  0.9358
  509TMC3    C8 7624   4.323   0.515  15.808 -0.6125  0.2856  0.7514
  509TMC3    O1 7625   3.995   0.040  15.663 -0.5316  0.1689 -0.1541
  509TMC3    O2 7626   4.369   0.449  15.903 -0.2966  0.2035  0.2778
  510MPD2     C 7627   2.031   1.830  14.798  0.5261 -0.3484  0.0481
  510MPD2    C1 7628   2.041   1.704  14.746 -0.5689  0.0857 -0.6067
  510MPD2    C2 7629   2.134   1.675  14.647 -0.8109 -0.6413 -0.6387
  510MPD2    C3 7630   2.223   1.775  14.605  0.8151 -0.0556  0.1841
  510MPD2    C4 7631   2.217   1.906  14.657  0.3186  0.4060  0.0650
  510MPD2    C5 7632   2.118   1.927  14.752  0.1775  0.6047  0.4282
  510MPD2     H 7633   2.141   1.574  14.607  2.1212 -0.0178 -1.7112
  510MPD2    H1 7634   2.287   1.989  14.652  0.5623  0.2788  1.3026
  510MPD2    H2 7635   1.963   1.858  14.878 -0.9000  0.2492 -1.3655
  510MPD2    H3 7636   2.101   2.026  14.794  0.4421  0.6705  0.3829
  510MPD2     N 7637   2.325   1.731  14.528  0.5873 -0.6403  0.3247
  510MPD2    H5 7638   2.328   1.637  14.492  0.4937 -0.6086  0.2365
  510MPD2    N1 7639   1.964   1.600  14.809 -0.4718  0.4755 -0.2461
  510MPD2    H7 7640   1.911   1.634  14.888 -0.3682  0.5099 -0.1921
  511TMC3    C1 7641   1.871   1.397  14.866  0.1993  0.3261 -0.2868
  511TMC3    C2 7642   1.784   1.469  14.947  0.2318  0.2955 -0.4484
  511TMC3    C3 7643   1.744   1.403  15.061  0.0282  0.0402  0.2729
  511TMC3    C4 7644   1.899   1.264  14.884 -0.1701 -0.4332  1.0494
  511TMC3    C5 7645   1.845   1.207  14.990 -0.5337  0.2301  0.4856
  511TMC3    C6 7646   1.774   1.277  15.086  0.1711 -0.8249 -0.6015
  511TMC3     C 7647   1.959   1.467  14.777  0.2271 -0.2945 -0.4930
  511TMC3     O 7648   2.007   1.400  14.690 -0.2412 -0.2233  0.4912
  511TMC3     H 7649   1.761   1.574  14.935  1.2120  0.6112  0.4631
  511TMC3    H1 7650   1.976   1.214  14.825 -1.9764 -1.5188 -0.3753
  511TMC3    H2 7651   1.740   1.230  15.178 -3.1072  0.6501 -1.0645
  511TMC3    C7 7652   1.853   1.066  15.000 -0.2440  0.2597  0.6461
  511TMC3    C8 7653   1.673   1.479  15.164  0.2205 -1.1463  0.4812
  511TMC3    O1 7654   1.910   1.009  14.910 -0.5268 -0.3494  0.5381
  511TMC3    O2 7655   1.672   1.599  15.157  0.1344  0.2868 -0.0935
  512TMC3    C1 7656   0.909   1.078  12.929 -0.4163  0.4385  0.2685
  512TMC3    C2 7657   1.036   1.064  12.991 -0.0642  0.3711  0.1756
  512TMC3    C3 7658   1.079   0.936  13.028  0.4582  0.7246  0.5324
  512TMC3    C4 7659   0.826   0.975  12.902 -0.2723  0.0854 -0.0108
  512TMC3    C5 7660   0.879   0.854  12.934 -0.1950  0.3087 -0.3131
  512TMC3    C6 7661   0.998   0.827  12.996  0.2590  0.1037  0.4637
  512TMC3     C 7662   0.862   1.207  12.886 -0.7523  0.2774 -0.5457
  512TMC3     O 7663   0.782   1.223  12.791  0.3535  0.5636 -0.3118
  512TMC3     H 7664   1.105   1.147  12.998  0.5598 -0.0550 -0.9146
  512TMC3    H1 7665   0.723   0.997  12.877 -0.1992  0.2528 -0.1644
  512TMC3    H2 7666   1.033   0.726  13.012  0.2174  0.0666  0.3224
  512TMC3    C7 7667   0.800   0.740  12.881 -0.0990  0.0794 -0.2969
  512TMC3    C8 7668   1.173   0.902  13.132  0.3708  0.3716  0.2121
  512TMC3    O1 7669   0.724   0.771  12.788  0.4225  0.2942  0.8400
  512TMC3    O2 7670   1.188   0.786  13.167  0.2880  0.1547 -0.2311
  513MPD2     C 7671   2.663   0.887  13.457  0.2322  0.0353 -0.1197
  513MPD2    C1 7672   2.667   0.961  13.343  0.5057 -0.2030 -0.1993
  513MPD2    C2 7673   2.785   1.002  13.296 -0.0564  0.1253  0.1891
  513MPD2    C3 7674   2.898   0.957  13.349  0.1963  0.5948  0.0925
  513MPD2    C4 7675   2.898   0.895  13.476  0.7488 -0.7080  0.5002
  513MPD2    C5 7676   2.773   0.871  13.535  0.6558  0.1011  0.7232
  513MPD2     H 7677   2.791   1.059  13.204  0.6105 -0.0933  0.1000
  513MPD2    H1 7678   2.988   0.867  13.530  0.9314  0.1562  0.6504
  513MPD2    H2 7679   2.560   0.876  13.490  0.0239  0.7403 -0.5286
  513MPD2    H3 7680   2.755   0.829  13.634  1.3366  0.6887  1.1031
  513MPD2     N 7681   3.018   0.981  13.275 -0.4355 -0.5756  0.2285
  513MPD2    H5 7682   3.003   1.027  13.186 -0.0755 -1.9177 -0.5346
  513MPD2    N1 7683   2.542   0.964  13.270  0.0960  0.1706 -0.5257
  513MPD2    H7 7684   2.458   0.921  13.307  0.5120  0.5168  0.8253
  514TMC3    C1 7685   2.415   1.003  13.069 -0.2038 -0.0487 -0.6302
  514TMC3    C2 7686   2.377   1.110  12.987 -0.7163  0.8941 -0.2091
  514TMC3    C3 7687   2.370   1.081  12.856 -0.2790  0.5930  0.4002
  514TMC3    C4 7688   2.434   0.879  13.027  0.7116 -0.8225 -0.6302
  514TMC3    C5 7689   2.413   0.851  12.893  0.7896  0.6830 -0.1539
  514TMC3    C6 7690   2.375   0.956  12.810 -0.4518 -0.0429 -0.5039
  514TMC3     C 7691   2.527   1.036  13.156 -0.5019  0.0811 -0.3070
  514TMC3     O 7692   2.596   1.125  13.108  0.4810 -0.0957 -0.1597
  514TMC3     H 7693   2.391   1.208  13.030 -0.4765  0.6752  0.2133
  514TMC3    H1 7694   2.468   0.801  13.095  0.3694 -0.6821 -0.2959
  514TMC3    H2 7695   2.354   0.927  12.708  0.2388 -0.4225 -0.5369
  514TMC3    C7 7696   2.527   0.777  12.848  0.4464 -0.4722 -0.5444
  514TMC3    C8 7697   2.402   1.194  12.769 -0.5549 -0.1635  0.2875
  514TMC3    O1 7698   2.571   0.691  12.925 -0.3558  0.2764 -0.1310
  514TMC3    O2 7699   2.381   1.305  12.813  0.1652  0.4193  0.0129
  515MPD2     C 7700   0.602   2.964  15.178  0.0397  0.2861  0.4196
  515MPD2    C1 7701   0.669   2.982  15.062 -0.0233 -0.0507  0.1728
  515MPD2    C2 7702   0.779   3.066  15.049  0.0778 -0.0105 -0.7737
  515MPD2    C3 7703   0.821   3.134  15.158  0.1434  0.6075 -0.0194
  515MPD2    C4 7704   0.765   3.109  15.284  0.0204  0.3482 -0.7798
  515MPD2    C5 7705   0.651   3.030  15.289 -0.3147  0.2837  0.2640
  515MPD2     H 7706   0.819   3.076  14.949  1.2840 -0.1758 -0.3098
  515MPD2    H1 7707   0.792   3.152  15.380  3.5776 -0.3094 -1.4736
  515MPD2    H2 7708   0.524   2.889  15.175 -1.1953  1.5981  0.0302
  515MPD2    H3 7709   0.598   3.005  15.380  1.8588 -1.6160  0.9768
  515MPD2     N 7710   0.942   3.209  15.168  0.5726 -0.1386 -0.2614
  515MPD2    H5 7711   0.964   3.245  15.260 -1.9036 -0.1938  0.3541
  515MPD2    N1 7712   0.624   2.905  14.960  0.2022 -0.5363  0.2899
  515MPD2    H7 7713   0.546   2.842  14.978  1.5716 -1.4365  3.0229
  516TMC3    C1 7714   0.590   2.822  14.754  0.6701 -0.3805 -0.1138
  516TMC3    C2 7715   0.567   2.850  14.625  0.1204  0.1059 -0.9045
  516TMC3    C3 7716   0.480   2.772  14.552 -0.6796  0.3742 -0.1038
  516TMC3    C4 7717   0.544   2.703  14.810  1.2324 -0.4028  0.3018
  516TMC3    C5 7718   0.464   2.622  14.729 -0.2625  0.3141 -0.2385
  516TMC3    C6 7719   0.434   2.655  14.600  0.7489 -0.5569 -0.1846
  516TMC3     C 7720   0.659   2.917  14.827  0.4844  0.1699 -0.2545
  516TMC3     O 7721   0.723   3.002  14.768  0.3651  0.1073 -0.1278
  516TMC3     H 7722   0.602   2.937  14.571  1.2396  0.0142 -0.3141
  516TMC3    H1 7723   0.591   2.665  14.900 -1.6085 -2.1043  1.0653
  516TMC3    H2 7724   0.361   2.590  14.552 -0.2456  0.6341 -0.2830
  516TMC3    C7 7725   0.461   2.482  14.777 -0.0183 -0.3287 -0.4111
  516TMC3    C8 7726   0.412   2.821  14.436  0.8821  0.9042 -0.0994
  516TMC3    O1 7727   0.541   2.447  14.865 -0.5071  0.0924  0.4414
  516TMC3    O2 7728   0.344   2.736  14.381 -0.5403  0.0488 -0.2238
  517MPD2     C 7729   4.299   3.941   0.027  0.0097 -0.5326 -0.0490
  517MPD2    C1 7730   4.417   3.992  17.742 -0.0226  0.4893  0.0816
  517MPD2    C2 7731   4.460   4.108   0.059  0.3462 -0.2148 -0.2836
  517MPD2    C3 7732   4.389   4.161   0.174  0.4125 -0.3893 -0.4923
  517MPD2    C4 7733   4.268   4.099   0.204 -0.0061 -0.1975  0.3640
  517MPD2    C5 7734   4.226   3.991   0.126 -0.1102 -0.5462 -0.3820
  517MPD2     H 7735   4.557   4.145   0.029 -1.2009  3.0651 -1.2936
  517MPD2    H1 7736   4.201   4.123   0.285  0.7031  0.4330  0.7604
  517MPD2    H2 7737   4.269   3.842  17.742 -2.9872  0.5267 -0.4678
  517MPD2    H3 7738   4.143   3.928   0.158 -0.3899 -0.2483 -0.5184
  517MPD2     N 7739   4.430   4.271   0.250  0.3580 -0.1638 -0.8393
  517MPD2    H5 7740   4.369   4.279   0.331  1.4565 -0.4200  0.0203
  517MPD2    N1 7741   4.503   3.934  17.640 -0.3407  0.9827 -0.0686
  517MPD2    H7 7742   4.588   3.986  17.621  0.5902  0.2950  2.1553
  518TMC3    C1 7743   4.584   3.771  17.487 -0.2873  0.5826  0.3567
  518TMC3    C2 7744   4.568   3.654  17.419  0.2560 -0.2784 -0.1838
  518TMC3    C3 7745   4.667   3.604  17.330 -0.5802  0.4610  0.1958
  518TMC3    C4 7746   4.690   3.848  17.455 -0.2061 -0.1690  0.8046
  518TMC3    C5 7747   0.055   3.787  17.379 -0.4097  0.8388  0.6394
  518TMC3    C6 7748   0.043   3.666  17.314 -0.9389  0.0711 -0.5852
  518TMC3     C 7749   4.471   3.817  17.571  0.1853 -0.0196  0.4176
  518TMC3     O 7750   4.376   3.740  17.581 -0.4652 -0.3639  0.0893
  518TMC3     H 7751   4.477   3.597  17.430  0.2902 -0.2580  0.1972
  518TMC3    H1 7752   4.709   3.947  17.496  2.8886  0.5044 -2.2344
  518TMC3    H2 7753   0.117   3.618  17.251  1.3278  1.2787  1.1280
  518TMC3    C7 7754   0.189   3.832  17.404  0.6086  0.3396 -0.5850
  518TMC3    C8 7755   4.635   3.484  17.254  0.9371  0.0662  0.5238
  518TMC3    O1 7756   0.198   3.942  17.468 -0.1031  0.1093  0.0286
  518TMC3    O2 7757   4.515   3.454  17.253 -0.0187  0.0205 -0.6960
  519MPD2     C 7758   2.636   2.252  14.455  0.4307  0.6339 -0.0386
  519MPD2    C1 7759   2.535   2.223  14.357 -0.7181  0.1538 -0.0859
  519MPD2    C2 7760   2.575   2.218  14.228 -0.6365  0.8250  0.1483
  519MPD2    C3 7761   2.706   2.220  14.190 -0.1938 -0.4803 -0.2964
  519MPD2    C4 7762   2.800   2.247  14.289  0.4722  0.4209 -0.1199
  519MPD2    C5 7763   2.768   2.254  14.421  0.4944 -0.2452  0.0799
  519MPD2     H 7764   2.498   2.214  14.152 -0.7319  0.7623  0.2479
  519MPD2    H1 7765   2.902   2.267  14.259  0.1166  1.7150 -0.4689
  519MPD2    H2 7766   2.611   2.261  14.560  1.1581  1.1692  0.0865
  519MPD2    H3 7767   2.836   2.261  14.505 -0.3533 -1.3799  0.8552
  519MPD2     N 7768   2.748   2.201  14.055 -0.4792  0.3943 -0.1457
  519MPD2    H5 7769   2.847   2.199  14.033 -0.0681 -1.9510  1.9126
  519MPD2    N1 7770   2.400   2.206  14.405  0.1477 -0.0967  0.4272
  519MPD2    H7 7771   2.386   2.229  14.503  2.8743  4.6603 -0.3276
  520TMC3    C1 7772   2.735   2.140  13.824 -0.5010  0.4530  0.7954
  520TMC3    C2 7773   2.663   2.129  13.711 -0.5417 -0.8954  0.4537
  520TMC3    C3 7774   2.721   2.079  13.603  0.1331 -0.0904  0.3269
  520TMC3    C4 7775   2.856   2.081  13.840  0.2347 -0.2099 -0.1871
  520TMC3    C5 7776   2.916   2.037  13.726  0.0136  0.7852 -0.3241
  520TMC3    C6 7777   2.850   2.030  13.607 -0.0639  0.4101  0.0639
  520TMC3     C 7778   2.670   2.184  13.947  0.2741 -0.1957  0.2917
  520TMC3     O 7779   2.547   2.176  13.932  0.1398  0.3748  0.1723
  520TMC3     H 7780   2.569   2.182  13.700 -0.9771 -1.5887  0.8580
  520TMC3    H1 7781   2.908   2.092  13.934  2.4559  1.9351 -1.6458
  520TMC3    H2 7782   2.899   1.987  13.521  0.7675 -1.7190  1.6094
  520TMC3    C7 7783   3.042   1.967  13.743 -0.5464  0.5315  0.3292
  520TMC3    C8 7784   2.647   2.068  13.482 -0.0914  0.0342 -0.5529
  520TMC3    O1 7785   3.082   1.989  13.851  0.3636  0.4647 -0.2346
  520TMC3    O2 7786   2.709   2.061  13.374 -0.7678  0.3175  0.3621
  521MPD2     C 7787   3.027   1.244  17.460  0.4289  0.4927 -0.5283
  521MPD2    C1 7788   3.000   1.160  17.356 -0.3932 -0.7686  0.4515
  521MPD2    C2 7789   3.104   1.124  17.266  0.3591 -0.4160  0.3983
  521MPD2    C3 7790   3.228   1.179  17.279 -0.3903 -0.8732  0.3309
  521MPD2    C4 7791   3.245   1.276  17.376 -0.0951  0.5403  0.4121
  521MPD2    C5 7792   3.142   1.313  17.456  0.1994  0.3364  0.3598
  521MPD2     H 7793   3.089   1.043  17.195 -0.4568 -0.0112  0.1147
  521MPD2    H1 7794   3.338   1.332  17.387  0.1394 -0.0433  1.3780
  521MPD2    H2 7795   2.951   1.254  17.537  1.5307  0.6837  0.5442
  521MPD2    H3 7796   3.152   1.390  17.531 -2.0621  1.8388 -0.8896
  521MPD2     N 7797   3.331   1.142  17.199  0.1500  1.0051  0.2333
  521MPD2    H5 7798   3.299   1.070  17.136 -0.8916  0.5027  1.3243
  521MPD2    N1 7799   2.881   1.089  17.370  0.5133  0.5615  0.1908
  521MPD2    H7 7800   2.824   1.116  17.450 -0.7738  0.1425 -0.5933
  522TMC3    C1 7801   3.532   1.112  17.098  0.0715 -0.3856  0.5541
  522TMC3    C2 7802   3.652   1.045  17.126 -0.4127 -0.3771 -0.2955
  522TMC3    C3 7803   3.730   1.018  17.021 -0.3032 -0.4505 -0.4751
  522TMC3    C4 7804   3.490   1.145  16.969 -0.1621  1.5443  0.4105
  522TMC3    C5 7805   3.581   1.118  16.869  0.4371 -0.1351 -0.0324
  522TMC3    C6 7806   3.692   1.039  16.893 -0.1619  0.5273 -0.6636
  522TMC3     C 7807   3.463   1.169  17.212  0.3111 -0.1520 -0.3272
  522TMC3     O 7808   3.521   1.201  17.318 -0.2511  0.1040  0.4318
  522TMC3     H 7809   3.687   1.038  17.229 -0.3819  0.8721 -0.2201
  522TMC3    H1 7810   3.413   1.219  16.957 -3.2642 -2.4144 -4.0111
  522TMC3    H2 7811   3.759   1.015  16.811 -0.7933 -0.7770 -0.7999
  522TMC3    C7 7812   3.572   1.173  16.739 -0.5211  0.2672 -0.1224
  522TMC3    C8 7813   3.858   0.951  17.048  0.2824  0.5123  0.4248
  522TMC3    O1 7814   3.678   1.188  16.681 -0.0402  0.1227  0.5289
  522TMC3    O2 7815   3.912   0.964  17.154  0.7330  0.4278 -0.4421
  523MPD2     C 7816   0.907   0.406   9.575  0.3763  0.1908 -0.4249
  523MPD2    C1 7817   0.987   0.456   9.673 -0.5649 -1.0164  0.1860
  523MPD2    C2 7818   1.032   0.589   9.675  0.4495 -0.1325  0.2854
  523MPD2    C3 7819   0.997   0.672   9.579 -0.0240  0.2330  0.3425
  523MPD2    C4 7820   0.926   0.621   9.465 -0.0997 -0.1625  0.0389
  523MPD2    C5 7821   0.879   0.490   9.472 -0.6129  0.2655 -0.0234
  523MPD2     H 7822   1.098   0.620   9.755  1.1262  1.0666 -0.7287
  523MPD2    H1 7823   0.890   0.679   9.380 -2.1364 -1.3804  0.0779
  523MPD2    H2 7824   0.866   0.307   9.588 -1.1829  0.8448 -0.3214
  523MPD2    H3 7825   0.813   0.443   9.400 -0.4250  0.9395 -0.6393
  523MPD2     N 7826   1.048   0.807   9.588  0.2507  0.0974 -0.3561
  523MPD2    H5 7827   1.098   0.839   9.670 -1.9652 -0.1549  1.0820
  523MPD2    N1 7828   1.033   0.362   9.768  0.0950 -0.1234  0.5092
  523MPD2    H7 7829   1.018   0.265   9.742  0.7571 -0.3963  1.1359
  524TMC3    C1 7830   1.088   1.031   9.524  0.0537  0.1366  0.2955
  524TMC3    C2 7831   1.194   1.015   9.613 -0.4572  0.0376  0.5814
  524TMC3    C3 7832   1.251   1.128   9.663 -0.4641  0.1847 -0.2078
  524TMC3    C4 7833   1.024   1.154   9.504  0.5532  0.2932 -0.0489
  524TMC3    C5 7834   1.080   1.260   9.569 -0.1498 -0.2294  0.0608
  524TMC3    C6 7835   1.186   1.247   9.655 -0.0137  0.9514  0.1421
  524TMC3     C 7836   1.013   0.907   9.501 -0.1230 -0.1444 -0.7093
  524TMC3     O 7837   0.925   0.907   9.413 -0.1405  0.5103  0.1660
  524TMC3     H 7838   1.256   0.927   9.603  1.0456  1.2965 -1.0825
  524TMC3    H1 7839   0.932   1.154   9.447  1.3406 -1.2181 -1.3210
  524TMC3    H2 7840   1.222   1.335   9.706  0.0032  0.1652  1.4673
  524TMC3    C7 7841   1.011   1.387   9.573 -0.2174 -0.9617  0.1071
  524TMC3    C8 7842   1.383   1.108   9.725  0.6308 -0.1266  0.2869
  524TMC3    O1 7843   1.035   1.450   9.675 -0.0607 -0.6089  1.1361
  524TMC3    O2 7844   1.416   0.994   9.752  0.0635  0.3759  0.1671
  525MPD2     C 7845   3.726   1.965  14.339  0.5642 -0.5752 -0.8532
  525MPD2    C1 7846   3.820   2.027  14.416 -0.5230  0.6426  0.0212
  525MPD2    C2 7847   3.879   2.150  14.374 -0.3207 -0.5052  0.1317
  525MPD2    C3 7848   3.818   2.216  14.271  0.3085 -0.5641  0.2217
  525MPD2    C4 7849   3.716   2.157  14.205 -0.0671 -0.5182  0.6847
  525MPD2    C5 7850   3.682   2.027  14.226 -0.3334  0.0841  0.1645
  525MPD2     H 7851   3.953   2.203  14.433 -0.1102 -0.2456 -0.3597
  525MPD2    H1 7852   3.660   2.212  14.130  1.0024  0.9012  0.9331
  525MPD2    H2 7853   3.686   1.866  14.360 -1.4494  0.7791  1.6589
  525MPD2    H3 7854   3.619   1.979  14.152 -1.0533 -1.3279  1.6950
  525MPD2     N 7855   3.854   2.353  14.247 -0.8147  0.3497 -0.2852
  525MPD2    H5 7856   3.798   2.404  14.179  1.4521  1.7131 -1.1216
  525MPD2    N1 7857   3.856   1.973  14.544 -0.0332 -0.4670  0.3023
  525MPD2    H7 7858   3.921   2.018  14.608 -0.3131 -0.1046  0.3322
  526TMC3    C1 7859   3.841   1.848  14.740 -0.7314 -0.6071 -0.5577
  526TMC3    C2 7860   3.754   1.803  14.839 -1.1613 -0.1766  0.5681
  526TMC3    C3 7861   3.803   1.795  14.965  0.0993 -0.3307 -1.1234
  526TMC3    C4 7862   3.974   1.867  14.762 -0.2222 -0.1354 -0.3615
  526TMC3    C5 7863   4.023   1.853  14.889 -0.4676 -1.1510 -0.3722
  526TMC3    C6 7864   3.935   1.830  14.992  0.5486  0.2412  0.3039
  526TMC3     C 7865   3.788   1.870  14.606 -0.3352  0.2347  0.3698
  526TMC3     O 7866   3.688   1.810  14.579 -0.6244  0.1008 -0.2010
  526TMC3     H 7867   3.652   1.775  14.816 -1.6117  0.0864  2.2780
  526TMC3    H1 7868   4.050   1.891  14.688 -0.2122 -2.0704 -0.9841
  526TMC3    H2 7869   3.973   1.812  15.092  2.1319 -1.5221 -0.6056
  526TMC3    C7 7870   4.145   1.791  14.910  0.6297 -0.8737 -0.8922
  526TMC3    C8 7871   3.711   1.776  15.074  0.2254 -0.5293 -0.6867
  526TMC3    O1 7872   4.152   1.712  15.007 -0.5821  0.4742 -0.2795
  526TMC3    O2 7873   3.753   1.746  15.185  0.2746  0.1388  0.7570
  527MPD2     C 7874   1.453   0.314   1.502  0.2385 -0.4614  0.4588
  527MPD2    C1 7875   1.395   0.238   1.398 -0.4323 -0.3307 -0.3729
  527MPD2    C2 7876   1.480   0.145   1.337 -0.2604  0.1893  0.0076
  527MPD2    C3 7877   1.615   0.144   1.366 -0.0666  0.6510  0.3655
  527MPD2    C4 7878   1.668   0.237   1.457 -0.7243 -0.5634 -0.7559
  527MPD2    C5 7879   1.583   0.315   1.524  0.0074 -0.4362  0.8087
  527MPD2     H 7880   1.442   0.077   1.262  0.1589 -1.4031  1.2396
  527MPD2    H1 7881   1.768   0.234   1.498 -0.4355  0.9382 -1.3340
  527MPD2    H2 7882   1.388   0.362   1.574 -2.4742 -0.1668 -2.1397
  527MPD2    H3 7883   1.629   0.363   1.609 -0.8916  2.1128 -0.1371
  527MPD2     N 7884   1.696   0.051   1.303 -0.1128 -0.7933  0.2681
  527MPD2    H5 7885   1.654   4.718   1.244 -1.2470 -0.2440  0.4165
  527MPD2    N1 7886   1.256   0.250   1.365  0.4473  0.9075 -0.3194
  527MPD2    H7 7887   1.218   0.186   1.296 -0.8364  1.3883 -0.0553
  528TMC3    C1 7888   1.052   0.358   1.334  0.1981  0.3289  0.0004
  528TMC3    C2 7889   1.057   0.332   1.200 -0.0768 -0.0984  0.2470
  528TMC3    C3 7890   0.956   0.389   1.125  0.5396 -0.6462 -0.3994
  528TMC3    C4 7891   0.945   0.412   1.399  0.2178 -0.6463  0.3151
  528TMC3    C5 7892   0.838   0.438   1.320  0.3429 -0.2479 -0.9155
  528TMC3    C6 7893   0.844   0.440   1.183  0.2272 -0.3551  0.3866
  528TMC3     C 7894   1.167   0.340   1.419 -0.5827  0.2429 -0.6820
  528TMC3     O 7895   1.189   0.428   1.499  0.0098  0.0010  0.6520
  528TMC3     H 7896   1.147   0.299   1.149 -0.1622  2.3842 -1.4891
  528TMC3    H1 7897   0.949   0.411   1.507  1.3412  1.9726  0.2947
  528TMC3    H2 7898   0.756   0.476   1.131  1.3991 -0.8459 -1.9312
  528TMC3    C7 7899   0.718   0.474   1.396 -0.0146 -0.2913  0.3256
  528TMC3    C8 7900   0.968   0.393   0.987  0.3681 -0.1555  0.8366
  528TMC3    O1 7901   0.720   0.494   1.514 -0.2219 -0.2689 -0.5881
  528TMC3    O2 7902   1.082   0.372   0.944 -0.8220 -0.3252  0.3658
  529MPD2     C 7903   3.681   3.140   2.123 -0.7890 -0.3522 -0.8908
  529MPD2    C1 7904   3.732   3.053   2.028 -0.2860 -0.4068  0.1454
  529MPD2    C2 7905   3.711   3.088   1.895  0.4971 -0.4655 -0.4363
  529MPD2    C3 7906   3.649   3.215   1.861  0.6746  0.2336  0.5858
  529MPD2    C4 7907   3.593   3.294   1.963 -0.4094  0.7215  0.2729
  529MPD2    C5 7908   3.610   3.257   2.094 -0.4708  0.5425  0.4275
  529MPD2     H 7909   3.752   3.028   1.814  0.8486 -0.1281 -0.5078
  529MPD2    H1 7910   3.535   3.383   1.944  1.6950  1.6652 -1.7459
  529MPD2    H2 7911   3.701   3.112   2.226 -2.3878  0.3644 -0.3806
  529MPD2    H3 7912   3.584   3.334   2.166 -1.4878 -0.7108  1.3949
  529MPD2     N 7913   3.634   3.263   1.733 -1.0480 -0.6879  0.1363
  529MPD2    H5 7914   3.580   3.348   1.721  0.6463  0.4033  0.1451
  529MPD2    N1 7915   3.799   2.935   2.061  0.2275  0.1457  0.3514
  529MPD2    H7 7916   3.823   2.867   1.989 -3.6308 -1.1511  0.2989
  530TMC3    C1 7917   3.906   2.772   2.183 -0.1207  0.6884  0.8752
  530TMC3    C2 7918   4.007   2.759   2.270 -0.1765  0.0405 -0.4112
  530TMC3    C3 7919   4.074   2.642   2.279  0.0870 -0.0869  0.0361
  530TMC3    C4 7920   3.882   2.676   2.086  0.2960 -0.1319  1.2993
  530TMC3    C5 7921   3.960   2.566   2.087 -0.0909 -0.0448 -0.0718
  530TMC3    C6 7922   4.049   2.542   2.183  0.9414 -0.3241  0.3763
  530TMC3     C 7923   3.846   2.901   2.181 -0.6181  0.1193  0.0235
  530TMC3     O 7924   3.850   2.970   2.282 -0.0431  0.3076 -0.2446
  530TMC3     H 7925   4.027   2.836   2.343 -0.7443 -0.1658 -0.0320
  530TMC3    H1 7926   3.803   2.693   2.013  1.8847 -1.2288 -0.6695
  530TMC3    H2 7927   4.087   2.443   2.201  0.6723 -1.0991 -3.2775
  530TMC3    C7 7928   3.931   2.454   1.997 -0.6100 -0.3319  0.1780
  530TMC3    C8 7929   4.200   2.648   2.356 -0.1211 -0.4572  0.1529
  530TMC3    O1 7930   4.025   2.378   1.976 -0.2702  0.0980  0.1731
  530TMC3    O2 7931   4.193   2.713   2.458 -0.4700  0.1505  0.0256
  531MPD2     C 7932   2.981   0.817  12.621 -0.0873  0.0264 -0.2027
  531MPD2    C1 7933   2.948   0.797  12.754  0.6714  0.3193 -0.1757
  531MPD2    C2 7934   2.814   0.798  12.790 -0.4290 -0.1052 -0.6105
  531MPD2    C3 7935   2.717   0.814  12.694  0.1369  0.2966 -0.9649
  531MPD2    C4 7936   2.748   0.836  12.560  0.1934  0.1853 -0.0242
  531MPD2    C5 7937   2.883   0.840  12.532 -0.6066 -0.0747 -0.2744
  531MPD2     H 7938   2.795   0.795  12.897 -0.8733 -2.7670 -0.7631
  531MPD2    H1 7939   2.686   0.869  12.477 -1.5235  0.5932  1.4291
  531MPD2    H2 7940   3.080   0.825  12.577  0.6536 -0.4108  1.3872
  531MPD2    H3 7941   2.912   0.837  12.427 -2.0181 -1.4692 -0.6235
  531MPD2     N 7942   2.579   0.832  12.733 -0.2948 -0.4340 -0.8019
  531MPD2    H5 7943   2.516   0.868  12.662 -0.6613 -0.1054 -0.3058
  531MPD2    N1 7944   3.039   0.796  12.863 -0.6170 -0.3007  0.4524
  531MPD2    H7 7945   3.014   0.783  12.961 -0.1549 -1.1271  0.4619
  532TMC3    C1 7946   3.235   0.824  12.978  0.3521 -0.7972 -0.0425
  532TMC3    C2 7947   3.169   0.897  13.076  0.1031 -0.3270  0.5050
  532TMC3    C3 7948   3.229   0.903  13.201  0.2258 -0.0933  0.2976
  532TMC3    C4 7949   3.351   0.755  13.001 -0.6948 -0.4196  0.0430
  532TMC3    C5 7950   3.409   0.762  13.126 -0.5398  0.1727 -0.3160
  532TMC3    C6 7951   3.347   0.829  13.229 -0.3432 -0.2870  0.7294
  532TMC3     C 7952   3.175   0.807  12.848  0.2994  0.1340  0.0285
  532TMC3     O 7953   3.241   0.779  12.750  0.1370  0.4858  0.6497
  532TMC3     H 7954   3.078   0.949  13.049  1.0678  1.8914  1.5367
  532TMC3    H1 7955   3.370   0.682  12.923  0.3030  0.2074 -0.3015
  532TMC3    H2 7956   3.394   0.839  13.326  1.5269  2.1273 -0.3963
  532TMC3    C7 7957   3.504   0.673  13.168  0.1807 -0.1095 -0.2505
  532TMC3    C8 7958   3.141   0.943  13.315 -0.0151 -0.3204  0.1161
  532TMC3    O1 7959   3.537   0.677  13.288 -0.2151 -0.2164  0.3893
  532TMC3    O2 7960   3.180   0.905  13.424  0.6816 -0.6156  0.2274
  533TMC3    C1 7961   3.956   2.565  14.276 -0.6586  0.2865 -0.7209
  533TMC3    C2 7962   4.080   2.617  14.248 -0.4443 -0.1400  0.7171
  533TMC3    C3 7963   4.093   2.747  14.273  0.4096 -0.3628  0.5560
  533TMC3    C4 7964   3.846   2.633  14.329 -0.6345 -0.6127 -0.1120
  533TMC3    C5 7965   3.878   2.763  14.362 -0.6819 -0.0924  0.2359
  533TMC3    C6 7966   4.002   2.821  14.337  0.1989 -0.5544  0.1382
  533TMC3     C 7967   3.961   2.421  14.299  0.3528 -0.6594  0.0246
  533TMC3     O 7968   4.055   2.384  14.368 -0.2773  0.2632  0.7549
  533TMC3     H 7969   4.147   2.537  14.219 -1.8041 -1.8085  2.1866
  533TMC3    H1 7970   3.746   2.591  14.331 -0.5217 -0.9648 -2.5355
  533TMC3    H2 7971   4.015   2.926  14.360  0.8118 -0.5683 -0.1503
  533TMC3    C7 7972   3.816   2.818  14.473  0.2741  0.5336  0.2493
  533TMC3    C8 7973   4.218   2.818  14.259 -0.4693 -0.1271 -0.4604
  533TMC3    O1 7974   3.827   2.937  14.493  0.2142  0.0361 -0.0402
  533TMC3    O2 7975   4.316   2.751  14.285  0.5118  0.6930  0.1633
  534MPD2     C 7976   1.458   3.647   1.764  0.8333  0.3640 -0.7030
  534MPD2    C1 7977   1.359   3.712   1.691 -0.1820 -0.1545 -0.4475
  534MPD2    C2 7978   1.243   3.636   1.669  0.0911 -0.7612 -0.8115
  534MPD2    C3 7979   1.220   3.507   1.712  0.4855 -0.0046  0.6019
  534MPD2    C4 7980   1.315   3.445   1.795  0.7067 -0.1551 -0.8870
  534MPD2    C5 7981   1.430   3.514   1.810 -0.0163 -0.1314 -0.1613
  534MPD2     H 7982   1.164   3.693   1.623  0.1441 -0.1131 -0.1060
  534MPD2    H1 7983   1.301   3.344   1.831  0.3763  0.2040  0.0119
  534MPD2    H2 7984   1.556   3.689   1.785  0.5225 -0.2077  1.8791
  534MPD2    H3 7985   1.513   3.474   1.868 -0.1056 -0.9568 -0.5974
  534MPD2     N 7986   1.105   3.429   1.686 -0.0779 -0.0284  0.1991
  534MPD2    H5 7987   1.084   3.359   1.756 -2.9990 -1.4828 -2.1571
  534MPD2    N1 7988   1.373   3.839   1.628  0.7741 -0.0442  0.7537
  534MPD2    H7 7989   1.292   3.878   1.581 -0.0520 -1.8768  0.6387
  535TMC3    C1 7990   0.894   3.377   1.581  0.3133  0.3495  0.2327
  535TMC3    C2 7991   0.821   3.363   1.704 -0.5960  0.5198 -1.0379
  535TMC3    C3 7992   0.686   3.341   1.709 -0.3743  0.3854 -0.3175
  535TMC3    C4 7993   0.825   3.365   1.466 -0.3893  0.3156  0.1167
  535TMC3    C5 7994   0.688   3.347   1.477 -0.8470  0.9385  0.0582
  535TMC3    C6 7995   0.611   3.329   1.590  0.9833 -0.4512  0.3519
  535TMC3     C 7996   1.012   3.461   1.584 -0.2516  0.1412 -0.5441
  535TMC3     O 7997   1.020   3.541   1.493  0.4460  0.7103  0.6886
  535TMC3     H 7998   0.866   3.399   1.796  2.9921  0.0777 -2.6521
  535TMC3    H1 7999   0.873   3.382   1.371  3.2511 -1.3423  1.6674
  535TMC3    H2 8000   0.511   3.289   1.585  0.4854  0.6824  1.3846
  535TMC3    C7 8001   0.624   3.332   1.353 -0.6767 -0.4037  0.7658
  535TMC3    C8 8002   0.608   3.327   1.836  0.1345  0.7230 -0.6211
  535TMC3    O1 8003   0.676   3.261   1.269  0.4590 -0.3145 -0.2785
  535TMC3    O2 8004   0.490   3.290   1.835 -0.2093 -0.2177 -0.0885
  536MPD2     C 8005   0.832   2.305  16.195  0.8246  0.9279 -0.2239
  536MPD2    C1 8006   0.713   2.231  16.190  0.2067  0.1168  0.1313
  536MPD2    C2 8007   0.603   2.304  16.150 -0.6923 -0.4151  0.2456
  536MPD2    C3 8008   0.612   2.436  16.098 -0.2319  0.1556 -0.2305
  536MPD2    C4 8009   0.730   2.508  16.120  0.5276  0.0196 -0.4735
  536MPD2    C5 8010   0.840   2.437  16.157 -0.0697  0.6579  0.4177
  536MPD2     H 8011   0.504   2.260  16.144 -0.2119 -1.3805 -0.4639
  536MPD2    H1 8012   0.752   2.612  16.099  2.8807 -0.4542 -0.3732
  536MPD2    H2 8013   0.913   2.259  16.250 -2.6536 -1.6659  2.7361
  536MPD2    H3 8014   0.936   2.488  16.160  0.5333 -0.3722 -1.8456
  536MPD2     N 8015   0.491   2.491  16.051  0.4296 -0.0204 -1.1955
  536MPD2    H5 8016   0.408   2.435  16.068 -0.4477  1.7182  0.3881
  536MPD2    N1 8017   0.722   2.097  16.235  0.3308 -0.1334 -0.0796
  536MPD2    H7 8018   0.813   2.079  16.275 -0.3546  0.1360  1.5833
  537TMC3    C1 8019   0.652   1.887  16.298  0.1606  0.7508  0.4177
  537TMC3    C2 8020   0.702   1.917  16.421 -0.0352 -0.4803  0.0777
  537TMC3    C3 8021   0.683   1.834  16.529  0.1120  0.1899  0.5151
  537TMC3    C4 8022   0.572   1.775  16.285  0.6552  0.5903 -0.4089
  537TMC3    C5 8023   0.540   1.710  16.403 -0.2943 -1.2722  0.0784
  537TMC3    C6 8024   0.597   1.732  16.526  0.8918  0.8271  0.4005
  537TMC3     C 8025   0.624   2.004  16.222  0.2886 -0.2218  0.5877
  537TMC3     O 8026   0.525   2.005  16.147 -0.4089 -0.2288  0.5340
  537TMC3     H 8027   0.765   2.003  16.441  0.8923 -0.5434 -2.5050
  537TMC3    H1 8028   0.526   1.751  16.190 -2.0965  0.9903  0.8195
  537TMC3    H2 8029   0.568   1.688  16.621  2.4926  1.5907  1.2598
  537TMC3    C7 8030   0.404   1.661  16.408  0.7468 -0.5403  0.0989
  537TMC3    C8 8031   0.695   1.905  16.654  0.2174  0.4674  0.0770
  537TMC3    O1 8032   0.332   1.677  16.314  0.0128  0.1470  0.1657
  537TMC3    O2 8033   0.707   2.026  16.652 -0.1615 -0.9539  0.7612
  538TMC3    C1 8034   2.180   0.766  10.551 -0.4042  0.2110  0.6713
  538TMC3    C2 8035   2.240   0.678  10.459  0.2439  0.2021 -0.3413
  538TMC3    C3 8036   2.191   0.678  10.331  0.0331  0.3042 -0.9575
  538TMC3    C4 8037   2.079   0.845  10.519 -0.2222  0.1887  0.1666
  538TMC3    C5 8038   2.027   0.824  10.389  0.3188  0.3063  0.7981
  538TMC3    C6 8039   2.074   0.742  10.298 -0.3886 -0.1935 -0.0064
  538TMC3     C 8040   2.227   0.772  10.689 -0.6957 -0.4213 -0.3065
  538TMC3     O 8041   2.238   0.879  10.746 -0.0386 -0.2210  0.0240
  538TMC3     H 8042   2.335   0.634  10.484 -0.2988 -0.6654  0.1934
  538TMC3    H1 8043   2.040   0.915  10.592  2.6112  1.5939  0.3197
  538TMC3    H2 8044   2.056   0.749  10.191 -1.4680 -1.3425  0.1039
  538TMC3    C7 8045   1.880   0.822  10.381  0.3377 -0.2553  0.4187
  538TMC3    C8 8046   2.275   0.610  10.230 -0.1772  0.4421 -0.3178
  538TMC3    O1 8047   1.818   0.844  10.483 -0.4718 -0.0327  0.0833
  538TMC3    O2 8048   2.234   0.629  10.116 -0.2329 -0.4271 -0.2318
  539MPD2     C 8049   1.368   4.324  11.736 -0.1458 -0.3468 -0.2832
  539MPD2    C1 8050   1.403   4.347  11.603  0.0783 -0.2267 -0.2739
  539MPD2    C2 8051   1.405   4.471  11.551  0.4463  0.5459 -0.3655
  539MPD2    C3 8052   1.364   4.575  11.630  0.3564 -0.9705  0.1172
  539MPD2    C4 8053   1.336   4.556  11.770 -1.1646 -0.3231  0.7840
  539MPD2    C5 8054   1.347   4.430  11.816  0.0806 -0.0544  0.3193
  539MPD2     H 8055   1.415   4.482  11.443 -2.0531  0.8805 -0.5460
  539MPD2    H1 8056   1.315   4.633  11.844 -0.3317  1.1046 -0.4606
  539MPD2    H2 8057   1.373   4.226  11.782  0.0835 -0.3094 -0.2276
  539MPD2    H3 8058   1.317   4.407  11.917  0.3340 -0.4157  0.3158
  539MPD2     N 8059   1.358   4.710  11.590 -0.1437  0.5741  0.1853
  539MPD2    H5 8060   1.318   0.037  11.657  0.6135 -1.3889  2.5251
  539MPD2    N1 8061   1.441   4.234  11.527 -0.0278  0.1501  0.3810
  539MPD2    H7 8062   1.461   4.256  11.430 -1.1988 -2.7499 -0.5231
  540TMC3    C1 8063   1.367   0.158  11.429  0.1485 -0.2743 -0.2699
  540TMC3    C2 8064   1.410   0.205  11.311  0.5144 -0.2896 -0.1764
  540TMC3    C3 8065   1.379   0.337  11.296 -0.5822 -0.3436 -0.5262
  540TMC3    C4 8066   1.292   0.228  11.522 -0.2821 -0.1194  1.1451
  540TMC3    C5 8067   1.267   0.365  11.498 -0.2298 -0.1567  0.2077
  540TMC3    C6 8068   1.323   0.423  11.393 -0.1457  0.8309 -0.3535
  540TMC3     C 8069   1.383   0.022  11.463 -0.2138  0.0397  0.4093
  540TMC3     O 8070   1.420   4.693  11.366  0.0767  0.4319  0.0245
  540TMC3     H 8071   1.464   0.150  11.235  0.9485 -0.0292 -0.0514
  540TMC3    H1 8072   1.243   0.183  11.608 -0.4327  0.4982  1.3805
  540TMC3    H2 8073   1.302   0.526  11.368  0.7777  1.4878  1.6083
  540TMC3    C7 8074   1.174   0.432  11.584  0.2471  0.1779 -0.2521
  540TMC3    C8 8075   1.411   0.385  11.165 -0.2672  0.2506 -0.0793
  540TMC3    O1 8076   1.143   0.363  11.681  0.7015 -0.1652 -0.0021
  540TMC3    O2 8077   1.459   0.498  11.149  0.3402 -0.3085  0.3824
  541MPD2     C 8078   4.495   1.243  13.427  0.2936  0.5805 -0.4597
  541MPD2    C1 8079   4.550   1.137  13.365  0.5103 -0.3479  0.4320
  541MPD2    C2 8080   4.614   1.140  13.240  0.5995  0.5241 -0.1620
  541MPD2    C3 8081   4.622   1.268  13.181  0.3010 -0.1696  0.0731
  541MPD2    C4 8082   4.589   1.383  13.251 -0.5947 -0.8440 -0.4332
  541MPD2    C5 8083   4.524   1.370  13.371  0.2570  0.4507  0.2198
  541MPD2     H 8084   4.651   1.048  13.198  0.1900 -0.3939  1.5053
  541MPD2    H1 8085   4.613   1.476  13.201 -2.0982 -0.0463  0.3310
  541MPD2    H2 8086   4.434   1.243  13.517 -0.2709 -1.6182 -0.8278
  541MPD2    H3 8087   4.496   1.463  13.418 -1.2052  1.0480 -1.8740
  541MPD2     N 8088   4.678   1.286  13.054  0.1871  0.2456 -0.4645
  541MPD2    H5 8089   4.693   1.384  13.031 -0.1131  1.1429  3.1167
  541MPD2    N1 8090   4.536   1.011  13.423 -0.3917  0.4934 -0.6165
  541MPD2    H7 8091   4.570   0.938  13.362  0.1226  0.4773 -0.3086
  542TMC3    C1 8092   4.705   1.220  12.830 -0.2301 -0.3369  0.0486
  542TMC3    C2 8093   0.006   1.118  12.743  0.5375 -0.2301 -0.9650
  542TMC3    C3 8094   4.722   1.148  12.613 -0.3103  0.4129 -0.4249
  542TMC3    C4 8095   4.643   1.335  12.793 -0.0211  0.1952  0.2401
  542TMC3    C5 8096   4.601   1.349  12.668 -0.0948 -0.2528 -0.1966
  542TMC3    C6 8097   4.640   1.256  12.575 -0.8731  0.4811 -0.4342
  542TMC3     C 8098   4.707   1.181  12.967 -0.2614 -0.1791  0.3821
  542TMC3     O 8099   4.707   1.062  12.987 -0.1557 -0.1705  1.1472
  542TMC3     H 8100   0.044   1.021  12.773  0.4456  0.4341  1.3216
  542TMC3    H1 8101   4.601   1.405  12.865  0.5347  2.0991 -1.3153
  542TMC3    H2 8102   4.625   1.257  12.468 -0.6648 -1.4771 -0.4730
  542TMC3    C7 8103   4.518   1.462  12.628  0.5664  0.0155 -0.6383
  542TMC3    C8 8104   0.004   1.044  12.519  0.4019  0.6277  0.2867
  542TMC3    O1 8105   4.492   1.545  12.712  0.4281 -0.2570  0.4903
  542TMC3    O2 8106   4.643   1.016  12.451 -0.2448 -0.6574  0.3726
  543TMC3    C1 8107   3.663   2.685  17.323  0.1754 -0.0933 -0.8694
  543TMC3    C2 8108   3.634   2.552  17.334  0.5331 -0.4766 -0.4234
  543TMC3    C3 8109   3.657   2.491  17.450  0.3788 -0.7881 -0.6197
  543TMC3    C4 8110   3.702   2.761  17.429 -0.4219 -0.3454 -0.2252
  543TMC3    C5 8111   3.715   2.693  17.545  1.5530 -0.3380 -0.9829
  543TMC3    C6 8112   3.693   2.556  17.558 -0.0675 -0.2998  0.3994
  543TMC3     C 8113   3.676   2.747  17.193  0.3082  0.2133  0.5778
  543TMC3     O 8114   3.680   2.871  17.188 -0.5134  0.6532 -0.0417
  543TMC3     H 8115   3.588   2.500  17.250 -0.9084  0.9742 -0.5304
  543TMC3    H1 8116   3.760   2.851  17.411  1.5077 -0.9237  3.1038
  543TMC3    H2 8117   3.710   2.515  17.657 -2.2450 -2.2558 -0.0675
  543TMC3    C7 8118   3.809   2.752  17.645  0.3015  0.1880 -0.4262
  543TMC3    C8 8119   3.631   2.346  17.464 -0.3465 -0.2498  0.0767
  543TMC3    O1 8120   3.889   2.672  17.691  0.5687  0.0418 -0.4256
  543TMC3    O2 8121   3.661   2.284  17.365 -0.9037  0.5993 -0.2921
  544MPD2     C 8122   3.430   1.957  17.732  0.3052 -0.0621 -0.2251
  544MPD2    C1 8123   3.464   1.965  17.597  0.1132  0.3171  0.5905
  544MPD2    C2 8124   3.522   2.080  17.549 -1.4284 -0.0550  0.7330
  544MPD2    C3 8125   3.540   2.193  17.635 -0.2901  0.2250 -0.0806
  544MPD2    C4 8126   3.494   2.180   0.021 -0.0771 -0.0442 -0.3784
  544MPD2    C5 8127   3.440   2.066   0.068 -0.4758 -0.1732 -0.4478
  544MPD2     H 8128   3.558   2.085  17.447  0.2792  0.9668  1.3862
  544MPD2    H1 8129   3.518   2.260   0.091 -2.4725  1.5653 -1.4052
  544MPD2    H2 8130   3.395   1.863   0.024 -1.3832 -0.7953 -3.4011
  544MPD2    H3 8131   3.422   2.059   0.175  0.2966 -0.2307 -0.3218
  544MPD2     N 8132   3.579   2.319  17.587  0.1141 -0.1188 -0.2790
  544MPD2    H5 8133   3.571   2.388  17.661  2.5109 -0.3308  0.1807
  544MPD2    N1 8134   3.453   1.846  17.518 -0.3150  0.8051 -0.2862
  544MPD2    H7 8135   3.419   1.759  17.558  0.4175  2.0448  3.0081
  545TMC3    C1 8136   3.455   1.695  17.336 -0.6344 -1.0612 -0.3523
  545TMC3    C2 8137   3.318   1.676  17.321 -0.2457 -0.4687 -0.1959
  545TMC3    C3 8138   3.272   1.595  17.215  0.0114  0.2278  0.1605
  545TMC3    C4 8139   3.541   1.638  17.248 -0.0448  0.1156  0.4210
  545TMC3    C5 8140   3.495   1.552  17.150  0.1887 -0.0432 -0.3325
  545TMC3    C6 8141   3.360   1.535  17.128  0.4010 -0.5549  0.3135
  545TMC3     C 8142   3.502   1.817  17.388  0.3530  0.9098 -0.2809
  545TMC3     O 8143   3.576   1.884  17.319  0.0112 -0.5676  0.0049
  545TMC3     H 8144   3.250   1.721  17.392  1.2994  2.4569 -0.5520
  545TMC3    H1 8145   3.644   1.670  17.258 -1.0315  3.4877 -0.3916
  545TMC3    H2 8146   3.334   1.470  17.045 -2.0554  0.1644  0.5429
  545TMC3    C7 8147   3.588   1.486  17.064  0.2362  0.3121  0.3759
  545TMC3    C8 8148   3.128   1.597  17.183  0.1749 -0.4415 -1.0858
  545TMC3    O1 8149   3.546   1.461  16.951 -0.0183 -0.4022 -0.3598
  545TMC3    O2 8150   3.056   1.682  17.234  0.0425  0.4444  0.6471
  546MPD2     C 8151   0.330   2.053  16.865 -0.6020  0.4168  0.2229
  546MPD2    C1 8152   0.251   2.110  16.954 -0.2175 -0.3115  0.3912
  546MPD2    C2 8153   0.257   2.248  16.959 -0.0433 -0.0163  0.5120
  546MPD2    C3 8154   0.336   2.320  16.861 -0.2632 -0.1975 -0.2749
  546MPD2    C4 8155   0.410   2.249  16.769  0.1109  0.6768  0.5260
  546MPD2    C5 8156   0.406   2.116  16.772 -0.2755  0.1470 -0.2015
  546MPD2     H 8157   0.209   2.303  17.040  1.3678  0.4838  1.0088
  546MPD2    H1 8158   0.466   2.305  16.695 -0.2337  0.8556  0.4005
  546MPD2    H2 8159   0.347   1.945  16.863 -0.5486  0.4695 -2.1640
  546MPD2    H3 8160   0.474   2.059  16.710 -0.4805 -0.3978  0.0749
  546MPD2     N 8161   0.369   2.459  16.871  0.2309 -0.1486 -0.6288
  546MPD2    H5 8162   0.449   2.485  16.815 -1.0380  2.6168 -1.1339
  546MPD2    N1 8163   0.163   2.026  17.026 -0.4230  0.0033  0.1564
  546MPD2    H7 8164   0.175   1.927  17.007 -2.2451 -0.0216 -0.8343
  547TMC3    C1 8165   0.008   1.952  17.177 -0.5127 -0.9115 -0.8902
  547TMC3    C2 8166   4.663   1.903  17.087 -0.4360 -0.6999  0.2597
  547TMC3    C3 8167   4.545   1.844  17.127 -0.8680 -0.0132  0.0986
  547TMC3    C4 8168   4.720   1.944  17.311  0.0684  0.0454 -0.1967
  547TMC3    C5 8169   4.603   1.887  17.357  0.3591  0.5549 -0.3364
  547TMC3    C6 8170   4.510   1.840  17.265  0.5244  0.0748  1.3480
  547TMC3     C 8171   0.081   2.065  17.128  0.2561  0.6449 -0.6747
  547TMC3     O 8172   0.077   2.165  17.199 -0.2530 -0.2290 -0.0112
  547TMC3     H 8173   4.684   1.914  16.981 -2.3686  0.2116 -0.0440
  547TMC3    H1 8174   0.048   1.996  17.380 -0.6155  0.5173  0.0860
  547TMC3    H2 8175   4.417   1.791  17.290 -0.7328  1.2051 -1.0728
  547TMC3    C7 8176   4.587   1.865  17.500 -0.4823 -0.0552  0.4706
  547TMC3    C8 8177   4.436   1.848  17.035  0.5259 -0.0879 -0.4568
  547TMC3    O1 8178   4.475   1.823  17.529  0.5012 -0.0415  0.2282
  547TMC3    O2 8179   4.335   1.915  17.047  0.5284 -0.4919  0.0234
  548MPD2     C 8180   0.224   2.851  12.380  0.7385  0.1802  0.5020
  548MPD2    C1 8181   0.256   2.776  12.484 -0.0994  0.1104 -0.0717
  548MPD2    C2 8182   0.334   2.666  12.454 -0.5153 -0.4103 -0.0599
  548MPD2    C3 8183   0.372   2.621  12.327 -0.3568  0.4592 -0.1736
  548MPD2    C4 8184   0.328   2.696  12.222  0.0080  0.3847  0.4106
  548MPD2    C5 8185   0.268   2.819  12.250  0.1699  0.3078  0.4849
  548MPD2     H 8186   0.350   2.592  12.532  0.0151 -1.3027 -1.0198
  548MPD2    H1 8187   0.356   2.673  12.119 -1.2643  2.0600 -0.3197
  548MPD2    H2 8188   0.154   2.934  12.386  2.4518  1.5311  1.7086
  548MPD2    H3 8189   0.233   2.888  12.174  2.3398  1.1816  0.2963
  548MPD2     N 8190   0.465   2.513  12.309 -1.0027  0.5233  0.4859
  548MPD2    H5 8191   0.539   2.503  12.377  0.4226  0.0883 -1.1346
  548MPD2    N1 8192   0.221   2.827  12.610  0.4374 -0.2093  0.0672
  548MPD2    H7 8193   0.157   2.905  12.618  2.0418  1.0663  0.3412
  549TMC3    C1 8194   0.138   2.791  12.818 -0.0829 -0.2977 -0.2688
  549TMC3    C2 8195   0.082   2.914  12.816 -0.0483  0.5653 -0.8480
  549TMC3    C3 8196   4.696   2.930  12.870  0.0788  0.5908  0.0371
  549TMC3    C4 8197   0.073   2.679  12.865 -0.3124 -0.3039  0.5132
  549TMC3    C5 8198   4.680   2.698  12.898 -0.0967  0.0469 -0.0342
  549TMC3    C6 8199   4.626   2.826  12.901 -0.4194 -0.0712  0.2890
  549TMC3     C 8200   0.241   2.757  12.724  0.1994  0.6005 -0.4398
  549TMC3     O 8201   0.299   2.652  12.743  0.2273 -0.0007  0.6108
  549TMC3     H 8202   0.144   2.999  12.789  0.4049  1.1978  2.1446
  549TMC3    H1 8203   0.122   2.583  12.860  1.2304  0.3989  2.1329
  549TMC3    H2 8204   4.535   2.834  12.960  1.0392  2.6065  2.1338
  549TMC3    C7 8205   4.586   2.605  12.862  0.1393 -0.4926 -0.5077
  549TMC3    C8 8206   4.631   3.058  12.863 -0.1596 -0.5715  0.0883
  549TMC3    O1 8207   4.468   2.635  12.868 -0.0538 -0.1898  0.0952
  549TMC3    O2 8208   4.511   3.062  12.845  0.4490  0.3566  0.2100
  550TMC3    C1 8209   3.653   0.481  12.105 -0.3835 -0.7322  0.5681
  550TMC3    C2 8210   3.717   0.529  12.212 -0.1746 -0.2861 -0.3821
  550TMC3    C3 8211   3.662   0.631  12.284  0.3020 -0.4618 -1.1928
  550TMC3    C4 8212   3.533   0.532  12.072 -0.3174 -0.5133 -0.5952
  550TMC3    C5 8213   3.483   0.636  12.144  0.7602  1.0106 -0.5501
  550TMC3    C6 8214   3.551   0.697  12.242 -0.2130 -0.0561 -0.4652
  550TMC3     C 8215   3.728   0.397  12.002 -0.0711 -1.1814 -0.0842
  550TMC3     O 8216   3.837   0.352  12.040  0.1484 -0.7383 -0.1969
  550TMC3     H 8217   3.816   0.488  12.226 -0.6390 -0.1150  3.3074
  550TMC3    H1 8218   3.474   0.498  11.987 -1.1604  0.1886 -0.2893
  550TMC3    H2 8219   3.502   0.763  12.313 -1.8433 -0.7064 -0.9935
  550TMC3    C7 8220   3.371   0.715  12.088 -1.0227 -0.3222 -0.2326
  550TMC3    C8 8221   3.759   0.703  12.370 -0.8161 -0.1945 -0.1692
  550TMC3    O1 8222   3.269   0.667  12.040  0.7081  0.8763  0.1060
  550TMC3    O2 8223   3.847   0.629  12.410  0.2168 -0.1710  0.1464
  551TMC3    C1 8224   1.480   3.568  13.516 -0.2321  1.0904 -0.2002
  551TMC3    C2 8225   1.595   3.524  13.442  0.4770 -0.1362  0.2043
  551TMC3    C3 8226   1.715   3.528  13.516 -0.0338  0.3285 -0.1017
  551TMC3    C4 8227   1.491   3.617  13.645 -0.3633 -0.1500  0.1170
  551TMC3    C5 8228   1.611   3.602  13.711  0.1821  0.1992 -0.3785
  551TMC3    C6 8229   1.720   3.541  13.652 -0.6130 -0.2380  0.7891
  551TMC3     C 8230   1.354   3.578  13.449  0.2084  0.2369  0.9817
  551TMC3     O 8231   1.275   3.664  13.489 -0.9634  0.3498 -0.2316
  551TMC3     H 8232   1.593   3.486  13.341 -4.1147  0.9640 -0.1098
  551TMC3    H1 8233   1.413   3.662  13.705 -2.2629 -2.5098 -0.5287
  551TMC3    H2 8234   1.814   3.521  13.702  0.8761 -0.7449 -2.2039
  551TMC3    C7 8235   1.626   3.632  13.852  0.2862  0.4735 -0.1050
  551TMC3    C8 8236   1.832   3.528  13.431 -0.8560  0.1694 -0.1698
  551TMC3    O1 8237   1.692   3.558  13.925  0.3773  0.2878  0.1223
  551TMC3    O2 8238   1.919   3.442  13.466 -0.3188 -1.0538 -0.3301
  552MPD2     C 8239   3.064   0.756  13.903  0.1184 -0.2477  1.3068
  552MPD2    C1 8240   3.195   0.736  13.875  0.8093 -1.2614 -0.1365
  552MPD2    C2 8241   3.288   0.764  13.973 -1.0029  0.5405  0.2866
  552MPD2    C3 8242   3.253   0.809  14.094 -0.4123  0.3399  0.3471
  552MPD2    C4 8243   3.120   0.830  14.130  0.3648  0.9631 -0.0311
  552MPD2    C5 8244   3.035   0.809  14.028  0.1200 -0.0680 -0.2834
  552MPD2     H 8245   3.392   0.739  13.958 -0.9435  0.5954  0.6172
  552MPD2    H1 8246   3.091   0.878  14.223  0.8971  1.0834  0.0743
  552MPD2    H2 8247   2.984   0.741  13.831  1.2668  0.4727 -0.1377
  552MPD2    H3 8248   2.927   0.811  14.043  0.7338  1.3273  3.8136
  552MPD2     N 8249   3.348   0.829  14.194  0.3495 -0.2382 -0.1230
  552MPD2    H5 8250   3.312   0.841  14.288 -1.2482  1.6811 -0.9820
  552MPD2    N1 8251   3.241   0.677  13.758  0.3951 -0.3493 -0.3934
  552MPD2    H7 8252   3.340   0.654  13.750  0.7644  1.2654 -0.4507
  553TMC3    C1 8253   3.225   0.555  13.562 -0.0927 -0.5476  0.0918
  553TMC3    C2 8254   3.164   0.535  13.443  0.4751  0.3087 -0.4993
  553TMC3    C3 8255   3.216   0.439  13.364 -0.6653  0.4137  0.7755
  553TMC3    C4 8256   3.332   0.478  13.610  0.3654  0.3706 -0.1163
  553TMC3    C5 8257   3.388   0.387  13.520  0.6442 -0.5121 -0.1208
  553TMC3    C6 8258   3.325   0.366  13.401  0.4134 -0.2326  0.1291
  553TMC3     C 8259   3.155   0.628  13.660  0.0051 -0.1435  0.2685
  553TMC3     O 8260   3.039   0.636  13.638 -0.8562 -0.2719  0.3506
  553TMC3     H 8261   3.081   0.597  13.413  0.6308  0.6713 -0.1842
  553TMC3    H1 8262   3.384   0.490  13.704 -0.4347  0.3515  0.3248
  553TMC3    H2 8263   3.381   0.300  13.334  0.9762  0.6893 -0.3054
  553TMC3    C7 8264   3.488   0.293  13.576 -0.1010  0.0255 -0.3730
  553TMC3    C8 8265   3.197   0.464  13.227 -0.6457 -0.3516 -0.3786
  553TMC3    O1 8266   3.570   0.346  13.654 -0.7927 -0.2306  0.3065
  553TMC3    O2 8267   3.146   0.573  13.199 -0.3685  0.0097  0.4146
  554TMC3    C1 8268   0.953   4.540  11.413 -0.1261  0.2810 -0.7499
  554TMC3    C2 8269   0.919   4.446  11.324  0.2088 -0.3359  0.1777
  554TMC3    C3 8270   0.979   4.456  11.198  0.7450 -0.1336 -0.0839
  554TMC3    C4 8271   1.036   4.643  11.390  0.3187 -0.5282  0.2614
  554TMC3    C5 8272   1.086   4.657  11.264 -0.6462 -0.2192 -0.2941
  554TMC3    C6 8273   1.071   4.552  11.174 -0.6325  0.3550  0.2866
  554TMC3     C 8274   0.936   4.503  11.553  0.0324  0.0162  0.6561
  554TMC3     O 8275   0.974   4.587  11.630 -0.6234  0.1269 -0.4483
  554TMC3     H 8276   0.862   4.358  11.353  0.2945 -0.4440  0.0229
  554TMC3    H1 8277   1.062   4.729  11.452 -0.9609  0.9992 -1.3361
  554TMC3    H2 8278   1.117   4.562  11.077  0.1910  0.6258  0.7093
  554TMC3    C7 8279   1.113   0.052  11.211 -0.4857 -0.4709 -0.3258
  554TMC3    C8 8280   0.922   4.394  11.075  0.1461  0.0529  0.1610
  554TMC3    O1 8281   1.187   0.058  11.123  0.0005 -0.6396  0.3047
  554TMC3    O2 8282   0.974   4.419  10.966  0.3250 -0.1164  0.3519
  555TMC3    C1 8283   4.338   3.965  15.141 -0.1314  0.3998  0.2800
  555TMC3    C2 8284   4.447   4.011  15.202 -0.2787  1.2006 -0.3289
  555TMC3    C3 8285   4.455   4.026  15.340 -0.8964  0.1858  0.5230
  555TMC3    C4 8286   4.222   3.946  15.216  0.5761  0.0346  0.1634
  555TMC3    C5 8287   4.236   3.956  15.355  0.6088  0.0005 -0.4586
  555TMC3    C6 8288   4.347   4.003  15.419  0.1964 -0.2010 -0.4250
  555TMC3     C 8289   4.317   4.030  15.014 -1.1400 -0.3679 -0.2856
  555TMC3     O 8290   4.385   4.125  14.987  0.4034 -0.2128 -0.2119
  555TMC3     H 8291   4.530   4.038  15.138 -0.1579 -0.7158 -0.9741
  555TMC3    H1 8292   4.130   3.930  15.162  0.9388 -0.2081 -0.3830
  555TMC3    H2 8293   4.348   3.998  15.527  1.4674 -1.4396 -0.4912
  555TMC3    C7 8294   4.118   3.934  15.431  0.7563  0.1657  0.7387
  555TMC3    C8 8295   4.587   4.038  15.395 -0.4722  0.7969  0.4642
  555TMC3    O1 8296   4.020   3.883  15.379 -0.4412  0.6473  0.0886
  555TMC3    O2 8297   4.683   4.024  15.321  0.3147 -0.1003  0.1306
  556MPD2     C 8298   3.011   0.121  11.206 -0.2973  0.2928 -0.0043
  556MPD2    C1 8299   2.944   0.215  11.137 -0.7328 -0.3597  0.3912
  556MPD2    C2 8300   2.938   0.211  10.995 -1.4403 -0.1398 -0.5323
  556MPD2    C3 8301   3.004   0.112  10.928 -0.9719 -0.5565 -0.6740
  556MPD2    C4 8302   3.068   0.011  11.005  0.0381 -0.2242 -0.2477
  556MPD2    C5 8303   3.069   0.013  11.140  0.7213 -0.0709 -0.7358
  556MPD2     H 8304   2.882   0.285  10.938 -0.6616 -0.6758 -2.0108
  556MPD2    H1 8305   3.124   4.670  10.956  2.1376  1.9314 -1.3423
  556MPD2    H2 8306   3.026   0.123  11.313 -3.0981 -0.2108  0.3987
  556MPD2    H3 8307   3.127   4.679  11.195  0.9075 -0.2695 -1.1953
  556MPD2     N 8308   2.992   0.106  10.787 -0.2375  0.4407  0.0773
  556MPD2    H5 8309   2.960   0.192  10.742 -0.1153  0.1676 -0.5316
  556MPD2    N1 8310   2.873   0.315  11.201  0.4889  0.7188 -0.5519
  556MPD2    H7 8311   2.807   0.375  11.151  0.6895  0.8238 -0.6898
  557TMC3    C1 8312   3.009   0.032  10.562  0.2332  0.1820  0.4152
  557TMC3    C2 8313   3.002   4.668  10.466  0.1593  0.2358  0.5841
  557TMC3    C3 8314   2.971   4.702  10.334  0.4300  0.5761  0.8247
  557TMC3    C4 8315   2.982   0.161  10.521 -1.0562  0.2776 -0.4242
  557TMC3    C5 8316   2.944   0.187  10.394 -0.3392 -0.2118  0.4499
  557TMC3    C6 8317   2.943   0.094  10.296  0.0031 -0.7727  0.4129
  557TMC3     C 8318   3.018   4.733  10.703 -0.3797 -0.3950  0.2041
  557TMC3     O 8319   2.999   4.614  10.732  0.7075 -0.5952  0.0216
  557TMC3     H 8320   3.020   4.567  10.500  2.7893  0.6168  0.3376
  557TMC3    H1 8321   2.966   0.237  10.597  0.5862  1.0035 -0.8215
  557TMC3    H2 8322   2.916   0.116  10.193  1.1751 -0.7679  0.1095
  557TMC3    C7 8323   2.842   0.288  10.380  0.3091 -0.2776  0.4525
  557TMC3    C8 8324   2.948   4.596  10.233  0.2842 -0.2118 -0.0603
  557TMC3    O1 8325   2.775   0.315  10.479  0.1042  0.1284 -0.0512
  557TMC3    O2 8326   2.951   4.632  10.116  0.0891 -0.6523 -0.3676
  558TMC3    C1 8327   0.165   3.225   9.674 -0.5675 -0.4072 -0.4619
  558TMC3    C2 8328   0.093   3.236   9.790 -0.4664  0.1016 -0.2050
  558TMC3    C3 8329   4.703   3.186   9.781  0.3098  0.1631 -0.7387
  558TMC3    C4 8330   0.115   3.168   9.555 -0.3829  0.2066  0.2128
  558TMC3    C5 8331   4.720   3.131   9.549 -0.3572 -0.1152  0.1755
  558TMC3    C6 8332   4.648   3.135   9.668 -0.4048  0.2464 -0.6408
  558TMC3     C 8333   0.290   3.306   9.661 -0.7453 -0.6378  0.7366
  558TMC3     O 8334   0.342   3.311   9.550  0.0455 -0.0399 -0.6413
  558TMC3     H 8335   0.130   3.272   9.885  2.8011  1.1257 -1.8881
  558TMC3    H1 8336   0.169   3.178   9.461 -0.2385  0.5405  0.3328
  558TMC3    H2 8337   4.541   3.117   9.672 -0.4604  0.7820  0.4723
  558TMC3    C7 8338   4.649   3.164   9.426  0.0837 -0.1120  0.5091
  558TMC3    C8 8339   4.604   3.252   9.867  0.1392  0.2407 -0.4190
  558TMC3    O1 8340   4.709   3.216   9.331  1.0213 -0.6237 -0.2638
  558TMC3    O2 8341   4.492   3.271   9.821  0.4268 -0.5068 -0.0251
  559MPD2     C 8342   0.376   3.959  10.249  0.0539  0.0754  0.0580
  559MPD2    C1 8343   0.318   3.875  10.349 -0.0384  0.1408 -0.4403
  559MPD2    C2 8344   0.380   3.850  10.465 -0.3934  0.9412 -0.2073
  559MPD2    C3 8345   0.505   3.910  10.491 -0.2489 -0.0316 -0.0038
  559MPD2    C4 8346   0.573   3.967  10.390  0.4724 -0.1751  0.1892
  559MPD2    C5 8347   0.509   3.988  10.273  0.0656  0.3442  0.3505
  559MPD2     H 8348   0.338   3.788  10.544 -0.2154 -0.5799 -1.2916
  559MPD2    H1 8349   0.677   3.995  10.393  0.6551 -0.6615 -2.1440
  559MPD2    H2 8350   0.318   3.991  10.163 -1.4164  0.3438  1.1380
  559MPD2    H3 8351   0.570   4.040  10.200  0.7137 -2.9979 -1.4530
  559MPD2     N 8352   0.568   3.879  10.616 -0.2954 -0.0530 -0.2216
  559MPD2    H5 8353   0.502   3.827  10.673  1.0708 -1.2421  0.2830
  559MPD2    N1 8354   0.182   3.837  10.320  0.1191  0.1392 -0.2687
  559MPD2    H7 8355   0.141   3.864  10.231 -0.2416 -1.5698 -0.6169
  560TMC3    C1 8356   0.725   3.852  10.779 -0.8422  0.0918 -0.0415
  560TMC3    C2 8357   0.674   3.725  10.804  0.0980 -0.6561  0.2048
  560TMC3    C3 8358   0.687   3.668  10.925  0.7703  0.7248 -0.4115
  560TMC3    C4 8359   0.799   3.911  10.877  0.3412 -0.2742  0.1604
  560TMC3    C5 8360   0.824   3.839  10.994  0.4093 -0.1903  0.6176
  560TMC3    C6 8361   0.757   3.724  11.026 -0.0257  0.5843 -0.1392
  560TMC3     C 8362   0.688   3.928  10.661 -0.4325 -0.5626  0.1371
  560TMC3     O 8363   0.778   3.983  10.599 -0.4950  0.4225 -0.4598
  560TMC3     H 8364   0.620   3.665  10.732 -1.2457  0.7623  0.0253
  560TMC3    H1 8365   0.836   4.011  10.860 -2.5489  0.8471  0.5645
  560TMC3    H2 8366   0.802   3.663  11.103 -0.5876  0.6219  0.2193
  560TMC3    C7 8367   0.879   3.908  11.106  0.3297 -0.8472 -0.3039
  560TMC3    C8 8368   0.585   3.569  10.946 -0.2678  0.3520 -0.9049
  560TMC3    O1 8369   0.843   3.870  11.217 -0.6449  0.3093  0.2796
  560TMC3    O2 8370   0.513   3.522  10.858  0.2540  0.2750  0.3577
  561TMC3    C1 8371   2.756   3.030  11.055 -0.1666 -0.1054  0.9315
  561TMC3    C2 8372   2.765   2.953  11.168  0.3446  0.0768  0.2013
  561TMC3    C3 8373   2.773   3.019  11.289  0.3856  0.1164  0.8517
  561TMC3    C4 8374   2.777   3.163  11.059 -0.0238  0.4677  0.0957
  561TMC3    C5 8375   2.801   3.223  11.178 -0.8453  0.7344 -0.3825
  561TMC3    C6 8376   2.785   3.155  11.299  0.5472  0.7754  0.6030
  561TMC3     C 8377   2.769   2.964  10.931  0.1010  0.1109 -0.6159
  561TMC3     O 8378   2.708   3.009  10.833  0.2937  0.0191 -0.2506
  561TMC3     H 8379   2.744   2.847  11.156 -1.6202  0.1281  3.1710
  561TMC3    H1 8380   2.796   3.202  10.959  0.6746  3.3069  1.3564
  561TMC3    H2 8381   2.818   3.205  11.390  0.7846  0.7445  0.5314
  561TMC3    C7 8382   2.868   3.354  11.189 -0.0934  0.5046 -0.5127
  561TMC3    C8 8383   2.748   2.944  11.412  0.0936  0.1471  0.4005
  561TMC3    O1 8384   2.869   3.412  11.303  0.2900  0.0986 -0.3054
  561TMC3    O2 8385   2.809   2.842  11.433  0.4571  0.3566  0.1662
  562TMC3    C1 8386   3.608   0.190  16.214 -0.2651  0.0396  0.0830
  562TMC3    C2 8387   3.503   0.239  16.141  0.3583  0.0730 -0.5316
  562TMC3    C3 8388   3.381   0.173  16.161  0.2370 -0.4471 -0.1029
  562TMC3    C4 8389   3.595   0.079  16.296 -0.1900 -0.2891 -0.6223
  562TMC3    C5 8390   3.469   0.027  16.312  0.4999  0.3338 -0.1306
  562TMC3    C6 8391   3.354   0.077  16.251  0.1753 -0.1383  0.3382
  562TMC3     C 8392   3.703   0.288  16.266  0.2003 -0.1269  0.7909
  562TMC3     O 8393   3.764   0.254  16.368  0.0694 -0.1610 -0.0331
  562TMC3     H 8394   3.514   0.315  16.065  3.3996 -0.7178 -0.8848
  562TMC3    H1 8395   3.681   0.035  16.347 -0.2800 -2.1970 -2.1241
  562TMC3    H2 8396   3.251   0.058  16.277  0.4206  0.8107  1.9807
  562TMC3    C7 8397   3.449   4.690  16.437 -0.1412  0.3493  0.7488
  562TMC3    C8 8398   3.269   0.239  16.100  0.2593  0.5805 -0.8333
  562TMC3    O1 8399   3.339   4.699  16.493 -0.1791  0.2802  0.2374
  562TMC3    O2 8400   3.173   0.248  16.172  0.4461  0.6376 -0.6602
  563MPD2     C 8401   1.614   0.830  15.670 -0.0208  0.1469  0.1188
  563MPD2    C1 8402   1.645   0.806  15.804 -0.0975  0.1857  0.3837
  563MPD2    C2 8403   1.769   0.753  15.830 -0.0668 -0.0773  0.3177
  563MPD2    C3 8404   1.858   0.714  15.737  0.2260 -0.1902 -1.0631
  563MPD2    C4 8405   1.841   0.766  15.605 -0.4023 -0.1491  0.5680
  563MPD2    C5 8406   1.718   0.828  15.579 -0.4379 -0.4586  0.1298
  563MPD2     H 8407   1.788   0.728  15.933  0.3327 -2.3156 -0.3160
  563MPD2    H1 8408   1.903   0.742  15.519  0.8914  2.4846  0.7592
  563MPD2    H2 8409   1.519   0.856  15.627 -0.4812 -1.4454  0.1521
  563MPD2    H3 8410   1.702   0.864  15.478 -1.4522 -1.2540  0.0064
  563MPD2     N 8411   1.981   0.668  15.779 -0.5511  0.3349  0.1122
  563MPD2    H5 8412   1.990   0.658  15.880 -1.2882  0.2736  0.1738
  563MPD2    N1 8413   1.552   0.833  15.915 -0.1147  0.6591  0.5215
  563MPD2    H7 8414   1.601   0.848  16.003  1.7305  1.7565 -0.7131
  564TMC3    C1 8415   1.351   0.887  16.036 -0.5526 -0.0391  0.0452
  564TMC3    C2 8416   1.214   0.858  16.044 -0.0632  0.4857 -0.4244
  564TMC3    C3 8417   1.152   0.875  16.167 -0.0291  0.3622 -0.2288
  564TMC3    C4 8418   1.418   0.958  16.130  0.0124 -0.5747 -0.6917
  564TMC3    C5 8419   1.350   0.969  16.251 -0.4613 -0.4198 -0.9405
  564TMC3    C6 8420   1.221   0.932  16.271  0.1295 -0.3921 -0.0506
  564TMC3     C 8421   1.415   0.847  15.906  0.4516  0.4414 -0.1221
  564TMC3     O 8422   1.349   0.835  15.809 -0.0409 -0.3626 -0.3450
  564TMC3     H 8423   1.169   0.805  15.961  1.8549 -0.9838 -0.5236
  564TMC3    H1 8424   1.520   0.991  16.118 -0.5428  1.6266  0.7107
  564TMC3    H2 8425   1.169   0.951  16.364 -0.5531 -1.8074 -0.1438
  564TMC3    C7 8426   1.440   0.967  16.371  0.1842  0.9318  0.4326
  564TMC3    C8 8427   1.060   0.780  16.215  0.1290  0.0201  0.3591
  564TMC3    O1 8428   1.543   1.037  16.362  0.7354 -0.5359 -0.0893
  564TMC3    O2 8429   1.063   0.759  16.338 -0.2753  0.2608 -0.1973
  565TMC3    C1 8430   1.916   1.660  10.263 -0.3526 -0.7311 -0.0074
  565TMC3    C2 8431   2.002   1.672  10.371 -0.4315 -0.3977  0.0753
  565TMC3    C3 8432   1.961   1.611  10.490 -0.4208  0.1636 -0.2532
  565TMC3    C4 8433   1.801   1.582  10.264 -0.0546  0.3160 -0.5723
  565TMC3    C5 8434   1.769   1.530  10.383  0.3160 -0.2609 -0.1365
  565TMC3    C6 8435   1.855   1.531  10.490 -0.6299 -0.3290 -0.2085
  565TMC3     C 8436   1.956   1.717  10.136  0.8927  0.2803 -0.0871
  565TMC3     O 8437   1.918   1.654  10.038 -0.1197 -0.0543  0.0686
  565TMC3     H 8438   2.084   1.742  10.364  2.2623 -3.6256 -0.8004
  565TMC3    H1 8439   1.724   1.590  10.188  0.4933 -0.2287 -1.1827
  565TMC3    H2 8440   1.821   1.505  10.590  1.1988 -0.4335  0.3920
  565TMC3    C7 8441   1.629   1.526  10.418  0.4256 -0.2461 -0.6138
  565TMC3    C8 8442   2.001   1.664  10.620 -0.3146  0.0071 -0.2194
  565TMC3    O1 8443   1.607   1.575  10.530  0.3267  0.3497  0.0562
  565TMC3    O2 8444   2.016   1.590  10.718  0.2879  0.4968  0.1031
  566MPD2     C 8445   3.617   3.168  14.612 -0.1364 -0.6125 -0.1030
  566MPD2    C1 8446   3.673   3.214  14.496  0.0230 -0.5041  0.3682
  566MPD2    C2 8447   3.592   3.222  14.383  0.4248  0.3809  0.2156
  566MPD2    C3 8448   3.463   3.179  14.382  0.4495 -0.3498 -0.5098
  566MPD2    C4 8449   3.408   3.128  14.502 -0.7732 -0.2807  0.0128
  566MPD2    C5 8450   3.489   3.112  14.606  0.1819  0.1852  0.1785
  566MPD2     H 8451   3.624   3.277  14.295  0.3269  0.8540  0.4728
  566MPD2    H1 8452   3.307   3.091  14.510 -1.5871  1.7524 -0.9333
  566MPD2    H2 8453   3.666   3.184  14.708 -1.3777  1.1521  0.2397
  566MPD2    H3 8454   3.448   3.075  14.700  1.3874 -0.5506  0.4163
  566MPD2     N 8455   3.378   3.170  14.266 -0.2655 -0.1047 -0.2411
  566MPD2    H5 8456   3.279   3.155  14.280 -0.5143  0.7242 -1.0812
  566MPD2    N1 8457   3.806   3.263  14.496 -0.0951  0.0403 -0.3525
  566MPD2    H7 8458   3.851   3.268  14.587  1.0172  0.9886 -0.9531
  567TMC3    C1 8459   4.003   3.370  14.432 -0.5153 -0.3921  0.1734
  567TMC3    C2 8460   4.054   3.445  14.330 -0.0324  0.2566  0.0805
  567TMC3    C3 8461   4.156   3.534  14.352  0.7617  0.0381 -0.0581
  567TMC3    C4 8462   4.023   3.413  14.562  0.1199  0.3638 -0.1779
  567TMC3    C5 8463   4.114   3.506  14.587  0.1138 -0.0299  0.6845
  567TMC3    C6 8464   4.182   3.559  14.483 -0.0518  0.2109 -0.2268
  567TMC3     C 8465   3.880   3.304  14.390 -1.3448 -0.1241 -1.2921
  567TMC3     O 8466   3.847   3.307  14.274 -0.4374 -0.2517  0.1554
  567TMC3     H 8467   4.020   3.429  14.228  1.7377  0.4491 -0.5392
  567TMC3    H1 8468   4.002   3.344  14.643 -1.7431 -1.0642 -1.9063
  567TMC3    H2 8469   4.257   3.633  14.511 -0.6745 -0.1276  2.3123
  567TMC3    C7 8470   4.175   3.508  14.718 -0.2475 -0.3407 -0.4869
  567TMC3    C8 8471   4.171   3.640  14.261 -0.7532 -0.0835  0.2244
  567TMC3    O1 8472   4.294   3.529  14.725  0.2142 -0.1790 -0.4360
  567TMC3    O2 8473   4.124   3.609  14.150  0.1941  0.1432 -0.1542
  568MPD2     C 8474   1.059   4.359  17.109 -0.4948  0.0521 -0.0966
  568MPD2    C1 8475   0.945   4.377  17.038 -0.3896  0.6815  1.1565
  568MPD2    C2 8476   0.943   4.490  16.951  0.1427 -0.2794  0.2853
  568MPD2    C3 8477   1.042   4.587  16.945  0.0428  0.5302  0.0150
  568MPD2    C4 8478   1.150   4.569  17.024  0.0400  0.1607 -0.1300
  568MPD2    C5 8479   1.152   4.457  17.105 -0.8354 -0.0345  0.2360
  568MPD2     H 8480   0.863   4.490  16.879 -0.2328  0.6415  0.6961
  568MPD2    H1 8481   1.235   4.636  17.025  0.6882 -0.6713  0.4130
  568MPD2    H2 8482   1.075   4.266  17.163  2.7703  0.9844  0.5173
  568MPD2    H3 8483   1.235   4.439  17.172  0.3281  0.2958 -1.0949
  568MPD2     N 8484   1.019   4.698  16.856  0.2080 -0.1894 -0.8771
  568MPD2    H5 8485   0.933   4.682  16.805  0.2185 -1.5527 -0.4626
  568MPD2    N1 8486   0.841   4.284  17.058  0.4703 -0.5525 -0.2199
  568MPD2    H7 8487   0.868   4.200  17.108 -0.3097 -1.0733 -0.6847
  569TMC3    C1 8488   1.033   0.163  16.763 -0.0543 -0.0566 -0.9608
  569TMC3    C2 8489   1.015   0.285  16.822 -0.6645 -0.4067  0.4174
  569TMC3    C3 8490   0.909   0.363  16.773  0.3223 -0.3119 -0.6942
  569TMC3    C4 8491   0.954   0.113  16.661 -0.2826  0.7047  1.2122
  569TMC3    C5 8492   0.861   0.197  16.606  0.1604 -0.1080 -0.3527
  569TMC3    C6 8493   0.828   0.312  16.673  0.1139  0.2156 -0.0333
  569TMC3     C 8494   1.095   0.068  16.847 -0.4511  0.3681  0.2362
  569TMC3     O 8495   1.184   0.101  16.923  0.1268  0.3113  0.7079
  569TMC3     H 8496   1.068   0.304  16.915  2.0901 -1.2722 -0.9814
  569TMC3    H1 8497   0.975   0.016  16.620 -1.4960  0.7708  0.4125
  569TMC3    H2 8498   0.751   0.374  16.630  0.4472  0.7130  0.0752
  569TMC3    C7 8499   0.877   0.211  16.470 -0.1516 -0.1986 -0.5880
  569TMC3    C8 8500   0.936   0.502  16.741 -0.6882 -0.3232  0.9102
  569TMC3    O1 8501   0.897   0.111  16.404 -0.2417 -0.0300 -0.1945
  569TMC3    O2 8502   0.880   0.539  16.637 -0.2077  0.3474 -0.2720
  570TMC3    C1 8503   0.339   3.546  16.143 -0.0228  0.2616 -0.0459
  570TMC3    C2 8504   0.462   3.502  16.091  0.0926  0.0313 -0.5999
  570TMC3    C3 8505   0.570   3.582  16.128 -0.5903  0.3913  0.8869
  570TMC3    C4 8506   0.325   3.667  16.204 -0.1611 -0.6252  0.0505
  570TMC3    C5 8507   0.435   3.737  16.241 -0.1217  0.2538 -0.0519
  570TMC3    C6 8508   0.562   3.697  16.203  0.0830  0.4162  0.3744
  570TMC3     C 8509   0.219   3.494  16.083  0.0319 -0.1574 -0.1046
  570TMC3     O 8510   0.236   3.430  15.983 -0.1819  0.1700 -0.3754
  570TMC3     H 8511   0.464   3.419  16.021  1.1360 -1.5708  1.3260
  570TMC3    H1 8512   0.230   3.705  16.241 -0.0704 -0.6717  0.3322
  570TMC3    H2 8513   0.650   3.743  16.247 -0.1199  0.8143  0.3729
  570TMC3    C7 8514   0.413   3.849  16.329 -0.3030  0.1797  0.1253
  570TMC3    C8 8515   0.703   3.533  16.102 -0.1365  0.3861  0.5014
  570TMC3    O1 8516   0.335   3.842  16.423  0.2539  0.4635 -0.1704
  570TMC3    O2 8517   0.788   3.615  16.138 -0.5195 -0.2499  0.1798
  571MPD2     C 8518   2.676   0.505   0.315  0.2438  0.4760 -0.0482
  571MPD2    C1 8519   2.726   0.479   0.444  0.2312 -0.9467  0.8902
  571MPD2    C2 8520   2.773   0.589   0.518  0.2073 -0.1938 -0.2140
  571MPD2    C3 8521   2.793   0.717   0.452  0.5379 -0.2720 -0.0251
  571MPD2    C4 8522   2.742   0.737   0.323 -0.0241  0.0495 -0.1786
  571MPD2    C5 8523   2.684   0.629   0.255  0.0457 -0.0699 -0.7225
  571MPD2     H 8524   2.812   0.577   0.618  1.2746  0.2080 -0.5766
  571MPD2    H1 8525   2.768   0.822   0.260  1.8505 -2.9256 -3.4765
  571MPD2    H2 8526   2.627   0.425   0.260 -0.5970  1.2152 -0.3797
  571MPD2    H3 8527   2.665   0.642   0.149 -2.2628 -0.2007 -0.3239
  571MPD2     N 8528   2.860   0.823   0.518 -0.5005  0.0417  0.0420
  571MPD2    H5 8529   2.864   0.910   0.467  0.6879 -0.5680 -0.8979
  571MPD2    N1 8530   2.728   0.341   0.488  0.0879 -0.6052  0.2383
  571MPD2    H7 8531   2.686   0.276   0.423 -0.5875 -0.1936  0.2678
  572TMC3    C1 8532   3.035   0.928   0.652 -1.0614 -0.6133 -0.0714
  572TMC3    C2 8533   3.101   0.925   0.776 -0.0375  0.3537  0.5107
  572TMC3    C3 8534   3.147   1.044   0.827 -0.0370  0.1420 -0.2008
  572TMC3    C4 8535   3.028   1.045   0.572 -0.2414  0.0439 -0.1185
  572TMC3    C5 8536   3.090   1.158   0.620 -0.0657 -0.0055 -0.5943
  572TMC3    C6 8537   3.152   1.159   0.742  0.4788  0.2028  0.0800
  572TMC3     C 8538   2.948   0.809   0.625  1.0263 -0.4369  0.1869
  572TMC3     O 8539   2.972   0.713   0.701  0.0889  0.1457 -0.1797
  572TMC3     H 8540   3.075   0.848   0.848 -1.6631 -1.3587 -1.8651
  572TMC3    H1 8541   2.968   1.055   0.482  1.3642  1.7593 -1.0024
  572TMC3    H2 8542   3.210   1.248   0.762  0.9257 -0.3555  1.3194
  572TMC3    C7 8543   3.073   1.287   0.544 -0.5759 -0.0465  0.0218
  572TMC3    C8 8544   3.137   1.071   0.971 -0.5371  0.0406 -0.1491
  572TMC3    O1 8545   3.057   1.268   0.425 -0.3050 -0.0680 -0.0808
  572TMC3    O2 8546   3.158   1.187   0.996  0.5770  0.0733  0.3288
  573MPD2     C 8547   4.577   1.163   0.378  0.2116 -0.2919  0.2513
  573MPD2    C1 8548   4.444   1.166   0.335  0.1847  0.5997 -0.1354
  573MPD2    C2 8549   4.422   1.185   0.203 -0.2096  0.1669 -1.0218
  573MPD2    C3 8550   4.526   1.211   0.112  0.1056  0.0051  0.0363
  573MPD2    C4 8551   4.659   1.209   0.159 -0.4739  0.1142  0.0529
  573MPD2    C5 8552   4.674   1.179   0.296 -0.1489  0.3317  0.3734
  573MPD2     H 8553   4.322   1.193   0.162 -1.5900 -0.1564  2.2769
  573MPD2    H1 8554   0.007   1.208   0.093 -2.7142  0.4880 -2.8529
  573MPD2    H2 8555   4.599   1.149   0.484 -0.7663 -0.8020  0.3899
  573MPD2    H3 8556   0.037   1.190   0.336  0.3327  1.0929 -1.0506
  573MPD2     N 8557   4.510   1.237  17.720  0.1092 -0.2524 -0.2470
  573MPD2    H5 8558   4.597   1.251  17.671  0.3717 -1.0465 -0.0087
  573MPD2    N1 8559   4.346   1.136   0.434 -0.5842  0.1356 -0.3090
  573MPD2    H7 8560   4.374   1.131   0.531  1.5673  1.2782 -0.8720
  574TMC3    C1 8561   4.423   1.272  17.504 -0.0175 -0.2538 -0.0904
  574TMC3    C2 8562   4.335   1.239  17.408  0.1258  0.0536 -0.0277
  574TMC3    C3 8563   4.368   1.278  17.276 -0.0713 -0.3225  0.2064
  574TMC3    C4 8564   4.523   1.368  17.482  0.8057 -0.1548 -1.1213
  574TMC3    C5 8565   4.551   1.405  17.348 -0.1125  0.2840 -0.1604
  574TMC3    C6 8566   4.478   1.360  17.243 -0.4136 -0.0346 -0.1224
  574TMC3     C 8567   4.393   1.234  17.644 -0.2228  0.2734 -0.2665
  574TMC3     O 8568   4.286   1.177  17.673 -0.4176  0.5774  0.0928
  574TMC3     H 8569   4.254   1.177  17.444  0.3165 -1.2419 -1.8188
  574TMC3    H1 8570   4.578   1.407  17.566  0.4836 -0.1893 -0.8954
  574TMC3    H2 8571   4.494   1.388  17.140 -2.5980 -0.3775 -0.5625
  574TMC3    C7 8572   4.676   1.482  17.321 -0.1252  0.0674  1.0297
  574TMC3    C8 8573   4.272   1.270  17.168 -0.7919  0.1365 -0.3655
  574TMC3    O1 8574   4.672   1.542  17.211 -0.1452 -0.7167 -0.2063
  574TMC3    O2 8575   4.316   1.280  17.051 -0.0807  0.3486  0.5702
  575TMC3    C1 8576   2.329   1.798  11.409  0.2819  0.0095  0.3593
  575TMC3    C2 8577   2.440   1.727  11.441  1.1797 -0.0797 -0.8348
  575TMC3    C3 8578   2.512   1.670  11.329 -0.0544  0.5510  0.1926
  575TMC3    C4 8579   2.284   1.817  11.288 -0.3054 -0.2645  0.0539
  575TMC3    C5 8580   2.357   1.762  11.186 -0.2992 -0.0171 -0.2731
  575TMC3    C6 8581   2.471   1.688  11.201  0.8522 -0.2246  0.2083
  575TMC3     C 8582   2.240   1.835  11.511  0.1559  1.4762  0.2210
  575TMC3     O 8583   2.128   1.785  11.513 -0.0574  0.5253 -0.6381
  575TMC3     H 8584   2.475   1.708  11.542 -3.1305  1.1622  0.8989
  575TMC3    H1 8585   2.181   1.848  11.278 -0.1409  0.8246  1.7002
  575TMC3    H2 8586   2.532   1.660  11.116 -2.3993 -2.8165 -1.2649
  575TMC3    C7 8587   2.320   1.778  11.046 -0.2109  0.4077 -0.2793
  575TMC3    C8 8588   2.648   1.612  11.351  0.4939  0.6442  0.6737
  575TMC3    O1 8589   2.336   1.694  10.963 -0.1340 -0.0309 -0.2902
  575TMC3    O2 8590   2.697   1.614  11.464  0.1596 -1.1805  0.5040
  576MPD2     C 8591   1.878   3.050  12.594  0.5439  0.1307 -0.3567
  576MPD2    C1 8592   1.876   3.165  12.518  0.1792  0.0247  0.1926
  576MPD2    C2 8593   1.812   3.271  12.573 -0.5415 -0.1159 -0.6350
  576MPD2    C3 8594   1.767   3.276  12.701  0.1742 -0.0670  0.1900
  576MPD2    C4 8595   1.773   3.159  12.772 -0.0081  0.2004  0.3305
  576MPD2    C5 8596   1.815   3.048  12.711  0.0444  0.5204  0.2330
  576MPD2     H 8597   1.790   3.349  12.501  0.2658 -0.4276 -1.2213
  576MPD2    H1 8598   1.740   3.144  12.874 -1.9806  1.6859 -0.0922
  576MPD2    H2 8599   1.923   2.954  12.576 -2.0465 -1.1102 -0.1659
  576MPD2    H3 8600   1.817   2.957  12.769  1.2170 -0.8064 -1.8534
  576MPD2     N 8601   1.711   3.397  12.755  0.0562  0.1031  0.0494
  576MPD2    H5 8602   1.725   3.478  12.695 -0.5399  3.2840  4.2630
  576MPD2    N1 8603   1.943   3.181  12.398  0.6845 -0.2085 -0.4036
  576MPD2    H7 8604   1.930   3.274  12.360  1.8408  1.0555  2.3007
  577TMC3    C1 8605   2.063   3.141  12.200  0.5120 -0.2320 -0.6836
  577TMC3    C2 8606   2.128   3.055  12.118 -0.0359  0.6833  0.1432
  577TMC3    C3 8607   2.154   3.088  11.984 -0.1261  0.2074  0.4800
  577TMC3    C4 8608   2.037   3.269  12.159  0.2820  1.3012  0.8229
  577TMC3    C5 8609   2.080   3.294  12.031 -0.6656 -0.2778  0.4770
  577TMC3    C6 8610   2.116   3.205  11.936  0.2175  0.0338  0.5789
  577TMC3     C 8611   2.022   3.088  12.329  0.3723  0.5127 -0.2017
  577TMC3     O 8612   2.048   2.978  12.371  0.4039  0.2591  0.0980
  577TMC3     H 8613   2.159   2.958  12.155 -2.0183 -0.8494 -2.2105
  577TMC3    H1 8614   1.993   3.342  12.225 -0.3957  0.0022  1.8172
  577TMC3    H2 8615   2.142   3.246  11.839 -3.2885  1.9896  0.4432
  577TMC3    C7 8616   2.095   3.434  11.998  0.3027 -0.0753  0.6374
  577TMC3    C8 8617   2.255   3.007  11.926  0.1491  0.0931 -0.1177
  577TMC3    O1 8618   2.131   3.494  12.096  0.3009 -0.2663  0.2525
  577TMC3    O2 8619   2.249   2.889  11.952  0.5175 -0.6830 -0.2611
  578MPD2     C 8620   4.250   3.155   2.359  0.7434  0.0158 -0.3653
  578MPD2    C1 8621   4.285   3.067   2.250 -0.3255  0.0956 -0.8892
  578MPD2    C2 8622   4.395   2.991   2.252  0.0750  0.4345 -0.6828
  578MPD2    C3 8623   4.468   2.977   2.363  0.4682 -0.4010 -0.1552
  578MPD2    C4 8624   4.442   3.057   2.473  0.5389 -0.0274 -0.0693
  578MPD2    C5 8625   4.327   3.146   2.472  0.3372  0.3443 -0.3667
  578MPD2     H 8626   4.428   2.943   2.160  0.3436  0.6393 -0.6926
  578MPD2    H1 8627   4.500   3.053   2.564  0.5446 -0.1474 -0.0793
  578MPD2    H2 8628   4.166   3.223   2.355  0.7726  0.1167  0.9667
  578MPD2    H3 8629   4.301   3.211   2.554 -0.3695 -0.8202  0.3379
  578MPD2     N 8630   4.585   2.899   2.343  0.3068  0.7883  0.5792
  578MPD2    H5 8631   4.604   2.850   2.256  1.5529 -0.1856  1.4058
  578MPD2    N1 8632   4.190   3.043   2.141 -0.1902 -0.5423 -0.1097
  578MPD2    H7 8633   4.107   3.101   2.137  0.5972  0.6315  0.4713
  579TMC3    C1 8634   0.078   2.849   2.372 -0.2767  0.3846 -0.6552
  579TMC3    C2 8635   0.195   2.913   2.418 -0.1200  0.5329  0.0690
  579TMC3    C3 8636   0.314   2.911   2.348 -0.1235 -0.3543  0.0929
  579TMC3    C4 8637   0.092   2.780   2.254  0.1008 -0.3714  0.3910
  579TMC3    C5 8638   0.212   2.778   2.188  0.1845 -0.2072 -0.3470
  579TMC3    C6 8639   0.321   2.837   2.233  0.3248 -0.0261  0.1368
  579TMC3     C 8640   4.690   2.894   2.429 -0.2355  0.1468 -0.2903
  579TMC3     O 8641   4.692   2.939   2.543  0.0295  0.3694  0.0186
  579TMC3     H 8642   0.193   2.990   2.494  2.6995  0.5514  0.1143
  579TMC3    H1 8643   0.006   2.731   2.209 -1.1242  0.2398  2.0759
  579TMC3    H2 8644   0.417   2.826   2.185 -0.2413 -1.7825 -0.5877
  579TMC3    C7 8645   0.230   2.705   2.060  0.3001  0.2894  0.1150
  579TMC3    C8 8646   0.403   3.015   2.376  0.1767 -0.4387  0.5604
  579TMC3    O1 8647   0.346   2.677   2.033  0.0302 -0.1522  0.6182
  579TMC3    O2 8648   0.430   3.035   2.492 -0.9654  0.1430  0.2592
  580TMC3    C1 8649   4.182   2.174  11.917 -0.2101 -0.4206  0.6257
  580TMC3    C2 8650   4.247   2.277  11.983 -0.1106  0.5156  0.2327
  580TMC3    C3 8651   4.377   2.255  12.016  0.5142 -0.4197  0.1447
  580TMC3    C4 8652   4.233   2.049  11.894  0.2146 -0.3070  0.4524
  580TMC3    C5 8653   4.364   2.034  11.931 -0.0122 -0.2549 -0.1684
  580TMC3    C6 8654   4.433   2.137  11.993 -0.0357  0.2105  0.1761
  580TMC3     C 8655   4.080   2.230  11.825  0.2322 -0.9885 -0.3662
  580TMC3     O 8656   3.978   2.169  11.802 -0.2304 -0.4175 -0.2083
  580TMC3     H 8657   4.201   2.372  12.006 -3.0371 -0.8744  0.0800
  580TMC3    H1 8658   4.169   1.976  11.847 -0.1301  0.4558 -0.2660
  580TMC3    H2 8659   4.540   2.143  12.009 -0.4576  0.9180  2.6535
  580TMC3    C7 8660   4.407   1.896  11.951  0.4734  0.6169  0.1496
  580TMC3    C8 8661   4.447   2.372  12.061  0.0275  0.6827  0.0154
  580TMC3    O1 8662   4.331   1.811  11.904 -0.2461 -0.4015  0.1082
  580TMC3    O2 8663   4.374   2.453  12.116  0.1671  0.7674  0.5564
  581MPD2     C 8664   2.357   2.813  15.376 -0.0781 -0.0321  0.0020
  581MPD2    C1 8665   2.352   2.700  15.308  0.3305 -0.1691  0.4591
  581MPD2    C2 8666   2.236   2.660  15.246 -0.5467  0.1568  0.5455
  581MPD2    C3 8667   2.125   2.742  15.248 -0.2730 -0.3407 -0.8876
  581MPD2    C4 8668   2.131   2.860  15.312 -0.3767  0.2011  0.6145
  581MPD2    C5 8669   2.247   2.891  15.384 -0.4259 -0.0635 -0.8410
  581MPD2     H 8670   2.226   2.564  15.195  2.6226  0.5266 -0.8317
  581MPD2    H1 8671   2.048   2.930  15.313 -1.0946 -0.6453  2.5307
  581MPD2    H2 8672   2.447   2.848  15.425  0.2756 -2.4536  1.0447
  581MPD2    H3 8673   2.245   2.982  15.444  1.5887 -0.3663 -0.2841
  581MPD2     N 8674   2.006   2.715  15.173  0.1428 -0.0160 -0.1944
  581MPD2    H5 8675   1.958   2.801  15.150  2.0722  0.7832 -1.2861
  581MPD2    N1 8676   2.473   2.628  15.290 -0.5781 -0.5900  0.3707
  581MPD2    H7 8677   2.552   2.653  15.349  1.8173 -0.2791 -2.9920
  582TMC3    C1 8678   2.611   2.445  15.239 -0.8508 -0.5708 -0.1942
  582TMC3    C2 8679   2.625   2.410  15.367 -0.4675 -0.5016  0.1748
  582TMC3    C3 8680   2.657   2.286  15.408  0.5612  0.0181 -0.3458
  582TMC3    C4 8681   2.644   2.350  15.146 -0.5579 -0.6828  0.1566
  582TMC3    C5 8682   2.679   2.223  15.186 -0.3647 -0.7335 -0.5821
  582TMC3    C6 8683   2.698   2.188  15.317  0.1928 -0.0173 -0.1406
  582TMC3     C 8684   2.497   2.529  15.198  0.0741 -0.0644 -0.5206
  582TMC3     O 8685   2.440   2.496  15.099  0.0648  0.3792  0.9416
  582TMC3     H 8686   2.591   2.472  15.450  0.9966  0.9750 -0.3202
  582TMC3    H1 8687   2.639   2.375  15.040  0.2605 -0.6658  0.1246
  582TMC3    H2 8688   2.748   2.097  15.348  3.0198  0.7086 -2.5397
  582TMC3    C7 8689   2.605   2.130  15.110  0.0842 -0.1461 -0.0000
  582TMC3    C8 8690   2.596   2.247  15.530 -0.5640  0.6423  0.4919
  582TMC3    O1 8691   2.642   2.012  15.120 -0.4763  0.2659  0.4484
  582TMC3    O2 8692   2.581   2.331  15.615  0.1285  0.5651 -0.0753
  583MPD2     C 8693   2.226   3.982  17.150 -0.4055 -0.2488 -0.6137
  583MPD2    C1 8694   2.261   4.072  17.051  0.4788  0.1111 -0.2713
  583MPD2    C2 8695   2.201   4.198  17.055  0.0665  0.1335 -0.9908
  583MPD2    C3 8696   2.110   4.233  17.154  0.1413 -0.1437  0.4573
  583MPD2    C4 8697   2.093   4.144  17.260 -0.5556  0.7386 -0.4993
  583MPD2    C5 8698   2.150   4.022  17.259  0.1865  0.5261 -0.4359
  583MPD2     H 8699   2.231   4.257  16.970  0.4814  1.5124  0.1158
  583MPD2    H1 8700   2.014   4.157  17.333  0.3970  0.1507  0.6418
  583MPD2    H2 8701   2.270   3.884  17.138  0.8014  0.3052 -0.7750
  583MPD2    H3 8702   2.134   3.943  17.332 -0.6824  1.8741  0.8172
  583MPD2     N 8703   2.039   4.354  17.145 -0.8898 -0.5382  0.0895
  583MPD2    H5 8704   2.051   4.412  17.063  0.9239 -0.3138  0.4981
  583MPD2    N1 8705   2.350   4.043  16.954 -1.3196 -0.5144 -0.2463
  583MPD2    H7 8706   2.386   4.126  16.908 -0.6688 -1.6933 -1.8793
  584TMC3    C1 8707   1.918   4.545  17.217 -1.1055  0.1015 -0.5547
  584TMC3    C2 8708   2.004   4.631  17.153 -0.0758 -0.1099  0.3789
  584TMC3    C3 8709   2.003   0.031  17.187 -0.2099 -0.0440  0.5369
  584TMC3    C4 8710   1.831   4.599  17.304  0.8704  1.0872  0.6259
  584TMC3    C5 8711   1.827   4.731  17.339  0.6009  0.1066  0.2061
  584TMC3    C6 8712   1.919   0.077  17.283  0.4485 -0.3927  0.7689
  584TMC3     C 8713   1.955   4.407  17.242 -0.5911 -0.0345 -0.3898
  584TMC3     O 8714   1.916   4.355  17.342 -0.0994 -0.0787 -0.4559
  584TMC3     H 8715   2.062   4.600  17.067 -1.7014 -1.5782 -0.1883
  584TMC3    H1 8716   1.767   4.529  17.356  0.3047  2.0855  1.2646
  584TMC3    H2 8717   1.905   0.181  17.310 -2.8508 -0.3666 -1.0724
  584TMC3    C7 8718   1.805   0.014  17.479 -0.5875 -0.3444  0.2230
  584TMC3    C8 8719   2.039   0.128  17.086 -0.3604 -0.5240  0.1144
  584TMC3    O1 8720   1.879   0.094  17.536 -0.1922  0.1723  0.6953
  584TMC3    O2 8721   2.041   0.083  16.977 -0.2047 -0.4084 -0.4738
  585MPD2     C 8722   0.667   2.820   0.842 -0.0418  0.0292  0.9093
  585MPD2    C1 8723   0.681   2.857   0.707 -0.6073  0.4401  0.2024
  585MPD2    C2 8724   0.760   2.773   0.622  0.2101 -0.0380  0.1633
  585MPD2    C3 8725   0.811   2.663   0.666 -0.7014 -0.3237  0.2411
  585MPD2    C4 8726   0.793   2.621   0.795 -0.2544  0.2341 -0.3000
  585MPD2    C5 8727   0.722   2.702   0.884  0.1018 -0.6383 -1.1118
  585MPD2     H 8728   0.783   2.799   0.519 -0.4273 -0.9938 -0.2209
  585MPD2    H1 8729   0.834   2.527   0.831 -0.3634 -0.3715 -1.7880
  585MPD2    H2 8730   0.609   2.877   0.914 -1.2971  0.4479 -0.4148
  585MPD2    H3 8731   0.713   2.684   0.991  3.1000  0.3510 -0.7087
  585MPD2     N 8732   0.900   2.589   0.583 -0.0124  0.7655 -0.1207
  585MPD2    H5 8733   0.900   2.620   0.486 -0.3565 -1.4217 -0.8117
  585MPD2    N1 8734   0.621   2.978   0.672 -0.7206  0.6256  0.4546
  585MPD2    H7 8735   0.571   3.018   0.750 -0.7984  0.6088  0.4130
  586TMC3    C1 8736   1.079   2.448   0.513 -0.1533  0.4404  0.4656
  586TMC3    C2 8737   1.205   2.409   0.539 -0.2601 -0.2088  0.1983
  586TMC3    C3 8738   1.290   2.374   0.434  1.0474  0.2167 -0.2038
  586TMC3    C4 8739   1.038   2.468   0.385  0.0298  0.2783 -0.3470
  586TMC3    C5 8740   1.124   2.434   0.286 -0.0884  0.4229  0.2131
  586TMC3    C6 8741   1.251   2.395   0.307  0.1172  0.1007  0.1519
  586TMC3     C 8742   0.994   2.492   0.623 -0.3711 -0.0403 -0.4873
  586TMC3     O 8743   1.036   2.474   0.736  0.0803 -0.2639 -0.0521
  586TMC3     H 8744   1.234   2.376   0.638  0.2630  0.8420  0.3916
  586TMC3    H1 8745   0.934   2.468   0.354  0.5548 -1.0760 -2.1307
  586TMC3    H2 8746   1.315   2.364   0.225 -0.6897 -0.5984 -0.2158
  586TMC3    C7 8747   1.072   2.453   0.152 -0.0597 -0.7214  0.1039
  586TMC3    C8 8748   1.434   2.340   0.467  0.7715  0.0691  0.2979
  586TMC3    O1 8749   0.961   2.417   0.123  0.6002  0.6444 -0.2997
  586TMC3    O2 8750   1.472   2.316   0.583 -0.5552 -0.1280  0.2240
  587TMC3    C1 8751   3.635   1.907  16.149  0.5424  0.0148 -0.2197
  587TMC3    C2 8752   3.649   1.995  16.257 -0.3056 -0.4486 -0.4266
  587TMC3    C3 8753   3.760   1.969  16.341  0.6490  0.0990 -1.1158
  587TMC3    C4 8754   3.715   1.797  16.116  0.1144 -0.5429  0.1540
  587TMC3    C5 8755   3.814   1.772  16.206  0.1273 -0.5523  0.1003
  587TMC3    C6 8756   3.838   1.860  16.312  0.1029 -0.0896  0.0058
  587TMC3     C 8757   3.514   1.921  16.068  0.9799 -0.4827  0.4805
  587TMC3     O 8758   3.429   2.002  16.100  0.6334 -0.2238 -0.1360
  587TMC3     H 8759   3.578   2.076  16.267 -1.4010 -1.5722  0.8803
  587TMC3    H1 8760   3.685   1.722  16.044  2.7219 -0.1263 -1.3733
  587TMC3    H2 8761   3.925   1.838  16.373 -0.1102  1.8199  0.9937
  587TMC3    C7 8762   3.891   1.649  16.194  0.6534  0.4070 -0.8849
  587TMC3    C8 8763   3.779   2.022  16.474 -0.1298 -0.1801  0.7076
  587TMC3    O1 8764   3.948   1.611  16.293 -0.1828  0.5110 -0.1384
  587TMC3    O2 8765   3.873   1.987  16.548 -0.0507 -0.7498  0.3481
  588TMC3    C1 8766   1.720   4.144   9.969  0.1239 -0.6225 -0.3507
  588TMC3    C2 8767   1.671   4.020   9.967 -0.0199 -0.2911  0.0616
  588TMC3    C3 8768   1.702   3.931  10.065  0.0019 -0.1766  0.3955
  588TMC3    C4 8769   1.817   4.183  10.062 -0.6169  0.1669  0.1173
  588TMC3    C5 8770   1.853   4.087  10.154  0.3034 -0.5366  0.0781
  588TMC3    C6 8771   1.803   3.957  10.154 -0.1986 -0.1109 -0.4310
  588TMC3     C 8772   1.679   4.239   9.869 -0.5551 -0.2265 -0.3238
  588TMC3     O 8773   1.576   4.217   9.800  0.2895 -0.4577 -0.2062
  588TMC3     H 8774   1.583   3.997   9.907 -1.4854 -0.4764  2.2492
  588TMC3    H1 8775   1.826   4.288  10.090 -0.5321 -0.1085  1.0940
  588TMC3    H2 8776   1.843   3.887  10.226  0.6665 -0.2537 -1.0640
  588TMC3    C7 8777   1.974   4.115  10.223 -0.3296 -0.2403 -0.1461
  588TMC3    C8 8778   1.605   3.832  10.079 -0.6345 -0.0501 -0.0733
  588TMC3    O1 8779   2.002   4.060  10.329  0.6434  1.4022 -0.1239
  588TMC3    O2 8780   1.513   3.823   9.999  0.2922 -0.2036 -0.0759
  589TMC3    C1 8781   0.352   1.427   1.303 -0.3089 -0.0949  0.0822
  589TMC3    C2 8782   0.461   1.436   1.381 -0.4560 -0.4008 -0.1900
  589TMC3    C3 8783   0.574   1.360   1.351 -0.1260  0.6378 -0.2303
  589TMC3    C4 8784   0.345   1.342   1.192 -0.8620 -0.5808 -0.1302
  589TMC3    C5 8785   0.457   1.266   1.168 -0.2059  0.0753 -0.1320
  589TMC3    C6 8786   0.571   1.272   1.246 -0.2237  0.5932  0.1429
  589TMC3     C 8787   0.238   1.517   1.321  0.1726 -0.2783 -0.1509
  589TMC3     O 8788   0.165   1.529   1.223  0.1497 -0.3951 -0.5176
  589TMC3     H 8789   0.462   1.511   1.459  0.4681 -0.4974 -0.1109
  589TMC3    H1 8790   0.262   1.349   1.122 -1.2885  0.4400  0.4846
  589TMC3    H2 8791   0.652   1.206   1.216 -0.2829  0.0057  1.2759
  589TMC3    C7 8792   0.439   1.165   1.066 -0.4757 -0.1791  0.2492
  589TMC3    C8 8793   0.700   1.412   1.402 -0.5929  0.1602 -0.3667
  589TMC3    O1 8794   0.323   1.136   1.033  0.1024 -0.6354 -0.0432
  589TMC3    O2 8795   0.699   1.481   1.503  0.4436 -0.4029  0.0555
  590MPD2     C 8796   4.572   4.677  16.947 -0.5175 -0.5897 -0.0203
  590MPD2    C1 8797   4.543   0.054  16.876  0.5073 -0.4270  0.2339
  590MPD2    C2 8798   4.626   0.165  16.882 -0.4517  0.0778 -0.2926
  590MPD2    C3 8799   0.012   0.156  16.947 -0.4993  0.0605  1.1923
  590MPD2    C4 8800   0.034   0.044  17.023 -0.2154 -0.1684  0.1246
  590MPD2    C5 8801   4.679   4.679  17.023  0.3418  0.3338 -0.2909
  590MPD2     H 8802   4.588   0.255  16.835  1.4154  0.0856 -1.8107
  590MPD2    H1 8803   0.123   0.034  17.084 -0.9699  1.8417  1.5664
  590MPD2    H2 8804   4.499   4.597  16.946  1.4901 -2.4463  1.5934
  590MPD2    H3 8805   4.694   4.600  17.097 -0.3145  0.0580 -0.4527
  590MPD2     N 8806   0.105   0.261  16.937 -0.0407  0.2385 -0.0278
  590MPD2    H5 8807   0.076   0.335  16.873  3.6215  2.0863  0.4216
  590MPD2    N1 8808   4.426   0.067  16.800 -0.6215 -0.0956  0.6716
  590MPD2    H7 8809   4.401   0.159  16.765  1.1244 -0.0400 -0.4021
  591TMC3    C1 8810   0.319   0.336  16.871  0.0389  0.2224 -0.8838
  591TMC3    C2 8811   0.419   0.269  16.817 -0.3231 -0.0063  0.2003
  591TMC3    C3 8812   0.465   0.299  16.683  0.3941 -0.1031  0.2411
  591TMC3    C4 8813   0.267   0.445  16.804  0.7212  0.3217  0.0914
  591TMC3    C5 8814   0.324   0.487  16.687  0.3991  0.5950  0.5834
  591TMC3    C6 8815   0.411   0.411  16.622 -0.1426 -0.0626 -0.4309
  591TMC3     C 8816   0.237   0.252  16.964 -0.0339 -0.1533 -0.6308
  591TMC3     O 8817   0.298   0.167  17.027  0.1011  0.2672 -0.1212
  591TMC3     H 8818   0.455   0.176  16.860 -0.1059  0.5744  1.2736
  591TMC3    H1 8819   0.186   0.498  16.853  0.3285 -0.0553 -0.1565
  591TMC3    H2 8820   0.454   0.439  16.526  0.3909  2.1524  0.4569
  591TMC3    C7 8821   0.266   0.602  16.620  0.3759 -1.0623  0.3180
  591TMC3    C8 8822   0.495   0.180  16.601  0.2399 -0.3916  0.0943
  591TMC3    O1 8823   0.166   0.641  16.671  0.3426 -0.2421 -0.3539
  591TMC3    O2 8824   0.545   0.084  16.658 -0.3922 -0.1672 -0.0028
  592MPD2     C 8825   0.468   1.742  11.499  0.4031 -0.1311  0.3831
  592MPD2    C1 8826   0.481   1.780  11.629 -0.4120  0.1612 -0.0914
  592MPD2    C2 8827   0.447   1.684  11.726 -0.4456  0.2329  0.0239
  592MPD2    C3 8828   0.401   1.556  11.688 -0.2575  0.6260 -0.0748
  592MPD2    C4 8829   0.383   1.521  11.560  0.7604  0.3260 -0.2638
  592MPD2    C5 8830   0.415   1.617  11.468  0.2139  0.1147 -0.0174
  592MPD2     H 8831   0.468   1.713  11.828 -2.1270 -0.2678  0.5211
  592MPD2    H1 8832   0.355   1.425  11.519 -1.9136  0.8646  0.3249
  592MPD2    H2 8833   0.492   1.805  11.414  0.4359 -0.1547  0.3747
  592MPD2    H3 8834   0.415   1.583  11.365 -0.3873 -2.3877  0.8262
  592MPD2     N 8835   0.388   1.465  11.796  1.0413  0.2230 -0.1373
  592MPD2    H5 8836   0.425   1.497  11.885 -0.4094  0.2702  0.4436
  592MPD2    N1 8837   0.548   1.903  11.659  0.2026  0.6914  0.3624
  592MPD2    H7 8838   0.567   1.964  11.580 -0.6842 -0.6977 -0.9237
  593TMC3    C1 8839   0.677   2.059  11.767  0.4239 -0.1482  0.2957
  593TMC3    C2 8840   0.670   2.143  11.873 -0.0257  0.3266  0.3075
  593TMC3    C3 8841   0.746   2.255  11.873 -0.0756  0.4883 -0.8094
  593TMC3    C4 8842   0.749   2.087  11.652  0.4354  0.0350  0.0323
  593TMC3    C5 8843   0.827   2.204  11.652 -0.3737  0.2394 -0.0504
  593TMC3    C6 8844   0.823   2.287  11.762  0.1217 -0.0484  0.6828
  593TMC3     C 8845   0.586   1.950  11.780  0.2255  0.0293  0.4942
  593TMC3     O 8846   0.551   1.920  11.895 -1.0538 -0.0254 -0.1302
  593TMC3     H 8847   0.607   2.126  11.960 -0.5441  0.7943  0.0211
  593TMC3    H1 8848   0.756   2.020  11.567 -0.6601 -0.4256  0.3132
  593TMC3    H2 8849   0.880   2.379  11.756 -0.1076  0.0163 -0.5522
  593TMC3    C7 8850   0.882   2.250  11.524 -0.3789 -0.1985  0.0861
  593TMC3    C8 8851   0.693   2.372  11.939  0.3989  0.3980  0.6136
  593TMC3    O1 8852   0.917   2.163  11.446 -0.0916 -0.6320 -0.4997
  593TMC3    O2 8853   0.573   2.390  11.932  0.2575  0.1195 -0.1931
  594MPD2     C 8854   4.083   1.172  14.220  0.2834 -0.7602  0.0957
  594MPD2    C1 8855   4.067   1.078  14.319  0.0775  0.1023  0.2231
  594MPD2    C2 8856   4.167   1.058  14.414 -0.2460 -0.1968 -0.4372
  594MPD2    C3 8857   4.288   1.127  14.406  0.7150 -0.2194  0.2935
  594MPD2    C4 8858   4.304   1.214  14.303 -0.6286 -0.0155  0.5810
  594MPD2    C5 8859   4.205   1.231  14.213 -1.5162 -0.7222  0.3837
  594MPD2     H 8860   4.158   0.988  14.496  0.5299 -0.7799 -0.8525
  594MPD2    H1 8861   4.393   1.275  14.292  0.3536 -1.6139 -0.4043
  594MPD2    H2 8862   4.012   1.192  14.141 -0.8880 -1.6550  0.9179
  594MPD2    H3 8863   4.224   1.297  14.129 -1.6614  0.6844  1.4590
  594MPD2     N 8864   4.378   1.108  14.507  0.2759  0.0334  0.3584
  594MPD2    H5 8865   4.348   1.062  14.592 -0.6640 -0.7454 -0.4067
  594MPD2    N1 8866   3.943   1.003  14.316 -0.0557  0.7198  0.3287
  594MPD2    H7 8867   3.871   1.045  14.257 -0.1855 -3.1045 -2.2408
  595TMC3    C1 8868   0.040   1.211  14.735  0.3521 -0.3867 -0.2076
  595TMC3    C2 8869   4.710   1.143  14.640  0.0844 -0.3069  0.5472
  595TMC3    C3 8870   4.574   1.155  14.643 -0.3776  0.0599 -0.2745
  595TMC3    C4 8871   4.719   1.286  14.830 -0.4144 -0.1502 -0.0829
  595TMC3    C5 8872   4.584   1.291  14.832  0.8725 -0.2414  0.0421
  595TMC3    C6 8873   4.509   1.224  14.743 -0.3099 -0.3405 -0.0842
  595TMC3     C 8874   0.182   1.208  14.733 -0.4090  0.9578 -0.3055
  595TMC3     O 8875   0.242   1.269  14.822 -0.1271 -0.3970 -0.0608
  595TMC3     H 8876   0.007   1.091  14.551 -0.1026  2.5201 -1.1726
  595TMC3    H1 8877   0.041   1.342  14.902 -2.2483 -1.2758  2.2879
  595TMC3    H2 8878   4.401   1.231  14.746 -0.1364  2.0553 -0.1320
  595TMC3    C7 8879   4.516   1.397  14.899 -0.2459 -0.3962  0.2111
  595TMC3    C8 8880   4.512   1.156  14.508 -0.6147 -0.4670  0.5780
  595TMC3    O1 8881   4.396   1.382  14.909 -0.4592 -0.1621 -0.5293
  595TMC3    O2 8882   4.582   1.206  14.420  0.1323 -0.1858 -0.3206
  596MPD2     C 8883   3.108   3.703  17.141 -0.3534 -0.0808 -0.0520
  596MPD2    C1 8884   3.133   3.834  17.090 -0.6125  0.1741  0.7507
  596MPD2    C2 8885   3.159   3.841  16.961 -0.0115 -0.7937  0.5553
  596MPD2    C3 8886   3.157   3.738  16.867  0.0576  0.0932  0.4533
  596MPD2    C4 8887   3.129   3.615  16.919 -1.1551  0.3947 -0.4431
  596MPD2    C5 8888   3.114   3.597  17.053  0.0374 -0.5073 -0.3014
  596MPD2     H 8889   3.180   3.940  16.924 -0.0013 -0.0109  2.6553
  596MPD2    H1 8890   3.135   3.529  16.855  1.7975 -0.4539  0.9927
  596MPD2    H2 8891   3.075   3.684  17.243 -0.0744  1.6401  0.3756
  596MPD2    H3 8892   3.093   3.496  17.088  2.8706 -0.3253  1.9698
  596MPD2     N 8893   3.165   3.750  16.724 -0.0015 -0.0065 -0.4255
  596MPD2    H5 8894   3.149   3.663  16.674 -0.3709  0.1928 -0.6558
  596MPD2    N1 8895   3.132   3.954  17.163  1.1968  0.2760 -0.2340
  596MPD2    H7 8896   3.163   4.041  17.121  1.6297  0.9152  1.4024
  597TMC3    C1 8897   3.042   4.108  17.321  0.3379 -0.2185 -0.0091
  597TMC3    C2 8898   3.148   4.189  17.292  0.2247  0.2327  0.9557
  597TMC3    C3 8899   3.131   4.328  17.316  0.4191 -0.7798 -0.0764
  597TMC3    C4 8900   2.927   4.155  17.375 -0.3896 -0.2525 -0.4311
  597TMC3    C5 8901   2.914   4.290  17.385 -0.9580  0.1653 -0.6917
  597TMC3    C6 8902   3.009   4.382  17.349  0.4119  0.4021  0.1517
  597TMC3     C 8903   3.054   3.974  17.275 -0.5385  0.3975 -0.6187
  597TMC3     O 8904   2.973   3.897  17.323 -0.6405  0.5020 -0.5914
  597TMC3     H 8905   3.246   4.146  17.274 -0.0251 -1.3318  3.2981
  597TMC3    H1 8906   2.859   4.081  17.417  0.1792 -0.5496 -0.0398
  597TMC3    H2 8907   2.995   4.487  17.371  1.3163  0.2983  1.2294
  597TMC3    C7 8908   2.794   4.347  17.452 -0.0669  0.1261 -0.1280
  597TMC3    C8 8909   3.243   4.399  17.260 -0.0026 -0.2150 -0.2096
  597TMC3    O1 8910   2.707   4.262  17.469  0.1459 -0.2014  0.0060
  597TMC3    O2 8911   3.349   4.356  17.294 -0.1297  0.5037  0.1100
  598TMC3    C1 8912   1.278   0.500  15.669 -0.4331 -0.2349 -0.0723
  598TMC3    C2 8913   1.171   0.454  15.590  0.5222 -0.9799 -0.7183
  598TMC3    C3 8914   1.193   0.461  15.451 -0.5948  0.0803 -0.6515
  598TMC3    C4 8915   1.388   0.563  15.617 -0.5142 -0.0082  1.8560
  598TMC3    C5 8916   1.397   0.574  15.482  0.0801 -0.6220 -0.2378
  598TMC3    C6 8917   1.299   0.524  15.397 -0.0772 -0.3242 -0.1262
  598TMC3     C 8918   1.272   0.469  15.810  0.3641  0.0896 -0.4015
  598TMC3     O 8919   1.174   0.417  15.858 -0.1756 -0.1967  0.0041
  598TMC3     H 8920   1.088   0.402  15.637  0.0605  1.0277  0.6736
  598TMC3    H1 8921   1.470   0.608  15.672  1.9983 -2.7546  0.3173
  598TMC3    H2 8922   1.321   0.525  15.291  0.1386 -0.7924 -0.0839
  598TMC3    C7 8923   1.527   0.582  15.418 -0.0586  0.2681 -1.1247
  598TMC3    C8 8924   1.089   0.397  15.362 -0.2035  0.1205 -0.7999
  598TMC3    O1 8925   1.603   0.494  15.459  0.0185 -0.5269  0.0805
  598TMC3    O2 8926   1.103   0.431  15.244 -0.0375  0.4491  0.1148
  599MPD2     C 8927   1.644   3.128  16.237  0.2028  0.0791  0.6694
  599MPD2    C1 8928   1.579   3.012  16.194 -0.2859  0.0485  0.1203
  599MPD2    C2 8929   1.445   3.003  16.201 -0.1340 -0.1344  0.2229
  599MPD2    C3 8930   1.365   3.103  16.256  0.3972  0.6252  0.4320
  599MPD2    C4 8931   1.433   3.222  16.286  0.1909 -0.2711  0.7399
  599MPD2    C5 8932   1.567   3.236  16.273 -0.8450 -0.8023 -0.2836
  599MPD2     H 8933   1.399   2.912  16.162 -1.0834 -0.5089  2.1937
  599MPD2    H1 8934   1.368   3.304  16.315 -0.6056 -0.3319 -0.8585
  599MPD2    H2 8935   1.751   3.137  16.229  0.3147 -1.9362 -0.1357
  599MPD2    H3 8936   1.616   3.331  16.290  1.0704 -1.9483  0.6588
  599MPD2     N 8937   1.228   3.092  16.264  0.7632  0.4700 -0.1321
  599MPD2    H5 8938   1.184   3.167  16.317  0.3785  0.4481 -0.4231
  599MPD2    N1 8939   1.668   2.920  16.129  0.0826  0.0221  0.3511
  599MPD2    H7 8940   1.764   2.951  16.124 -0.2094  0.8283 -0.2839
  600TMC3    C1 8941   1.001   3.025  16.235 -0.6869  0.6935  0.4172
  600TMC3    C2 8942   0.912   2.921  16.231  0.2097 -0.2434 -0.2366
  600TMC3    C3 8943   0.784   2.944  16.269 -0.1132 -0.4175 -0.8448
  600TMC3    C4 8944   0.966   3.150  16.268 -0.3903 -0.0916  0.4590
  600TMC3    C5 8945   0.837   3.164  16.318 -0.3353  0.2274  0.7272
  600TMC3    C6 8946   0.747   3.064  16.322  0.0364  0.1810 -0.1249
  600TMC3     C 8947   1.147   2.998  16.202  0.2946 -0.0790 -0.3703
  600TMC3     O 8948   1.177   2.895  16.144  0.4778 -0.3475  0.3399
  600TMC3     H 8949   0.942   2.822  16.197  1.5091  0.7453 -1.9692
  600TMC3    H1 8950   1.021   3.241  16.247 -0.3377 -0.2492 -0.0745
  600TMC3    H2 8951   0.659   3.092  16.379  1.2665 -0.1374  1.9611
  600TMC3    C7 8952   0.794   3.296  16.365  0.2037 -0.9083 -0.2458
  600TMC3    C8 8953   0.709   2.833  16.316 -0.6495 -0.7478 -1.1556
  600TMC3    O1 8954   0.676   3.303  16.399 -0.1326 -0.2255  0.2190
  600TMC3    O2 8955   0.777   2.735  16.347 -0.2406  0.0114 -0.6164
  601MPD2     C 8956   3.124   1.790   0.488  0.1121 -0.1387 -0.4171
  601MPD2    C1 8957   3.107   1.690   0.392 -0.3571 -0.0436  0.8313
  601MPD2    C2 8958   3.079   1.563   0.430 -0.2491 -0.6420  0.1001
  601MPD2    C3 8959   3.079   1.529   0.564 -0.6820  0.2763  0.3275
  601MPD2    C4 8960   3.094   1.626   0.653 -0.9171  0.2313 -0.2773
  601MPD2    C5 8961   3.117   1.755   0.619  0.4108 -0.1632 -0.1269
  601MPD2     H 8962   3.060   1.492   0.351 -1.2471 -1.6724  1.2546
  601MPD2    H1 8963   3.088   1.599   0.758 -0.6131 -0.5118 -0.4527
  601MPD2    H2 8964   3.130   1.895   0.464  0.3571 -0.1972 -0.6166
  601MPD2    H3 8965   3.115   1.829   0.699 -1.5711  0.1453 -0.4657
  601MPD2     N 8966   3.072   1.399   0.616  0.2561 -0.0026 -0.4038
  601MPD2    H5 8967   3.067   1.395   0.717  2.2253  1.2614 -0.2471
  601MPD2    N1 8968   3.102   1.708   0.254  0.7391 -0.2958 -0.4336
  601MPD2    H7 8969   3.075   1.628   0.198  0.1946  0.5704 -1.4040
  602TMC3    C1 8970   3.100   1.835   0.049 -0.6139  0.0581 -0.6008
  602TMC3    C2 8971   3.120   1.951  17.738  0.0081 -0.1402 -0.0069
  602TMC3    C3 8972   3.081   1.956  17.599  0.1377 -0.0099 -0.8664
  602TMC3    C4 8973   3.042   1.729  17.734 -0.1096  0.5132 -0.4007
  602TMC3    C5 8974   3.014   1.734  17.601 -0.2826  0.5380  0.0422
  602TMC3    C6 8975   3.030   1.849  17.535 -0.2462 -0.0800  0.2191
  602TMC3     C 8976   3.137   1.827   0.190 -0.1494  0.4444 -0.0172
  602TMC3     O 8977   3.185   1.932   0.235 -0.0859 -0.2290  0.5421
  602TMC3     H 8978   3.135   2.045   0.041  1.2571 -2.0817  3.2494
  602TMC3    H1 8979   3.026   1.632   0.032 -0.1974  0.6377 -0.1678
  602TMC3    H2 8980   2.998   1.858  17.432  0.4091 -0.8511 -0.0536
  602TMC3    C7 8981   2.933   1.627  17.547  0.5163  0.2467  0.3257
  602TMC3    C8 8982   3.026   2.091  17.562 -0.0949 -0.2201 -0.5225
  602TMC3    O1 8983   2.954   1.515  17.588  0.0095  0.1790  1.1812
  602TMC3    O2 8984   3.083   2.192  17.601  0.2887  0.2055 -0.0970
  603TMC3    C1 8985   2.156   1.439  11.079  1.2282 -0.0222 -0.7687
  603TMC3    C2 8986   2.133   1.389  11.203  0.4950 -0.0964 -0.2747
  603TMC3    C3 8987   2.078   1.470  11.301 -0.0532  0.3368  0.9729
  603TMC3    C4 8988   2.085   1.557  11.042 -0.2689  0.4141 -0.3618
  603TMC3    C5 8989   2.034   1.636  11.136 -0.9306  0.6156  0.0373
  603TMC3    C6 8990   2.033   1.598  11.267  0.1195  0.5123 -0.0579
  603TMC3     C 8991   2.235   1.355  10.991 -0.5189  0.5072  0.2966
  603TMC3     O 8992   2.244   1.236  11.032 -0.4830 -0.5384  0.1766
  603TMC3     H 8993   2.190   1.301  11.227  0.7326  0.1552  0.0899
  603TMC3    H1 8994   2.087   1.591  10.939  1.0038  0.5762 -0.2850
  603TMC3    H2 8995   1.954   1.646  11.325  0.9502  1.8029  0.0102
  603TMC3    C7 8996   1.946   1.745  11.104  0.3042  0.1033  0.3993
  603TMC3    C8 8997   2.072   1.424  11.440  0.3022  1.1601 -0.1602
  603TMC3    O1 8998   1.937   1.824  11.197  0.1111 -0.2638 -0.6705
  603TMC3    O2 8999   2.119   1.315  11.450 -0.2162  0.3463 -0.4773
  604MPD2     C 9000   2.507   0.870  16.367 -0.0991  0.0709  0.2460
  604MPD2    C1 9001   2.407   0.792  16.427 -0.5127  0.0203 -0.6676
  604MPD2    C2 9002   2.407   0.659  16.400  0.6265 -0.1014 -0.1582
  604MPD2    C3 9003   2.480   0.608  16.296  1.0024  0.7925  0.3589
  604MPD2    C4 9004   2.572   0.693  16.233 -0.3459 -0.4933  0.6360
  604MPD2    C5 9005   2.596   0.815  16.278 -0.6165  0.5191  0.8486
  604MPD2     H 9006   2.328   0.595  16.437  0.2041  0.2596 -0.4518
  604MPD2    H1 9007   2.635   0.659  16.152 -1.4695  0.4006 -0.6158
  604MPD2    H2 9008   2.527   0.972  16.399 -0.9865  0.9316 -1.9891
  604MPD2    H3 9009   2.672   0.878  16.234 -1.4098  1.6724  1.1324
  604MPD2     N 9010   2.462   0.472  16.258  0.5299 -0.1112  0.4674
  604MPD2    H5 9011   2.375   0.430  16.289 -1.2889  0.0600 -4.3204
  604MPD2    N1 9012   2.317   0.851  16.519  0.7169 -0.3673 -0.3263
  604MPD2    H7 9013   2.314   0.953  16.520  1.3391 -0.3673  1.1164
  605TMC3    C1 9014   2.163   0.901  16.675  0.1785 -0.4132 -0.2291
  605TMC3    C2 9015   2.213   1.025  16.691  0.2399  0.5086 -0.3340
  605TMC3    C3 9016   2.127   1.120  16.744 -0.1981  0.1897  0.2414
  605TMC3    C4 9017   2.039   0.872  16.720  0.5591 -1.2120  0.4349
  605TMC3    C5 9018   1.961   0.964  16.787  0.6987  0.0566 -0.1085
  605TMC3    C6 9019   2.005   1.092  16.800  0.0081 -0.0390  0.2509
  605TMC3     C 9020   2.229   0.793  16.607 -0.2102 -0.2014 -0.9994
  605TMC3     O 9021   2.201   0.678  16.632  0.1668  0.0403  0.4373
  605TMC3     H 9022   2.321   1.035  16.678  0.6162 -1.5265  1.2874
  605TMC3    H1 9023   2.005   0.769  16.726  3.3497 -2.0724  1.4678
  605TMC3    H2 9024   1.943   1.174  16.836  1.1083  0.8096  0.1985
  605TMC3    C7 9025   1.825   0.969  16.755  0.1517 -0.3684  0.0441
  605TMC3    C8 9026   2.170   1.259  16.754 -0.5224 -0.2383  0.5200
  605TMC3    O1 9027   1.764   1.070  16.730  0.3884 -0.1002 -0.3320
  605TMC3    O2 9028   2.139   1.321  16.853 -0.1201  0.1109  0.4035
  606TMC3    C1 9029   2.624   3.667   0.980 -0.0277  0.1146  0.2191
  606TMC3    C2 9030   2.681   3.650   1.102 -1.1679 -0.0677  0.8536
  606TMC3    C3 9031   2.805   3.598   1.093  0.1041  0.4173  0.0195
  606TMC3    C4 9032   2.683   3.624   0.856  0.1085 -0.1094 -0.0826
  606TMC3    C5 9033   2.810   3.574   0.855 -0.1026 -0.8020 -0.2914
  606TMC3    C6 9034   2.877   3.571   0.976  0.2852  0.4718  0.5700
  606TMC3     C 9035   2.480   3.688   0.972 -0.1621  0.2340  0.8587
  606TMC3     O 9036   2.427   3.646   0.871 -0.2203  0.5212  0.3772
  606TMC3     H 9037   2.624   3.650   1.194  0.8592 -0.0479  2.1046
  606TMC3    H1 9038   2.639   3.653   0.761  0.2586 -0.9648 -0.4199
  606TMC3    H2 9039   2.968   3.513   0.982 -1.4402 -2.3141 -0.2847
  606TMC3    C7 9040   2.867   3.515   0.734 -0.1512  0.3230 -1.0393
  606TMC3    C8 9041   2.875   3.555   1.212  0.1866  0.9708 -0.0721
  606TMC3    O1 9042   2.988   3.487   0.734  0.6255 -0.5930 -0.6822
  606TMC3    O2 9043   2.929   3.445   1.209  0.4156  0.0748 -0.4268
  607MPD2     C 9044   0.776   1.606  11.739 -0.0845  0.0681 -0.1795
  607MPD2    C1 9045   0.790   1.602  11.880  0.4916  0.4096 -0.3597
  607MPD2    C2 9046   0.743   1.494  11.954 -0.2194 -0.0450  0.3793
  607MPD2    C3 9047   0.690   1.382  11.899 -0.0311  0.0700  0.3353
  607MPD2    C4 9048   0.696   1.381  11.758  0.0755 -0.8946  0.0131
  607MPD2    C5 9049   0.746   1.483  11.683  0.9333 -0.1810  0.2137
  607MPD2     H 9050   0.757   1.494  12.062  1.2123  2.3136  0.2040
  607MPD2    H1 9051   0.679   1.288  11.705  1.9564 -0.8068 -0.7317
  607MPD2    H2 9052   0.814   1.690  11.683  0.6813  0.3999  0.8445
  607MPD2    H3 9053   0.749   1.484  11.575  0.1714  3.3239  0.2303
  607MPD2     N 9054   0.651   1.273  11.987  0.6400  0.4988  0.0794
  607MPD2    H5 9055   0.665   1.301  12.083  1.2022 -0.5118  0.2957
  607MPD2    N1 9056   0.843   1.707  11.954 -0.2646  1.1090 -0.9413
  607MPD2    H7 9057   0.839   1.695  12.055  0.6342  0.3749 -1.0012
  608TMC3    C1 9058   0.980   1.890  12.019  0.0410 -0.0905  0.6508
  608TMC3    C2 9059   0.997   1.824  12.138  0.2132  0.6127  0.0795
  608TMC3    C3 9060   1.045   1.897  12.240 -0.2933 -0.1086 -1.2239
  608TMC3    C4 9061   1.006   2.022  12.003  0.2317 -0.1077 -0.9599
  608TMC3    C5 9062   1.068   2.086  12.104 -0.0221  0.2161  0.0364
  608TMC3    C6 9063   1.086   2.031  12.232 -0.1189  0.5598 -0.1958
  608TMC3     C 9064   0.927   1.812  11.910  0.6442  1.1852  0.0838
  608TMC3     O 9065   0.938   1.853  11.796 -0.2759 -0.5283 -0.5284
  608TMC3     H 9066   0.997   1.716  12.137 -0.4682  0.6199 -1.4050
  608TMC3    H1 9067   0.985   2.069  11.908  0.1123  1.3451 -0.2275
  608TMC3    H2 9068   1.120   2.082  12.322  0.3129  0.2567 -0.1855
  608TMC3    C7 9069   1.082   2.236  12.078 -0.1331  0.1442 -0.8712
  608TMC3    C8 9070   1.043   1.832  12.372 -0.6031  0.0600  0.0398
  608TMC3    O1 9071   1.010   2.286  11.994 -0.7807  0.5666  0.6666
  608TMC3    O2 9072   1.126   1.861  12.456 -0.1184 -0.2028  0.4101
  609TMC3    C1 9073   4.011   0.519   8.753  0.0057 -0.2412  0.3228
  609TMC3    C2 9074   3.903   0.452   8.788 -0.2307  0.1321  0.2948
  609TMC3    C3 9075   3.920   0.318   8.794  0.0041  0.2021  1.0602
  609TMC3    C4 9076   4.134   0.466   8.739  0.6523 -0.4531  1.1159
  609TMC3    C5 9077   4.149   0.328   8.740 -0.5604 -0.1369 -0.5208
  609TMC3    C6 9078   4.035   0.249   8.754 -0.0844  0.1384 -0.0913
  609TMC3     C 9079   4.023   0.668   8.774  0.1042 -0.9539 -0.0787
  609TMC3     O 9080   4.092   0.724   8.692 -0.3030  0.3403 -0.2386
  609TMC3     H 9081   3.811   0.509   8.795  0.5173  1.1586  1.6289
  609TMC3    H1 9082   4.223   0.527   8.731  0.1145  0.5718  2.8773
  609TMC3    H2 9083   4.043   0.141   8.764 -0.0495  0.1933  0.4585
  609TMC3    C7 9084   4.285   0.278   8.743  0.4891 -0.7098  0.1436
  609TMC3    C8 9085   3.814   0.235   8.847  0.2967 -0.3784  0.6613
  609TMC3    O1 9086   4.367   0.368   8.744  0.0177 -0.4536  0.5644
  609TMC3    O2 9087   3.844   0.127   8.901  0.3056  0.5273  0.5884
  610TMC3    C1 9088   1.509   1.818  12.589  0.0044  0.1282 -0.2324
  610TMC3    C2 9089   1.455   1.796  12.467 -0.4985  1.1624 -0.1781
  610TMC3    C3 9090   1.398   1.675  12.436 -0.8256  0.2683  0.2866
  610TMC3    C4 9091   1.523   1.712  12.683 -0.6609  0.6237 -0.4307
  610TMC3    C5 9092   1.464   1.595  12.646 -0.4192  0.5048 -0.0495
  610TMC3    C6 9093   1.398   1.572  12.527  0.4124  0.3272 -0.3926
  610TMC3     C 9094   1.562   1.952  12.620 -0.2914  0.0647 -0.1441
  610TMC3     O 9095   1.535   2.045  12.545 -0.7691  0.0700  0.6009
  610TMC3     H 9096   1.462   1.880  12.399  0.0307  1.5350  0.3312
  610TMC3    H1 9097   1.598   1.708  12.761 -0.6416 -0.8327 -0.5305
  610TMC3    H2 9098   1.356   1.473  12.513  0.9433 -0.1487  1.4084
  610TMC3    C7 9099   1.470   1.488  12.741 -0.4638 -0.3882 -0.2509
  610TMC3    C8 9100   1.335   1.675  12.302 -0.3219  0.3648  0.4439
  610TMC3    O1 9101   1.550   1.504  12.832 -0.3179 -0.3190  0.3782
  610TMC3    O2 9102   1.347   1.771  12.227 -0.0178 -0.7938 -0.0710
  611MPD2     C 9103   0.588   1.674  10.116 -0.0132  0.7847  0.3185
  611MPD2    C1 9104   0.644   1.611  10.224  0.5193 -0.4805  0.3009
  611MPD2    C2 9105   0.779   1.633  10.258  0.0860  0.0916 -0.2056
  611MPD2    C3 9106   0.858   1.716  10.177  0.0146  0.1870 -0.2125
  611MPD2    C4 9107   0.804   1.756  10.052  0.1129  0.0091  0.0268
  611MPD2    C5 9108   0.668   1.747  10.032 -0.3632 -0.1239  0.4259
  611MPD2     H 9109   0.821   1.589  10.347  0.5514 -3.9106 -2.4410
  611MPD2    H1 9110   0.859   1.817   9.982  0.2806 -0.2121 -0.0326
  611MPD2    H2 9111   0.486   1.664  10.081 -0.3974  1.2496  1.2991
  611MPD2    H3 9112   0.626   1.781   9.938 -0.5578 -0.1651  0.4998
  611MPD2     N 9113   0.992   1.749  10.211 -0.3735  0.7650  0.0183
  611MPD2    H5 9114   1.059   1.794  10.150 -1.7473  2.1060 -0.4991
  611MPD2    N1 9115   0.559   1.532  10.301 -0.2537  0.0130  0.3535
  611MPD2    H7 9116   0.459   1.543  10.287 -0.4840  0.0618  2.0368
  612TMC3    C1 9117   1.187   1.779  10.342 -0.5088 -0.1730 -0.0345
  612TMC3    C2 9118   1.233   1.819  10.470 -0.2342  0.0760 -0.2431
  612TMC3    C3 9119   1.368   1.834  10.483  1.1367 -0.3680  0.0048
  612TMC3    C4 9120   1.263   1.775  10.234 -0.9091 -0.1362 -0.6841
  612TMC3    C5 9121   1.399   1.811  10.253 -0.4841  0.0613  0.1878
  612TMC3    C6 9122   1.453   1.827  10.379  0.0610  0.8266  0.8241
  612TMC3     C 9123   1.044   1.742  10.337 -0.5290 -0.1261  0.3751
  612TMC3     O 9124   0.988   1.719  10.443 -0.0400 -0.3664 -0.3516
  612TMC3     H 9125   1.168   1.820  10.557  0.2410  4.3745  0.0566
  612TMC3    H1 9126   1.226   1.747  10.136 -0.1129 -1.3492 -0.6353
  612TMC3    H2 9127   1.559   1.849  10.386  0.3849 -0.6822  0.6167
  612TMC3    C7 9128   1.505   1.795  10.144  0.1409 -0.3718 -0.3750
  612TMC3    C8 9129   1.420   1.914  10.591  0.5360 -0.1217 -0.3376
  612TMC3    O1 9130   1.620   1.817  10.178 -0.6207  0.1239 -0.0940
  612TMC3    O2 9131   1.352   2.007  10.628 -0.3358  0.1133  0.2041
  613MPD2     C 9132   4.632   4.145  16.791  0.3608 -0.0804 -0.2832
  613MPD2    C1 9133   4.568   4.047  16.718  0.0324  0.2432 -0.6076
  613MPD2    C2 9134   4.439   4.012  16.750  0.4411  0.0497 -0.1185
  613MPD2    C3 9135   4.371   4.073  16.855  0.0633 -0.8196 -0.5531
  613MPD2    C4 9136   4.437   4.166  16.929  0.0360 -0.4666 -0.5674
  613MPD2    C5 9137   4.561   4.203  16.896  0.1086  0.3768 -0.1197
  613MPD2     H 9138   4.384   3.947  16.683  0.0015  2.2188 -1.8482
  613MPD2    H1 9139   4.391   4.215  17.014  3.3764  1.8099 -0.0734
  613MPD2    H2 9140   4.728   4.185  16.760  0.1194  0.9627  0.3059
  613MPD2    H3 9141   4.615   4.280  16.950  0.4645  1.4909 -2.0748
  613MPD2     N 9142   4.241   4.041  16.900 -1.0125 -0.3011 -0.2754
  613MPD2    H5 9143   4.215   4.106  16.975 -0.2736 -0.3704  0.0370
  613MPD2    N1 9144   4.619   3.981  16.609  0.4603 -0.0378  0.3391
  613MPD2    H7 9145   4.558   3.905  16.581  0.2521  0.5068 -0.6896
  614TMC3    C1 9146   0.012   3.923  16.422 -0.2573 -0.4619 -0.3926
  614TMC3    C2 9147   4.660   3.821  16.401  0.0418  0.1994 -0.1595
  614TMC3    C3 9148   4.637   3.791  16.271  0.2153 -0.4818 -0.8493
  614TMC3    C4 9149   0.086   3.988  16.317  0.5184 -0.2182  0.5215
  614TMC3    C5 9150   0.049   3.953  16.188 -0.0166  0.0307  0.2047
  614TMC3    C6 9151   4.699   3.850  16.163 -0.3089  0.1277  0.0136
  614TMC3     C 9152   0.002   4.000  16.542  0.2462 -1.0277 -0.6965
  614TMC3     O 9153   0.087   4.087  16.554 -0.0665 -0.3643 -0.2156
  614TMC3     H 9154   4.623   3.767  16.487 -0.1427 -1.1371 -1.0895
  614TMC3    H1 9155   0.156   4.068  16.338  0.9085 -1.1701  2.9072
  614TMC3    H2 9156   4.705   3.788  16.074  0.6876  0.3473 -0.0784
  614TMC3    C7 9157   0.111   4.014  16.075  0.8166 -0.8469  0.2572
  614TMC3    C8 9158   4.504   3.749  16.230  0.7846 -0.1179  0.1121
  614TMC3    O1 9159   0.220   4.066  16.093  0.5410  0.7395 -0.0219
  614TMC3    O2 9160   4.469   3.758  16.110  0.2214  0.6057  0.0408
  615MPD2     C 9161   3.821   0.428  15.824  0.6978  0.5058 -0.4431
  615MPD2    C1 9162   3.880   0.552  15.831 -0.0337 -0.7466 -0.3750
  615MPD2    C2 9163   3.852   0.646  15.740 -0.0501  0.7741  0.1019
  615MPD2    C3 9164   3.759   0.620  15.640 -0.2831 -0.9079 -0.2204
  615MPD2    C4 9165   3.700   0.497  15.636 -0.2372  0.7063 -0.1300
  615MPD2    C5 9166   3.739   0.399  15.725  0.0626  0.1993  0.2766
  615MPD2     H 9167   3.898   0.744  15.742  1.4928  0.1102 -2.7923
  615MPD2    H1 9168   3.619   0.477  15.567  0.0302  2.2989 -0.9214
  615MPD2    H2 9169   3.836   0.341  15.888  0.7132  1.0477  0.2845
  615MPD2    H3 9170   3.700   0.298  15.723  0.9483 -0.1327 -0.4871
  615MPD2     N 9171   3.722   0.719  15.544  0.2246 -0.0961  0.0019
  615MPD2    H5 9172   3.661   0.695  15.466  0.7278 -1.5325  0.0464
  615MPD2    N1 9173   3.977   0.584  15.927 -0.8232  0.1141  0.2406
  615MPD2    H7 9174   4.021   0.675  15.921  0.1455 -0.3055  1.1013
  616TMC3    C1 9175   4.131   0.556  16.097 -0.1560  0.5928 -0.0086
  616TMC3    C2 9176   4.154   0.693  16.093  0.4571 -0.2036 -0.9583
  616TMC3    C3 9177   4.274   0.736  16.139  0.7446 -1.1757 -0.2977
  616TMC3    C4 9178   4.221   0.466  16.147 -0.1048  0.7222 -1.0730
  616TMC3    C5 9179   4.339   0.516  16.196  0.5908  0.4009  0.0691
  616TMC3    C6 9180   4.363   0.652  16.188  0.5778 -0.3879  0.2405
  616TMC3     C 9181   4.026   0.498  16.020 -0.8128  0.9908  0.3052
  616TMC3     O 9182   4.019   0.378  16.037  0.0904 -0.2515  0.1629
  616TMC3     H 9183   4.074   0.756  16.056  0.3853 -0.6690 -1.5744
  616TMC3    H1 9184   4.189   0.364  16.160 -0.0959  0.7136 -1.1175
  616TMC3    H2 9185   4.461   0.687  16.218  0.0092  0.2605  1.3252
  616TMC3    C7 9186   4.449   0.426  16.209  0.5083  0.1815 -0.3352
  616TMC3    C8 9187   4.299   0.879  16.151  0.4579 -0.0326 -0.3235
  616TMC3    O1 9188   4.564   0.473  16.208 -0.1601 -0.6334  0.4414
  616TMC3    O2 9189   4.221   0.946  16.087  0.4641  0.3232 -0.1359
  617MPD2     C 9190   2.191   3.578  14.113 -0.1489 -0.1686 -0.4335
  617MPD2    C1 9191   2.220   3.466  14.037  0.5052  0.6220  0.3464
  617MPD2    C2 9192   2.111   3.387  13.992 -0.2243  0.1653 -0.5370
  617MPD2    C3 9193   1.979   3.411  14.025 -1.3942  0.6302 -0.1798
  617MPD2    C4 9194   1.958   3.524  14.102 -0.3303 -0.3544 -0.2421
  617MPD2    C5 9195   2.065   3.607  14.144  0.3359 -0.0827  0.3130
  617MPD2     H 9196   2.136   3.303  13.928  3.2653  1.7971 -1.3406
  617MPD2    H1 9197   1.856   3.543  14.132 -0.8721 -0.5142 -2.0189
  617MPD2    H2 9198   2.265   3.653  14.140 -0.6456 -0.6072  2.1374
  617MPD2    H3 9199   2.032   3.699  14.190  0.0146 -1.1179  2.1269
  617MPD2     N 9200   1.876   3.316  13.993  0.5636  0.6339 -0.1035
  617MPD2    H5 9201   1.783   3.323  14.032  0.8903 -1.1757  1.0015
  617MPD2    N1 9202   2.348   3.423  14.017 -0.2178  0.2551  0.9193
  617MPD2    H7 9203   2.363   3.342  13.958  3.4668  1.1964  0.5183
  618TMC3    C1 9204   2.577   3.400  14.025 -0.5558 -0.4488 -0.4936
  618TMC3    C2 9205   2.653   3.339  14.121 -0.2679  0.0926  0.1555
  618TMC3    C3 9206   2.729   3.238  14.079  0.4413  0.4248 -0.3343
  618TMC3    C4 9207   2.571   3.364  13.893  0.5315 -0.1903  0.3791
  618TMC3    C5 9208   2.644   3.253  13.858  0.4523 -0.2980  0.6470
  618TMC3    C6 9209   2.727   3.191  13.950  0.2356  0.4157  0.2460
  618TMC3     C 9210   2.464   3.466  14.081 -0.3024 -0.5191  0.5580
  618TMC3     O 9211   2.480   3.550  14.167 -0.0913 -0.2067  0.5848
  618TMC3     H 9212   2.668   3.383  14.219  2.1698 -0.6185  0.0992
  618TMC3    H1 9213   2.507   3.411  13.819 -0.2963  0.9300  1.8303
  618TMC3    H2 9214   2.777   3.101  13.915 -1.7460 -0.2676 -0.8365
  618TMC3    C7 9215   2.574   3.169  13.760  1.2184  0.8103  0.4826
  618TMC3    C8 9216   2.823   3.189  14.180  0.0406 -0.5112 -0.0195
  618TMC3    O1 9217   2.461   3.201  13.719  0.0491  0.3698 -0.0445
  618TMC3    O2 9218   2.807   3.219  14.300 -0.5033 -0.1815 -0.3128
  619MPD2     C 9219   3.568   4.344  13.177 -0.4730  0.0624  0.0573
  619MPD2    C1 9220   3.491   4.438  13.109 -0.1047 -0.2520  1.7179
  619MPD2    C2 9221   3.364   4.472  13.155  1.0088  0.2094 -0.6477
  619MPD2    C3 9222   3.317   4.409  13.273 -0.1533  0.3369  0.7493
  619MPD2    C4 9223   3.395   4.320  13.339  0.1016  0.5929  0.3460
  619MPD2    C5 9224   3.520   4.287  13.295 -0.3430 -0.2645 -0.7670
  619MPD2     H 9225   3.315   4.555  13.105 -1.1515 -1.0218 -0.5695
  619MPD2    H1 9226   3.365   4.277  13.434  1.5070  0.1783  0.6054
  619MPD2    H2 9227   3.668   4.322  13.144  0.1092 -0.3124  2.0736
  619MPD2    H3 9228   3.574   4.210  13.348 -1.7238 -1.7549 -1.4871
  619MPD2     N 9229   3.184   4.421  13.323 -0.4895  0.2677 -0.2811
  619MPD2    H5 9230   3.158   4.351  13.392  0.5784 -0.8392 -1.0056
  619MPD2    N1 9231   3.532   4.500  12.988 -0.0591  0.2111  0.5603
  619MPD2    H7 9232   3.467   4.573  12.960  2.1156  0.4807 -3.8421
  620TMC3    C1 9233   3.635   4.566  12.801  0.5079  0.0596 -0.1794
  620TMC3    C2 9234   3.506   4.585  12.752 -0.0040 -0.0855  0.9595
  620TMC3    C3 9235   3.477   4.701  12.692 -0.1783  0.7253 -0.1419
  620TMC3    C4 9236   3.732   4.658  12.791  0.0013 -0.0494 -0.4834
  620TMC3    C5 9237   3.698   0.038  12.728 -0.5530 -0.1437  0.1014
  620TMC3    C6 9238   3.581   0.055  12.664 -0.3615 -0.3640 -0.3866
  620TMC3     C 9239   3.648   4.477  12.916  0.6858  0.7564  0.4363
  620TMC3     O 9240   3.756   4.422  12.940 -0.1475  0.2461  0.3231
  620TMC3     H 9241   3.423   4.515  12.755  1.3282 -1.7310 -0.9348
  620TMC3    H1 9242   3.826   4.649  12.844  0.7096 -1.9970 -2.0787
  620TMC3    H2 9243   3.570   0.147  12.608 -3.6750  0.4038  1.5651
  620TMC3    C7 9244   3.721   0.153  12.803  0.6653 -0.1624  0.1154
  620TMC3    C8 9245   3.378   0.014  12.777  0.5959  0.4542 -0.3487
  620TMC3    O1 9246   3.715   0.259  12.744  0.0904 -0.1281  0.4653
  620TMC3    O2 9247   3.361   4.689  12.881  0.2292 -0.4178  0.1430
  621MPD2     C 9248   3.913   0.176   9.669 -0.6799  0.2760 -1.0517
  621MPD2    C1 9249   4.043   0.163   9.720 -0.5450 -0.3447  0.2205
  621MPD2    C2 9250   4.142   0.244   9.673 -0.3745  0.1798  0.5743
  621MPD2    C3 9251   4.117   0.351   9.590  0.1813  0.2984 -0.1051
  621MPD2    C4 9252   3.987   0.364   9.541 -0.1762  0.4605 -0.0230
  621MPD2    C5 9253   3.891   0.275   9.575  0.0540 -0.0898  0.5974
  621MPD2     H 9254   4.241   0.230   9.715 -1.0177 -2.9914  1.0526
  621MPD2    H1 9255   3.968   0.434   9.461  0.3834  0.2677 -0.3231
  621MPD2    H2 9256   3.835   0.109   9.702  0.2690 -0.4620 -0.2887
  621MPD2    H3 9257   3.793   0.283   9.528 -0.2917  3.2972  1.9362
  621MPD2     N 9258   4.227   0.435   9.555  0.0969 -0.0375  0.0064
  621MPD2    H5 9259   4.315   0.420   9.602  1.4019  2.0954 -1.7590
  621MPD2    N1 9260   4.080   0.056   9.811  0.1234  0.6346 -0.4570
  621MPD2    H7 9261   4.176   0.059   9.844 -0.0674 -1.8494  0.3566
  622TMC3    C1 9262   4.089   4.595   9.923  0.9741 -0.0641 -0.0434
  622TMC3    C2 9263   4.141   4.660  10.036 -0.3696 -0.8113  0.2405
  622TMC3    C3 9264   4.177   4.585  10.146 -0.1593 -0.6354 -0.3370
  622TMC3    C4 9265   4.073   4.463   9.920 -0.5014  0.0388 -0.2590
  622TMC3    C5 9266   4.103   4.392  10.036  0.0216  0.1242 -0.3059
  622TMC3    C6 9267   4.159   4.446  10.148  0.0302  0.1635  0.5892
  622TMC3     C 9268   4.012   4.671   9.829  0.9112 -0.5295 -0.1340
  622TMC3     O 9269   3.916   4.619   9.770  0.0540  0.2866  0.5462
  622TMC3     H 9270   4.128   0.030  10.041  0.6912 -0.6891  0.3349
  622TMC3    H1 9271   4.016   4.418   9.839  0.1447 -1.9833  0.4190
  622TMC3    H2 9272   4.164   4.391  10.242 -0.5334 -0.4147  0.2824
  622TMC3    C7 9273   4.065   4.253  10.038  0.3591 -0.0811  0.7847
  622TMC3    C8 9274   4.195   4.645  10.274 -0.2697  0.1421  0.0364
  622TMC3    O1 9275   4.055   4.216  10.158  0.2291  0.4649  0.0152
  622TMC3    O2 9276   4.257   4.581  10.359 -0.0497  0.1718  0.0499
  623MPD2     C 9277   2.717   1.016  15.634 -0.7582 -0.1606 -0.1463
  623MPD2    C1 9278   2.631   1.024  15.742  0.3357  0.0025  1.3153
  623MPD2    C2 9279   2.660   1.129  15.826  0.1044 -0.3167 -0.3266
  623MPD2    C3 9280   2.762   1.221  15.811  0.2381  0.8217 -0.2923
  623MPD2    C4 9281   2.841   1.209  15.698 -1.4081  0.4053  0.6193
  623MPD2    C5 9282   2.814   1.105  15.615  0.2506 -0.8737 -0.0311
  623MPD2     H 9283   2.598   1.146  15.913 -0.0633  0.7901 -0.6516
  623MPD2    H1 9284   2.924   1.274  15.675 -0.8117 -0.6092 -0.0861
  623MPD2    H2 9285   2.719   0.933  15.565  1.5900  0.0062 -0.2733
  623MPD2    H3 9286   2.876   1.088  15.528 -1.1472 -0.0086 -1.1997
  623MPD2     N 9287   2.785   1.311  15.920 -0.1871  0.2322 -0.1187
  623MPD2    H5 9288   2.745   1.291  16.010  0.1307  0.7058  0.1313
  623MPD2    N1 9289   2.542   0.915  15.761 -0.8018 -0.1306  1.1264
  623MPD2    H7 9290   2.530   0.854  15.681  0.0742 -1.7989  2.2613
  624TMC3    C1 9291   2.960   1.442  16.281  0.4279 -0.2413  0.2371
  624TMC3    C2 9292   2.849   1.485  16.340  0.2969 -0.1503 -0.2389
  624TMC3    C3 9293   2.737   1.514  16.259  0.2598  0.3565  0.6408
  624TMC3    C4 9294   2.973   1.432  16.147 -0.2859  0.1884  0.5938
  624TMC3    C5 9295   2.860   1.467  16.067 -1.2160 -0.6745 -0.0843
  624TMC3    C6 9296   2.739   1.497  16.122 -0.0218  0.4179  0.8457
  624TMC3     C 9297   3.062   1.391  16.379  0.6577  0.1528 -0.5471
  624TMC3     O 9298   3.056   1.433  16.497  0.1291  0.0816 -0.1574
  624TMC3     H 9299   2.840   1.493  16.447 -0.1958 -0.2550 -0.2713
  624TMC3    H1 9300   3.059   1.395  16.092 -0.9903 -0.9248  0.2541
  624TMC3    H2 9301   2.649   1.515  16.064 -0.1858  0.7390  1.2017
  624TMC3    C7 9302   2.864   1.420  15.926 -0.0528  0.2562  0.5003
  624TMC3    C8 9303   2.607   1.496  16.331 -0.5718 -0.6775 -0.0070
  624TMC3    O1 9304   2.949   1.463  15.844 -0.7474  0.0972 -0.1466
  624TMC3    O2 9305   2.525   1.425  16.278 -0.3474  0.0865 -0.0802
  625MPD2     C 9306   2.927   2.230   0.545  0.2698 -0.2037 -0.9432
  625MPD2    C1 9307   2.965   2.358   0.574  0.2849 -0.1337 -0.7188
  625MPD2    C2 9308   3.062   2.371   0.679  0.0132  0.3651  0.2436
  625MPD2    C3 9309   3.091   2.268   0.764 -0.1413 -0.1405  0.2902
  625MPD2    C4 9310   3.052   2.138   0.724  0.0133 -0.0463  0.4221
  625MPD2    C5 9311   2.972   2.123   0.616  0.9212  0.4357 -0.8333
  625MPD2     H 9312   3.074   2.468   0.726  0.2827  0.3252  0.2589
  625MPD2    H1 9313   3.083   2.047   0.775  0.2521 -0.3317 -0.2294
  625MPD2    H2 9314   2.861   2.203   0.463  1.4162 -0.6806 -1.7152
  625MPD2    H3 9315   2.935   2.025   0.591 -1.7723  1.5981 -1.3941
  625MPD2     N 9316   3.166   2.292   0.882 -0.0467  0.2111 -0.4345
  625MPD2    H5 9317   3.196   2.386   0.904 -1.6462  0.7295 -0.4841
  625MPD2    N1 9318   2.907   2.475   0.516 -0.0311  0.5693 -0.5681
  625MPD2    H7 9319   2.930   2.560   0.565  2.0605  0.7494 -1.8516
  626TMC3    C1 9320   2.728   2.592   0.431  0.9626 -1.1019 -0.0422
  626TMC3    C2 9321   2.662   2.617   0.318  0.4625  0.1513  0.3491
  626TMC3    C3 9322   2.550   2.695   0.327  0.1476 -0.0287 -1.4457
  626TMC3    C4 9323   2.690   2.637   0.560 -0.4735 -0.1745 -0.5314
  626TMC3    C5 9324   2.582   2.723   0.558 -0.3318 -0.2958 -1.0978
  626TMC3    C6 9325   2.508   2.752   0.442  0.4957  0.4579  0.4676
  626TMC3     C 9326   2.810   2.474   0.424  0.4638  0.4546  0.3897
  626TMC3     O 9327   2.780   2.392   0.338 -0.4578 -0.1731 -0.0446
  626TMC3     H 9328   2.699   2.576   0.224 -2.7329 -0.6518 -0.5665
  626TMC3    H1 9329   2.742   2.612   0.652 -0.6697 -1.0536 -0.6599
  626TMC3    H2 9330   2.417   2.809   0.454 -0.6158 -1.0428 -0.8522
  626TMC3    C7 9331   2.530   2.739   0.693  0.3717  1.1860  0.5114
  626TMC3    C8 9332   2.474   2.700   0.202  0.1169  0.1204  0.3339
  626TMC3    O1 9333   2.606   2.736   0.787 -0.4662 -0.5189  0.1922
  626TMC3    O2 9334   2.533   2.705   0.096 -0.2088 -0.7015 -0.1834
  627MPD2     C 9335   1.499   2.423  14.437 -0.2038  0.0379 -0.4066
  627MPD2    C1 9336   1.524   2.385  14.568 -0.3018  0.1903  0.4410
  627MPD2    C2 9337   1.460   2.286  14.625  0.2624 -0.0813  0.0327
  627MPD2    C3 9338   1.378   2.203  14.556  0.2782  0.5935  0.1394
  627MPD2    C4 9339   1.368   2.231  14.421 -0.5053  0.4964  0.2861
  627MPD2    C5 9340   1.421   2.346  14.361 -0.3570  0.1208 -0.2526
  627MPD2     H 9341   1.472   2.260  14.730  2.4657  0.1303 -0.1704
  627MPD2    H1 9342   1.309   2.172  14.352 -1.0547  0.9919  0.3346
  627MPD2    H2 9343   1.545   2.507  14.387 -1.3258  1.4486  0.9236
  627MPD2    H3 9344   1.401   2.364  14.256  0.8862 -2.9534 -1.0275
  627MPD2     N 9345   1.340   2.085  14.613 -0.0750 -0.5279 -0.1604
  627MPD2    H5 9346   1.362   2.062  14.709 -1.8749  0.2851  0.4402
  627MPD2    N1 9347   1.614   2.468  14.641 -0.3061 -0.1818 -0.3617
  627MPD2    H7 9348   1.622   2.564  14.609  0.3360 -0.2726 -0.4771
  628TMC3    C1 9349   1.751   2.551  14.809 -0.7542 -1.0095  0.2056
  628TMC3    C2 9350   1.831   2.524  14.911 -0.4985  0.8051  0.1611
  628TMC3    C3 9351   1.868   2.626  14.999  0.2064  0.3357 -0.2589
  628TMC3    C4 9352   1.705   2.679  14.784  1.0345  0.2849  0.0045
  628TMC3    C5 9353   1.746   2.781  14.867 -0.2953 -0.0533  0.0881
  628TMC3    C6 9354   1.816   2.756  14.987  0.1588 -0.0674 -0.8386
  628TMC3     C 9355   1.675   2.440  14.761 -0.2830 -0.5197  0.4275
  628TMC3     O 9356   1.682   2.330  14.813 -0.5390 -0.4688  0.2449
  628TMC3     H 9357   1.875   2.425  14.920  1.5559  1.7928  1.0494
  628TMC3    H1 9358   1.622   2.700  14.719  0.0530  0.1478  1.2118
  628TMC3    H2 9359   1.848   2.836  15.053 -3.1490  0.1571  0.5127
  628TMC3    C7 9360   1.687   2.908  14.844  0.0238 -0.3355 -0.3581
  628TMC3    C8 9361   1.980   2.607  15.096 -0.6987 -0.0964 -0.2868
  628TMC3    O1 9362   1.677   2.991  14.934  1.1139  0.1042 -0.2908
  628TMC3    O2 9363   2.042   2.503  15.100 -0.1649 -0.3333  0.1157
  629MPD2     C 9364   4.584   1.291  16.219 -0.1964  0.9379  0.0108
  629MPD2    C1 9365   4.634   1.201  16.302  0.2934 -0.0443 -0.2441
  629MPD2    C2 9366   4.573   1.076  16.310 -0.5273 -0.7300 -0.0564
  629MPD2    C3 9367   4.466   1.045  16.228  0.2188 -0.7756 -0.0138
  629MPD2    C4 9368   4.414   1.142  16.151  0.1673  0.1500  0.1173
  629MPD2    C5 9369   4.471   1.263  16.147 -0.1527  0.4140 -0.1788
  629MPD2     H 9370   4.614   1.000  16.376  0.0058 -0.9577 -0.6630
  629MPD2    H1 9371   4.320   1.134  16.097 -0.4938  0.4896  1.2050
  629MPD2    H2 9372   4.618   1.394  16.207  1.3425  0.2375 -1.6025
  629MPD2    H3 9373   4.422   1.343  16.093 -3.0069 -1.0121  0.2968
  629MPD2     N 9374   4.404   0.920  16.237  0.1009  0.3426  0.3791
  629MPD2    H5 9375   4.444   0.853  16.301  2.0363 -0.7189 -1.9456
  629MPD2    N1 9376   0.011   1.232  16.372  0.1585 -0.0149  0.3305
  629MPD2    H7 9377   0.059   1.318  16.348 -0.4330  0.4652  0.8684
  630TMC3    C1 9378   0.199   1.175  16.497 -0.9941 -0.0581  0.0756
  630TMC3    C2 9379   0.283   1.204  16.388 -0.1895  0.2654 -0.3593
  630TMC3    C3 9380   0.421   1.196  16.404  0.3495 -0.4854  0.7044
  630TMC3    C4 9381   0.245   1.108  16.604 -0.5581  0.1187  0.3036
  630TMC3    C5 9382   0.379   1.089  16.613  0.6261  0.4213  0.1715
  630TMC3    C6 9383   0.468   1.143  16.520  0.4541 -0.0878 -0.2376
  630TMC3     C 9384   0.065   1.147  16.462  0.3711  0.2105 -0.2664
  630TMC3     O 9385   0.018   1.052  16.524  0.2311  0.5053  0.3218
  630TMC3     H 9386   0.240   1.224  16.291 -1.3215 -0.7312 -0.0614
  630TMC3    H1 9387   0.190   1.082  16.693 -0.9309 -1.3935 -0.3594
  630TMC3    H2 9388   0.575   1.125  16.532  0.4443 -1.6536 -2.5829
  630TMC3    C7 9389   0.431   1.092  16.750 -0.2450 -0.7985  0.4871
  630TMC3    C8 9390   0.520   1.261  16.315 -0.0352 -0.6390 -0.7550
  630TMC3    O1 9391   0.374   1.017  16.826  0.4391 -0.1814 -0.1010
  630TMC3    O2 9392   0.628   1.282  16.366  0.1524  0.4140  0.6070
  631MPD2     C 9393   2.943   1.227  15.305  0.5089 -0.0927 -0.0545
  631MPD2    C1 9394   3.041   1.309  15.340 -0.1998  0.2235 -0.0555
  631MPD2    C2 9395   3.169   1.270  15.341 -0.0116 -1.0239 -0.1503
  631MPD2    C3 9396   3.202   1.142  15.314 -0.3189 -0.7259  0.1321
  631MPD2    C4 9397   3.102   1.057  15.260  0.3708  0.3614  0.3301
  631MPD2    C5 9398   2.971   1.101  15.258  0.2346  0.5250  0.3348
  631MPD2     H 9399   3.248   1.343  15.356  0.4774 -1.2792 -1.5033
  631MPD2    H1 9400   3.117   0.957  15.221  1.2322  0.5213  0.2493
  631MPD2    H2 9401   2.840   1.262  15.312 -0.3820 -2.6564 -0.2252
  631MPD2    H3 9402   2.886   1.046  15.221 -0.6864  0.8535  1.9680
  631MPD2     N 9403   3.340   1.108  15.319  0.2448  0.2854  0.4346
  631MPD2    H5 9404   3.402   1.189  15.318  1.0104 -0.2443  2.8403
  631MPD2    N1 9405   3.008   1.449  15.357  0.0310 -0.4911  0.4497
  631MPD2    H7 9406   2.914   1.483  15.344  0.1322  0.0257  1.0562
  632TMC3    C1 9407   3.058   1.673  15.316 -1.1997  0.6388 -0.0511
  632TMC3    C2 9408   2.923   1.668  15.306  0.0288 -0.3301  0.3448
  632TMC3    C3 9409   2.868   1.693  15.183 -0.5424  0.0513 -0.1486
  632TMC3    C4 9410   3.139   1.687  15.209  0.2395 -0.8497  0.2532
  632TMC3    C5 9411   3.080   1.685  15.088  0.1086 -0.4891  0.3048
  632TMC3    C6 9412   2.947   1.692  15.071 -0.0635  0.0216  0.8247
  632TMC3     C 9413   3.094   1.553  15.385  0.2235 -0.2418  0.1329
  632TMC3     O 9414   3.209   1.549  15.418  0.2530 -0.9114  0.4496
  632TMC3     H 9415   2.857   1.688  15.390  2.2368  2.7883  1.3523
  632TMC3    H1 9416   3.243   1.716  15.223  0.4273 -2.4216  1.9864
  632TMC3    H2 9417   2.915   1.704  14.968  1.9597  0.2793  0.2280
  632TMC3    C7 9418   3.145   1.605  14.981  0.3545  0.4173 -0.0318
  632TMC3    C8 9419   2.739   1.631  15.178 -0.3377 -0.8631 -0.4548
  632TMC3    O1 9420   3.075   1.551  14.892  0.0594  0.1462 -0.0787
  632TMC3    O2 9421   2.721   1.555  15.272  0.5962 -0.8403 -0.1807
  633MPD2     C 9422   2.208   3.941  17.741 -0.5031  0.3998  0.2606
  633MPD2    C1 9423   2.265   3.860  17.646  0.1040 -0.3092  0.1041
  633MPD2    C2 9424   2.258   3.721  17.655  0.6261 -0.2200 -0.0738
  633MPD2    C3 9425   2.210   3.670   0.024  0.2630  0.2095  0.4868
  633MPD2    C4 9426   2.157   3.751   0.118  0.3509 -0.2081 -0.2406
  633MPD2    C5 9427   2.148   3.885   0.105 -0.9427 -0.0274 -0.7322
  633MPD2     H 9428   2.291   3.661  17.571 -1.5442  0.8661 -1.7165
  633MPD2    H1 9429   2.118   3.716   0.213 -0.8082 -0.4535 -0.8170
  633MPD2    H2 9430   2.202   4.047  17.719  1.3477  0.5605  0.5181
  633MPD2    H3 9431   2.101   3.943   0.183 -1.6185 -2.1506  0.4555
  633MPD2     N 9432   2.230   3.532   0.054 -0.3952  1.0756 -0.1835
  633MPD2    H5 9433   2.210   3.499   0.148 -1.4718 -0.4064 -0.9242
  633MPD2    N1 9434   2.346   3.912  17.543  0.4819 -0.7958 -0.3425
  633MPD2    H7 9435   2.381   3.835  17.487  0.6648 -2.6272  2.2321
  634TMC3    C1 9436   2.451   4.055  17.391  0.2550  0.1467  1.1885
  634TMC3    C2 9437   2.552   3.964  17.361  0.5244 -0.3345 -0.4927
  634TMC3    C3 9438   2.636   3.985  17.252  0.2130 -0.0579 -0.0813
  634TMC3    C4 9439   2.442   4.178  17.325  0.3385 -0.2614 -0.4684
  634TMC3    C5 9440   2.518   4.196  17.215  0.6969 -0.2769 -0.0201
  634TMC3    C6 9441   2.614   4.108  17.178 -0.3081 -0.8171 -0.1134
  634TMC3     C 9442   2.382   4.046  17.518 -0.1515  1.5258 -0.4202
  634TMC3     O 9443   2.371   4.150  17.590  0.2071 -0.5548  0.2805
  634TMC3     H 9444   2.550   3.872  17.418  1.7285  0.0118  0.1058
  634TMC3    H1 9445   2.360   4.241  17.357  2.7856  1.1086  3.0526
  634TMC3    H2 9446   2.662   4.120  17.081  1.1974  0.2805  0.7614
  634TMC3    C7 9447   2.491   4.313  17.130 -0.3216 -0.0731 -0.2716
  634TMC3    C8 9448   2.670   3.869  17.178 -0.4645 -0.1053  0.6726
  634TMC3    O1 9449   2.539   4.306  17.015 -0.2750 -0.2067 -0.4827
  634TMC3    O2 9450   2.633   3.763  17.231  0.2384 -0.0986 -0.2405
  635TMC3    C1 9451   2.740   0.159   0.632  0.0088  0.4351  0.8609
  635TMC3    C2 9452   2.716   0.077   0.524  0.1205  0.1722 -0.4333
  635TMC3    C3 9453   2.639   4.702   0.543  0.1825 -0.0907 -1.2636
  635TMC3    C4 9454   2.706   0.121   0.757 -0.3801  0.4867 -0.4082
  635TMC3    C5 9455   2.639   0.001   0.775 -0.8332  0.6462 -0.4327
  635TMC3    C6 9456   2.595   4.668   0.671 -0.0070  0.4868 -0.2021
  635TMC3     C 9457   2.759   0.301   0.614  0.3403  0.5449  0.2730
  635TMC3     O 9458   2.800   0.362   0.708  0.1641 -0.2746 -0.0266
  635TMC3     H 9459   2.759   0.104   0.429 -0.9928  0.4218 -0.8690
  635TMC3    H1 9460   2.735   0.177   0.845 -0.0105  1.0080 -0.8614
  635TMC3    H2 9461   2.526   4.586   0.691  0.4167 -0.4447 -2.5588
  635TMC3    C7 9462   2.570   4.732   0.899 -0.2384  0.3352  1.2812
  635TMC3    C8 9463   2.618   4.609   0.430 -0.9157 -0.0472  0.4491
  635TMC3    O1 9464   2.545   0.100   0.961  0.0262 -0.5441 -0.0217
  635TMC3    O2 9465   2.687   4.634   0.333 -0.0705  0.2550 -0.2223
  636MPD2     C 9466   3.464   4.544  16.696 -0.2828 -0.0720  0.5795
  636MPD2    C1 9467   3.550   4.527  16.587 -0.0907 -0.0194 -0.0899
  636MPD2    C2 9468   3.641   4.429  16.597  0.2955  0.5900 -0.1373
  636MPD2    C3 9469   3.667   4.367  16.722  0.2500 -0.2736 -1.2970
  636MPD2    C4 9470   3.583   4.390  16.830  0.2406  0.3861 -0.3781
  636MPD2    C5 9471   3.486   4.485  16.816 -0.2103 -0.5019 -0.6371
  636MPD2     H 9472   3.704   4.395  16.515  0.1184 -0.2550  0.0760
  636MPD2    H1 9473   3.580   4.323  16.915  0.8498  1.7875  0.7420
  636MPD2    H2 9474   3.381   4.615  16.699 -0.2590  0.1169 -3.0572
  636MPD2    H3 9475   3.405   4.487  16.888  0.6707  1.2918  0.2977
  636MPD2     N 9476   3.761   4.265  16.736  0.4961  0.3330  0.0364
  636MPD2    H5 9477   3.792   4.225  16.648 -0.8515  0.2569 -0.4025
  636MPD2    N1 9478   3.541   4.595  16.464  0.2844 -0.4141  0.2089
  636MPD2    H7 9479   3.603   4.577  16.386  1.4089 -0.3484  1.0921
  637TMC3    C1 9480   3.865   4.076  16.833 -0.3360 -0.0410  0.1380
  637TMC3    C2 9481   3.970   4.047  16.914  0.2928 -0.2529 -0.3565
  637TMC3    C3 9482   4.026   3.922  16.890  0.3232  0.2977  0.2315
  637TMC3    C4 9483   3.809   3.992  16.735  0.0019 -0.2680  0.2271
  637TMC3    C5 9484   3.862   3.869  16.724  0.4136  0.4974  0.1654
  637TMC3    C6 9485   3.971   3.839  16.799  0.0543 -0.2228 -0.7190
  637TMC3     C 9486   3.804   4.209  16.857  0.4647 -1.2432  0.4309
  637TMC3     O 9487   3.802   4.246  16.973  0.7662 -0.0958  0.1619
  637TMC3     H 9488   4.026   4.127  16.961 -2.7368  1.8645 -0.3245
  637TMC3    H1 9489   3.722   4.025  16.680 -0.1475  1.2170  1.3583
  637TMC3    H2 9490   3.988   3.732  16.810  0.8632  0.0321  0.5414
  637TMC3    C7 9491   3.878   3.824  16.592 -0.2526 -0.8238 -0.5797
  637TMC3    C8 9492   4.167   3.934  16.856  0.8226  0.3194  0.6415
  637TMC3    O1 9493   3.795   3.836  16.503  0.2685  0.1615 -0.4994
  637TMC3    O2 9494   4.202   3.859  16.767 -0.1566  0.2682  0.2188
  638MPD2     C 9495   3.718   2.867  14.751 -0.3603 -0.9843  0.2006
  638MPD2    C1 9496   3.722   2.742  14.687  0.4818 -0.0222 -0.7929
  638MPD2    C2 9497   3.665   2.635  14.749  0.0030  0.5079 -0.0092
  638MPD2    C3 9498   3.612   2.645  14.878 -0.2350 -0.7323  0.3501
  638MPD2    C4 9499   3.599   2.773  14.928 -0.5140 -0.2750 -0.2605
  638MPD2    C5 9500   3.645   2.881  14.864 -0.1181 -0.6515 -0.2491
  638MPD2     H 9501   3.674   2.538  14.700 -0.5969  0.2308  0.4258
  638MPD2    H1 9502   3.550   2.792  15.023 -1.3258 -1.3268 -0.4724
  638MPD2    H2 9503   3.759   2.957  14.705  1.9027 -1.7427  0.7169
  638MPD2    H3 9504   3.628   2.979  14.908  1.8410 -0.2879 -0.2822
  638MPD2     N 9505   3.564   2.529  14.946 -0.2374  0.7536 -0.6868
  638MPD2    H5 9506   3.591   2.441  14.902 -1.4939  0.0678 -0.0871
  638MPD2    N1 9507   3.767   2.718  14.561  0.6724  0.0814  0.7305
  638MPD2    H7 9508   3.767   2.624  14.523 -2.8287  0.0417  0.7711
  639TMC3    C1 9509   3.462   2.385  15.085  0.4954 -0.6558 -0.3526
  639TMC3    C2 9510   3.437   2.320  14.966  0.2319  0.3896  0.0735
  639TMC3    C3 9511   3.529   2.221  14.928  0.3393  0.1189  0.0384
  639TMC3    C4 9512   3.566   2.343  15.169  0.5580 -0.5315  0.3029
  639TMC3    C5 9513   3.656   2.253  15.125  0.8358  0.5182 -0.0522
  639TMC3    C6 9514   3.646   2.193  15.003 -0.5089 -0.4985 -0.3262
  639TMC3     C 9515   3.493   2.521  15.062  0.1336  0.4966 -0.9137
  639TMC3     O 9516   3.481   2.605  15.149 -0.2924  0.0688 -0.6205
  639TMC3     H 9517   3.346   2.337  14.910  0.0670 -1.4000 -0.2153
  639TMC3    H1 9518   3.577   2.396  15.263 -1.9725 -1.9017  1.3995
  639TMC3    H2 9519   3.714   2.114  14.973 -0.8311 -0.2981 -1.5875
  639TMC3    C7 9520   3.767   2.230  15.211 -0.6515 -0.9853  0.1891
  639TMC3    C8 9521   3.490   2.132  14.830  0.5563  0.0804 -0.4037
  639TMC3    O1 9522   3.736   2.230  15.329  0.2629  0.7230 -0.2892
  639TMC3    O2 9523   3.582   2.077  14.776  0.0203 -0.4742 -0.0720
  640MPD2     C 9524   0.092   1.542   9.490 -0.5733 -0.2798  0.9468
  640MPD2    C1 9525   4.698   1.519   9.452 -0.4391 -0.8217  1.0068
  640MPD2    C2 9526   4.588   1.570   9.521  0.2063  0.5913 -0.4642
  640MPD2    C3 9527   4.603   1.631   9.646  0.1880 -0.4962 -0.0150
  640MPD2    C4 9528   4.736   1.651   9.680  0.3936  0.0473 -0.0815
  640MPD2    C5 9529   0.104   1.598   9.610  0.0276 -0.1319 -0.4153
  640MPD2     H 9530   4.486   1.561   9.486  0.1664 -1.1576  0.1514
  640MPD2    H1 9531   0.037   1.702   9.768  1.1768 -0.4809 -0.1109
  640MPD2    H2 9532   0.176   1.502   9.436 -2.0323  0.0522 -1.5762
  640MPD2    H3 9533   0.203   1.619   9.648 -0.5330  0.0338  0.9269
  640MPD2     N 9534   4.497   1.677   9.733 -0.4552  0.8896  0.3074
  640MPD2    H5 9535   4.522   1.728   9.817  0.5978  1.1635 -0.1677
  640MPD2    N1 9536   4.691   1.450   9.326 -0.0217  0.6455 -0.2680
  640MPD2    H7 9537   0.039   1.413   9.288  0.2772  0.5111  0.5414
  641TMC3    C1 9538   4.591   1.364   9.135  0.3224 -0.3478  1.0972
  641TMC3    C2 9539   4.664   1.253   9.158 -0.5884  0.0272  0.0773
  641TMC3    C3 9540   4.668   1.164   9.051  0.1678  0.4506 -0.2772
  641TMC3    C4 9541   4.520   1.394   9.021  0.4805 -0.0007  0.4003
  641TMC3    C5 9542   4.515   1.297   8.927 -0.1215 -0.2733 -0.8958
  641TMC3    C6 9543   4.587   1.182   8.940 -0.3627  0.8671 -0.1652
  641TMC3     C 9544   4.576   1.447   9.247 -0.5019  0.2129  0.3586
  641TMC3     O 9545   4.483   1.523   9.261 -0.6600  0.4271  0.2207
  641TMC3     H 9546   4.686   1.223   9.260  0.8071  2.2733  0.4240
  641TMC3    H1 9547   4.478   1.493   9.007  1.5202  0.2569 -0.8505
  641TMC3    H2 9548   4.579   1.104   8.864 -0.1912  1.8595 -1.2049
  641TMC3    C7 9549   4.438   1.314   8.810 -0.2650  0.2469 -0.0075
  641TMC3    C8 9550   0.017   1.054   9.051  0.5545  0.2575 -0.4955
  641TMC3    O1 9551   4.476   1.245   8.719  0.2953 -0.1088 -0.1087
  641TMC3    O2 9552   4.723   0.968   8.969 -0.0219  0.0836  0.2952
  642TMC3    C1 9553   0.544   2.313  12.247  0.0137  0.2437  0.5708
  642TMC3    C2 9554   0.667   2.343  12.302  0.6669 -0.3302  0.6019
  642TMC3    C3 9555   0.747   2.237  12.349 -0.2449  0.2241 -0.2716
  642TMC3    C4 9556   0.492   2.182  12.267  0.2232  0.7440  0.3899
  642TMC3    C5 9557   0.573   2.085  12.324  0.4064  0.1570  0.1694
  642TMC3    C6 9558   0.704   2.106  12.356 -0.2370 -0.1119 -0.1492
  642TMC3     C 9559   0.451   2.419  12.210  0.0582  1.3220  0.0485
  642TMC3     O 9560   0.353   2.398  12.137  0.1283  0.6235  0.4291
  642TMC3     H 9561   0.713   2.437  12.272  0.0383  0.2830  1.5481
  642TMC3    H1 9562   0.389   2.158  12.248  0.9535 -1.2072 -1.0731
  642TMC3    H2 9563   0.773   2.036  12.401  0.3559 -1.1647 -2.6852
  642TMC3    C7 9564   0.514   1.960  12.333 -0.0161  0.2835 -0.1120
  642TMC3    C8 9565   0.877   2.259  12.409  0.4562 -0.6469  0.1394
  642TMC3    O1 9566   0.411   1.941  12.272 -0.3465 -0.3727 -0.2484
  642TMC3    O2 9567   0.943   2.166  12.450  0.1648 -0.3315  0.6105
  643TMC3    C1 9568   4.281   1.474   0.505 -0.3712 -0.2003 -0.4211
  643TMC3    C2 9569   4.150   1.459   0.474  0.6870  0.5109  0.1003
  643TMC3    C3 9570   4.118   1.480   0.340  0.4775 -1.2014 -0.3554
  643TMC3    C4 9571   4.381   1.508   0.417 -0.5740  0.1951  0.2636
  643TMC3    C5 9572   4.340   1.527   0.289  0.6158 -0.3143 -0.6906
  643TMC3    C6 9573   4.210   1.515   0.246  0.2942  0.1105  0.3249
  643TMC3     C 9574   4.317   1.452   0.641 -0.0819 -0.9380 -0.2265
  643TMC3     O 9575   4.242   1.377   0.702  0.4567  0.0293  0.7531
  643TMC3     H 9576   4.070   1.444   0.546  1.5913 -0.7936  0.8195
  643TMC3    H1 9577   4.486   1.496   0.441 -0.4022 -0.9583 -1.0663
  643TMC3    H2 9578   4.174   1.520   0.144 -3.4035 -0.6108  1.6137
  643TMC3    C7 9579   4.430   1.552   0.174 -0.4699 -0.7029  0.5763
  643TMC3    C8 9580   3.988   1.538   0.333  0.0963 -0.6055 -0.1220
  643TMC3    O1 9581   4.379   1.549   0.063  0.9255 -0.6671  0.1270
  643TMC3    O2 9582   3.904   1.496   0.412  0.0704  0.1105  0.9565
  644MPD2     C 9583   4.420   1.753   8.902  0.8033 -0.2217 -0.3808
  644MPD2    C1 9584   4.493   1.790   9.010  0.5429  0.2647  0.3638
  644MPD2    C2 9585   4.438   1.875   9.105 -0.3232 -0.2173  0.3320
  644MPD2    C3 9586   4.314   1.931   9.085  0.2684  0.5217  1.0646
  644MPD2    C4 9587   4.238   1.903   8.970  0.2001  0.0485 -0.0137
  644MPD2    C5 9588   4.297   1.808   8.884 -0.0311 -0.2058  0.2143
  644MPD2     H 9589   4.482   1.880   9.205  0.8981  1.1139 -0.2597
  644MPD2    H1 9590   4.144   1.948   8.941 -1.1196 -0.9160  2.7405
  644MPD2    H2 9591   4.464   1.689   8.826  0.1383 -0.6251 -0.4259
  644MPD2    H3 9592   4.241   1.777   8.797  0.2774  0.1232 -0.0998
  644MPD2     N 9593   4.261   2.009   9.184 -0.1917  0.0582 -0.4903
  644MPD2    H5 9594   4.325   2.029   9.260 -0.2190 -1.2522 -0.1072
  644MPD2    N1 9595   4.622   1.730   9.017 -0.6747 -0.2764  0.1880
  644MPD2    H7 9596   4.654   1.682   8.934 -3.0230 -0.2802 -0.6919
  645TMC3    C1 9597   4.102   2.143   9.303  0.7430  0.5726 -0.0299
  645TMC3    C2 9598   4.200   2.242   9.327  0.1770  0.0948 -0.0018
  645TMC3    C3 9599   4.172   2.338   9.423  0.0585  0.7793  0.4528
  645TMC3    C4 9600   3.977   2.153   9.357 -0.2537  0.3838  0.3525
  645TMC3    C5 9601   3.965   2.249   9.452 -0.6435  0.5736  0.3581
  645TMC3    C6 9602   4.052   2.346   9.485 -0.2923  0.0100 -0.3723
  645TMC3     C 9603   4.125   2.047   9.193  0.4899  0.2580 -0.6641
  645TMC3     O 9604   4.024   2.022   9.125  0.0053 -0.2432 -0.1940
  645TMC3     H 9605   4.291   2.235   9.268  1.0162 -1.2339  1.4709
  645TMC3    H1 9606   3.915   2.065   9.347 -1.2266  1.1788 -0.7149
  645TMC3    H2 9607   4.034   2.409   9.572 -1.2572  2.0065 -2.0297
  645TMC3    C7 9608   3.847   2.233   9.542  0.2724  1.1055  0.0954
  645TMC3    C8 9609   4.270   2.440   9.451  0.5281  0.2559 -0.1572
  645TMC3    O1 9610   3.854   2.280   9.654  0.2930  0.2236  0.3958
  645TMC3    O2 9611   4.226   2.550   9.488  0.5329  0.1045  0.1421
  646MPD2     C 9612   4.233   1.465  14.612  0.2394 -0.4125  0.6192
  646MPD2    C1 9613   4.121   1.450  14.684 -0.0081  0.5870  0.6052
  646MPD2    C2 9614   3.999   1.463  14.618 -0.0990  0.1566 -0.1342
  646MPD2    C3 9615   3.992   1.486  14.484 -0.2057 -0.6645  0.5934
  646MPD2    C4 9616   4.112   1.501  14.419  0.3569 -0.4825  0.6378
  646MPD2    C5 9617   4.231   1.485  14.481  0.1373  0.1835  0.3563
  646MPD2     H 9618   3.907   1.455  14.675 -1.5616 -2.8225 -2.9081
  646MPD2    H1 9619   4.113   1.519  14.313 -0.6447  1.5798  0.9702
  646MPD2    H2 9620   4.334   1.465  14.652  0.5837  1.1858 -0.2429
  646MPD2    H3 9621   4.322   1.497  14.422  0.8777  0.6896  1.5986
  646MPD2     N 9622   3.862   1.497  14.424  0.0771 -0.2368 -0.0844
  646MPD2    H5 9623   3.792   1.449  14.479  0.6157  0.2881  1.0710
  646MPD2    N1 9624   4.130   1.415  14.824  0.0970 -0.7586 -0.2176
  646MPD2    H7 9625   4.225   1.420  14.861 -0.1708 -2.1425  0.6419
  647TMC3    C1 9626   4.061   1.348  15.038 -0.0821  0.0472 -0.4369
  647TMC3    C2 9627   3.986   1.258  15.104  0.4015  0.4495 -0.0640
  647TMC3    C3 9628   3.998   1.234  15.239 -0.2902  0.1202  0.3727
  647TMC3    C4 9629   4.173   1.400  15.101  0.2442  0.4777 -0.0500
  647TMC3    C5 9630   4.189   1.364  15.233 -0.3643 -0.1506  0.2809
  647TMC3    C6 9631   4.104   1.286  15.303 -0.0491 -0.2090 -0.1624
  647TMC3     C 9632   4.021   1.395  14.906 -0.0863 -0.2796  0.4388
  647TMC3     O 9633   3.904   1.412  14.890  0.0045  0.4381  0.9780
  647TMC3     H 9634   3.897   1.224  15.054  0.9416 -2.6809  1.0591
  647TMC3    H1 9635   4.233   1.477  15.056  0.6403 -0.1600 -0.6170
  647TMC3    H2 9636   4.130   1.252  15.402 -1.0566  1.6611  0.7297
  647TMC3    C7 9637   4.327   1.338  15.272 -0.5709 -0.3851  0.1621
  647TMC3    C8 9638   3.987   1.093  15.282  0.0589  0.6362 -0.2308
  647TMC3    O1 9639   4.352   1.218  15.289  0.8835 -0.4127  0.0239
  647TMC3    O2 9640   4.019   1.049  15.393  0.1443 -0.3057 -0.0624
  648TMC3    C1 9641   3.156   3.840  16.514  0.0964 -0.3399 -0.6162
  648TMC3    C2 9642   3.221   3.740  16.460  0.1661  0.5809 -0.2773
  648TMC3    C3 9643   3.226   3.735  16.321  0.7308 -0.4717 -0.0738
  648TMC3    C4 9644   3.097   3.945  16.445 -0.2294  0.4850  0.0286
  648TMC3    C5 9645   3.109   3.934  16.307 -0.0416 -0.2369  0.3271
  648TMC3    C6 9646   3.171   3.834  16.244  0.5093  0.9246 -0.1257
  648TMC3     C 9647   3.177   3.864  16.650  0.2966 -0.3304 -0.3483
  648TMC3     O 9648   3.173   3.974  16.699 -0.0253  0.7455  0.4126
  648TMC3     H 9649   3.270   3.661  16.516  1.1664  2.0285  0.9170
  648TMC3    H1 9650   3.069   4.034  16.501 -1.6665  1.1316 -1.7272
  648TMC3    H2 9651   3.181   3.837  16.136 -1.1881  0.4105 -0.2969
  648TMC3    C7 9652   3.076   4.057  16.233 -0.2052  0.3280 -0.2865
  648TMC3    C8 9653   3.275   3.624  16.245  0.5010 -0.2424 -0.4271
  648TMC3    O1 9654   3.151   4.083  16.137 -0.2796  0.0480  0.0967
  648TMC3    O2 9655   3.273   3.640  16.124  0.1393  0.6450  0.2181
  649TMC3    C1 9656   2.254   4.544  12.542  0.2236 -0.0148  0.2408
  649TMC3    C2 9657   2.391   4.549  12.524  0.1598  0.4789 -0.0977
  649TMC3    C3 9658   2.474   4.548  12.636  0.4553 -0.3954 -0.4566
  649TMC3    C4 9659   2.194   4.538  12.665  0.0379  0.8048  0.7778
  649TMC3    C5 9660   2.281   4.527  12.769 -0.1735 -0.2315  0.6234
  649TMC3    C6 9661   2.415   4.536  12.757  0.5102 -0.5279 -0.1961
  649TMC3     C 9662   2.172   4.540  12.430  0.0987 -0.6454  0.5190
  649TMC3     O 9663   2.051   4.574  12.438  0.6841  1.0178  0.0486
  649TMC3     H 9664   2.437   4.569  12.427  0.5246  0.6193  0.1025
  649TMC3    H1 9665   2.094   4.498  12.667  0.6370 -0.7613 -0.2877
  649TMC3    H2 9666   2.483   4.556  12.839 -1.8526  2.4223  1.0254
  649TMC3    C7 9667   2.223   4.528  12.898  0.8176 -0.0142 -0.3734
  649TMC3    C8 9668   2.606   4.597  12.634  0.2790 -0.0122 -0.0335
  649TMC3    O1 9669   2.106   4.562  12.921  0.1915 -0.5514 -0.6764
  649TMC3    O2 9670   2.687   4.556  12.714  0.2630  0.4854  0.0977
  650TMC3    C1 9671   0.236   1.658  12.791  0.3605 -0.2570  1.1261
  650TMC3    C2 9672   0.190   1.781  12.839 -0.3585  0.5244 -0.1888
  650TMC3    C3 9673   0.102   1.852  12.760 -0.1891  0.7041  0.7363
  650TMC3    C4 9674   0.202   1.610  12.671 -0.8148 -0.2886 -0.1407
  650TMC3    C5 9675   0.110   1.679  12.603  0.5187 -0.2316  0.0179
  650TMC3    C6 9676   0.051   1.800  12.638 -0.4420 -0.1640 -1.1136
  650TMC3     C 9677   0.319   1.586  12.884  0.2028  0.0633  1.1157
  650TMC3     O 9678   0.363   1.656  12.974 -0.1306 -0.3048 -0.0470
  650TMC3     H 9679   0.216   1.811  12.940 -4.5032  0.2441  0.9833
  650TMC3    H1 9680   0.250   1.525  12.624  1.0401  0.5360  0.2578
  650TMC3    H2 9681   4.713   1.846  12.574 -0.4511  0.1252 -0.8988
  650TMC3    C7 9682   0.072   1.609  12.476 -0.0388 -0.0760  0.3382
  650TMC3    C8 9683   0.043   1.977  12.811  0.4295  0.4778 -0.4855
  650TMC3    O1 9684   0.071   1.489  12.476 -0.1427 -0.3109 -0.2895
  650TMC3    O2 9685   0.121   2.033  12.885 -0.2134  0.0880  0.3381
  651MPD2     C 9686   3.927   3.435  10.629  0.1058  0.0458  0.0464
  651MPD2    C1 9687   3.906   3.512  10.514  0.7561  0.1394 -0.3661
  651MPD2    C2 9688   4.027   3.566  10.459  0.2133  0.6357 -0.0653
  651MPD2    C3 9689   4.146   3.546  10.524  0.1746 -0.2284 -0.1165
  651MPD2    C4 9690   4.158   3.451  10.615  0.6279  0.3119 -0.2420
  651MPD2    C5 9691   4.048   3.397  10.670 -0.2828 -0.2703 -0.6721
  651MPD2     H 9692   4.010   3.641  10.382  0.3969  2.0248  1.2461
  651MPD2    H1 9693   4.251   3.424  10.664  1.9177 -0.4447 -3.1074
  651MPD2    H2 9694   3.842   3.392  10.681 -1.2544  0.8459 -1.5391
  651MPD2    H3 9695   4.057   3.325  10.751 -1.8864  0.3381  0.0601
  651MPD2     N 9696   4.261   3.606  10.463 -0.6010 -0.3707  0.0468
  651MPD2    H5 9697   4.253   3.640  10.368  1.3416 -1.0464 -0.3582
  651MPD2    N1 9698   3.777   3.541  10.468 -0.3626 -0.2576 -0.8274
  651MPD2    H7 9699   3.773   3.599  10.385 -0.4953 -1.4988 -1.6869
  652TMC3    C1 9700   4.700   3.762  10.374  0.1175  0.5559  0.6802
  652TMC3    C2 9701   4.614   3.669  10.444  0.3558  0.3902  0.7127
  652TMC3    C3 9702   4.479   3.689  10.438 -0.0927 -0.1285 -0.9060
  652TMC3    C4 9703   4.646   3.868  10.305  0.1808 -0.3936  0.2420
  652TMC3    C5 9704   4.509   3.881  10.308 -0.4338 -0.4478 -0.3451
  652TMC3    C6 9705   4.424   3.794  10.371 -0.5021 -0.4449  0.1267
  652TMC3     C 9706   0.103   3.767  10.408  0.3085 -0.1455  0.4418
  652TMC3     O 9707   0.136   3.689  10.498 -0.4412  0.1184 -0.2855
  652TMC3     H 9708   4.658   3.585  10.495  2.2889  0.8598 -0.1899
  652TMC3    H1 9709   4.702   3.926  10.232  2.5462 -0.9983  1.5683
  652TMC3    H2 9710   4.322   3.819  10.400 -0.8387 -0.3090 -1.1352
  652TMC3    C7 9711   4.451   3.994  10.231  0.5682  0.0259 -0.4767
  652TMC3    C8 9712   4.390   3.599  10.514  0.5000  0.1248 -0.1535
  652TMC3    O1 9713   4.331   3.982  10.212 -0.0007 -0.6089  0.0605
  652TMC3    O2 9714   4.432   3.532  10.606 -0.4030 -0.0400  0.1476
  653MPD2     C 9715   1.877   3.905  17.611  0.5725  0.7663 -0.1941
  653MPD2    C1 9716   1.834   4.012  17.538 -0.4104 -0.1138  0.5548
  653MPD2    C2 9717   1.769   3.990  17.412 -0.3613 -0.2746  0.3561
  653MPD2    C3 9718   1.773   3.861  17.362  0.8521  0.0126  0.4433
  653MPD2    C4 9719   1.821   3.754  17.439  0.7368 -0.0057 -0.0572
  653MPD2    C5 9720   1.869   3.781  17.559 -0.2848 -0.2609 -1.1247
  653MPD2     H 9721   1.734   4.073  17.352  0.1690 -0.9151 -0.8281
  653MPD2    H1 9722   1.829   3.651  17.408 -0.1211 -0.3577  0.9098
  653MPD2    H2 9723   1.917   3.904  17.712  0.7262  2.1501 -0.2506
  653MPD2    H3 9724   1.909   3.699  17.617  1.5164  1.5810  0.2528
  653MPD2     N 9725   1.726   3.843  17.231 -0.5352  0.4697  0.7690
  653MPD2    H5 9726   1.679   3.923  17.189 -0.6122 -0.6922 -1.3340
  653MPD2    N1 9727   1.867   4.143  17.580  0.5175  0.2586  0.1766
  653MPD2    H7 9728   1.860   4.216  17.509 -2.1306  0.4693  0.6731
  654TMC3    C1 9729   1.679   3.721  17.019  0.2775  1.3732  0.1765
  654TMC3    C2 9730   1.552   3.775  17.013 -0.0864 -0.2487 -0.3516
  654TMC3    C3 9731   1.475   3.739  16.906  0.4980 -0.9004  0.3618
  654TMC3    C4 9732   1.721   3.613  16.941  0.2454  0.4051 -0.0874
  654TMC3    C5 9733   1.641   3.581  16.839  0.8781 -0.3314  0.5061
  654TMC3    C6 9734   1.522   3.648  16.811 -0.2947  0.3708 -0.3477
  654TMC3     C 9735   1.748   3.734  17.150 -0.1137  0.3485  0.2531
  654TMC3     O 9736   1.828   3.643  17.169 -0.5398 -0.7030  0.3530
  654TMC3     H 9737   1.523   3.855  17.080 -3.1545 -2.7834  1.3380
  654TMC3    H1 9738   1.821   3.574  16.953 -0.2450 -0.5784  0.8393
  654TMC3    H2 9739   1.460   3.632  16.724 -1.5020 -0.9461  0.7343
  654TMC3    C7 9740   1.663   3.452  16.759 -0.5292 -0.2584 -0.4687
  654TMC3    C8 9741   1.332   3.756  16.930 -0.4180  0.0820  0.4066
  654TMC3    O1 9742   1.604   3.443  16.649  0.1446  0.0226  0.2647
  654TMC3    O2 9743   1.300   3.835  17.022  0.1679 -0.2577 -0.1808
  655MPD2     C 9744   3.548   3.862  16.101 -1.2485 -0.6615  0.2212
  655MPD2    C1 9745   3.530   3.976  16.032  0.7013 -0.5247 -0.0699
  655MPD2    C2 9746   3.571   3.979  15.899  0.4513  0.0474 -0.8390
  655MPD2    C3 9747   3.620   3.870  15.827  0.3551  0.4364 -0.4830
  655MPD2    C4 9748   3.623   3.751  15.897  0.5980 -0.9263 -0.3545
  655MPD2    C5 9749   3.598   3.751  16.031  0.3681 -0.6631 -0.3910
  655MPD2     H 9750   3.561   4.077  15.853 -3.3297  0.1771  0.2567
  655MPD2    H1 9751   3.641   3.655  15.851  0.8953 -0.6831 -0.7410
  655MPD2    H2 9752   3.535   3.847  16.208 -1.7199  1.8419  0.5008
  655MPD2    H3 9753   3.601   3.658  16.086 -2.9550 -0.5313  0.0156
  655MPD2     N 9754   3.646   3.872  15.688 -0.2226 -0.2380  0.5611
  655MPD2    H5 9755   3.667   3.779  15.654  0.4341 -0.4508  1.5631
  655MPD2    N1 9756   3.489   4.094  16.094 -0.5663  0.0526  0.0365
  655MPD2    H7 9757   3.451   4.168  16.036  2.2620  2.3895  1.1528
  656TMC3    C1 9758   3.412   4.243  16.257  0.0886 -0.0409 -0.5156
  656TMC3    C2 9759   3.345   4.265  16.373 -0.0891 -0.1650 -0.2065
  656TMC3    C3 9760   3.262   4.374  16.391 -0.0404  0.3313  0.0738
  656TMC3    C4 9761   3.396   4.336  16.152  0.5113  0.9304  0.0416
  656TMC3    C5 9762   3.310   4.441  16.163 -0.0121 -0.2530  0.0992
  656TMC3    C6 9763   3.238   4.458  16.286 -0.1181  0.6189  0.4062
  656TMC3     C 9764   3.478   4.118  16.229 -0.1256 -0.2283 -0.5562
  656TMC3     O 9765   3.501   4.043  16.324  0.0084  0.2158 -0.8996
  656TMC3     H 9766   3.364   4.200  16.459 -1.8154  0.6088  0.7436
  656TMC3    H1 9767   3.434   4.319  16.052 -3.1389 -2.0653 -0.8060
  656TMC3    H2 9768   3.160   4.531  16.305 -0.6227  0.2155 -0.1357
  656TMC3    C7 9769   3.280   4.529  16.050 -0.6104 -0.1812  0.7126
  656TMC3    C8 9770   3.182   4.362  16.507  0.5469  0.6335  0.2953
  656TMC3    O1 9771   3.330   4.490  15.943 -0.3727  0.0284 -0.4009
  656TMC3    O2 9772   3.175   4.252  16.568  0.8044 -0.3400  0.7005
  657TMC3    C1 9773   2.313   3.809  14.919 -0.2063 -0.1116 -0.9014
  657TMC3    C2 9774   2.392   3.839  15.030 -0.0607  0.4777 -0.6198
  657TMC3    C3 9775   2.361   3.958  15.097  0.4627  0.2344 -0.5354
  657TMC3    C4 9776   2.216   3.893  14.874 -0.1942  0.3309  0.2951
  657TMC3    C5 9777   2.200   4.019  14.940 -0.4067 -0.3782  0.4026
  657TMC3    C6 9778   2.271   4.048  15.054 -0.3928  0.4145  0.2150
  657TMC3     C 9779   2.305   3.673  14.866  0.5988 -0.3532  0.2170
  657TMC3     O 9780   2.205   3.643  14.813  0.5530  0.1442 -0.2620
  657TMC3     H 9781   2.467   3.774  15.076 -1.3163 -0.2722  0.3557
  657TMC3    H1 9782   2.169   3.875  14.778 -1.5246  1.4731  0.7206
  657TMC3    H2 9783   2.236   4.135  15.107 -1.2315  0.2517 -0.0716
  657TMC3    C7 9784   2.077   4.089  14.898  0.5759 -0.4786  0.3344
  657TMC3    C8 9785   2.395   3.969  15.243 -0.0380  0.2425 -0.0481
  657TMC3    O1 9786   2.004   4.130  14.986 -0.2077  0.1557  0.1401
  657TMC3    O2 9787   2.421   4.081  15.284 -0.4694  0.6650 -0.4752
  658MPD2     C 9788   4.132   3.620  15.218  0.5423 -0.0671 -0.1032
  658MPD2    C1 9789   4.004   3.624  15.160 -0.3535  0.1889  0.0515
  658MPD2    C2 9790   3.987   3.592  15.026  0.1396 -0.0307  0.4225
  658MPD2    C3 9791   4.096   3.553  14.946 -0.3878 -0.6588  0.8474
  658MPD2    C4 9792   4.222   3.546  15.009 -0.1463 -0.7425 -0.5169
  658MPD2    C5 9793   4.238   3.587  15.140 -0.2688  0.1959 -0.1174
  658MPD2     H 9794   3.893   3.584  14.971 -1.1234  2.4611  2.2009
  658MPD2    H1 9795   4.309   3.505  14.959  0.1532 -0.6530 -0.0682
  658MPD2    H2 9796   4.150   3.623  15.325  1.3830  1.7455 -0.2977
  658MPD2    H3 9797   4.333   3.570  15.187 -0.9297 -0.2534  1.0515
  658MPD2     N 9798   4.079   3.522  14.812  0.0632 -0.7455  0.5134
  658MPD2    H5 9799   3.984   3.519  14.777  0.3155 -0.1852 -0.2202
  658MPD2    N1 9800   3.909   3.679  15.247  0.1086 -0.7860 -0.3101
  658MPD2    H7 9801   3.933   3.729  15.332 -1.7778  0.4822 -0.5208
  659TMC3    C1 9802   3.701   3.774  15.278  0.7617  0.2937  0.0749
  659TMC3    C2 9803   3.717   3.819  15.409  0.4879  0.7050 -0.2069
  659TMC3    C3 9804   3.626   3.922  15.451  0.2158  0.0973  1.2731
  659TMC3    C4 9805   3.621   3.831  15.189 -0.2377 -0.0755 -0.0531
  659TMC3    C5 9806   3.545   3.941  15.232 -0.6855 -0.1436 -0.3881
  659TMC3    C6 9807   3.536   3.977  15.366 -0.3502  0.4308 -0.3660
  659TMC3     C 9808   3.775   3.666  15.219  0.0326 -0.0053 -0.0649
  659TMC3     O 9809   3.717   3.607  15.124  0.5074 -0.5741  0.3921
  659TMC3     H 9810   3.797   3.786  15.474 -0.0833 -0.8834 -0.2990
  659TMC3    H1 9811   3.590   3.789  15.094 -2.4643 -0.7687  0.9720
  659TMC3    H2 9812   3.462   4.045  15.407 -1.7560 -0.4343 -1.5143
  659TMC3    C7 9813   3.452   4.007  15.137 -0.1429  0.2228  0.5533
  659TMC3    C8 9814   3.616   3.969  15.591 -0.7087 -0.3344 -0.4551
  659TMC3    O1 9815   3.375   4.085  15.191  0.8669 -0.3700  0.5414
  659TMC3    O2 9816   3.565   4.078  15.615 -0.4158 -0.3745 -0.4876
  660MPD2     C 9817   1.640   2.788  12.589  0.4702 -0.2423  0.0903
  660MPD2    C1 9818   1.514   2.838  12.613  0.0238 -0.2490  0.3750
  660MPD2    C2 9819   1.452   2.807  12.735 -0.5073 -0.3067  0.5901
  660MPD2    C3 9820   1.518   2.728  12.830  0.4770 -0.0289 -0.1548
  660MPD2    C4 9821   1.628   2.657  12.790  0.3746 -0.1853 -0.3744
  660MPD2    C5 9822   1.689   2.691  12.667 -0.3750 -0.6324  0.4854
  660MPD2     H 9823   1.351   2.843  12.751  0.0603  2.3238 -1.6041
  660MPD2    H1 9824   1.663   2.572  12.849  2.8099  0.5749 -0.6983
  660MPD2    H2 9825   1.696   2.815  12.500  0.5335  1.1130  0.5318
  660MPD2    H3 9826   1.786   2.647  12.645 -0.1932  0.1968 -0.3543
  660MPD2     N 9827   1.472   2.717  12.962 -0.1330 -0.1672 -1.0088
  660MPD2    H5 9828   1.500   2.632  13.009  4.0627  1.0768 -1.2622
  660MPD2    N1 9829   1.454   2.918  12.520  0.0929  0.2942 -0.3465
  660MPD2    H7 9830   1.513   2.929  12.438 -1.2042  0.6091 -1.2366
  661TMC3    C1 9831   1.287   2.991  12.386  0.7937 -0.0490  0.9046
  661TMC3    C2 9832   1.361   3.081  12.323 -0.2260 -0.2528  0.1679
  661TMC3    C3 9833   1.306   3.156  12.217  0.4715  0.2273 -0.2614
  661TMC3    C4 9834   1.154   2.967  12.354  0.2380 -0.2309  0.0886
  661TMC3    C5 9835   1.108   3.036  12.242 -0.2778  0.8051  0.0257
  661TMC3    C6 9836   1.180   3.125  12.173 -0.7100  0.1251  1.1287
  661TMC3     C 9837   1.324   2.957  12.515  0.1643 -0.4654  0.2753
  661TMC3     O 9838   1.233   2.950  12.592  1.3225 -0.2916 -0.2435
  661TMC3     H 9839   1.467   3.091  12.339 -0.2984 -0.7250  0.9533
  661TMC3    H1 9840   1.099   2.896  12.414 -0.1744  1.0628  1.2391
  661TMC3    H2 9841   1.141   3.180  12.089  3.3767 -0.8538 -1.4051
  661TMC3    C7 9842   0.982   3.000  12.181 -0.7672  0.1081 -0.2280
  661TMC3    C8 9843   1.390   3.232  12.129 -0.0180 -0.3766  0.1262
  661TMC3    O1 9844   0.926   3.084  12.109 -0.0175 -0.2426  0.1117
  661TMC3    O2 9845   1.497   3.180  12.099 -0.1459  0.6332 -0.0042
  662MPD2     C 9846   1.928   2.396   0.345  0.0470 -0.4105 -0.0845
  662MPD2    C1 9847   1.856   2.378   0.233  0.1134  0.7722 -0.4225
  662MPD2    C2 9848   1.717   2.358   0.238 -0.0607  0.1239  0.0548
  662MPD2    C3 9849   1.653   2.352   0.362  0.0215 -0.3908  0.0091
  662MPD2    C4 9850   1.737   2.361   0.473  0.2627 -0.1001 -0.5060
  662MPD2    C5 9851   1.868   2.391   0.469 -0.4937 -0.2732  0.3155
  662MPD2     H 9852   1.662   2.352   0.144 -0.8500 -0.7231  0.5763
  662MPD2    H1 9853   1.713   2.363   0.578 -1.8169 -0.2500 -0.9827
  662MPD2    H2 9854   2.036   2.403   0.338 -0.0078  1.3301  0.8536
  662MPD2    H3 9855   1.916   2.397   0.566 -2.1415 -0.0185  1.1127
  662MPD2     N 9856   1.512   2.345   0.355 -0.2572  0.1961  0.3774
  662MPD2    H5 9857   1.468   2.377   0.269 -1.8269  2.7952  2.1549
  662MPD2    N1 9858   1.910   2.386   0.100  0.0217  0.7443  0.3196
  662MPD2    H7 9859   1.843   2.367   0.026  1.2980  0.9907 -0.9119
  663TMC3    C1 9860   2.052   2.376  17.667  0.1658 -0.6338 -0.1240
  663TMC3    C2 9861   1.937   2.416  17.606  0.0935 -0.4276 -0.5767
  663TMC3    C3 9862   1.889   2.356  17.495  0.1407  0.5150  0.0762
  663TMC3    C4 9863   2.107   2.262  17.628  0.1291  0.0498  0.3482
  663TMC3    C5 9864   2.041   2.182  17.537 -0.9791 -0.4082 -0.3625
  663TMC3    C6 9865   1.928   2.229  17.466  0.3773 -0.2776  0.4578
  663TMC3     C 9866   2.043   2.381   0.061 -0.8685 -0.0965  0.5124
  663TMC3     O 9867   2.145   2.377   0.132  0.0055 -0.0597  0.2669
  663TMC3     H 9868   1.897   2.515  17.626 -0.1857  0.1647 -4.1103
  663TMC3    H1 9869   2.162   2.217  17.710  1.6575  0.3768 -0.4962
  663TMC3    H2 9870   1.892   2.170  17.383 -0.6978  0.8770  0.1103
  663TMC3    C7 9871   2.085   2.048  17.521  0.1763 -0.7602 -0.2270
  663TMC3    C8 9872   1.748   2.378  17.477 -0.5096 -0.1068  0.7265
  663TMC3    O1 9873   2.203   2.020  17.537 -0.6205  0.4018 -0.1409
  663TMC3    O2 9874   1.714   2.422  17.372 -0.2828 -0.6626 -0.7239
  664MPD2     C 9875   4.474   0.931  17.291  0.0603 -0.0118 -0.3407
  664MPD2    C1 9876   4.579   0.959  17.378 -0.7620  0.9239 -0.0411
  664MPD2    C2 9877   4.568   0.934  17.512 -0.4876  0.2354 -0.6805
  664MPD2    C3 9878   4.458   0.874  17.564 -0.1664 -0.0291 -0.8035
  664MPD2    C4 9879   4.351   0.843  17.476  0.8259  0.5371  0.0950
  664MPD2    C5 9880   4.366   0.869  17.342  0.6484  0.0381  0.0911
  664MPD2     H 9881   4.648   0.971  17.573 -1.2490 -0.0904  0.5097
  664MPD2    H1 9882   4.255   0.809  17.513  0.9797  1.3385  1.2219
  664MPD2    H2 9883   4.472   0.972  17.190 -1.8051  1.2783  0.2159
  664MPD2    H3 9884   4.280   0.857  17.276  0.7986  0.5782 -0.1997
  664MPD2     N 9885   4.456   0.842  17.705 -0.5338  0.0002  0.3038
  664MPD2    H5 9886   4.544   0.848   0.006 -1.0142 -0.6131  1.2364
  664MPD2    N1 9887   4.696   1.018  17.328 -0.6911 -0.0652  0.0159
  664MPD2    H7 9888   0.040   1.017  17.387 -2.5464 -0.8926  2.5708
  665TMC3    C1 9889   4.375   0.771   0.173  0.5029 -0.1813 -0.1794
  665TMC3    C2 9890   4.270   0.770   0.261 -0.6057  0.6095  0.2037
  665TMC3    C3 9891   4.311   0.749   0.389 -0.3621  0.1814 -0.0514
  665TMC3    C4 9892   4.507   0.781   0.208 -0.5472 -0.5072 -0.1851
  665TMC3    C5 9893   4.541   0.779   0.338  0.1248  0.4863 -0.2860
  665TMC3    C6 9894   4.443   0.754   0.434 -0.1278  0.3761  0.6082
  665TMC3     C 9895   4.346   0.810   0.040 -0.0031 -0.5591 -0.3534
  665TMC3     O 9896   4.229   0.804   0.005 -0.2096  0.0376  0.0800
  665TMC3     H 9897   4.167   0.762   0.230 -0.0854 -0.7842 -1.1591
  665TMC3    H1 9898   4.591   0.787   0.139 -1.7682 -3.4000 -1.9218
  665TMC3    H2 9899   4.450   0.752   0.542 -2.0146  1.6363  0.7547
  665TMC3    C7 9900   4.662   0.841   0.382 -0.2854  0.1265 -0.3834
  665TMC3    C8 9901   4.221   0.697   0.489  0.3254  0.7047 -0.5345
  665TMC3    O1 9902   0.012   0.865   0.299  0.0505  0.0855  0.3506
  665TMC3    O2 9903   4.260   0.621   0.579  0.0165 -0.2581 -0.2660
  666TMC3    C1 9904   4.344   0.622   9.476 -0.4237  0.2379  0.7575
  666TMC3    C2 9905   4.452   0.544   9.487 -0.1004  0.2986 -0.6780
  666TMC3    C3 9906   4.561   0.612   9.526  0.6921  0.0637  0.6525
  666TMC3    C4 9907   4.335   0.760   9.498 -0.0582  0.3154  0.3359
  666TMC3    C5 9908   4.449   0.817   9.549 -0.1097 -0.4213 -0.4004
  666TMC3    C6 9909   4.562   0.742   9.562  0.1389 -0.2604 -0.0421
  666TMC3     C 9910   4.219   0.553   9.478 -0.5948 -0.7952 -0.2964
  666TMC3     O 9911   4.115   0.612   9.448  0.3631 -0.7586 -0.5918
  666TMC3     H 9912   4.461   0.441   9.457  0.0772 -0.6803  2.6737
  666TMC3    H1 9913   4.252   0.822   9.466 -0.3500 -0.0207  0.4355
  666TMC3    H2 9914   4.651   0.784   9.605  0.3975 -0.9415  0.0885
  666TMC3    C7 9915   4.428   0.927   9.632  0.6936 -0.5916  0.0535
  666TMC3    C8 9916   4.677   0.530   9.536 -0.5873  0.1128  0.2514
  666TMC3    O1 9917   4.308   0.946   9.657 -0.3061 -0.1253 -0.0631
  666TMC3    O2 9918   4.668   0.409   9.538  0.2165 -0.1928  0.0178
  667MPD2     C 9919   1.035   0.319  14.755 -0.2971 -0.1206 -0.8284
  667MPD2    C1 9920   0.933   0.381  14.818 -0.4443  0.7161  0.0257
  667MPD2    C2 9921   0.810   0.316  14.809  0.1738  0.8217 -0.1452
  667MPD2    C3 9922   0.791   0.199  14.739  0.5946 -0.0363  0.3850
  667MPD2    C4 9923   0.898   0.148  14.668 -0.3914 -0.2695 -0.4758
  667MPD2    C5 9924   1.020   0.207  14.688  0.1041 -0.2352 -0.3284
  667MPD2     H 9925   0.726   0.365  14.858 -0.7404 -0.6625 -0.2455
  667MPD2    H1 9926   0.882   0.051  14.623 -0.4502  1.2124 -3.6496
  667MPD2    H2 9927   1.136   0.357  14.765 -1.2943  2.4550 -0.6026
  667MPD2    H3 9928   1.110   0.164  14.647  1.0775  1.5846 -0.1041
  667MPD2     N 9929   0.673   0.132  14.732  0.5626 -0.2841 -0.0997
  667MPD2    H5 9930   0.685   0.045  14.681  1.9199 -0.5745  0.7080
  667MPD2    N1 9931   0.944   0.497  14.898 -0.1369  0.4089 -0.3871
  667MPD2    H7 9932   0.874   0.522  14.967  1.2281 -2.3256  2.0407
  668TMC3    C1 9933   1.061   0.672  15.008  0.0839  0.1979 -1.2404
  668TMC3    C2 9934   1.146   0.780  14.994  0.5598 -0.0910 -0.1532
  668TMC3    C3 9935   1.158   0.872  15.100  0.2506 -0.2657 -0.2968
  668TMC3    C4 9936   0.984   0.655  15.124  0.3794 -0.1256  0.8099
  668TMC3    C5 9937   0.988   0.747  15.222  0.2518  0.0595 -0.1604
  668TMC3    C6 9938   1.071   0.860  15.203 -1.4258 -0.1273  0.2363
  668TMC3     C 9939   1.055   0.571  14.901 -0.0324  0.3161 -0.2344
  668TMC3     O 9940   1.149   0.571  14.825 -0.5695 -0.1747  0.2859
  668TMC3     H 9941   1.210   0.785  14.906  0.7668 -1.2705 -0.0732
  668TMC3    H1 9942   0.932   0.563  15.149  0.9797 -0.2751  1.5131
  668TMC3    H2 9943   1.102   0.916  15.291 -0.9030 -0.4721  0.2736
  668TMC3    C7 9944   0.959   0.703  15.355 -0.1272 -0.0235  0.2584
  668TMC3    C8 9945   1.217   1.007  15.089  0.5695  0.5996  1.1019
  668TMC3    O1 9946   1.035   0.733  15.448 -0.6333  0.2272  0.3290
  668TMC3    O2 9947   1.192   1.086  15.186 -0.1943 -0.2795  1.1754
  669TMC3    C1 9948   3.622   0.734  14.499  0.1176 -0.4413  0.2697
  669TMC3    C2 9949   3.528   0.764  14.401  0.1395  0.1006 -0.2189
  669TMC3    C3 9950   3.575   0.829  14.291  0.2630 -0.4176 -0.2213
  669TMC3    C4 9951   3.746   0.787  14.495  0.2257 -0.3292  0.0696
  669TMC3    C5 9952   3.784   0.841  14.382 -0.0104  0.9932 -0.4747
  669TMC3    C6 9953   3.702   0.871  14.279  0.5304 -0.0405 -0.7306
  669TMC3     C 9954   3.582   0.648  14.600 -0.2864 -0.3419  0.0792
  669TMC3     O 9955   3.458   0.637  14.618  0.3038 -0.5220 -0.2563
  669TMC3     H 9956   3.429   0.720  14.406 -0.4276  1.4815  0.8058
  669TMC3    H1 9957   3.817   0.778  14.576 -0.8270  0.5008  1.0902
  669TMC3    H2 9958   3.738   0.910  14.184 -0.0358  2.1809 -0.0356
  669TMC3    C7 9959   3.922   0.886  14.386 -0.2206  0.1230 -0.0471
  669TMC3    C8 9960   3.482   0.839  14.175  0.4109  0.1345  0.3013
  669TMC3    O1 9961   4.003   0.830  14.456 -0.3223 -0.3441  0.1968
  669TMC3    O2 9962   3.540   0.869  14.072 -0.2350  0.3553 -0.1007
  670MPD2     C 9963   1.843   2.700  14.179  0.7558 -0.2601  0.5198
  670MPD2    C1 9964   1.872   2.587  14.108 -0.7179  0.1124 -0.2763
  670MPD2    C2 9965   1.885   2.465  14.169  0.7958  0.1928  0.3566
  670MPD2    C3 9966   1.884   2.462  14.307 -0.6046  0.2517 -0.0606
  670MPD2    C4 9967   1.845   2.571  14.383 -0.4189  0.4961 -0.3339
  670MPD2    C5 9968   1.832   2.688  14.315  0.0711  0.2732  0.6243
  670MPD2     H 9969   1.905   2.376  14.111 -0.2776 -1.0294  1.8737
  670MPD2    H1 9970   1.830   2.565  14.490  1.0495  0.0273 -0.1515
  670MPD2    H2 9971   1.825   2.799  14.138 -0.5641 -0.6424  0.2029
  670MPD2    H3 9972   1.809   2.780  14.368  2.3409  0.8860  0.5257
  670MPD2     N 9973   1.917   2.339  14.368 -0.3929  0.6430  0.6900
  670MPD2    H5 9974   1.933   2.256  14.312  4.2330  2.1458 -0.2177
  670MPD2    N1 9975   1.878   2.589  13.967 -0.1386 -0.2703 -0.6273
  670MPD2    H7 9976   1.870   2.500  13.920 -0.5896 -0.5670  0.0193
  671TMC3    C1 9977   2.006   2.191  14.498  0.7337  0.0018 -0.8004
  671TMC3    C2 9978   2.141   2.194  14.490  0.7619  0.4795  0.3603
  671TMC3    C3 9979   2.189   2.104  14.400 -0.1561  0.5465 -0.0354
  671TMC3    C4 9980   1.925   2.089  14.449 -0.1058 -1.1670  0.1303
  671TMC3    C5 9981   1.985   1.996  14.364  0.2008 -0.0229 -0.2471
  671TMC3    C6 9982   2.122   2.004  14.343  0.2870 -0.0624 -1.0251
  671TMC3     C 9983   1.950   2.323  14.498  1.1037 -0.0870  0.0668
  671TMC3     O 9984   1.991   2.407  14.576 -0.1205 -0.2493  0.1227
  671TMC3     H 9985   2.189   2.291  14.497  0.7305  0.5410 -0.3483
  671TMC3    H1 9986   1.819   2.087  14.471 -0.3996  1.2603 -1.0297
  671TMC3    H2 9987   2.165   1.931  14.276  1.1050 -0.8753  0.3865
  671TMC3    C7 9988   1.894   1.959  14.249 -0.5411 -0.6971 -0.2343
  671TMC3    C8 9989   2.305   2.139  14.331 -0.1529 -0.2445 -0.5057
  671TMC3    O1 9990   1.951   1.925  14.146 -0.5160  0.3056 -0.5159
  671TMC3    O2 9991   2.314   2.085  14.224  0.2083 -0.0065 -0.2886
  672MPD2     C 9992   1.489   3.315   0.830 -0.5370 -0.3690  0.2739
  672MPD2    C1 9993   1.624   3.361   0.835 -0.6323  0.0620 -0.3052
  672MPD2    C2 9994   1.680   3.400   0.956 -0.2465 -0.2534 -0.0185
  672MPD2    C3 9995   1.598   3.402   1.069 -0.3663 -0.8967 -0.2363
  672MPD2    C4 9996   1.469   3.365   1.057  0.0177 -0.1240  0.3862
  672MPD2    C5 9997   1.418   3.314   0.947  0.1586  0.2968 -0.1895
  672MPD2     H 9998   1.785   3.425   0.954 -0.9146  2.4647 -0.0091
  672MPD2    H1 9999   1.401   3.363   1.142 -0.5384  0.4224 -0.0413
  672MPD2    H210000   1.444   3.265   0.746 -3.5259  2.7890  0.0107
  672MPD2    H310001   1.316   3.279   0.947  0.6207 -1.0298 -0.3015
  672MPD2     N10002   1.643   3.454   1.192  0.1476 -0.3528 -0.3555
  672MPD2    H510003   1.573   3.471   1.264 -0.2751  0.5396 -0.9729
  672MPD2    N110004   1.699   3.376   0.713 -0.0666  0.5874 -0.1219
  672MPD2    H710005   1.800   3.389   0.724 -0.1722  0.3085  1.1751
  673TMC3    C110006   1.727   3.413   0.492  0.2150  0.7529  0.4617
  673TMC3    C210007   1.859   3.367   0.493 -0.5858 -0.0295 -0.0022
  673TMC3    C310008   1.920   3.400   0.382 -0.2370 -0.6658  0.1484
  673TMC3    C410009   1.676   3.486   0.395 -0.2340 -0.3978 -0.3699
  673TMC3    C510010   1.743   3.519   0.284  0.1132  0.2716 -0.0092
  673TMC3    C610011   1.870   3.473   0.278  0.2737 -0.3380 -0.7639
  673TMC3     C10012   1.635   3.375   0.595  0.0169  0.0772 -0.5149
  673TMC3     O10013   1.516   3.403   0.569 -0.2201 -0.1719 -0.0004
  673TMC3     H10014   1.898   3.306   0.574  2.2395  2.4769  0.5279
  673TMC3    H110015   1.569   3.495   0.379 -0.2810 -1.0287 -0.4002
  673TMC3    H210016   1.925   3.491   0.186  0.8315 -0.1757 -0.3953
  673TMC3    C710017   1.684   3.576   0.168 -0.1444  0.4161  0.3494
  673TMC3    C810018   2.037   3.328   0.349 -0.3890 -0.4876 -0.1413
  673TMC3    O110019   1.718   3.524   0.061  0.2355  0.3582  0.0896
  673TMC3    O210020   2.062   3.315   0.228 -0.1127  0.6079 -0.0224
  674MPD2     C10021   0.783   3.658  17.727  0.0368  0.1648 -0.3222
  674MPD2    C110022   0.843   3.556   0.043 -0.7355  0.0894  0.7489
  674MPD2    C210023   0.767   3.468   0.124  0.1345  0.0941 -0.5728
  674MPD2    C310024   0.634   3.493   0.146 -0.2527  0.4945  0.0012
  674MPD2    C410025   0.577   3.601   0.094  0.1086 -0.0206  0.5603
  674MPD2    C510026   0.651   3.690   0.011  0.1535 -0.2967 -0.6040
  674MPD2     H10027   0.806   3.380   0.175  0.4910  2.1623  2.7127
  674MPD2    H110028   0.478   3.635   0.121 -0.4129 -1.4966  0.5276
  674MPD2    H210029   0.849   3.728  17.677  0.6275 -0.5079 -0.4920
  674MPD2    H310030   0.604   3.784  17.731 -0.1721  0.0049  0.9700
  674MPD2     N10031   0.570   3.412   0.235  0.1867  0.0606  0.2483
  674MPD2    H510032   0.619   3.340   0.287 -1.1924 -0.3984  0.9174
  674MPD2    N110033   0.979   3.538   0.005  0.0063  0.3421  0.2590
  674MPD2    H710034   1.022   3.600  17.685  3.5148 -0.6594  1.5444
  675TMC3    C110035   1.204   3.453  17.747 -0.2405 -0.0720 -0.2018
  675TMC3    C210036   1.301   3.380   0.058  0.7862 -0.7416 -0.1910
  675TMC3    C310037   1.425   3.388  17.742  0.6072 -0.3558 -0.2552
  675TMC3    C410038   1.226   3.514  17.623  0.5387 -0.3063  0.2562
  675TMC3    C510039   1.344   3.506  17.561  0.5573 -0.3137 -0.2922
  675TMC3    C610040   1.452   3.451  17.625 -0.2574 -0.8255 -0.0774
  675TMC3     C10041   1.071   3.447   0.057 -0.5113 -0.2141  1.0295
  675TMC3     O10042   1.038   3.360   0.138 -0.4919 -0.6837  0.2725
  675TMC3     H10043   1.278   3.313   0.140 -0.8655 -0.5208 -0.4870
  675TMC3    H110044   1.146   3.549  17.558  0.7208 -1.0866 -0.3815
  675TMC3    H210045   1.551   3.465  17.584 -0.3499  0.3813  0.1061
  675TMC3    C710046   1.338   3.510  17.414  0.2152  0.3698  0.0174
  675TMC3    C810047   1.520   3.289   0.021  0.7656 -0.1014  0.0282
  675TMC3    O110048   1.284   3.607  17.361  0.1557 -0.4020  0.1356
  675TMC3    O210049   1.576   3.234  17.676 -0.0071  0.2015 -0.1049
  676MPD2     C10050   0.286   1.471  11.188  0.4855 -0.2404 -0.0849
  676MPD2    C110051   0.168   1.436  11.255  0.3095 -0.2925  0.4423
  676MPD2    C210052   0.144   1.298  11.269  0.0027  0.2492 -1.2149
  676MPD2    C310053   0.243   1.210  11.240 -0.2030 -0.3243 -0.1858
  676MPD2    C410054   0.356   1.249  11.184 -0.2695 -0.4588 -0.8421
  676MPD2    C510055   0.378   1.379  11.155 -0.4388  0.0978 -0.3269
  676MPD2     H10056   0.044   1.267  11.295 -0.1681  1.8172  0.0196
  676MPD2    H110057   0.431   1.182  11.144  0.2362 -0.5228  0.2138
  676MPD2    H210058   0.309   1.572  11.156  0.1846  0.2813  1.3426
  676MPD2    H310059   0.466   1.413  11.101  1.7041 -0.2863  2.9305
  676MPD2     N10060   0.229   1.074  11.264  0.1612 -0.4918 -0.1002
  676MPD2    H510061   0.302   1.019  11.219 -1.1900 -2.2817 -0.1172
  676MPD2    N110062   0.064   1.535  11.284  0.6020 -0.1118  0.4716
  676MPD2    H710063   4.723   1.493  11.333 -0.2221  0.8771 -0.0019
  677TMC3    C110064   4.697   1.729  11.330 -0.5345 -0.7981  0.9332
  677TMC3    C210065   4.597   1.638  11.355 -0.0987 -0.6541  0.2048
  677TMC3    C310066   4.527   1.648  11.475 -0.1402  0.2308 -0.4786
  677TMC3    C410067   4.715   1.834  11.410  0.0170 -0.1516  0.4218
  677TMC3    C510068   4.639   1.842  11.524 -0.1218 -0.4159  0.2759
  677TMC3    C610069   4.545   1.754  11.556  0.6426  0.5457  0.5947
  677TMC3     C10070   0.069   1.671  11.263  0.6320 -0.1073 -1.2583
  677TMC3     O10071   0.161   1.735  11.219 -0.1861 -0.1663 -0.3260
  677TMC3     H10072   4.567   1.556  11.292 -0.7721 -0.2359 -0.0141
  677TMC3    H110073   0.042   1.913  11.371  2.2409 -0.8024  2.8011
  677TMC3    H210074   4.502   1.770  11.654  0.0655  1.7228  0.1453
  677TMC3    C710075   4.692   1.927  11.634 -0.7497  0.8161  0.2578
  677TMC3    C810076   4.529   1.519  11.535  0.8314  0.3032  0.1208
  677TMC3    O110077   4.618   1.935  11.733  0.2590 -0.3203 -0.7275
  677TMC3    O210078   4.604   1.431  11.481  0.2741 -0.1682 -0.2034
  678MPD2     C10079   1.203   1.283   1.431 -0.6387  0.3780 -1.2480
  678MPD2    C110080   1.153   1.252   1.302 -0.5311  0.3078  0.1932
  678MPD2    C210081   1.025   1.281   1.281 -0.5183  0.2645  0.3439
  678MPD2    C310082   0.940   1.341   1.370 -0.4975 -0.9443  0.2045
  678MPD2    C410083   0.988   1.383   1.493 -1.0532 -0.1995  0.4376
  678MPD2    C510084   1.124   1.364   1.517  0.0421  0.2579  0.2556
  678MPD2     H10085   0.983   1.243   1.189  1.5529  1.3550 -1.0569
  678MPD2    H110086   0.930   1.430   1.570  0.4453  0.5170  1.1204
  678MPD2    H210087   1.308   1.275   1.459 -1.6870 -1.1393  2.2423
  678MPD2    H310088   1.173   1.401   1.606  0.3690 -0.1704  0.2527
  678MPD2     N10089   0.804   1.349   1.333 -0.0223  0.5268  0.2075
  678MPD2    H510090   0.788   1.308   1.242  0.8308 -1.3623  0.9113
  678MPD2    N110091   1.229   1.174   1.207  0.2229  0.2044  0.0973
  678MPD2    H710092   1.190   1.151   1.116  0.9868 -0.6912  0.0050
  679TMC3    C110093   1.612   0.995   1.017 -0.2191 -0.2420  0.9724
  679TMC3    C210094   1.534   1.005   1.121 -0.0808 -1.0831  0.6492
  679TMC3    C310095   1.422   1.086   1.114  0.2160 -0.9835 -0.1426
  679TMC3    C410096   1.601   1.065   0.902  0.1731  0.0465  0.5273
  679TMC3    C510097   1.500   1.155   0.904 -0.1344 -0.1482  1.2841
  679TMC3    C610098   1.406   1.161   1.001  0.1024 -0.0595  0.1427
  679TMC3     C10099   1.727   0.902   1.019  0.2158  0.8009  0.0111
  679TMC3     O10100   1.808   0.907   0.928  0.4760 -0.3603  0.0182
  679TMC3     H10101   1.549   0.952   1.214 -3.0419  0.7828  2.1731
  679TMC3    H110102   1.677   1.062   0.825 -1.7758 -3.8967 -1.2556
  679TMC3    H210103   1.330   1.237   0.994  0.4732  0.1658 -1.3809
  679TMC3    C710104   1.481   1.256   0.806  0.1611  0.1304  0.1865
  679TMC3    C810105   1.353   1.117   1.239 -0.2003 -0.2120  0.6405
  679TMC3    O110106   1.364   1.291   0.792  0.3354 -1.1884 -0.2040
  679TMC3    O210107   1.420   1.096   1.340 -0.0837  0.7195 -0.4580
  680MPD2     C10108   1.701   0.423  13.587  0.1951 -0.4972 -0.1862
  680MPD2    C110109   1.663   0.333  13.686 -0.4965  0.0898  0.9167
  680MPD2    C210110   1.594   0.380  13.796  0.3359  0.1697  0.1391
  680MPD2    C310111   1.563   0.515  13.806 -0.1876  0.1363  0.6490
  680MPD2    C410112   1.608   0.601  13.707 -0.0251 -0.1273  0.2074
  680MPD2    C510113   1.676   0.560  13.597 -0.4859  0.4797 -0.0740
  680MPD2     H10114   1.573   0.309  13.875  0.5814  1.8938  1.7711
  680MPD2    H110115   1.595   0.708  13.717  0.4778 -0.0842  0.3578
  680MPD2    H210116   1.758   0.391  13.501 -0.6726 -0.8758 -0.6215
  680MPD2    H310117   1.721   0.627  13.524  3.6012 -0.0754  1.9368
  680MPD2     N10118   1.502   0.579  13.921  0.2344  0.2499  0.6905
  680MPD2    H510119   1.459   0.671  13.917  2.4570  1.2844  0.1744
  680MPD2    N110120   1.695   0.193  13.673  0.6274  0.6586  0.4813
  680MPD2    H710121   1.658   0.127  13.741  0.2981 -1.8055 -2.0901
  681TMC3    C110122   1.766   4.719  13.583 -0.0799 -0.6303 -0.1696
  681TMC3    C210123   1.685   4.662  13.675  0.6579 -0.1997  0.4421
  681TMC3    C310124   1.690   4.525  13.690  0.5201  0.1878  0.8946
  681TMC3    C410125   1.861   4.649  13.511 -1.1583 -0.1404 -0.4864
  681TMC3    C510126   1.871   4.514  13.535 -0.4019  0.4923  0.3023
  681TMC3    C610127   1.790   4.452  13.628  0.3583 -0.1093 -0.0622
  681TMC3     C10128   1.767   0.131  13.572  0.1966 -0.1711 -0.1155
  681TMC3     O10129   1.834   0.181  13.481  0.3682  0.4692  0.1126
  681TMC3     H10130   1.596   4.703  13.722  0.7318  2.1482 -1.4647
  681TMC3    H110131   1.912   4.714  13.441 -0.5456  0.4584  0.5087
  681TMC3    H210132   1.801   4.346  13.649  1.7211  0.2107  0.8128
  681TMC3    C710133   1.988   4.439  13.497  0.0767  0.1032 -1.0806
  681TMC3    C810134   1.629   4.463  13.803  0.3705 -0.4584  0.5170
  681TMC3    O110135   2.017   4.347  13.572  0.4798 -0.7763  0.1930
  681TMC3    O210136   1.584   4.350  13.779 -0.5796  0.1061  0.1972
  682MPD2     C10137   4.182   1.830  10.615  0.9118  0.0643 -0.1749
  682MPD2    C110138   4.094   1.720  10.630  0.5986  1.4280 -0.2727
  682MPD2    C210139   4.037   1.692  10.751  0.2028  0.1340  0.4249
  682MPD2    C310140   4.064   1.774  10.859 -0.6184 -0.1325  0.1470
  682MPD2    C410141   4.158   1.875  10.847 -0.1817  0.2664 -0.7595
  682MPD2    C510142   4.209   1.906  10.722  0.1463 -0.0966 -0.1467
  682MPD2     H10143   3.973   1.605  10.760 -0.3632  0.7104  1.9700
  682MPD2    H110144   4.190   1.928  10.936  0.7843 -0.7392 -0.5108
  682MPD2    H210145   4.226   1.869  10.524  1.3437  1.1211  0.4870
  682MPD2    H310146   4.280   1.988  10.715  1.7955 -1.7317 -2.4450
  682MPD2     N10147   4.004   1.756  10.986 -0.0938 -0.0515 -0.1315
  682MPD2    H510148   4.036   1.815  11.061  1.2527 -2.2967  1.0512
  682MPD2    N110149   4.076   1.622  10.521  0.1695 -0.1796 -0.3946
  682MPD2    H710150   4.032   1.533  10.544  0.4761 -0.0806  0.5685
  683TMC3    C110151   3.880   1.645  11.387  0.3533  0.3306 -0.0367
  683TMC3    C210152   3.793   1.538  11.387 -0.0088 -0.5165 -0.7009
  683TMC3    C310153   3.746   1.489  11.269 -1.0818 -0.4500  0.6971
  683TMC3    C410154   3.918   1.696  11.266  0.2906  0.2773  0.1343
  683TMC3    C510155   3.871   1.635  11.145 -0.0555  0.5605  0.1252
  683TMC3    C610156   3.776   1.540  11.154 -0.0538 -0.5331  0.1833
  683TMC3     C10157   3.934   1.698  11.504  0.1169  0.1764  0.0247
  683TMC3     O10158   3.992   1.805  11.510 -0.5172  0.5828  0.6893
  683TMC3     H10159   3.758   1.487  11.476 -0.0658  1.4099  0.3831
  683TMC3    H110160   4.000   1.768  11.262  0.1749  0.4669  1.1548
  683TMC3    H210161   3.718   1.502  11.070 -0.9384 -1.5037  1.2439
  683TMC3    C710162   3.893   1.675  11.009  0.2384 -0.4287  0.2696
  683TMC3    C810163   3.612   1.430  11.279  0.3629  0.2657 -0.3159
  683TMC3    O110164   3.808   1.646  10.928 -0.9144  0.1460  0.1887
  683TMC3    O210165   3.529   1.497  11.342  0.0723  0.0570 -0.2576
  684MPD2     C10166   1.980   0.806  16.329 -0.4989  0.0222  0.4128
  684MPD2    C110167   2.054   0.875  16.235 -0.1201  0.3788 -0.1547
  684MPD2    C210168   2.032   1.009  16.209 -0.7197  0.0528  0.0747
  684MPD2    C310169   1.957   1.086  16.298 -0.0634  0.6113 -0.1683
  684MPD2    C410170   1.887   1.020  16.400  0.2570  0.2357  0.1955
  684MPD2    C510171   1.895   0.881  16.408 -0.2888 -0.4541 -0.2986
  684MPD2     H10172   2.091   1.058  16.133 -0.7595 -0.6545 -0.4077
  684MPD2    H110173   1.824   1.071  16.472 -0.7547  0.1138 -0.5941
  684MPD2    H210174   1.967   0.699  16.336 -0.6147  0.0988  1.4495
  684MPD2    H310175   1.843   0.834  16.491 -0.5442 -1.4622 -1.0312
  684MPD2     N10176   1.958   1.226  16.294 -0.4731 -0.2767  0.1829
  684MPD2    H510177   1.938   1.284  16.375 -1.2112  0.4475 -0.5122
  684MPD2    N110178   2.128   0.805  16.139  0.3961  0.1432  0.3875
  684MPD2    H710179   2.180   0.864  16.074 -2.1543  1.8760 -0.0607
  685TMC3    C110180   2.248   0.647  16.021 -0.1628 -0.7661  0.1591
  685TMC3    C210181   2.177   0.592  15.916 -0.5421  0.3179  0.4192
  685TMC3    C310182   2.212   0.639  15.791 -0.3984  0.1239 -0.2010
  685TMC3    C410183   2.331   0.753  16.007 -0.5716 -0.3020 -0.3207
  685TMC3    C510184   2.374   0.789  15.883  0.3655  0.5129 -0.7636
  685TMC3    C610185   2.308   0.740  15.771  0.0159 -0.3118  0.2036
  685TMC3     C10186   2.154   0.670  16.130 -0.2066  0.2694  0.4962
  685TMC3     O10187   2.103   0.570  16.172 -0.7932  0.6068  0.2489
  685TMC3     H10188   2.115   0.507  15.939 -1.0637  1.1218  1.9961
  685TMC3    H110189   2.376   0.789  16.098  1.1287 -1.2353 -0.7843
  685TMC3    H210190   2.333   0.776  15.672 -3.7719 -0.0766 -0.6827
  685TMC3    C710191   2.471   0.894  15.881 -0.3549 -0.8409  0.4357
  685TMC3    C810192   2.098   0.660  15.704  0.7976  0.2169  0.3075
  685TMC3    O110193   2.485   0.960  15.986 -0.0926 -0.4872  0.6443
  685TMC3    O210194   2.114   0.698  15.592 -0.0514 -0.5004 -0.5559
  686MPD2     C10195   3.224   1.245  15.831 -0.3927 -0.0764  0.2896
  686MPD2    C110196   3.316   1.141  15.856 -0.0472  0.3552  0.8715
  686MPD2    C210197   3.427   1.142  15.776  0.1101  0.0139 -0.0571
  686MPD2    C310198   3.441   1.232  15.675  0.0565 -0.0340  0.2767
  686MPD2    C410199   3.345   1.330  15.648  0.1376 -1.2141  0.1142
  686MPD2    C510200   3.234   1.337  15.730 -0.8360  0.0585  0.2181
  686MPD2     H10201   3.493   1.057  15.790 -0.1523  0.1638  2.1899
  686MPD2    H110202   3.345   1.392  15.558  2.7062 -0.0546  0.9110
  686MPD2    H210203   3.133   1.255  15.889 -0.1780  0.6319  0.4954
  686MPD2    H310204   3.166   1.418  15.712 -2.6592 -1.6437 -0.5768
  686MPD2     N10205   3.551   1.209  15.589  0.0046  0.5795 -0.9747
  686MPD2    H510206   3.629   1.155  15.627 -0.6465 -0.3936 -1.0006
  686MPD2    N110207   3.301   1.045  15.959 -0.3184  0.0353  0.0817
  686MPD2    H710208   3.366   0.967  15.956  1.8401  1.9179 -2.2052
  687TMC3    C110209   3.657   1.161  15.381  0.2136  0.1959  0.4741
  687TMC3    C210210   3.573   1.116  15.278  0.1849  0.4578 -0.2667
  687TMC3    C310211   3.531   0.985  15.282  0.6284  0.0716  0.2089
  687TMC3    C410212   3.713   1.078  15.470 -0.1017  0.5211 -0.4701
  687TMC3    C510213   3.694   0.941  15.459  0.1627  0.6389 -0.3020
  687TMC3    C610214   3.593   0.898  15.372  0.0242 -0.0538  0.1001
  687TMC3     C10215   3.569   1.253  15.460 -0.2849 -0.2983  0.1471
  687TMC3     O10216   3.503   1.328  15.390 -0.4849  0.6966 -0.0483
  687TMC3     H10217   3.549   1.194  15.207  1.4197  0.1419 -1.0363
  687TMC3    H110218   3.780   1.115  15.546  0.5736  1.3945 -1.4915
  687TMC3    H210219   3.569   0.793  15.360  0.0502 -0.1450  0.8318
  687TMC3    C710220   3.751   0.854  15.557 -0.0372 -0.2933  0.7935
  687TMC3    C810221   3.389   0.986  15.298  0.2109 -0.7152 -0.3546
  687TMC3    O110222   3.835   0.909  15.626 -0.1493  0.1182 -0.3000
  687TMC3    O210223   3.336   0.876  15.324 -0.3763  0.3628  0.0200
  688MPD2     C10224   2.500   0.001  17.610  0.3229 -0.0941  0.8324
  688MPD2    C110225   2.464   4.606  17.595 -0.1750  0.5232  0.7231
  688MPD2    C210226   2.552   4.516  17.533  0.1657  0.0773 -0.6075
  688MPD2    C310227   2.683   4.564  17.510 -0.2334 -1.0343  0.3775
  688MPD2    C410228   2.711   4.704  17.519 -0.0652 -0.0959  0.5141
  688MPD2    C510229   2.619   0.044  17.568  0.2194  0.7535 -1.0432
  688MPD2     H10230   2.527   4.413  17.515  1.7048 -0.3276 -0.4460
  688MPD2    H110231   2.805   0.011  17.488 -0.6144  0.5368 -0.2057
  688MPD2    H210232   2.423   0.073  17.634 -0.2363 -0.7413  0.9814
  688MPD2    H310233   2.632   0.151  17.554 -3.2432  1.2416 -0.4640
  688MPD2     N10234   2.794   4.487  17.464 -0.0343  0.3327  0.2659
  688MPD2    H510235   2.877   4.541  17.442 -0.6221  1.6652  1.2778
  688MPD2    N110236   2.343   4.559  17.650  0.0054  0.4786 -0.3336
  688MPD2    H710237   2.308   4.608  17.731  1.7421  0.0686  0.6607
  689TMC3    C110238   2.168   4.408  17.684  0.2200  0.8173  0.5326
  689TMC3    C210239   2.179   4.441   0.069 -0.2384  0.2520 -0.4425
  689TMC3    C310240   2.073   4.400   0.150 -0.0932 -0.0028  0.0563
  689TMC3    C410241   2.059   4.347  17.626  0.2677  0.1062 -0.1696
  689TMC3    C510242   1.962   4.303  17.717 -0.5667  0.7238  0.0894
  689TMC3    C610243   1.969   4.329   0.104  0.2310  0.6932 -0.0020
  689TMC3     C10244   2.274   4.450  17.596  0.1483  0.1506 -0.1147
  689TMC3     O10245   2.282   4.408  17.480  0.4099 -0.2220 -0.2940
  689TMC3     H10246   2.273   4.470   0.113 -1.1135  2.7666 -0.2137
  689TMC3    H110247   2.065   4.322  17.521 -1.0873  0.3338 -0.2936
  689TMC3    H210248   1.882   4.304   0.163 -0.2655  0.4764 -0.8198
  689TMC3    C710249   1.915   4.163  17.706  0.4124  0.2039  0.5787
  689TMC3    C810250   2.067   4.445   0.288 -0.6514  0.1419  0.0668
  689TMC3    O110251   1.890   4.105   0.061  0.2157  0.0754 -0.0426
  689TMC3    O210252   1.988   4.387   0.362 -0.0599 -0.3578  0.1987
  690MPD2     C10253   0.288   1.786  15.826 -1.1001  0.0938 -0.2029
  690MPD2    C110254   0.219   1.722  15.722 -0.0789  0.1844 -0.4378
  690MPD2    C210255   0.270   1.737  15.594 -0.2686  0.1275 -0.2525
  690MPD2    C310256   0.389   1.801  15.562 -0.3444 -0.0034  0.0614
  690MPD2    C410257   0.464   1.847  15.668 -0.1162  0.0893  0.4089
  690MPD2    C510258   0.408   1.847  15.797  0.1619 -0.0981  0.0766
  690MPD2     H10259   0.216   1.684  15.517  0.1208 -0.0774 -0.3877
  690MPD2    H110260   0.562   1.890  15.656 -0.8126  1.8460  1.0117
  690MPD2    H210261   0.254   1.787  15.929  0.9448 -0.4726  0.4762
  690MPD2    H310262   0.467   1.897  15.873  0.1557 -2.3598  1.5400
  690MPD2     N10263   0.447   1.784  15.428  0.0880 -0.2158  0.3942
  690MPD2    H510264   0.382   1.758  15.354  0.1455 -2.4235  1.1240
  690MPD2    N110265   0.108   1.639  15.741 -0.4118  0.0488 -0.4086
  690MPD2    H710266   0.065   1.600  15.658  0.3530 -0.1324 -0.7228
  691TMC3    C110267   4.692   1.512  15.856  0.2810 -0.1518  0.6871
  691TMC3    C210268   4.586   1.555  15.775  0.6098 -0.3488 -0.0193
  691TMC3    C310269   4.485   1.461  15.758 -0.7304 -0.4580  0.4188
  691TMC3    C410270   4.715   1.386  15.882  0.4959  0.5114 -0.8144
  691TMC3    C510271   4.623   1.294  15.845  0.2868  0.3181  0.2334
  691TMC3    C610272   4.496   1.332  15.800 -0.0108  0.1990  0.1178
  691TMC3     C10273   0.068   1.607  15.867  1.2051  0.7185 -0.6185
  691TMC3     O10274   0.122   1.609  15.974 -0.7610 -0.2764  0.5514
  691TMC3     H10275   4.575   1.652  15.728  0.3583  0.3883  1.5444
  691TMC3    H110276   0.078   1.361  15.916  0.4117 -0.2750 -1.1435
  691TMC3    H210277   4.417   1.260  15.786  0.7662 -0.4755 -0.8345
  691TMC3    C710278   4.660   1.157  15.874  0.0571 -0.5411 -0.7398
  691TMC3    C810279   4.373   1.495  15.668  0.6420  0.3689 -1.0205
  691TMC3    O110280   0.034   1.126  15.915 -0.0889 -1.0857 -0.4723
  691TMC3    O210281   4.333   1.391  15.610  0.6940 -0.2013  1.0274
  692TMC3    C110282   1.734   2.709  16.041 -0.5436 -0.2579  0.2818
  692TMC3    C210283   1.841   2.714  16.130  0.0893  0.5408  0.0997
  692TMC3    C310284   1.945   2.628  16.108 -0.1264  0.2308 -0.7826
  692TMC3    C410285   1.711   2.605  15.959  0.3315 -0.3988  0.1816
  692TMC3    C510286   1.818   2.514  15.951  0.3057 -0.3049  1.4054
  692TMC3    C610287   1.932   2.522  16.029  0.0236 -0.1589  0.2110
  692TMC3     C10288   1.629   2.801  16.066  0.4627  0.1552  0.5372
  692TMC3     O10289   1.518   2.766  16.022  0.2609  0.5533 -0.0217
  692TMC3     H10290   1.878   2.811  16.161 -1.5540  0.9673  0.7087
  692TMC3    H110291   1.623   2.598  15.896  1.0214  0.9223 -0.9270
  692TMC3    H210292   2.021   2.468  16.000  0.0771 -0.2071  0.4655
  692TMC3    C710293   1.795   2.406  15.859 -0.3690 -0.0441 -0.2632
  692TMC3    C810294   1.988   2.588  16.242  0.5892  0.3204 -0.2091
  692TMC3    O110295   1.700   2.415  15.781 -0.2237 -0.9576  0.1036
  692TMC3    O210296   2.024   2.471  16.246  0.1464  0.8783 -0.9230
  693MPD2     C10297   1.451   0.745  10.110 -0.8474 -0.1166 -0.5130
  693MPD2    C110298   1.473   0.738  10.243 -0.2215  0.1385 -0.5896
  693MPD2    C210299   1.595   0.769  10.289  0.3852 -0.1439 -0.2388
  693MPD2    C310300   1.701   0.808  10.210  0.2205  0.0534  0.5235
  693MPD2    C410301   1.686   0.806  10.073  0.1309  0.0096 -0.1401
  693MPD2    C510302   1.557   0.784  10.029 -0.0224 -0.6898  0.0863
  693MPD2     H10303   1.613   0.787  10.394 -0.3175  0.8227 -0.2826
  693MPD2    H110304   1.766   0.839  10.008  1.6012 -2.6040  0.3030
  693MPD2    H210305   1.349   0.737  10.076 -1.0173 -2.5265  0.6073
  693MPD2    H310306   1.534   0.789   9.923 -1.6779  0.4442  0.4969
  693MPD2     N10307   1.833   0.839  10.251  0.1853 -0.2610 -0.0174
  693MPD2    H510308   1.908   0.846  10.183 -0.0771 -0.5826 -0.3432
  693MPD2    N110309   1.362   0.709  10.324  0.3376  0.0259 -0.1317
  693MPD2    H710310   1.274   0.692  10.276 -0.1414  1.1919  0.3091
  694TMC3    C110311   1.231   0.653  10.502 -0.2486 -0.1673  0.4273
  694TMC3    C210312   1.186   0.543  10.440 -0.0973 -0.2655  0.1050
  694TMC3    C310313   1.114   0.452  10.512 -0.3799 -0.0381 -0.7072
  694TMC3    C410314   1.203   0.680  10.631  0.1173 -0.3180 -0.2787
  694TMC3    C510315   1.141   0.582  10.702 -0.4127 -0.7721  0.7586
  694TMC3    C610316   1.096   0.463  10.643 -0.2290  0.6976 -0.6369
  694TMC3     C10317   1.360   0.695  10.458 -0.4460  0.1565  0.1389
  694TMC3     O10318   1.436   0.711  10.547  0.1491  0.6316  0.2106
  694TMC3     H10319   1.209   0.521  10.337  0.2994 -0.0688  0.1510
  694TMC3    H110320   1.225   0.779  10.669  0.4651 -0.4408 -0.1609
  694TMC3    H210321   1.034   0.393  10.697  0.3306 -0.1320 -1.0712
  694TMC3    C710322   1.107   0.597  10.844 -1.0339 -0.2123  0.5351
  694TMC3    C810323   1.055   0.339  10.450 -0.4776  0.0926  0.8486
  694TMC3    O110324   1.089   0.713  10.884  0.0587 -0.2113  0.2244
  694TMC3    O210325   1.010   0.251  10.518 -0.1627 -0.8163  0.1486
  695MPD2     C10326   2.427   2.032  13.280 -0.3430 -0.0972  0.4000
  695MPD2    C110327   2.406   2.032  13.420  0.0201  0.2890  0.1161
  695MPD2    C210328   2.277   2.010  13.464  0.8385  0.2204 -0.7497
  695MPD2    C310329   2.176   1.990  13.366  0.9127  0.4679  0.3828
  695MPD2    C410330   2.201   1.988  13.227 -0.2028  0.8031 -0.1850
  695MPD2    C510331   2.327   1.999  13.187  0.5721 -0.2587  0.5339
  695MPD2     H10332   2.261   2.001  13.571 -0.1248  0.3629 -0.8772
  695MPD2    H110333   2.124   1.961  13.156  0.1965 -2.3178  0.5700
  695MPD2    H210334   2.522   2.058  13.234  0.8488 -0.1246  2.8603
  695MPD2    H310335   2.351   1.992  13.081 -0.2769  0.3783  0.3018
  695MPD2     N10336   2.047   1.975  13.413  0.0425 -0.6019  0.0744
  695MPD2    H510337   2.031   1.990  13.512  0.3698  1.1670 -0.1461
  695MPD2    N110338   2.514   2.050  13.512 -0.0476  0.1112 -0.2592
  695MPD2    H710339   2.485   2.040  13.609  0.7920 -0.6878 -0.0870
  696TMC3    C110340   1.808   1.996  13.396 -0.2443 -0.0701  0.1176
  696TMC3    C210341   1.798   1.973  13.526 -0.3893  0.0201 -0.4150
  696TMC3    C310342   1.713   2.045  13.600 -0.4990 -0.7299  0.3818
  696TMC3    C410343   1.729   2.085  13.333  0.7357  0.2224 -0.2430
  696TMC3    C510344   1.646   2.162  13.408 -0.5797 -0.0160 -0.2000
  696TMC3    C610345   1.635   2.141  13.544 -0.2428 -0.2489 -0.0748
  696TMC3     C10346   1.933   1.958  13.329 -0.2439  0.1526 -0.3425
  696TMC3     O10347   1.919   1.954  13.207  0.6514  0.1934  0.0622
  696TMC3     H10348   1.851   1.883  13.557  0.0255 -0.4267 -2.4222
  696TMC3    H110349   1.756   2.110  13.231 -4.0685 -0.2934 -1.6249
  696TMC3    H210350   1.580   2.200  13.616  1.3062  1.2071 -0.1093
  696TMC3    C710351   1.633   2.295  13.355 -0.0964  0.9150  0.4495
  696TMC3    C810352   1.719   2.037  13.748 -0.0883  0.2308  0.2704
  696TMC3    O110353   1.667   2.315  13.240 -0.0530  0.0688 -0.0839
  696TMC3    O210354   1.836   2.023  13.782  0.0878  0.0306 -0.3142
  697MPD2     C10355   1.479   4.201  16.162 -0.1838  0.1985 -0.4607
  697MPD2    C110356   1.489   4.135  16.036 -0.5623 -0.1118  0.3736
  697MPD2    C210357   1.493   4.216  15.931 -0.0248  0.1415  0.8301
  697MPD2    C310358   1.490   4.356  15.940  0.0539 -0.3194  0.1552
  697MPD2    C410359   1.502   4.417  16.063  0.1693  0.7967 -0.2369
  697MPD2    C510360   1.487   4.334  16.170 -0.0963 -0.6148  0.0021
  697MPD2     H10361   1.496   4.171  15.832 -1.5946 -1.6777  1.6224
  697MPD2    H110362   1.516   4.521  16.089 -0.6950  0.7620  0.3586
  697MPD2    H210363   1.472   4.141  16.252 -0.1264  0.3535 -0.3536
  697MPD2    H310364   1.489   4.377  16.270  0.7779  2.0656 -1.1543
  697MPD2     N10365   1.488   4.435  15.821  0.2881  0.4273  0.1449
  697MPD2    H510366   1.505   4.389  15.733  0.4508  0.8036 -0.0192
  697MPD2    N110367   1.478   3.994  16.017 -0.4123  0.3134  0.1120
  697MPD2    H710368   1.473   3.960  15.921 -1.2854 -1.5598  0.8258
  698TMC3    C110369   1.530   4.623  15.686  0.6577  0.2521 -0.1376
  698TMC3    C210370   1.629   4.721  15.683  0.1058 -0.4187  0.8233
  698TMC3    C310371   1.685   0.007  15.560 -0.4052 -0.3667 -0.3058
  698TMC3    C410372   1.476   4.571  15.572 -0.3662  0.1354 -0.1737
  698TMC3    C510373   1.525   4.611  15.454  0.4022 -0.3731 -0.0788
  698TMC3    C610374   1.634   4.689  15.447 -0.3423  0.4733 -0.1347
  698TMC3     C10375   1.501   4.576  15.821  0.6258 -0.3656  0.1607
  698TMC3     O10376   1.491   4.664  15.903  0.0196 -0.7641 -0.3672
  698TMC3     H10377   1.675   0.017  15.775 -1.7817 -1.7412  2.2407
  698TMC3    H110378   1.408   4.487  15.582 -0.0453 -0.1056  0.0019
  698TMC3    H210379   1.645   4.737  15.351  3.1395  0.1163  0.0863
  698TMC3    C710380   1.482   4.538  15.337  0.8408  0.0476 -1.1191
  698TMC3    C810381   1.782   0.121  15.562  0.4192 -0.2001 -0.1151
  698TMC3    O110382   1.371   4.487  15.353  0.1283 -0.0955  0.3439
  698TMC3    O210383   1.766   0.211  15.644 -0.3209  0.1718 -0.1326
  699TMC3    C110384   1.328   2.720  13.141  0.3527  0.5083 -0.0110
  699TMC3    C210385   1.312   2.585  13.152  0.2295 -0.2307  0.3008
  699TMC3    C310386   1.243   2.532  13.262  0.3188  0.3125 -0.3341
  699TMC3    C410387   1.294   2.805  13.243 -0.1213 -0.4655 -0.5363
  699TMC3    C510388   1.237   2.748  13.355  0.2630  0.9145 -0.1962
  699TMC3    C610389   1.200   2.617  13.360 -0.1755  1.2885 -0.1660
  699TMC3     C10390   1.370   2.783  13.019  0.3643  0.8054 -0.5869
  699TMC3     O10391   1.324   2.892  12.991  0.6478 -0.5185  0.1441
  699TMC3     H10392   1.341   2.520  13.070  1.3119 -1.5748  1.7493
  699TMC3    H110393   1.293   2.913  13.227  1.2872 -0.5068 -0.8929
  699TMC3    H210394   1.160   2.570  13.449  0.8276 -0.1414 -0.4801
  699TMC3    C710395   1.240   2.825  13.482 -0.1530  0.3349 -1.1983
  699TMC3    C810396   1.250   2.389  13.281 -0.4028  0.1679  0.1003
  699TMC3    O110397   1.209   2.761  13.583 -0.2801 -0.5053 -0.0633
  699TMC3    O210398   1.218   2.343  13.385  0.0014  0.2375 -1.0169
  700TMC3    C110399   0.119   0.292  17.386 -0.3630  0.7532  0.3686
  700TMC3    C210400   0.126   0.160  17.355 -1.2542  0.5486 -0.3611
  700TMC3    C310401   0.217   0.083  17.422  0.0528  0.5177  0.9083
  700TMC3    C410402   0.214   0.352  17.463 -0.3283 -0.0929 -1.6431
  700TMC3    C510403   0.314   0.277  17.521  0.8814  0.2631 -0.5039
  700TMC3    C610404   0.317   0.141  17.503  0.8344 -0.4008 -0.2216
  700TMC3     C10405   0.056   0.386  17.289 -0.3270  0.1990 -0.1647
  700TMC3     O10406   4.687   0.356  17.230 -0.5697  0.0197  0.1750
  700TMC3     H10407   0.059   0.117  17.282  1.4929 -0.6523 -2.1381
  700TMC3    H110408   0.190   0.448  17.507  0.2471  0.5582 -2.7463
  700TMC3    H210409   0.387   0.073  17.550  4.2700  2.6907 -0.8533
  700TMC3    C710410   0.440   0.350  17.552 -1.1355 -0.4733 -0.0852
  700TMC3    C810411   0.234   4.683  17.380 -0.3863 -0.4352 -1.0283
  700TMC3    O110412   0.435   0.470  17.570  0.6094 -0.0249 -0.1940
  700TMC3    O210413   0.351   4.636  17.381 -0.3626 -0.5080  0.7449
  701TMC3    C110414   0.536   3.624  15.479 -0.4276 -0.1683 -0.1521
  701TMC3    C210415   0.528   3.658  15.345  0.9455 -0.0411 -0.1118
  701TMC3    C310416   0.551   3.788  15.302  0.2515  0.1410  0.7707
  701TMC3    C410417   0.587   3.708  15.567  0.0565  0.0893 -0.4772
  701TMC3    C510418   0.616   3.831  15.522  0.3674 -0.2796 -0.0364
  701TMC3    C610419   0.605   3.873  15.395  0.1302  0.1404  0.2245
  701TMC3     C10420   0.434   3.538  15.525 -0.0525 -0.4273 -1.0460
  701TMC3     O10421   0.369   3.585  15.614 -0.2315 -0.0819  0.9252
  701TMC3     H10422   0.489   3.586  15.275  1.2714 -0.7041  0.3938
  701TMC3    H110423   0.569   3.693  15.673  0.4589 -2.1136 -0.7251
  701TMC3    H210424   0.617   3.978  15.368 -2.0401  0.4036  0.2784
  701TMC3    C710425   0.712   3.909  15.599  0.3964 -0.0369 -1.2033
  701TMC3    C810426   0.523   3.838  15.170 -0.8047 -0.4591  1.2993
  701TMC3    O110427   0.705   4.030  15.601  0.0585  0.7092 -0.1104
  701TMC3    O210428   0.568   3.952  15.141  0.2078 -0.2386 -0.7809
  702MPD2     C10429   0.382   0.616  10.821 -0.7259  0.4335  0.0108
  702MPD2    C110430   0.370   0.734  10.893 -0.3155  0.2410  0.1057
  702MPD2    C210431   0.397   0.858  10.835 -0.2876  0.0723 -0.0021
  702MPD2    C310432   0.428   0.870  10.701 -0.5572  0.0180  0.0338
  702MPD2    C410433   0.430   0.750  10.628  0.0062 -0.3719 -0.3239
  702MPD2    C510434   0.410   0.629  10.693  0.3094 -0.6914 -0.2814
  702MPD2     H10435   0.377   0.944  10.897 -2.5112  0.6039 -1.4457
  702MPD2    H110436   0.457   0.758  10.523 -0.2127 -0.2566 -0.3711
  702MPD2    H210437   0.362   0.516  10.857  0.5133 -1.3105 -4.0883
  702MPD2    H310438   0.424   0.532  10.645 -0.1878 -0.7149 -0.3764
  702MPD2     N10439   0.439   0.999  10.639  0.0062 -0.0693 -0.0682
  702MPD2    H510440   0.466   0.996  10.542  1.1420  1.8208  0.1963
  702MPD2    N110441   0.342   0.732  11.034 -0.0572 -0.1739 -0.7347
  702MPD2    H710442   0.359   0.819  11.083 -0.9288 -0.1865 -0.4062
  703TMC3    C110443   0.383   1.223  10.596 -0.2378  0.5523 -0.0414
  703TMC3    C210444   0.264   1.280  10.612 -0.9490  1.2764  0.0782
  703TMC3    C310445   0.254   1.404  10.548 -0.2460 -0.0360 -0.2913
  703TMC3    C410446   0.502   1.284  10.550 -0.3229  0.1677  0.5809
  703TMC3    C510447   0.483   1.406  10.490 -0.0789  0.3253  0.5804
  703TMC3    C610448   0.356   1.472  10.486  0.0467 -0.6468 -0.4204
  703TMC3     C10449   0.398   1.115  10.693 -0.2471  0.6989  1.2695
  703TMC3     O10450   0.369   1.147  10.806  0.6861  0.5550  0.8012
  703TMC3     H10451   0.178   1.238  10.662  1.7334 -3.8042  0.3987
  703TMC3    H110452   0.602   1.242  10.550  1.0612  3.4716 -0.1195
  703TMC3    H210453   0.343   1.569  10.439  0.0440 -0.5130 -0.1424
  703TMC3    C710454   0.601   1.459  10.413  0.6195 -0.2130 -0.2970
  703TMC3    C810455   0.118   1.459  10.538 -0.1075  0.5458  0.4225
  703TMC3    O110456   0.711   1.421  10.442  0.1921 -0.6425 -0.2941
  703TMC3    O210457   0.099   1.532  10.445 -0.0935  0.2672 -0.2360
  704TMC3    C110458   3.136   3.977  12.633 -1.1797  0.0436  0.4881
  704TMC3    C210459   3.202   3.999  12.512  0.6698 -0.1091 -0.2248
  704TMC3    C310460   3.334   3.965  12.504  0.2383 -0.3466 -0.5692
  704TMC3    C410461   3.207   3.929  12.742  0.1254 -0.0062  0.1541
  704TMC3    C510462   3.336   3.894  12.731  0.3998  0.5611 -0.1555
  704TMC3    C610463   3.399   3.906  12.609  0.2786 -0.1680 -0.4842
  704TMC3     C10464   2.994   3.966  12.630  0.1575  0.0116 -1.4318
  704TMC3     O10465   2.939   3.946  12.739  0.0220 -0.2786 -0.0401
  704TMC3     H10466   3.153   4.038  12.424  0.0895 -0.3067  0.0031
  704TMC3    H110467   3.141   3.919  12.827  2.1403 -1.0628  1.5775
  704TMC3    H210468   3.490   3.849  12.593  1.4511  1.9328 -1.2367
  704TMC3    C710469   3.365   3.766  12.794  0.5254 -0.0519 -0.0561
  704TMC3    C810470   3.353   3.889  12.384  0.0338 -0.6931 -0.6728
  704TMC3    O110471   3.395   3.676  12.719  0.4525  0.3470 -0.2993
  704TMC3    O210472   3.246   3.856  12.332 -0.0059  0.0378 -0.5755
  705MPD2     C10473   2.027   2.056  16.752 -0.2346  0.4149  0.7681
  705MPD2    C110474   1.991   2.052  16.619 -0.4509 -0.3528 -0.2094
  705MPD2    C210475   1.856   2.053  16.582 -0.8488 -0.8585  0.0134
  705MPD2    C310476   1.766   2.077  16.681 -0.1367 -0.1293  0.3121
  705MPD2    C410477   1.795   2.084  16.815 -0.6128  0.1472  0.6001
  705MPD2    C510478   1.932   2.075  16.853  0.4225  0.2293  0.4227
  705MPD2     H10479   1.818   2.039  16.482  0.5266 -2.2098 -0.3212
  705MPD2    H110480   1.715   2.105  16.886 -2.6194  0.8135 -1.8736
  705MPD2    H210481   2.131   2.049  16.781 -0.5056  2.4639  2.2302
  705MPD2    H310482   1.955   2.069  16.959 -1.3004  0.3823  0.8118
  705MPD2     N10483   1.635   2.095  16.646  0.3204 -0.2681 -0.2066
  705MPD2    H510484   1.573   2.130  16.717 -0.5829  3.2350 -2.7293
  705MPD2    N110485   2.079   2.084  16.523 -0.1086 -0.3654 -0.2709
  705MPD2    H710486   2.055   2.062  16.427 -1.5116  0.0790 -0.0177
  706TMC3    C110487   2.240   2.173  16.169  0.4331  0.0352  0.1194
  706TMC3    C210488   2.271   2.305  16.153  0.0338  0.6175  0.3809
  706TMC3    C310489   2.303   2.382  16.264 -0.2707  0.0363 -0.2171
  706TMC3    C410490   2.234   2.123  16.296  0.1963 -0.1305 -0.0374
  706TMC3    C510491   2.239   2.202  16.407  0.4271  0.6239 -0.1803
  706TMC3    C610492   2.275   2.334  16.393 -0.4437 -0.8067 -0.1740
  706TMC3     C10493   2.237   2.075  16.063  0.1738 -0.9692 -0.2267
  706TMC3     O10494   2.181   1.971  16.082 -0.3041 -0.4178  0.2121
  706TMC3     H10495   2.265   2.354  16.056  2.6304  2.2886  1.0597
  706TMC3    H110496   2.208   2.021  16.325  1.5875 -0.8521 -1.3691
  706TMC3    H210497   2.297   2.389  16.484  0.5853 -0.9560 -0.3317
  706TMC3    C710498   2.199   2.148  16.532 -0.4936 -0.1851  0.5951
  706TMC3    C810499   2.325   2.524  16.240 -1.0910  0.0527  0.1542
  706TMC3    O110500   2.251   2.198  16.628 -0.3955 -0.0581  0.0836
  706TMC3    O210501   2.334   2.557  16.123  0.1466 -0.3621  0.5857
  707TMC3    C110502   3.397   1.394   1.156 -0.2295 -0.0464  0.1045
  707TMC3    C210503   3.444   1.316   1.258 -0.0016  0.0182  0.3423
  707TMC3    C310504   3.367   1.300   1.372  1.0423 -0.7366  0.1578
  707TMC3    C410505   3.274   1.466   1.171 -0.5307  0.7950  0.4686
  707TMC3    C510506   3.209   1.457   1.292 -0.3667  0.2261 -0.3514
  707TMC3    C610507   3.258   1.376   1.395  0.3978 -0.3851 -0.3761
  707TMC3     C10508   3.464   1.364   1.030 -0.2748  0.3800  0.6605
  707TMC3     O10509   3.530   1.265   1.025  0.2505  0.3530 -0.3874
  707TMC3     H10510   3.539   1.268   1.238  0.3398  0.5416  0.6890
  707TMC3    H110511   3.236   1.527   1.089  0.1760 -2.0575 -1.9926
  707TMC3    H210512   3.196   1.347   1.478 -0.2920 -0.6991 -0.9983
  707TMC3    C710513   3.066   1.482   1.292 -0.4722 -0.3358  0.0454
  707TMC3    C810514   3.397   1.198   1.471 -0.2488  0.5917  0.1033
  707TMC3    O110515   3.014   1.494   1.181  0.1973  0.2166  0.0836
  707TMC3    O210516   3.357   1.226   1.582  0.2191  0.3801  0.0141
  708MPD2     C10517   0.600   0.510  14.283  0.4926 -0.0460 -0.0882
  708MPD2    C110518   0.470   0.551  14.292 -0.8320  0.7688  0.3539
  708MPD2    C210519   0.396   0.530  14.411  0.0926  0.2076 -0.0513
  708MPD2    C310520   0.452   0.457  14.511  0.1700  0.4709  0.6283
  708MPD2    C410521   0.573   0.405  14.496 -0.1697 -0.8669  0.1298
  708MPD2    C510522   0.651   0.427  14.385 -0.5333  0.8160  0.6777
  708MPD2     H10523   0.297   0.573  14.420  0.5061  1.8330 -3.4248
  708MPD2    H110524   0.608   0.339  14.574  2.4812 -0.1218 -0.4234
  708MPD2    H210525   0.677   0.542  14.214  0.6470 -0.8887 -0.3077
  708MPD2    H310526   0.751   0.388  14.372 -0.2728  1.7264 -0.0852
  708MPD2     N10527   0.388   0.434  14.633 -0.2519  0.1736 -0.7907
  708MPD2    H510528   0.446   0.397  14.708 -2.1494 -3.3193 -1.0286
  708MPD2    N110529   0.414   0.642  14.192  0.4298 -0.1094  0.1100
  708MPD2    H710530   0.322   0.680  14.211  1.7846  2.3432  1.7017
  709TMC3    C110531   0.363   0.744  13.994  0.2366  0.0661  0.7170
  709TMC3    C210532   0.300   0.678  13.890 -0.3020 -1.0438  0.1034
  709TMC3    C310533   0.171   0.714  13.854 -0.2231 -0.3604  0.3920
  709TMC3    C410534   0.298   0.841  14.073  0.7081 -0.4540 -0.7500
  709TMC3    C510535   0.166   0.870  14.038  0.1822  0.1029  0.0774
  709TMC3    C610536   0.094   0.807  13.927  0.5236 -0.2229 -0.6068
  709TMC3     C10537   0.452   0.651  14.064 -0.1742 -0.4415  0.6419
  709TMC3     O10538   0.529   0.582  13.998 -0.2548 -1.2091  0.2973
  709TMC3     H10539   0.345   0.596  13.837  0.2438  1.4081 -3.2409
  709TMC3    H110540   0.348   0.890  14.155 -2.1834  0.9146  0.1975
  709TMC3    H210541   4.727   0.825  13.906  0.2048 -1.5693 -0.1639
  709TMC3    C710542   0.084   0.914  14.152  0.5112  0.2605 -0.9253
  709TMC3    C810543   0.099   0.646  13.750 -0.1484 -0.4592 -0.2895
  709TMC3    O110544   0.145   0.964  14.246 -0.2281  0.0678  0.0940
  709TMC3    O210545   4.715   0.632  13.777  0.8814 -0.5105 -0.4990
  710TMC3    C110546   1.143   1.994   0.420  0.0818 -0.2531 -0.0257
  710TMC3    C210547   1.200   2.048   0.314 -0.3945  0.5774 -0.5557
  710TMC3    C310548   1.300   1.980   0.254  0.3493 -0.2460 -0.7511
  710TMC3    C410549   1.180   1.879   0.486 -0.1767  0.3508 -0.9011
  710TMC3    C510550   1.286   1.815   0.429 -0.2049 -0.0573 -0.3043
  710TMC3    C610551   1.343   1.864   0.312 -0.0436  0.0786  0.3366
  710TMC3     C10552   1.034   2.076   0.469  0.5588  1.2746  0.0972
  710TMC3     O10553   0.977   2.139   0.382  0.0555  0.4267 -0.0732
  710TMC3     H10554   1.160   2.137   0.266 -2.7991 -1.3572 -2.1627
  710TMC3    H110555   1.125   1.837   0.570  1.0697 -1.8311 -1.1641
  710TMC3    H210556   1.423   1.811   0.262  0.9068  1.5708  0.2764
  710TMC3    C710557   1.335   1.694   0.482  0.2740 -0.3748  0.2552
  710TMC3    C810558   1.372   2.039   0.148  0.2723  0.1805 -0.0769
  710TMC3    O110559   1.254   1.629   0.550 -0.5325  0.5665  0.5807
  710TMC3    O210560   1.488   2.008   0.149 -0.2361 -0.4584  0.6372
  711TMC3    C110561   1.159   3.267  15.109  1.1322  0.2804  0.8534
  711TMC3    C210562   1.178   3.291  15.248  0.3779  0.2056  0.5454
  711TMC3    C310563   1.301   3.264  15.299  0.1630 -0.2354 -0.8179
  711TMC3    C410564   1.251   3.201  15.035  0.3649  0.0849 -0.3442
  711TMC3    C510565   1.371   3.169  15.097  0.2217  0.7077 -0.2357
  711TMC3    C610566   1.405   3.213  15.219 -0.4663  0.3120  0.2201
  711TMC3     C10567   1.025   3.233  15.060 -0.5882 -0.4409  0.1068
  711TMC3     O10568   1.010   3.200  14.944 -0.5705  0.2721  0.1382
  711TMC3     H10569   1.108   3.348  15.307 -0.9385 -0.4083 -0.4214
  711TMC3    H110570   1.232   3.174  14.931 -0.2073  0.1004 -0.2470
  711TMC3    H210571   1.509   3.203  15.246 -1.2380 -2.4565  2.0823
  711TMC3    C710572   1.419   3.029  15.088 -0.0832 -0.0085 -0.2838
  711TMC3    C810573   1.325   3.269  15.446  0.4432 -0.4896 -0.5882
  711TMC3    O110574   1.470   2.983  15.193 -0.1444  0.3359 -0.9040
  711TMC3    O210575   1.221   3.275  15.512  0.4412  0.3051  0.2449
  712MPD2     C10576   2.742   3.812  13.734  0.6684  0.1996 -0.1210
  712MPD2    C110577   2.650   3.863  13.654 -0.3693 -0.2293 -0.4091
  712MPD2    C210578   2.681   3.985  13.589  0.3039  0.2739  0.5808
  712MPD2    C310579   2.804   4.049  13.603 -0.9785 -0.4899 -0.5748
  712MPD2    C410580   2.893   3.995  13.696  0.0227  0.1958  0.2406
  712MPD2    C510581   2.860   3.871  13.753 -0.1139  0.4028 -0.2850
  712MPD2     H10582   2.602   4.034  13.533 -1.2743 -3.7429 -0.6956
  712MPD2    H110583   2.992   4.039  13.705 -1.4869  3.7157 -0.5456
  712MPD2    H210584   2.717   3.719  13.783 -0.3301  2.1226  3.0488
  712MPD2    H310585   2.936   3.817  13.808 -0.5715  0.7320  0.6613
  712MPD2     N10586   2.833   4.183  13.557 -0.3465 -0.4774 -0.0704
  712MPD2    H510587   2.929   4.216  13.564  0.1825 -2.2718  1.1474
  712MPD2    N110588   2.524   3.796  13.629 -0.3917  0.0063  0.5506
  712MPD2    H710589   2.464   3.825  13.553  0.9184  0.4897 -0.2954
  713TMC3    C110590   2.788   4.391  13.437  0.7828  0.2153 -0.3687
  713TMC3    C210591   2.915   4.389  13.389 -0.3301  0.1278 -0.6275
  713TMC3    C310592   2.949   4.484  13.297  1.0433 -0.3977  0.3215
  713TMC3    C410593   2.702   4.486  13.398 -0.4143 -0.0327 -0.2627
  713TMC3    C510594   2.741   4.584  13.310 -0.1671 -0.2090  0.8193
  713TMC3    C610595   2.864   4.586  13.259 -0.5047  0.4298  0.1222
  713TMC3     C10596   2.740   4.269  13.507 -0.3218 -0.6504 -0.4251
  713TMC3     O10597   2.617   4.255  13.513  0.1677 -0.0295 -0.1287
  713TMC3     H10598   2.987   4.310  13.411 -1.3174  0.5881  4.3210
  713TMC3    H110599   2.597   4.483  13.429 -0.0996 -0.1822  0.8034
  713TMC3    H210600   2.889   4.669  13.195 -0.2565 -0.5202 -0.9999
  713TMC3    C710601   2.629   4.666  13.255  0.3479  0.5350  1.0402
  713TMC3    C810602   3.087   4.505  13.263  0.8882  0.4465 -0.3130
  713TMC3    O110603   2.528   4.683  13.322  0.1654 -0.3622  0.5277
  713TMC3    O210604   3.111   4.608  13.199  0.2461  0.1644 -0.4975
  714MPD2     C10605   4.699   2.526   2.430  0.4374  0.3267  0.0446
  714MPD2    C110606   4.657   2.474   2.314 -0.1059 -0.4662  0.2161
  714MPD2    C210607   4.536   2.509   2.259 -0.6558  0.0152  0.3427
  714MPD2    C310608   4.447   2.575   2.341  0.4661 -0.2557  0.5633
  714MPD2    C410609   4.489   2.629   2.461 -0.3399  0.0406  0.0882
  714MPD2    C510610   4.613   2.602   2.505  0.3936 -0.6184 -0.3729
  714MPD2     H10611   4.500   2.468   2.166  0.0601 -1.3934  0.6973
  714MPD2    H110612   4.425   2.690   2.524 -0.1181  0.9283 -0.5423
  714MPD2    H210613   0.060   2.504   2.470  0.6764 -1.4268 -1.5419
  714MPD2    H310614   4.645   2.647   2.598  0.2651 -0.9543 -0.1623
  714MPD2     N10615   4.304   2.580   2.297 -0.5929  0.0328  0.7759
  714MPD2    H510616   4.285   2.532   2.209  0.4777 -1.2611  1.2439
  714MPD2    N110617   0.016   2.386   2.254 -0.0510 -0.0620 -0.0056
  714MPD2    H710618   0.107   2.368   2.297 -1.0306 -2.7349  0.9802
  715TMC3    C110619   0.132   2.297   2.079 -1.1809 -0.1652 -0.4280
  715TMC3    C210620   0.140   2.212   1.966 -0.0931 -0.2993  0.0966
  715TMC3    C310621   0.263   2.178   1.922 -0.4025 -0.0543 -0.9246
  715TMC3    C410622   0.245   2.348   2.144 -0.8620  0.4886  0.2536
  715TMC3    C510623   0.368   2.299   2.096 -0.4404 -0.0328  0.3483
  715TMC3    C610624   0.379   2.220   1.985  0.7807 -0.2235 -0.1824
  715TMC3     C10625   0.004   2.331   2.129 -0.5764 -0.3004 -0.2393
  715TMC3     O10626   4.640   2.312   2.064  0.1149 -0.4612 -0.4024
  715TMC3     H10627   0.053   2.173   1.915  1.7695 -0.0152 -3.2945
  715TMC3    H110628   0.241   2.434   2.211  0.6950  0.5509  0.2840
  715TMC3    H210629   0.476   2.176   1.967  0.7695 -0.9400  1.5199
  715TMC3    C710630   0.487   2.373   2.142 -1.0538 -0.1786 -0.7666
  715TMC3    C810631   0.277   2.095   1.805  0.5707  0.0829 -0.2254
  715TMC3    O110632   0.586   2.379   2.072  0.2963  0.3186 -0.3212
  715TMC3    O210633   0.187   2.100   1.721 -0.1629 -0.2730  0.0657
  716MPD2     C10634   0.320   0.989   9.253  0.6270  0.6583 -0.1843
  716MPD2    C110635   0.225   0.967   9.155 -0.2803  0.5899  0.1010
  716MPD2    C210636   0.238   0.850   9.082  0.3087 -0.0891  0.2827
  716MPD2    C310637   0.332   0.751   9.107 -0.1368 -0.1357 -0.9148
  716MPD2    C410638   0.423   0.780   9.206 -0.2592 -0.1007 -0.0662
  716MPD2    C510639   0.414   0.896   9.281 -0.3693 -0.4448 -0.8966
  716MPD2     H10640   0.161   0.833   9.008  1.6977  0.7398 -1.3402
  716MPD2    H110641   0.513   0.724   9.227 -0.4320 -0.3693 -0.0282
  716MPD2    H210642   0.328   1.078   9.314  1.9877  1.0607 -0.9618
  716MPD2    H310643   0.503   0.914   9.341 -1.2752 -0.4942  0.4396
  716MPD2     N10644   0.324   0.631   9.034  0.3795  0.0401  0.1780
  716MPD2    H510645   0.239   0.629   8.978  0.1005 -2.6384  0.7098
  716MPD2    N110646   0.123   1.066   9.133  0.6793  0.4276 -0.0618
  716MPD2    H710647   0.127   1.148   9.193 -2.5151  0.4255  0.1367
  717TMC3    C110648   0.371   0.411   8.968  0.5099 -0.4844 -0.0930
  717TMC3    C210649   0.238   0.385   8.962  0.5709  0.0564  0.3378
  717TMC3    C310650   0.204   0.285   8.876  0.2558  0.0071  0.5473
  717TMC3    C410651   0.469   0.341   8.903  0.0608 -0.1816  0.0192
  717TMC3    C510652   0.433   0.244   8.821 -0.3237  0.1824 -0.1210
  717TMC3    C610653   0.298   0.217   8.796  0.5794  0.1155  0.9111
  717TMC3     C10654   0.411   0.519   9.045  0.7775 -0.2618 -0.6378
  717TMC3     O10655   0.515   0.510   9.100 -0.0020 -0.2502 -0.1364
  717TMC3     H10656   0.159   0.423   9.026 -0.4708 -0.6672 -0.5255
  717TMC3    H110657   0.577   0.351   8.916  0.1431  0.2086 -0.9764
  717TMC3    H210658   0.269   0.141   8.724 -0.7011  2.3294 -0.8869
  717TMC3    C710659   0.533   0.184   8.741  0.1143  0.3597  0.6109
  717TMC3    C810660   0.066   0.257   8.841 -0.5431  0.3784  0.6966
  717TMC3    O110661   0.638   0.247   8.729 -0.0125 -1.1758  0.1990
  717TMC3    O210662   4.719   0.342   8.868 -0.3587 -0.6602  0.0644
  718MPD2     C10663   4.181   0.090  12.684  0.0706  0.2536  0.8507
  718MPD2    C110664   4.085   0.045  12.598  0.1481 -0.4090 -0.0490
  718MPD2    C210665   4.031   4.654  12.593 -0.0401  0.2546 -0.6432
  718MPD2    C310666   4.078   4.566  12.695  0.0623  0.3987  0.8451
  718MPD2    C410667   4.177   4.605  12.782  0.9792  0.0797 -0.3009
  718MPD2    C510668   4.232   4.735  12.774 -0.2637 -0.3739  0.1008
  718MPD2     H10669   3.951   4.621  12.529  1.1355 -1.4276 -1.2413
  718MPD2    H110670   4.200   4.554  12.875  1.0201  0.1465 -0.2753
  718MPD2    H210671   4.227   0.187  12.673 -2.7874  1.4723 -0.5801
  718MPD2    H310672   4.311   0.030  12.842  3.0840  0.9718 -4.4189
  718MPD2     N10673   4.016   4.436  12.714  0.0570  0.3860 -0.0139
  718MPD2    H510674   3.924   4.432  12.672 -0.7458 -1.4622  1.9404
  718MPD2    N110675   4.067   0.135  12.495 -0.1838  0.8568 -0.0376
  718MPD2    H710676   4.137   0.206  12.473  0.8278 -0.5733 -1.5032
  719TMC3    C110677   4.015   0.148  12.265  0.0718  0.2325 -0.4799
  719TMC3    C210678   3.977   0.036  12.192  0.0024 -0.2771  0.1242
  719TMC3    C310679   4.077   4.704  12.128 -0.3851 -0.5113 -0.3172
  719TMC3    C410680   4.147   0.195  12.262 -0.7592  0.1081 -0.0254
  719TMC3    C510681   4.245   0.121  12.204  0.3315  0.0768 -0.1207
  719TMC3    C610682   4.208   0.012  12.126  0.0501  0.3874  0.1710
  719TMC3     C10683   3.964   0.125  12.406 -0.2112 -0.3440 -0.4363
  719TMC3     O10684   3.859   0.064  12.417 -0.4634  0.2189  0.6318
  719TMC3     H10685   3.876   4.738  12.205  0.0942 -1.1029 -1.4680
  719TMC3    H110686   4.161   0.296  12.299 -1.8050 -0.3445  1.5668
  719TMC3    H210687   4.280   4.682  12.082 -1.7420 -1.1465 -0.4306
  719TMC3    C710688   4.379   0.170  12.189 -0.0206  0.3656  0.2165
  719TMC3    C810689   4.066   4.563  12.135  0.0727  0.1709  0.3908
  719TMC3    O110690   4.455   0.111  12.113 -0.1748 -0.2763 -0.2458
  719TMC3    O210691   4.147   4.504  12.200  0.0835 -0.3790 -0.0761
  720MPD2     C10692   2.727   1.122  14.021 -0.3438  0.2633  0.7964
  720MPD2    C110693   2.806   1.190  13.931 -0.5097 -0.3176 -0.0877
  720MPD2    C210694   2.940   1.208  13.951 -0.3456  0.1892 -0.2763
  720MPD2    C310695   2.990   1.181  14.073  0.3770 -0.2219  0.0749
  720MPD2    C410696   2.902   1.112  14.161 -0.4775 -0.1485 -0.0044
  720MPD2    C510697   2.777   1.085  14.138 -0.8481  0.1672 -0.8767
  720MPD2     H10698   3.005   1.254  13.877 -0.1082  1.3736  0.6474
  720MPD2    H110699   2.937   1.070  14.255 -1.6822  0.9671  0.9388
  720MPD2    H210700   2.627   1.085  13.999 -0.2273  0.1110  0.5172
  720MPD2    H310701   2.711   1.026  14.201  0.0761  1.3713  1.2254
  720MPD2     N10702   3.121   1.217  14.107  0.0358 -0.2519  0.7543
  720MPD2    H510703   3.173   1.271  14.039 -1.4261  1.0830  0.6952
  720MPD2    N110704   2.760   1.213  13.801  0.5265  0.0013  0.4857
  720MPD2    H710705   2.834   1.231  13.734 -2.2742 -1.0578 -2.9077
  721TMC3    C110706   3.328   1.231  14.235 -0.2114 -0.0597  0.0430
  721TMC3    C210707   3.365   1.257  14.364  0.6416  0.0537  0.3942
  721TMC3    C310708   3.496   1.255  14.390  0.4242  0.1993  0.7491
  721TMC3    C410709   3.420   1.210  14.131 -0.3948  0.6877 -0.4157
  721TMC3    C510710   3.550   1.210  14.163 -0.0843  0.1890  0.4360
  721TMC3    C610711   3.591   1.232  14.295 -0.0503  0.8956 -0.1012
  721TMC3     C10712   3.187   1.180  14.222 -0.0262 -0.0628  0.6515
  721TMC3     O10713   3.146   1.116  14.323  0.1279 -0.5739 -0.4532
  721TMC3     H10714   3.282   1.255  14.434 -0.5619 -1.6926 -1.0983
  721TMC3    H110715   3.382   1.167  14.039 -0.5818  1.2725 -0.6154
  721TMC3    H210716   3.697   1.225  14.316 -0.0805 -0.1261 -0.2769
  721TMC3    C710717   3.651   1.208  14.056 -0.3574  0.2821 -0.8039
  721TMC3    C810718   3.540   1.319  14.516 -0.6077 -0.3641 -0.0103
  721TMC3    O110719   3.766   1.186  14.092 -0.4317  0.2670 -0.1182
  721TMC3    O210720   3.664   1.313  14.529  0.3288 -0.3379  0.3978
  722MPD2     C10721   1.601   4.505  13.320 -0.6740  0.1769  0.0130
  722MPD2    C110722   1.559   4.631  13.275  0.1062 -0.1552  0.3896
  722MPD2    C210723   1.424   4.664  13.284 -0.4496  0.2448  0.2388
  722MPD2    C310724   1.333   4.572  13.337  0.1285 -0.0205 -0.3748
  722MPD2    C410725   1.382   4.451  13.383 -0.7145 -0.0473 -0.0977
  722MPD2    C510726   1.514   4.417  13.383 -0.0654  0.4606 -0.3704
  722MPD2     H10727   1.391   0.017  13.235 -2.8907 -0.5702  0.3578
  722MPD2    H110728   1.311   4.378  13.420  1.6958 -0.7107  3.2055
  722MPD2    H210729   1.704   4.474  13.328 -0.5674 -0.1344 -2.6018
  722MPD2    H310730   1.548   4.320  13.416 -1.8432 -0.7958 -2.2425
  722MPD2     N10731   1.195   4.599  13.333 -0.3814  0.4335  0.0403
  722MPD2    H510732   1.172   4.694  13.308  0.4811  1.2699  2.4675
  722MPD2    N110733   1.642   4.726  13.222  0.0710 -0.5265 -0.1372
  722MPD2    H710734   1.596   0.076  13.203  1.5822  0.3126  0.0617
  723TMC3    C110735   0.960   4.572  13.328 -0.0543 -0.9826 -0.2184
  723TMC3    C210736   0.861   4.482  13.311 -0.4033 -0.7716 -0.0845
  723TMC3    C310737   0.749   4.519  13.236 -1.0570 -0.6244  0.5020
  723TMC3    C410738   0.939   4.705  13.286  0.0707  0.4868  0.1756
  723TMC3    C510739   0.825   0.004  13.232 -0.2516  0.1292  0.3408
  723TMC3    C610740   0.732   4.646  13.203  0.3832 -0.2218 -0.1438
  723TMC3     C10741   1.094   4.510  13.345 -0.1190  0.5542 -0.5675
  723TMC3     O10742   1.095   4.386  13.348 -0.4526 -0.5055  0.3718
  723TMC3     H10743   0.861   4.386  13.360  0.5135 -0.0777  1.2701
  723TMC3    H110744   1.017   0.042  13.299  1.8823 -1.1881 -1.0854
  723TMC3    H210745   0.639   4.669  13.153  0.2946 -1.7711 -0.7029
  723TMC3    C710746   0.820   0.136  13.179 -0.1098  0.1995  0.0569
  723TMC3    C810747   0.643   4.420  13.226 -0.2833 -0.1086 -0.1841
  723TMC3    O110748   0.885   0.229  13.226 -0.1871 -0.1705  0.5813
  723TMC3    O210749   0.528   4.454  13.215  0.1052 -0.1841  0.8472
  724TMC3    C110750   2.080   2.763  11.197  0.1797 -0.6575  0.6360
  724TMC3    C210751   2.082   2.882  11.264  0.0109  0.2880  0.4656
  724TMC3    C310752   2.172   2.901  11.360 -0.0205 -0.2022  0.3256
  724TMC3    C410753   2.171   2.663  11.234  0.3462  0.1861  0.8239
  724TMC3    C510754   2.275   2.697  11.315 -0.0504 -0.3187 -0.1195
  724TMC3    C610755   2.276   2.818  11.383 -0.3656  0.3823 -0.9862
  724TMC3     C10756   1.972   2.735  11.101  0.1912 -0.0556 -0.2911
  724TMC3     O10757   1.922   2.839  11.056 -0.3755  0.2517 -0.1817
  724TMC3     H10758   1.999   2.950  11.249 -0.1903  0.2441  1.3552
  724TMC3    H110759   2.171   2.572  11.176  0.1994 -0.0241  1.1538
  724TMC3    H210760   2.365   2.841  11.441  0.6942 -3.3982 -1.0596
  724TMC3    C710761   2.387   2.606  11.332 -0.1236  0.3062  0.7227
  724TMC3    C810762   2.179   3.034  11.425  0.6571 -0.0581  0.4441
  724TMC3    O110763   2.394   2.509  11.258  0.1892  0.2963  0.0141
  724TMC3    O210764   2.199   3.034  11.547  0.4999  0.1350 -0.0555
  725TMC3    C110765   3.739   1.675  12.412  0.3551 -0.6053  0.4621
  725TMC3    C210766   3.675   1.719  12.302 -0.2992 -0.0632  0.5227
  725TMC3    C310767   3.568   1.638  12.259  0.5031  0.5888  0.7788
  725TMC3    C410768   3.709   1.556  12.469 -0.0426  0.4041 -0.5590
  725TMC3    C510769   3.608   1.478  12.427  0.1494 -0.9043 -0.4374
  725TMC3    C610770   3.537   1.526  12.321 -0.3749  0.0545  0.3060
  725TMC3     C10771   3.823   1.765  12.491 -0.2220 -0.1678 -0.4167
  725TMC3     O10772   3.782   1.877  12.520  0.3695 -0.5732  0.0618
  725TMC3     H10773   3.694   1.817  12.259  2.8715 -0.6928  0.5128
  725TMC3    H110774   3.773   1.530  12.553 -1.9457 -1.2521  0.3513
  725TMC3    H210775   3.454   1.469  12.282  0.1149 -0.2466 -0.3001
  725TMC3    C710776   3.632   1.333  12.434 -0.0299  0.0971  1.0282
  725TMC3    C810777   3.535   1.626  12.111 -0.4142 -0.8780 -0.5448
  725TMC3    O110778   3.565   1.270  12.351  0.3460  0.0256  0.4674
  725TMC3    O210779   3.485   1.522  12.075 -0.3182  0.1742 -0.0778
  726MPD2     C10780   1.256   3.413  10.583 -0.8135  0.1786  0.5245
  726MPD2    C110781   1.174   3.411  10.469  0.0720 -0.5348 -0.9195
  726MPD2    C210782   1.084   3.310  10.460  0.4713  0.2712 -0.4682
  726MPD2    C310783   1.062   3.217  10.557  0.4617  0.2105 -0.5011
  726MPD2    C410784   1.151   3.211  10.662  0.7525  0.0782 -0.0964
  726MPD2    C510785   1.240   3.308  10.677  0.1738  0.4647  0.3395
  726MPD2     H10786   1.009   3.316  10.382 -1.5954  0.8106  1.5669
  726MPD2    H110787   1.142   3.138  10.742 -0.0749 -0.3489 -0.5706
  726MPD2    H210788   1.337   3.485  10.586 -0.6106  0.0011 -0.5234
  726MPD2    H310789   1.301   3.302  10.767  0.6764 -2.0647 -0.1874
  726MPD2     N10790   0.946   3.135  10.567  0.1723  0.4404 -0.0919
  726MPD2    H510791   0.927   3.093  10.657  0.9863 -0.2925 -0.2709
  726MPD2    N110792   1.173   3.519  10.377 -0.2843 -0.1533 -0.3088
  726MPD2    H710793   1.110   3.496  10.301  0.4575 -1.0008 -0.6648
  727TMC3    C110794   1.252   3.725  10.277  0.7661 -0.4121  0.0078
  727TMC3    C210795   1.318   3.843  10.296  0.4822 -1.6209 -0.5230
  727TMC3    C310796   1.303   3.939  10.201  0.7581 -0.3652  0.2470
  727TMC3    C410797   1.184   3.700  10.161 -0.8447  0.6819  0.1003
  727TMC3    C510798   1.169   3.798  10.071  0.0389  0.0441  0.3824
  727TMC3    C610799   1.232   3.919  10.089 -0.1140 -0.0752  0.0601
  727TMC3     C10800   1.246   3.635  10.391  0.4215  0.3153 -0.3235
  727TMC3     O10801   1.284   3.687  10.496  0.2811  0.2369 -0.0372
  727TMC3     H10802   1.368   3.866  10.389 -0.9954  0.9458 -0.3358
  727TMC3    H110803   1.132   3.606  10.153  1.2702 -0.2871 -2.2749
  727TMC3    H210804   1.225   3.999  10.015 -2.5143  0.3990  0.7914
  727TMC3    C710805   1.059   3.788   9.976  0.1936  0.2541  0.9224
  727TMC3    C810806   1.342   4.076  10.245 -0.2856 -0.0582  0.8627
  727TMC3    O110807   0.955   3.744  10.024 -0.8072 -0.6188  0.1637
  727TMC3    O210808   1.340   4.091  10.366 -0.0506  0.0106 -0.2320
  728TMC3    C110809   0.605   1.799  15.249  0.7864  0.4547 -0.6927
  728TMC3    C210810   0.737   1.820  15.204  0.5525  0.0560  0.1267
  728TMC3    C310811   0.767   1.839  15.072  0.2522 -0.6941  0.0451
  728TMC3    C410812   0.507   1.776  15.158 -0.0759  0.0292  0.3645
  728TMC3    C510813   0.539   1.808  15.030  0.0602 -0.9785 -0.6757
  728TMC3    C610814   0.661   1.852  14.986  0.4402  0.1648  0.1517
  728TMC3     C10815   0.574   1.819  15.390  0.3350  0.8089  0.2346
  728TMC3     O10816   0.668   1.867  15.455 -0.2750  0.3341  0.4475
  728TMC3     H10817   0.818   1.805  15.275  0.4489  0.9605  0.4265
  728TMC3    H110818   0.406   1.758  15.192 -0.4482  0.3116 -0.5752
  728TMC3    H210819   0.674   1.876  14.881 -0.8266  1.5540  0.3049
  728TMC3    C710820   0.427   1.860  14.957  0.2539 -0.3025  0.1017
  728TMC3    C810821   0.882   1.929  15.058  0.3533 -0.0540  0.2497
  728TMC3    O110822   0.350   1.777  14.909 -0.1406  0.3590  0.0196
  728TMC3    O210823   0.949   1.954  15.157 -0.3092 -0.3686 -0.6092
  729MPD2     C10824   2.249   3.188  17.067  0.0564  0.4339  0.3762
  729MPD2    C110825   2.361   3.153  17.129  0.3395  0.9325  0.2494
  729MPD2    C210826   2.361   3.116  17.259  0.0317 -0.1104  0.6572
  729MPD2    C310827   2.243   3.115  17.330  0.2834 -0.0680 -0.2138
  729MPD2    C410828   2.133   3.159  17.275  0.4620  0.0197  1.1316
  729MPD2    C510829   2.135   3.194  17.140  1.0719 -0.1234 -0.3152
  729MPD2     H10830   2.455   3.079  17.299 -0.8042 -4.5901 -1.5594
  729MPD2    H110831   2.041   3.173  17.332  0.1982 -1.5715  1.0986
  729MPD2    H210832   2.253   3.211  16.961  2.1021  1.6139  0.7191
  729MPD2    H310833   2.046   3.225  17.088  1.2300 -0.2017 -0.6334
  729MPD2     N10834   2.234   3.090  17.471  0.0769 -0.3157 -0.1446
  729MPD2    H510835   2.146   3.105  17.521  2.1733  0.4385  3.3426
  729MPD2    N110836   2.475   3.153  17.050 -0.3210 -0.3173 -0.6457
  729MPD2    H710837   2.463   3.169  16.951 -1.4102 -0.4572 -0.5416
  730TMC3    C110838   2.328   3.099  17.681  0.3930 -0.7922 -0.6284
  730TMC3    C210839   2.459   3.102  17.735  0.0036 -0.1356 -0.6910
  730TMC3    C310840   2.485   3.209   0.067  0.2546 -0.7527 -0.2836
  730TMC3    C410841   2.236   3.202  17.690 -0.7520 -0.0477 -0.6131
  730TMC3    C510842   2.276   3.310   0.012 -0.5282  0.0928 -0.4790
  730TMC3    C610843   2.390   3.310   0.083  0.5640  0.5857  0.0770
  730TMC3     C10844   2.340   3.048  17.545 -0.3314 -0.6883  0.0167
  730TMC3     O10845   2.441   2.991  17.510 -0.1590  0.3916  0.2314
  730TMC3     H10846   2.532   3.023  17.724  1.0159  0.4338  1.8460
  730TMC3    H110847   2.135   3.208  17.652 -1.8060  0.5497  2.2758
  730TMC3    H210848   2.403   3.395   0.149 -0.1539  0.2424  0.6678
  730TMC3    C710849   2.250   3.436  17.704 -0.3009  0.1439  0.3272
  730TMC3    C810850   2.625   3.239   0.113 -0.1738 -0.3026  0.2119
  730TMC3    O110851   2.254   3.445  17.584 -0.5785  0.1437  0.0814
  730TMC3    O210852   2.720   3.191   0.053 -1.0071  0.0661  0.3728
  731MPD2     C10853   2.534   1.436  12.340  0.3448 -0.1765  0.6790
  731MPD2    C110854   2.530   1.301  12.311  0.3980 -0.1367  0.0469
  731MPD2    C210855   2.504   1.212  12.417  0.1863  0.3551  0.1683
  731MPD2    C310856   2.478   1.256  12.540 -0.1440  0.0647  0.2522
  731MPD2    C410857   2.503   1.385  12.574 -0.3641  0.6363  0.2667
  731MPD2    C510858   2.535   1.472  12.476  0.3084  0.2808 -0.3139
  731MPD2     H10859   2.504   1.107  12.391  0.2906  1.1034 -2.8366
  731MPD2    H110860   2.520   1.422  12.675  2.3336 -1.1838  0.5211
  731MPD2    H210861   2.554   1.509  12.262 -0.4818 -0.7915 -0.1070
  731MPD2    H310862   2.558   1.574  12.507  1.3283 -0.4831  1.4860
  731MPD2     N10863   2.445   1.162  12.644 -0.2697  0.7348  0.1126
  731MPD2    H510864   2.426   1.065  12.621  1.3975  1.0293 -2.4723
  731MPD2    N110865   2.559   1.270  12.178  0.1706 -0.2007  0.3124
  731MPD2    H710866   2.602   1.345  12.124 -1.6364  1.0384  0.5932
  732TMC3    C110867   2.543   1.141  11.978 -0.2561  0.5325 -0.1269
  732TMC3    C210868   2.505   1.020  11.918  0.6566  0.4233  0.4225
  732TMC3    C310869   2.600   0.945  11.852 -0.0770 -0.4778  0.5011
  732TMC3    C410870   2.671   1.187  11.952  0.0244  0.3850  0.5332
  732TMC3    C510871   2.759   1.114  11.876 -0.3962  0.3951  0.4013
  732TMC3    C610872   2.731   0.986  11.837  0.3220  0.4701 -0.4147
  732TMC3     C10873   2.500   1.161  12.114  0.8958 -0.2768  0.5382
  732TMC3     O10874   2.434   1.069  12.159 -0.0171 -0.1167  0.2928
  732TMC3     H10875   2.399   0.998  11.916  0.8367 -0.4047  0.0794
  732TMC3    H110876   2.695   1.291  11.971 -0.3007  0.4785  0.4318
  732TMC3    H210877   2.812   0.941  11.780 -0.5607  0.3104 -1.5308
  732TMC3    C710878   2.897   1.155  11.915  0.4824 -0.1080 -0.1019
  732TMC3    C810879   2.577   0.798  11.838 -0.0255  0.4501  0.0333
  732TMC3    O110880   2.911   1.270  11.956  0.2618  0.3726  0.3028
  732TMC3    O210881   2.677   0.735  11.814  0.0806  0.1411 -0.3927
  733TMC3    C110882   3.805   4.069  12.840 -0.7681  0.9241  0.1696
  733TMC3    C210883   3.900   4.164  12.868 -0.2365 -0.7578 -0.1972
  733TMC3    C310884   3.978   4.217  12.772  0.5673 -0.5085  0.7585
  733TMC3    C410885   3.792   4.021  12.710 -0.2834 -0.2482  0.3793
  733TMC3    C510886   3.873   4.070  12.615  0.3078 -0.6163 -0.7346
  733TMC3    C610887   3.967   4.166  12.640  0.2461 -0.2324 -0.3249
  733TMC3     C10888   3.700   4.030  12.927  0.6866  0.1479 -0.5994
  733TMC3     O10889   3.612   3.964  12.873 -0.1391  0.0525  0.2175
  733TMC3     H10890   3.896   4.212  12.965 -0.0662  1.3842 -1.2565
  733TMC3    H110891   3.732   3.936  12.679  0.7573 -0.5815 -0.7313
  733TMC3    H210892   4.032   4.202  12.560  0.2697  1.5932  0.5014
  733TMC3    C710893   3.808   4.080  12.488  0.2065  0.0349  0.3279
  733TMC3    C810894   4.051   4.338  12.805 -1.1125  0.6770 -0.0736
  733TMC3    O110895   3.695   4.028  12.480 -0.6318  0.0285 -0.2673
  733TMC3    O210896   4.141   4.335  12.890  0.5569  0.4093  0.2463
  734MPD2     C10897   0.964   1.364  12.589  0.1494 -0.0907 -0.4723
  734MPD2    C110898   0.877   1.381  12.484  0.0320  0.0919 -0.0624
  734MPD2    C210899   0.875   1.502  12.424  0.1078 -0.3859 -0.8735
  734MPD2    C310900   0.954   1.613  12.460 -0.3044  0.2617 -0.2616
  734MPD2    C410901   1.039   1.597  12.569 -0.2232  0.7169  1.1973
  734MPD2    C510902   1.045   1.474  12.625  0.1496 -0.3421  0.7768
  734MPD2     H10903   0.803   1.530  12.348 -0.1481 -0.5667 -0.6945
  734MPD2    H110904   1.100   1.681  12.603 -0.2739  0.1869  2.5926
  734MPD2    H210905   0.987   1.268  12.635 -0.3963 -0.7167 -1.5045
  734MPD2    H310906   1.113   1.471  12.709 -0.7276 -0.0789  1.4871
  734MPD2     N10907   0.948   1.725  12.371  0.0144 -0.1686  0.0681
  734MPD2    H510908   0.875   1.723  12.301 -0.1255  1.7841  0.1557
  734MPD2    N110909   0.824   1.268  12.425  0.2934 -0.9200 -0.2924
  734MPD2    H710910   0.845   1.179  12.469 -1.8388 -1.0365  0.4807
  735TMC3    C110911   0.718   1.136  12.270  0.1525  0.0187 -0.2022
  735TMC3    C210912   0.620   1.129  12.174  0.4505  0.8109 -0.3658
  735TMC3    C310913   0.625   1.056  12.061 -0.5510 -0.4334 -0.0229
  735TMC3    C410914   0.826   1.057  12.249  0.3125 -0.0332  0.0441
  735TMC3    C510915   0.833   0.985  12.133  0.2471 -0.3045 -1.2282
  735TMC3    C610916   0.732   0.976  12.039 -1.0549  0.3047  0.8009
  735TMC3     C10917   0.747   1.264  12.310 -0.3031  0.0172 -0.8626
  735TMC3     O10918   0.686   1.354  12.253  0.6769  0.0651 -0.2957
  735TMC3     H10919   0.525   1.176  12.198  0.0369 -0.0369 -0.3406
  735TMC3    H110920   0.918   1.064  12.307 -0.5767  1.8175  1.2683
  735TMC3    H210921   0.740   0.914  11.951 -0.0142  2.0631 -0.3410
  735TMC3    C710922   0.959   0.924  12.090 -0.2428  0.2967 -0.8163
  735TMC3    C810923   0.618   1.143  11.948 -0.2256 -0.4265 -0.4368
  735TMC3    O110924   1.057   0.998  12.085  0.9741  0.0865  0.5484
  735TMC3    O210925   0.631   1.097  11.834 -0.0801 -0.0866  0.4200
  736MPD2     C10926   1.027   0.558  12.100 -0.7169  0.6932  0.6471
  736MPD2    C110927   1.050   0.692  12.078  0.4685 -0.6891  0.2858
  736MPD2    C210928   1.181   0.738  12.043  0.4873  0.7412 -0.2626
  736MPD2    C310929   1.287   0.653  12.049 -0.1209  0.0981 -0.6531
  736MPD2    C410930   1.256   0.527  12.070 -0.5526 -0.7511  0.0611
  736MPD2    C510931   1.136   0.477  12.092 -0.6218  0.6426  0.5460
  736MPD2     H10932   1.197   0.844  12.029  1.4362  0.7517  0.8674
  736MPD2    H110933   1.337   0.455  12.068  1.2686  1.2922  0.7862
  736MPD2    H210934   0.927   0.523  12.121 -1.1780  1.7061  0.1484
  736MPD2    H310935   1.123   0.370  12.095 -2.2854  0.8195 -0.1787
  736MPD2     N10936   1.420   0.693  12.037 -0.0381  0.4648 -0.3220
  736MPD2    H510937   1.492   0.623  12.026  0.8630  0.8670  2.9397
  736MPD2    N110938   0.945   0.790  12.092  0.6330 -0.0716  0.4949
  736MPD2    H710939   0.850   0.753  12.094  0.5395  0.1731  0.4850
  737TMC3    C110940   1.604   0.837  12.013 -0.1196 -0.5554 -0.1300
  737TMC3    C210941   1.666   0.961  12.041  0.0886  0.2865 -0.4543
  737TMC3    C310942   1.773   0.996  11.966 -0.4741  0.1261 -0.3037
  737TMC3    C410943   1.677   0.750  11.934 -0.4970 -0.0791  0.1996
  737TMC3    C510944   1.800   0.782  11.888  0.4866  0.5856  0.4154
  737TMC3    C610945   1.845   0.909  11.895  0.3907  0.5806 -0.4148
  737TMC3     C10946   1.466   0.825  12.050  0.4727  0.1072 -0.5703
  737TMC3     O10947   1.404   0.924  12.086 -0.1060  0.0792  0.0893
  737TMC3     H10948   1.612   1.039  12.094 -0.8431 -1.0844  0.6132
  737TMC3    H110949   1.635   0.652  11.913  1.4960 -0.8026 -0.3333
  737TMC3    H210950   1.942   0.940  11.857  1.6588 -1.7360  0.9851
  737TMC3    C710951   1.870   0.674  11.824  0.1114  0.9690 -0.0634
  737TMC3    C810952   1.801   1.140  11.971  0.1756  0.1368  0.7239
  737TMC3    O110953   1.823   0.562  11.829 -0.3633  0.4034  0.0366
  737TMC3    O210954   1.779   1.199  12.073 -0.4863 -0.1863 -0.2622
  738MPD2     C10955   1.933   0.328  15.442  0.5197 -0.3142  0.0888
  738MPD2    C110956   1.950   0.194  15.409 -0.2391  0.3155  0.0945
  738MPD2    C210957   2.018   0.167  15.291 -0.1034 -0.6300  0.5418
  738MPD2    C310958   2.071   0.267  15.216 -0.3860  0.1970  0.0650
  738MPD2    C410959   2.071   0.391  15.265 -0.6132  0.1066  0.1026
  738MPD2    C510960   2.002   0.425  15.379  0.2360 -0.6945  0.5735
  738MPD2     H10961   2.016   0.063  15.259 -0.3269 -0.3793 -0.2623
  738MPD2    H110962   2.122   0.470  15.210 -1.6372  0.3250 -0.5151
  738MPD2    H210963   1.864   0.377  15.511  0.3114  0.8992 -0.9749
  738MPD2    H310964   2.004   0.527  15.415  0.1729 -0.2955 -0.5599
  738MPD2     N10965   2.128   0.240  15.088 -0.2206 -0.0483 -0.1282
  738MPD2    H510966   2.155   0.321  15.034 -0.3617  0.4752  0.5771
  738MPD2    N110967   1.875   0.093  15.468  0.3152  0.7816  0.0867
  738MPD2    H710968   1.856   0.013  15.408  2.1865 -1.2709  2.2399
  739TMC3    C110969   2.213   0.128  14.904  1.0545 -0.1695  0.7146
  739TMC3    C210970   2.159   0.223  14.819 -0.2934 -0.0804 -0.1609
  739TMC3    C310971   2.210   0.213  14.691  0.2510  0.9317 -0.3375
  739TMC3    C410972   2.301   0.030  14.868  0.1446 -0.1433  0.0524
  739TMC3    C510973   2.336   0.019  14.732 -0.5182  0.2386  0.5888
  739TMC3    C610974   2.292   0.118  14.645  0.1428  0.1505 -0.0353
  739TMC3     C10975   2.151   0.116  15.037  0.0126  0.7165  0.6550
  739TMC3     O10976   2.151   0.006  15.089  0.3135  0.0701 -0.0708
  739TMC3     H10977   2.077   0.284  14.855  0.4404  0.3581  0.7476
  739TMC3    H110978   2.339   4.696  14.939  0.7938  0.0766 -0.0721
  739TMC3    H210979   2.343   0.134  14.550 -1.2204  0.3092 -0.7347
  739TMC3    C710980   2.471   4.701  14.704 -0.3148 -0.6037  0.4974
  739TMC3    C810981   2.156   0.318  14.602 -0.9102 -0.3871  0.0224
  739TMC3    O110982   2.551   4.696  14.794  0.2114  0.4606  0.2146
  739TMC3    O210983   2.086   0.400  14.659 -1.0391  0.5956 -0.2863
  740TMC3    C110984   2.508   1.768  14.368 -0.4923 -0.3535  0.3464
  740TMC3    C210985   2.635   1.821  14.350 -0.3834 -0.1289  0.1386
  740TMC3    C310986   2.698   1.793  14.229 -0.5095 -0.6688 -0.3966
  740TMC3    C410987   2.440   1.709  14.263  0.1059 -0.6202  0.3857
  740TMC3    C510988   2.507   1.672  14.149 -0.2448  0.6246  0.3034
  740TMC3    C610989   2.635   1.713  14.131 -0.2520  0.3337  0.6438
  740TMC3     C10990   2.432   1.807  14.488 -0.1337  0.2273 -0.2179
  740TMC3     O10991   2.465   1.914  14.537 -0.2806 -1.1345  0.1895
  740TMC3     H10992   2.680   1.883  14.426  1.5344 -1.2090 -0.1101
  740TMC3    H110993   2.334   1.686  14.271  0.1665 -1.3905 -1.0491
  740TMC3    H210994   2.696   1.672  14.052 -0.4803  1.3174 -0.0453
  740TMC3    C710995   2.419   1.653  14.030  0.3707  0.3065 -0.3388
  740TMC3    C810996   2.823   1.857  14.186  0.3128 -0.2492  0.2916
  740TMC3    O110997   2.299   1.661  14.039 -0.1402 -0.0500  0.2599
  740TMC3    O210998   2.856   1.830  14.073  0.6471  0.1816 -0.5359
  741TMC3    C110999   2.217   0.764  14.413  0.8677 -0.3116 -0.2410
  741TMC3    C211000   2.086   0.754  14.442  0.7743  0.0605  0.0390
  741TMC3    C311001   2.061   0.718  14.577  0.2453  0.1136  0.0130
  741TMC3    C411002   2.319   0.722  14.496  0.4757  0.2315 -0.6291
  741TMC3    C511003   2.290   0.689  14.623 -0.3231 -0.2780 -0.0364
  741TMC3    C611004   2.162   0.690  14.667  0.7431  0.0131  0.1643
  741TMC3     C11005   2.254   0.773  14.274  0.4195 -0.3000 -0.4652
  741TMC3     O11006   2.371   0.753  14.249 -0.1672 -0.0396 -0.5189
  741TMC3     H11007   2.006   0.793  14.381  0.5493  0.2156  0.4328
  741TMC3    H111008   2.423   0.727  14.466  0.6841 -2.1615 -0.3078
  741TMC3    H211009   2.145   0.669  14.772 -0.3680 -0.5242 -0.1288
  741TMC3    C711010   2.404   0.686  14.708 -0.0489  0.7779 -0.5754
  741TMC3    C811011   1.918   0.715  14.621  0.6491  0.0381  0.2228
  741TMC3    O111012   2.486   0.598  14.699  0.0752 -1.0218 -0.3788
  741TMC3    O211013   1.839   0.778  14.556  0.2039 -0.4665  0.0837
  742TMC3    C111014   1.896   4.129  15.914  0.8149 -0.6384  0.0017
  742TMC3    C211015   1.795   4.060  15.850  0.3719  0.1855  0.3911
  742TMC3    C311016   1.814   4.037  15.718 -0.3005  0.8605  0.2062
  742TMC3    C411017   2.004   4.186  15.852 -0.4458 -0.6295 -0.0882
  742TMC3    C511018   2.007   4.172  15.714  0.5796  0.5406  0.1354
  742TMC3    C611019   1.919   4.093  15.651 -0.5942  0.4502  0.2733
  742TMC3     C11020   1.884   4.147  16.054 -0.6009 -0.2812  0.0068
  742TMC3     O11021   1.945   4.238  16.110  0.1353 -0.2373 -0.2395
  742TMC3     H11022   1.717   4.009  15.905  1.0017  1.0871  2.1216
  742TMC3    H111023   2.084   4.238  15.903  0.2460 -1.9298  0.1391
  742TMC3    H211024   1.928   4.091  15.543 -1.4159  0.1394  0.2094
  742TMC3    C711025   2.137   4.194  15.646  0.1942  0.4420  0.2370
  742TMC3    C811026   1.708   3.983  15.640  0.3788 -0.6372 -0.2643
  742TMC3    O111027   2.160   4.114  15.553 -0.8291  0.2173 -0.6043
  742TMC3    O211028   1.598   3.991  15.696 -0.0868  0.1083 -0.1299
  743MPD2     C11029   4.544   0.625   1.684 -0.0862 -0.1909  0.5948
  743MPD2    C111030   4.526   0.547   1.571 -0.1781  0.2903  0.6155
  743MPD2    C211031   4.621   0.454   1.546  0.2286 -0.3366 -0.4172
  743MPD2    C311032   4.731   0.437   1.629 -0.3977 -0.3139 -0.3387
  743MPD2    C411033   0.010   0.520   1.738  0.7527  0.8666  0.3099
  743MPD2    C511034   4.646   0.607   1.766 -0.0844  0.2799  0.1681
  743MPD2     H11035   4.613   0.387   1.462 -2.4479  0.1487 -0.5363
  743MPD2    H111036   0.099   0.515   1.801  0.7241 -1.8296  0.1722
  743MPD2    H211037   4.470   0.702   1.707 -1.9040 -1.5313 -0.8062
  743MPD2    H311038   4.643   0.659   1.861 -1.1384 -0.3057  0.4659
  743MPD2     N11039   0.089   0.336   1.595 -0.7905 -0.5718  0.2600
  743MPD2    H511040   0.075   0.276   1.514 -0.7214  2.1719 -1.7827
  743MPD2    N111041   4.416   0.565   1.492 -0.5826 -0.5586 -0.4990
  743MPD2    H711042   4.349   0.632   1.527 -0.4963  0.9003 -3.1409
  744TMC3    C111043   4.245   0.549   1.322 -0.8942  0.2554  0.3618
  744TMC3    C211044   4.156   0.596   1.408  0.2181  0.2792  0.0084
  744TMC3    C311045   4.052   0.670   1.368  0.3307  0.0217  0.0397
  744TMC3    C411046   4.231   0.561   1.187 -0.2647  0.7147  0.2071
  744TMC3    C511047   4.125   0.635   1.147 -0.5114  0.3569 -0.0056
  744TMC3    C611048   4.032   0.695   1.235  0.4316  0.5715 -0.2100
  744TMC3     C11049   4.382   0.512   1.363  0.2083  0.3386  0.1251
  744TMC3     O11050   4.459   0.459   1.284  0.4944  0.0452 -0.0435
  744TMC3     H11051   4.150   0.559   1.509  1.5938 -0.1448 -0.0562
  744TMC3    H111052   4.310   0.524   1.123 -0.3774  2.0921 -0.7452
  744TMC3    H211053   3.978   0.783   1.203  0.0038  0.2638 -0.3271
  744TMC3    C711054   4.108   0.657   1.001  0.3283 -0.0735  0.2318
  744TMC3    C811055   3.979   0.737   1.472 -0.0681 -0.3753  0.7608
  744TMC3    O111056   4.210   0.635   0.937  0.2403 -0.1354  0.7135
  744TMC3    O211057   4.011   0.709   1.585 -0.3036  0.0569 -0.0618
  745TMC3    C111058   2.364   3.633  13.646  0.7313  0.6194 -0.5824
  745TMC3    C211059   2.259   3.638  13.734 -0.3106  0.5912 -0.0281
  745TMC3    C311060   2.137   3.689  13.690 -0.1468  0.4238 -0.5417
  745TMC3    C411061   2.352   3.657  13.509 -0.5667 -0.1868 -0.4046
  745TMC3    C511062   2.224   3.702  13.469 -0.4741 -0.0198 -0.6533
  745TMC3    C611063   2.128   3.724  13.562  0.2593 -1.5488 -0.9019
  745TMC3     C11064   2.476   3.695  13.714  0.1585 -0.1515  0.2919
  745TMC3     O11065   2.491   3.683  13.837  0.2652 -0.2242 -0.0299
  745TMC3     H11066   2.273   3.593  13.832  0.6807  2.2165  0.5804
  745TMC3    H111067   2.409   3.594  13.442 -0.7070 -1.6809  0.9023
  745TMC3    H211068   2.043   3.780  13.524 -0.0492 -1.9294 -0.7651
  745TMC3    C711069   2.211   3.773  13.341  0.4998 -0.3026  0.8137
  745TMC3    C811070   2.062   3.766  13.782 -0.3575  0.4120  0.2368
  745TMC3    O111071   2.099   3.810  13.303  0.2472 -0.4164  0.0223
  745TMC3    O211072   1.964   3.830  13.748 -0.3646 -0.0740 -0.0565
  746TMC3    C111073   0.143   0.866  11.349  0.6821 -0.0865 -0.9456
  746TMC3    C211074   0.235   0.800  11.272 -0.4570 -0.6439  0.3146
  746TMC3    C311075   0.213   0.673  11.233  0.1473 -0.1088 -0.4255
  746TMC3    C411076   0.020   0.810  11.382  0.6075 -0.6639  0.4695
  746TMC3    C511077   4.736   0.689  11.332 -0.2639 -1.3456 -0.0701
  746TMC3    C611078   0.095   0.611  11.273  0.3854 -0.1903 -0.4800
  746TMC3     C11079   0.141   1.014  11.351  0.1863  0.2395 -0.9493
  746TMC3     O11080   0.050   1.062  11.416  0.0411  0.2451  0.5856
  746TMC3     H11081   0.326   0.847  11.236 -0.1181 -1.7435 -0.2414
  746TMC3    H111082   4.676   0.867  11.425 -0.4944  0.1792 -2.7618
  746TMC3    H211083   0.081   0.507  11.244  0.3724 -0.1929 -0.4643
  746TMC3    C711084   4.603   0.656  11.272  0.2366  0.2882 -0.1900
  746TMC3    C811085   0.280   0.633  11.106 -0.6934  0.1613 -0.0167
  746TMC3    O111086   4.597   0.570  11.186  1.0021  0.1787 -0.1614
  746TMC3    O211087   0.239   0.522  11.065 -0.5097 -0.0416 -0.0579
  747TMC3    C111088   2.811   0.482  11.350  0.2052 -0.4838  0.4935
  747TMC3    C211089   2.674   0.473  11.323 -0.2209  0.7107  0.5376
  747TMC3    C311090   2.595   0.559  11.398 -0.5557 -0.1326 -0.1948
  747TMC3    C411091   2.865   0.574  11.425 -0.4573 -0.0615 -0.3346
  747TMC3    C511092   2.784   0.675  11.478 -0.2373  0.0692  0.4104
  747TMC3    C611093   2.646   0.663  11.465  0.1867  1.0298  0.3524
  747TMC3     C11094   2.887   0.358  11.332  0.4488  0.4294 -0.6548
  747TMC3     O11095   2.953   0.312  11.427 -0.4676  0.0977  0.0780
  747TMC3     H11096   2.638   0.386  11.270 -0.2874  1.9531 -1.4529
  747TMC3    H111097   2.971   0.560  11.440 -0.5342 -1.9591 -1.5682
  747TMC3    H211098   2.577   0.716  11.530 -1.3968  0.4999 -0.9231
  747TMC3    C711099   2.848   0.793  11.534  0.8949 -0.6751  0.4928
  747TMC3    C811100   2.464   0.500  11.431 -0.4874  0.1207 -0.3840
  747TMC3    O111101   2.784   0.895  11.544 -0.5851 -0.0159 -0.1833
  747TMC3    O211102   2.442   0.387  11.388 -0.1174 -0.0439 -0.1622
  748MPD2     C11103   3.099   1.926   1.430 -0.5363  0.3308  0.2145
  748MPD2    C111104   3.132   1.881   1.308 -0.3341 -0.3422 -0.6769
  748MPD2    C211105   3.241   1.794   1.300 -0.6408  0.0279 -0.4275
  748MPD2    C311106   3.316   1.755   1.404 -0.4236 -1.0118 -0.3402
  748MPD2    C411107   3.269   1.791   1.529 -0.3331  0.1422 -0.7514
  748MPD2    C511108   3.163   1.880   1.539  0.2722  0.2812  0.5039
  748MPD2     H11109   3.280   1.765   1.203 -1.1754 -0.3949 -0.5104
  748MPD2    H111110   3.327   1.764   1.617  1.0068 -0.7130 -1.8970
  748MPD2    H211111   3.012   1.991   1.426 -0.0738  0.8522 -1.5196
  748MPD2    H311112   3.125   1.911   1.635  4.2698  1.4478  1.7137
  748MPD2     N11113   3.429   1.674   1.382 -0.4671  0.3486  0.1635
  748MPD2    H511114   3.456   1.654   1.287 -3.4736 -0.3662 -0.5358
  748MPD2    N111115   3.041   1.908   1.197 -0.3224 -0.0339  0.0347
  748MPD2    H711116   2.970   1.977   1.217 -1.1099 -1.1783  1.1591
  749TMC3    C111117   3.613   1.546   1.437 -0.5628  0.2309 -0.2906
  749TMC3    C211118   3.675   1.448   1.518  0.2817  0.2318  0.8560
  749TMC3    C311119   3.810   1.426   1.503 -0.0451 -0.3436 -0.6035
  749TMC3    C411120   3.689   1.631   1.361  0.6222 -0.1285  0.0186
  749TMC3    C511121   3.826   1.608   1.348 -0.3547  0.3561 -0.0261
  749TMC3    C611122   3.883   1.509   1.425 -0.1516 -0.4769  0.4316
  749TMC3     C11123   3.490   1.602   1.481 -0.1416 -0.1608  0.1054
  749TMC3     O11124   3.457   1.583   1.597  0.3258 -0.1615 -0.5527
  749TMC3     H11125   3.615   1.388   1.585 -1.6861 -0.7778 -1.7888
  749TMC3    H111126   3.642   1.712   1.308  1.0356 -0.5679 -1.0188
  749TMC3    H211127   3.992   1.515   1.426 -0.1925  0.3054  0.4042
  749TMC3    C711128   3.903   1.728   1.321  0.3179 -0.3799  0.3065
  749TMC3    C811129   3.870   1.331   1.590  0.3281  0.3769  0.1757
  749TMC3    O111130   3.847   1.836   1.318  0.0050  0.0765 -0.3486
  749TMC3    O211131   3.814   1.272   1.685  0.1506 -0.3563 -0.7638
  750MPD2     C11132   0.086   3.075  11.276  0.2453  0.7365 -0.0748
  750MPD2    C111133   4.733   2.979  11.332 -0.1050  0.3378  0.4618
  750MPD2    C211134   0.027   2.845  11.299  0.1554 -0.0581 -0.3120
  750MPD2    C311135   0.135   2.811  11.224  0.6813  0.5601  0.0516
  750MPD2    C411136   0.213   2.906  11.162 -0.1087 -0.7303  0.0159
  750MPD2    C511137   0.192   3.037  11.192  0.1627 -0.2449  0.5415
  750MPD2     H11138   4.703   2.764  11.338  2.7096 -0.1051  3.5567
  750MPD2    H111139   0.294   2.873  11.099 -1.9660 -0.3698 -2.5420
  750MPD2    H211140   0.068   3.180  11.296 -1.0094  0.9777 -2.5252
  750MPD2    H311141   0.261   3.110  11.153 -0.5895  2.0141  3.4311
  750MPD2     N11142   0.170   2.677  11.189  0.4886  0.0190 -0.5462
  750MPD2    H511143   0.228   2.653  11.109 -2.0734 -2.9287 -1.4750
  750MPD2    N111144   4.612   3.024  11.404  0.5892 -0.4859  0.4453
  750MPD2    H711145   4.599   3.122  11.423  0.2751 -0.4055 -0.1896
  751TMC3    C111146   0.134   2.448  11.197 -0.5343 -0.3357 -0.7646
  751TMC3    C211147   0.023   2.371  11.218  0.4849  0.2025 -0.3951
  751TMC3    C311148   0.037   2.237  11.187  0.1502  0.2221  0.4310
  751TMC3    C411149   0.249   2.395  11.147 -0.2388  0.2924  0.0506
  751TMC3    C511150   0.258   2.258  11.131  0.0383  0.4906 -0.1215
  751TMC3    C611151   0.145   2.176  11.143  0.3665 -0.0818  0.0549
  751TMC3     C11152   0.136   2.572  11.265  0.3019  0.0758 -0.3155
  751TMC3     O11153   0.077   2.573  11.372  0.2045  0.1629  0.0390
  751TMC3     H11154   4.671   2.411  11.263  1.4173 -0.8943  2.4434
  751TMC3    H111155   0.336   2.459  11.160 -0.2429  0.0049  1.6014
  751TMC3    H211156   0.153   2.070  11.121 -1.2645 -0.6689  2.3322
  751TMC3    C711157   0.385   2.205  11.082  0.3860  0.4452 -0.5778
  751TMC3    C811158   4.668   2.148  11.224  0.7452 -0.6941 -0.3991
  751TMC3    O111159   0.463   2.285  11.029 -0.3567 -0.3725  0.7353
  751TMC3    O211160   4.670   2.031  11.190 -0.3328  0.0575 -0.1830
  752TMC3    C111161   3.435   3.078  17.696 -0.1245 -0.4608  0.9556
  752TMC3    C211162   3.462   2.963   0.014  0.0115  0.3559 -0.0568
  752TMC3    C311163   3.462   2.970   0.151 -0.4178  0.2319 -0.0252
  752TMC3    C411164   3.406   3.198   0.007  0.1544 -0.4040 -0.7540
  752TMC3    C511165   3.406   3.197   0.146  0.2703  0.2346 -0.2181
  752TMC3    C611166   3.438   3.084   0.224  0.2913 -0.5748  0.7362
  752TMC3     C11167   3.469   3.077  17.553  0.0187  0.8250  0.1209
  752TMC3     O11168   3.559   2.999  17.517 -0.0500 -0.0811  0.2073
  752TMC3     H11169   3.481   2.871  17.708  0.2005 -0.0304  0.6526
  752TMC3    H111170   3.406   3.289  17.696  1.4114  0.4234  0.5255
  752TMC3    H211171   3.465   3.086   0.329  1.2278  3.4466  0.4185
  752TMC3    C711172   3.369   3.309   0.223  0.8894  0.7144 -0.1648
  752TMC3    C811173   3.512   2.853   0.220  0.2204 -0.6351 -0.2507
  752TMC3    O111174   3.374   3.307   0.346 -0.1291  0.1065  0.3813
  752TMC3    O211175   3.507   2.754   0.147  0.3257  0.0889  0.6252
  753TMC3    C111176   1.156   3.713  13.778 -0.1426  0.4397 -0.0744
  753TMC3    C211177   1.245   3.711  13.890  0.3086 -0.2869 -0.1459
  753TMC3    C311178   1.266   3.587  13.943  0.0183 -0.0121 -0.4717
  753TMC3    C411179   1.109   3.597  13.722  0.0418  0.2355  0.6920
  753TMC3    C511180   1.125   3.478  13.788  0.3649 -0.1344  0.2747
  753TMC3    C611181   1.206   3.468  13.901 -0.0249  0.1054 -0.1065
  753TMC3     C11182   1.120   3.853  13.740 -0.4270  0.1492  0.1506
  753TMC3     O11183   1.202   3.939  13.779 -0.6952  0.2290 -0.2352
  753TMC3     H11184   1.298   3.798  13.925  1.7720 -1.3992  0.4024
  753TMC3    H111185   1.055   3.613  13.629  0.2298 -0.9926  0.3794
  753TMC3    H211186   1.225   3.372  13.948 -1.9016 -1.1883 -1.9735
  753TMC3    C711187   1.054   3.357  13.745 -0.1130 -0.0632  0.2705
  753TMC3    C811188   1.311   3.588  14.081 -0.6641 -0.0396 -0.4394
  753TMC3    O111189   1.009   3.289  13.833 -0.0330  0.5355  0.3405
  753TMC3    O211190   1.379   3.490  14.105  0.0157 -0.0857  0.2816
  754MPD2     C11191   4.698   2.705  13.318 -0.1309 -0.7044  0.4570
  754MPD2    C111192   4.702   2.570  13.285 -0.0216 -0.0091  0.1139
  754MPD2    C211193   4.602   2.514  13.213  0.7998  0.1585  0.4446
  754MPD2    C311194   4.488   2.583  13.190  0.7463 -0.5453 -0.2294
  754MPD2    C411195   4.476   2.719  13.218 -0.2599 -0.2793  0.0014
  754MPD2    C511196   4.585   2.770  13.284 -0.1944  0.5313  0.3986
  754MPD2     H11197   4.615   2.411  13.182 -0.1060  0.3572 -0.6242
  754MPD2    H111198   4.391   2.786  13.202  0.2331  0.9888  2.5896
  754MPD2    H211199   0.041   2.761  13.365 -0.7550  0.4402  0.1569
  754MPD2    H311200   4.577   2.876  13.304 -0.5782  1.1194 -2.9256
  754MPD2     N11201   4.368   2.532  13.139 -0.3091 -0.4719  0.1388
  754MPD2    H511202   4.290   2.596  13.137 -0.3671 -0.5380  0.3806
  754MPD2    N111203   0.086   2.496  13.316  0.5489 -0.0198 -0.4587
  754MPD2    H711204   0.146   2.556  13.373  0.9476 -1.4318  0.5963
  755MPD2     C11205   3.397   2.468  13.248 -0.1342  0.0866  0.3210
  755MPD2    C111206   3.509   2.488  13.320  0.2052 -0.8661  0.7643
  755MPD2    C211207   3.632   2.488  13.256  0.4088  0.1332 -0.7570
  755MPD2    C311208   3.638   2.475  13.120 -0.0515  0.1154 -0.9429
  755MPD2    C411209   3.521   2.461  13.053 -0.2200  0.4028 -0.3542
  755MPD2    C511210   3.406   2.450  13.118 -0.5439 -0.7876  0.0712
  755MPD2     H11211   3.725   2.497  13.310  0.4966  0.9902 -1.0584
  755MPD2    H111212   3.525   2.462  12.944 -0.0419 -0.1421 -0.3527
  755MPD2    H211213   3.298   2.468  13.291  0.3071  3.0176  1.3594
  755MPD2    H311214   3.316   2.443  13.058 -0.7726 -2.8425  0.6285
  755MPD2     N11215   3.759   2.487  13.040 -0.3834 -0.1756 -0.1676
  755MPD2    H511216   3.758   2.484  12.939 -1.5243 -1.9401 -0.1127
  755MPD2    N111217   3.513   2.501  13.460 -0.0988 -0.2378  0.3622
  755MPD2    H711218   3.604   2.493  13.506  0.2567 -2.0126 -0.6430
  756MPD2     C11219   4.452   3.256   9.228  0.0413  0.9093 -0.7354
  756MPD2    C111220   4.415   3.196   9.351 -0.7690  0.4589  0.0716
  756MPD2    C211221   4.294   3.209   9.410 -0.7806 -0.1719  0.6065
  756MPD2    C311222   4.195   3.271   9.346  0.1215 -0.6176  0.3601
  756MPD2    C411223   4.218   3.330   9.221 -0.0448  0.1802 -0.0290
  756MPD2    C511224   4.343   3.315   9.164  0.3492  0.1470 -0.1095
  756MPD2     H11225   4.277   3.167   9.508  2.8400  0.4491  1.4923
  756MPD2    H111226   4.142   3.383   9.164  0.8778 -0.9037 -2.2758
  756MPD2    H211227   4.551   3.254   9.184  1.4118  0.7877  2.3106
  756MPD2    H311228   4.359   3.356   9.065 -0.9773  1.3715  0.1814
  756MPD2     N11229   4.070   3.261   9.412  0.0215  0.0553 -0.3013
  756MPD2    H511230   4.069   3.202   9.495 -1.2495  1.2528  0.5423
  756MPD2    N111231   4.516   3.151   9.442 -0.4618  0.3844 -0.7323
  756MPD2    H711232   4.490   3.103   9.527 -1.9518 -0.6666 -1.7682
  757MPD2     C11233   3.865   2.660   9.969  0.0978  0.0901 -0.4501
  757MPD2    C111234   3.969   2.711   9.890 -0.2729  0.1363 -0.7251
  757MPD2    C211235   3.946   2.814   9.805 -0.3729 -0.3137 -0.0106
  757MPD2    C311236   3.829   2.881   9.806 -0.0797 -0.4050  0.0612
  757MPD2    C411237   3.724   2.833   9.880  0.4674  0.1053  0.0028
  757MPD2    C511238   3.742   2.721   9.954  0.2440  0.0305  0.8349
  757MPD2     H11239   4.017   2.840   9.727 -2.1858 -2.5049 -2.3812
  757MPD2    H111240   3.628   2.883   9.879  0.8861  0.9427  3.3895
  757MPD2    H211241   3.867   2.565  10.020 -1.6329  1.5952  2.4496
  757MPD2    H311242   3.657   2.673  10.000 -0.1377 -0.8455 -0.7849
  757MPD2     N11243   3.822   2.993   9.720  0.5109  0.7967  0.2939
  757MPD2    H511244   3.910   3.027   9.682  0.1849  0.0877 -1.1271
  757MPD2    N111245   4.099   2.643   9.896 -0.1990 -0.8328  0.0273
  757MPD2    H711246   4.110   2.552   9.939  0.6933 -1.4835 -1.5704
  758MPD2     C11247   4.437   2.707  15.904  0.2021  0.2643  0.3686
  758MPD2    C111248   4.522   2.643  15.989  0.4025  0.3431 -0.3595
  758MPD2    C211249   4.464   2.569  16.093 -0.2815  0.0580 -0.3325
  758MPD2    C311250   4.329   2.568  16.119 -0.1116  0.2438 -0.0768
  758MPD2    C411251   4.258   2.643  16.034 -0.1773  0.4264 -0.4062
  758MPD2    C511252   4.305   2.710  15.925 -0.7615  0.3696 -0.5444
  758MPD2     H11253   4.524   2.517  16.167 -2.2382 -0.6535  0.7710
  758MPD2    H111254   4.157   2.669  16.063  0.6774 -1.2751  4.0640
  758MPD2    H211255   4.479   2.762  15.821  0.6390  0.3651  0.6561
  758MPD2    H311256   4.235   2.762  15.860 -2.0414  0.3567  0.8229
  758MPD2     N11257   4.271   2.502  16.231 -0.4931 -1.1636 -0.1892
  758MPD2    H511258   4.170   2.502  16.234 -0.4992  0.1081 -0.2013
  758MPD2    N111259   4.654   2.654  15.952 -0.2636  0.2312 -0.0761
  758MPD2    H711260   4.682   2.722  15.882 -1.7459 -0.1568 -1.0630
  759MPD2     C11261   3.323   0.564   9.822 -0.4404  0.2461 -0.3320
  759MPD2    C111262   3.412   0.604   9.925 -0.3727 -0.2234  1.1820
  759MPD2    C211263   3.496   0.708   9.894 -0.3731 -0.2960  0.1338
  759MPD2    C311264   3.492   0.773   9.772 -0.8377  0.6789 -0.0967
  759MPD2    C411265   3.394   0.736   9.678 -0.1971 -0.3338 -0.3311
  759MPD2    C511266   3.306   0.634   9.701  0.0026 -0.0343 -0.9880
  759MPD2     H11267   3.563   0.733   9.976  0.4348  2.0171 -1.2296
  759MPD2    H111268   3.394   0.788   9.583 -1.5083 -1.9757 -1.2319
  759MPD2    H211269   3.254   0.481   9.837 -0.7085  0.6449  0.6593
  759MPD2    H311270   3.229   0.609   9.629 -2.0419 -0.7115  1.4397
  759MPD2     N11271   3.590   0.869   9.763 -0.1763  0.0384  0.6363
  759MPD2    H511272   3.657   0.881   9.838 -1.3959 -0.6034  1.8204
  759MPD2    N111273   3.430   0.538  10.049  0.1213  0.0863  0.0508
  759MPD2    H711274   3.512   0.574  10.095  0.0023 -1.2484  1.3018
  760MPD2     C11275   3.204   2.812  11.654 -0.0641  0.6274  0.2468
  760MPD2    C111276   3.332   2.836  11.613  0.4999 -0.2650  0.0837
  760MPD2    C211277   3.414   2.734  11.563 -0.0401  0.7664  0.3047
  760MPD2    C311278   3.358   2.605  11.552  0.0470  0.5017 -0.4881
  760MPD2    C411279   3.229   2.581  11.597 -0.4133  0.0624  0.2228
  760MPD2    C511280   3.150   2.686  11.641  0.2764  0.0586  0.0604
  760MPD2     H11281   3.512   2.762  11.526 -0.7948  2.3199 -0.4902
  760MPD2    H111282   3.187   2.481  11.587 -1.3137  0.5111 -0.5034
  760MPD2    H211283   3.138   2.889  11.693 -1.2195  0.2461 -0.9440
  760MPD2    H311284   3.047   2.671  11.671  0.8998  0.3385  2.3726
  760MPD2     N11285   3.444   2.495  11.516  0.1202  0.3227 -0.1501
  760MPD2    H511286   3.393   2.408  11.522  1.2332 -0.5023 -2.4294
  760MPD2    N111287   3.382   2.965  11.608 -1.1593 -0.3019 -0.1304
  760MPD2    H711288   3.476   2.975  11.571 -1.4500 -1.2613 -1.1533
  761MPD2     C11289   4.245   2.021  11.508  0.6189 -0.1682  0.5686
  761MPD2    C111290   4.309   1.956  11.401 -0.1219  0.1417  0.5527
  761MPD2    C211291   4.424   2.007  11.348 -0.1790  0.0818  0.2064
  761MPD2    C311292   4.475   2.131  11.391  0.2739 -0.6737  0.3373
  761MPD2    C411293   4.410   2.205  11.484  0.1794 -0.0215  0.0707
  761MPD2    C511294   4.296   2.150  11.536  0.1680  0.4513 -0.3322
  761MPD2     H11295   4.470   1.954  11.265 -1.7100  1.3971 -1.4739
  761MPD2    H111296   4.447   2.305  11.504  1.5697  0.0347 -2.7448
  761MPD2    H211297   4.156   1.983  11.557 -0.6955  0.2676 -1.5159
  761MPD2    H311298   4.247   2.196  11.621 -1.1095  0.3761 -1.0353
  761MPD2     N11299   4.595   2.192  11.336  0.4966  0.0535  1.5076
  761MPD2    H511300   4.620   2.285  11.370  0.1040  0.0432  1.8278
  761MPD2    N111301   4.250   1.833  11.362 -0.4473  0.4267  0.1796
  761MPD2    H711302   4.180   1.800  11.428 -1.0145 -0.8741 -1.0864
  762MPD2     C11303   4.350   1.477  10.667 -0.0716  0.3820  0.9240
  762MPD2    C111304   4.423   1.438  10.772  0.2402 -0.3347  1.2846
  762MPD2    C211305   4.560   1.413  10.756  0.1262  0.0155 -0.1595
  762MPD2    C311306   4.624   1.435  10.635 -0.0025  0.3399  0.2138
  762MPD2    C411307   4.549   1.490  10.530 -0.5724 -0.7141  0.0286
  762MPD2    C511308   4.411   1.507  10.554  0.1294 -0.4901  0.1198
  762MPD2     H11309   4.620   1.376  10.838 -0.6479 -2.2034 -0.5786
  762MPD2    H111310   4.592   1.515  10.434  0.6367  0.2560  0.8334
  762MPD2    H211311   4.245   1.498  10.683 -0.3332  0.8072 -1.3517
  762MPD2    H311312   4.357   1.557  10.475  1.8524  0.0921 -0.6995
  762MPD2     N11313   0.026   1.415  10.638  0.3146  0.0579 -0.9036
  762MPD2    H511314   0.056   1.356  10.714 -2.0998 -0.8362 -0.6479
  762MPD2    N111315   4.353   1.428  10.897 -0.1610 -0.4660  0.0410
  762MPD2    H711316   4.255   1.450  10.887  0.1255  0.5453 -0.5262
  763MPD2     C11317   1.716   2.157  16.184 -0.5185 -0.2033  0.3545
  763MPD2    C111318   1.596   2.222  16.154 -0.4908 -0.2620  0.0571
  763MPD2    C211319   1.558   2.337  16.222  0.1281 -0.6328  0.0434
  763MPD2    C311320   1.639   2.395  16.317  0.0237 -0.1312 -0.5238
  763MPD2    C411321   1.747   2.321  16.351 -0.3720 -0.2667  0.1489
  763MPD2    C511322   1.788   2.203  16.294  0.0181  0.0221 -0.2129
  763MPD2     H11323   1.456   2.374  16.210  0.1151 -0.7693 -0.2622
  763MPD2    H111324   1.811   2.346  16.435 -2.8113 -0.3597  2.0407
  763MPD2    H211325   1.755   2.070  16.131  2.2343  1.8440 -0.9770
  763MPD2    H311326   1.888   2.165  16.311 -0.5485 -0.9118  1.0823
  763MPD2     N11327   1.602   2.503  16.400  0.1509 -0.4505  0.3690
  763MPD2    H511328   1.672   2.536  16.467 -0.7802  0.4407  0.9156
  763MPD2    N111329   1.517   2.181  16.040  0.4810 -0.1669  0.5530
  763MPD2    H711330   1.459   2.253  15.999 -0.2089 -0.9092  0.2117
  764MPD2     C11331   3.958   3.440   0.713  0.2302  0.0092  0.6192
  764MPD2    C111332   3.834   3.498   0.723 -0.0356 -0.2777  0.3866
  764MPD2    C211333   3.763   3.476   0.839  0.3157 -0.2741 -0.2348
  764MPD2    C311334   3.818   3.409   0.946 -0.3228  0.3074  0.1109
  764MPD2    C411335   3.945   3.356   0.931 -0.3217 -0.0616  0.0700
  764MPD2    C511336   4.016   3.372   0.818  0.4427  0.3213  0.3701
  764MPD2     H11337   3.661   3.511   0.853 -0.5222 -2.2024 -1.4797
  764MPD2    H111338   3.989   3.292   1.007 -0.0663  2.7961  2.3419
  764MPD2    H211339   4.016   3.442   0.621  3.2939  0.1520  2.5274
  764MPD2    H311340   4.115   3.332   0.802  0.4464  0.9612 -1.1966
  764MPD2     N11341   3.738   3.398   1.062 -0.1320  0.1977 -0.7286
  764MPD2    H511342   3.644   3.435   1.059  0.1556  0.7437 -2.7611
  764MPD2    N111343   3.773   3.566   0.613 -0.1347 -0.0727 -0.5070
  764MPD2    H711344   3.676   3.593   0.622  0.3317  2.3658 -2.8021
  765MPD2     C11345   3.970   1.736  15.491 -0.2447 -0.7992 -0.9499
  765MPD2    C111346   4.006   1.797  15.607 -0.3470  0.0876  0.0923
  765MPD2    C211347   4.118   1.753  15.676  0.2164  0.5393 -0.0706
  765MPD2    C311348   4.198   1.661  15.616 -0.2309 -0.0261 -0.5337
  765MPD2    C411349   4.152   1.591  15.512  0.2384  0.9033 -0.4632
  765MPD2    C511350   4.045   1.626  15.445  0.1339 -0.4916  0.1203
  765MPD2     H11351   4.145   1.798  15.771 -0.2359 -2.5536  1.4922
  765MPD2    H111352   4.212   1.515  15.464 -0.0429  1.5146 -1.7832
  765MPD2    H211353   3.878   1.765  15.442  0.0416  2.0029  0.1571
  765MPD2    H311354   4.011   1.579  15.353 -0.1369  0.9725 -0.5171
  765MPD2     N11355   4.314   1.614  15.690  0.2381  0.4282  0.1684
  765MPD2    H511356   4.339   1.668  15.773 -0.0760 -1.2563  1.3726
  765MPD2    N111357   3.918   1.903  15.656 -0.3865  0.1955 -0.1993
  765MPD2    H711358   3.837   1.911  15.596 -0.0836 -0.4372 -0.6907
  766MPD2     C11359   3.304   2.007  15.295  0.1869 -0.0873  1.3389
  766MPD2    C111360   3.435   1.989  15.336 -0.6992  0.0716 -0.6081
  766MPD2    C211361   3.523   1.916  15.263 -0.3678 -0.2763  0.1254
  766MPD2    C311362   3.482   1.870  15.140  0.0966  0.3049  0.1115
  766MPD2    C411363   3.354   1.898  15.095  0.6170 -0.1131  0.5816
  766MPD2    C511364   3.268   1.965  15.171 -0.0458  0.5479  0.3627
  766MPD2     H11365   3.626   1.906  15.295 -0.0550 -0.9219 -1.0696
  766MPD2    H111366   3.336   1.875  14.990  0.3593 -0.4845  0.7058
  766MPD2    H211367   3.231   2.065  15.350  0.7852  2.3462 -0.4405
  766MPD2    H311368   3.171   1.996  15.133 -0.4508 -1.5160 -0.3085
  766MPD2     N11369   3.577   1.814  15.046  0.2899  0.1019  0.1364
  766MPD2    H511370   3.545   1.811  14.950  0.7168 -0.0839 -0.0032
  766MPD2    N111371   3.473   2.052  15.457  0.0166  0.1966 -0.0356
  766MPD2    H711372   3.407   2.118  15.497  0.8517  0.5566  0.7740
  767MPD2     C11373   3.167   1.967  14.746  0.0256 -0.0504  0.4792
  767MPD2    C111374   3.304   1.996  14.736 -0.1324  0.0074  0.1324
  767MPD2    C211375   3.387   1.920  14.650  0.2895 -0.9719  0.2223
  767MPD2    C311376   3.339   1.807  14.580  0.2590  0.2419  0.1908
  767MPD2    C411377   3.199   1.776  14.602  0.0438 -0.3990 -0.1147
  767MPD2    C511378   3.117   1.855  14.675  0.2243 -0.5200  0.1058
  767MPD2     H11379   3.494   1.927  14.634  0.6060  0.2765  2.9612
  767MPD2    H111380   3.153   1.690  14.554 -0.4380 -0.1301 -0.1358
  767MPD2    H211381   3.099   2.026  14.806 -1.2055 -2.2027  1.1765
  767MPD2    H311382   3.013   1.829  14.692  0.4439 -1.0040  0.7141
  767MPD2     N11383   3.419   1.718  14.504  0.1192  0.2581 -0.2140
  767MPD2    H511384   3.516   1.747  14.502  0.2760 -0.3218 -1.2260
  767MPD2    N111385   3.356   2.092  14.825  0.6621 -0.2557  0.1536
  767MPD2    H711386   3.292   2.131  14.894  0.3024  0.6976 -0.7138
  768MPD2     C11387   4.433   0.146  10.546 -0.3573  0.0055 -0.2668
  768MPD2    C111388   4.447   0.223  10.658  0.5858  0.3090 -0.1947
  768MPD2    C211389   4.535   0.185  10.754 -0.0232 -0.6889 -0.2335
  768MPD2    C311390   4.618   0.078  10.732  0.7783 -0.5084 -0.3217
  768MPD2    C411391   4.610   0.005  10.613 -0.0190  0.4027  0.1939
  768MPD2    C511392   4.509   0.035  10.525  0.1793  0.2743  0.0758
  768MPD2     H11393   4.544   0.239  10.847  2.2204 -0.1715 -0.7611
  768MPD2    H111394   4.681   4.665  10.589 -1.8027 -0.2550 -2.9651
  768MPD2    H211395   4.350   0.162  10.479 -0.2590  2.1319  0.1146
  768MPD2    H311396   4.500   4.715  10.434  1.3251  0.4252 -0.1310
  768MPD2     N11397   4.737   0.058  10.809  0.0947 -0.2378 -0.6961
  768MPD2    H511398   0.064   4.722  10.783  1.1104  0.0100  1.0648
  768MPD2    N111399   4.355   0.323  10.690  0.0790 -0.1383  0.1826
  768MPD2    H711400   4.366   0.370  10.780 -2.4831  0.2676  0.2777
  769MPD2     C11401   0.362   3.767  14.685 -0.3627 -0.3675 -0.1549
  769MPD2    C111402   0.329   3.659  14.754 -0.3622  0.2311 -0.4116
  769MPD2    C211403   0.370   3.653  14.884 -0.0874  0.7582  0.1846
  769MPD2    C311404   0.432   3.761  14.948 -0.9414 -0.6788 -0.3129
  769MPD2    C411405   0.471   3.870  14.877 -0.0354 -0.8302  0.5452
  769MPD2    C511406   0.429   3.873  14.742 -0.2399 -0.2057  0.1611
  769MPD2     H11407   0.341   3.574  14.951 -2.3991  0.7657 -0.8296
  769MPD2    H111408   0.522   3.953  14.925 -0.4024  0.3470 -1.1172
  769MPD2    H211409   0.327   3.787  14.584 -2.6701 -1.3167  0.4485
  769MPD2    H311410   0.453   3.966  14.691  0.6951 -0.0037  0.9556
  769MPD2     N11411   0.467   3.743  15.090 -0.6167  0.5136  0.1009
  769MPD2    H511412   0.434   3.661  15.140  0.4594 -0.3325 -0.6017
  769MPD2    N111413   0.265   3.551  14.693 -0.4309  0.3697 -0.3902
  769MPD2    H711414   0.216   3.569  14.606 -0.2483  2.3697 -0.0639
  770MPD2     C11415   4.371   2.680  15.008 -0.2670  0.2430  0.5537
  770MPD2    C111416   4.493   2.634  14.955  0.7069 -0.1328  0.0073
  770MPD2    C211417   4.565   2.726  14.883  0.2247  0.0912 -0.4190
  770MPD2    C311418   4.538   2.861  14.883 -0.1974 -0.2466  0.1528
  770MPD2    C411419   4.432   2.908  14.959 -0.5772 -0.2923 -0.6236
  770MPD2    C511420   4.345   2.817  15.012  0.1058 -0.0335 -0.2167
  770MPD2     H11421   4.657   2.701  14.832 -0.8444 -0.6379 -2.0078
  770MPD2    H111422   4.404   3.012  14.962 -0.6133 -0.3634  1.1297
  770MPD2    H211423   4.313   2.604  15.061 -0.9692  0.9585  0.8097
  770MPD2    H311424   4.258   2.851  15.067  0.3478  0.1745  0.0367
  770MPD2     N11425   4.633   2.951  14.816  0.0499  0.4051 -0.3014
  770MPD2    H511426   4.699   2.904  14.755 -0.6614 -2.0504  0.8375
  770MPD2    N111427   4.544   2.499  14.981 -0.1747 -0.0375 -0.0941
  770MPD2    H711428   4.485   2.433  15.031  0.3721 -1.3664 -1.1913
  771MPD2     C11429   1.410   1.067  13.548 -0.3312  0.0080  0.0065
  771MPD2    C111430   1.372   1.179  13.469 -0.1283  1.1425  0.1747
  771MPD2    C211431   1.324   1.151  13.340  0.0660 -0.1818  0.8334
  771MPD2    C311432   1.291   1.021  13.304 -0.7635  0.0906  0.6158
  771MPD2    C411433   1.338   0.912  13.370  0.0071 -0.1955 -0.2156
  771MPD2    C511434   1.398   0.941  13.486 -0.2350 -0.2372  0.3353
  771MPD2     H11435   1.317   1.231  13.266  0.6855 -0.3462  0.5968
  771MPD2    H111436   1.324   0.809  13.339  0.5090 -1.2514  3.0510
  771MPD2    H211437   1.463   1.068  13.642 -0.5302  0.4287  0.1101
  771MPD2    H311438   1.424   0.864  13.558 -1.2109 -1.0425 -0.1726
  771MPD2     N11439   1.217   1.018  13.184  0.1083  0.2206  0.7989
  771MPD2    H511440   1.185   1.106  13.146 -0.5282 -0.7841 -0.9958
  771MPD2    N111441   1.399   1.316  13.508  0.1896  0.1825  0.1541
  771MPD2    H711442   1.379   1.390  13.442 -1.2695 -0.3929 -0.0495
  772MPD2     C11443   1.103   1.803  14.085  0.0954  0.0415  0.5287
  772MPD2    C111444   1.087   1.684  14.019 -0.0021 -0.4074  0.0654
  772MPD2    C211445   1.006   1.586  14.070  0.0355 -0.0282 -0.8247
  772MPD2    C311446   0.936   1.601  14.187  0.5553 -0.6055 -0.2479
  772MPD2    C411447   0.953   1.722  14.252 -0.3654 -0.1887 -0.9856
  772MPD2    C511448   1.039   1.819  14.207 -0.3790 -0.2909 -0.3086
  772MPD2     H11449   1.003   1.487  14.025 -1.2678 -0.9071  1.1945
  772MPD2    H111450   0.901   1.744  14.345  0.3267  0.5925 -0.7834
  772MPD2    H211451   1.158   1.888  14.047 -1.1711  0.2897 -0.7645
  772MPD2    H311452   1.060   1.911  14.259  0.1970 -0.7517  0.2720
  772MPD2     N11453   0.839   1.506  14.226  0.2964 -0.5401  0.4520
  772MPD2    H511454   0.841   1.415  14.181 -1.2133  0.6341 -2.0006
  772MPD2    N111455   1.142   1.657  13.897  0.3254  0.3090 -0.7016
  772MPD2    H711456   1.126   1.560  13.870  2.5666  0.4431 -2.5887
  773MPD2     C11457   4.334   2.394   0.514  0.0852 -0.1872  0.3654
  773MPD2    C111458   4.325   2.343   0.384  0.2707 -0.3126  0.0430
  773MPD2    C211459   4.410   2.240   0.352 -0.5682  0.2122  0.2767
  773MPD2    C311460   4.501   2.190   0.440 -0.0015 -0.2231  0.1202
  773MPD2    C411461   4.513   2.238   0.564  0.4750 -0.4465  0.0565
  773MPD2    C511462   4.423   2.339   0.602  0.1256  0.6781  0.2586
  773MPD2     H11463   4.401   2.191   0.256  0.0325  0.4266  0.1106
  773MPD2    H111464   4.582   2.202   0.639 -0.7636  1.4619  2.1087
  773MPD2    H211465   4.268   2.472   0.551 -0.2160 -1.0468  1.6638
  773MPD2    H311466   4.444   2.376   0.702  1.2582 -0.6843  0.5380
  773MPD2     N11467   4.585   2.089   0.386 -0.9152 -0.4539 -0.6789
  773MPD2    H511468   4.583   2.081   0.285 -0.6128  0.1074 -0.7326
  773MPD2    N111469   4.232   2.389   0.284  0.2005  0.3204 -0.2890
  773MPD2    H711470   4.233   2.344   0.193 -1.3065 -0.8075  0.2528
  774MPD2     C11471   4.135   1.902  13.618 -0.0164  0.3796 -0.4471
  774MPD2    C111472   4.258   1.842  13.625 -0.0997  0.3846  0.4072
  774MPD2    C211473   4.368   1.928  13.619 -0.1310 -0.0913  0.1825
  774MPD2    C311474   4.354   2.066  13.616 -0.2902 -0.0482  0.0551
  774MPD2    C411475   4.228   2.122  13.608 -1.0963  1.1456  0.7361
  774MPD2    C511476   4.120   2.039  13.612 -0.3341 -0.5402 -0.1903
  774MPD2     H11477   4.464   1.879  13.606  1.0776  1.7085  2.2296
  774MPD2    H111478   4.204   2.228  13.615  0.9686  1.6189  0.6579
  774MPD2    H211479   4.046   1.840  13.621  0.6765 -0.6691 -1.2182
  774MPD2    H311480   4.022   2.085  13.607  0.0168  0.5169  2.4959
  774MPD2     N11481   4.475   2.145  13.613  0.0843 -0.2236 -0.1748
  774MPD2    H511482   4.565   2.100  13.628  0.9900  1.6429 -0.1145
  774MPD2    N111483   4.266   1.696  13.627  0.4502  0.7612  0.5175
  774MPD2    H711484   4.181   1.641  13.621 -0.0045  1.6180 -0.8577
  775MPD2     C11485   0.831   3.226  15.937  0.1569  0.0771  0.2423
  775MPD2    C111486   0.833   3.339  16.018 -0.4868 -0.0649  0.3085
  775MPD2    C211487   0.960   3.394  16.039 -0.4642 -0.1205 -0.6169
  775MPD2    C311488   1.078   3.342  15.977 -0.5559  0.4022  0.2709
  775MPD2    C411489   1.066   3.239  15.893  0.4132  0.1538 -0.1362
  775MPD2    C511490   0.944   3.177  15.875 -0.6768  0.1520  0.4830
  775MPD2     H11491   0.970   3.480  16.104  1.3807  0.5366 -1.7754
  775MPD2    H111492   1.153   3.192  15.848  0.4011  1.4198 -1.4947
  775MPD2    H211493   0.736   3.177  15.922 -0.2631  0.1035  2.7794
  775MPD2    H311494   0.929   3.093  15.808  1.3700 -0.0252  0.2624
  775MPD2     N11495   1.208   3.389  16.005  0.1351 -0.1440 -0.5746
  775MPD2    H511496   1.275   3.342  15.945  0.6072 -1.0489  0.6501
  775MPD2    N111497   0.711   3.399  16.055  0.2694 -0.0924 -0.2511
  775MPD2    H711498   0.634   3.334  16.051  0.1237 -0.0773  2.3717
  776MPD2     C11499   4.032   3.555  11.417  0.0891  0.6202  0.6000
  776MPD2    C111500   4.144   3.515  11.486 -0.3806  0.0947  0.1005
  776MPD2    C211501   4.237   3.609  11.530  0.2461 -0.0484 -0.7124
  776MPD2    C311502   4.220   3.746  11.490  0.1040  0.6465  0.5606
  776MPD2    C411503   4.106   3.776  11.418 -0.3742 -0.0078 -0.5424
  776MPD2    C511504   4.015   3.681  11.375  0.2331  0.0822 -0.7002
  776MPD2     H11505   4.313   3.580  11.602  0.7016 -0.3889 -1.3294
  776MPD2    H111506   4.080   3.878  11.391  0.1950  0.4468  0.6594
  776MPD2    H211507   3.949   3.490  11.394  0.2863  0.3788  0.5751
  776MPD2    H311508   3.928   3.704  11.314 -0.9974  2.8096  2.1028
  776MPD2     N11509   4.311   3.846  11.519 -0.0798 -0.2631 -0.0856
  776MPD2    H511510   4.285   3.938  11.483  3.4312 -0.1276 -2.2554
  776MPD2    N111511   4.161   3.373  11.513 -0.4991  0.5524  0.1878
  776MPD2    H711512   4.078   3.317  11.495 -0.6068  0.5936  0.5453
  777MPD2     C11513   0.211   1.069   0.741 -0.2116 -0.2519 -0.6295
  777MPD2    C111514   0.089   1.031   0.796  0.1334  0.5041  0.4401
  777MPD2    C211515   4.732   0.968   0.723  0.4228  0.1374  0.2477
  777MPD2    C311516   0.018   0.939   0.591  0.2026 -0.1348 -0.5679
  777MPD2    C411517   0.130   0.992   0.528  0.5842  0.0870 -0.7136
  777MPD2    C511518   0.228   1.056   0.608  0.0399 -0.2283 -0.6328
  777MPD2     H11519   4.636   0.954   0.771 -0.5546  1.4975 -1.3075
  777MPD2    H111520   0.165   0.978   0.427  1.9419 -1.9752  0.0571
  777MPD2    H211521   0.287   1.126   0.794 -0.4277  0.5720 -1.1954
  777MPD2    H311522   0.319   1.086   0.558 -0.1356  2.7144  0.8011
  777MPD2     N11523   4.657   0.873   0.519 -0.3261 -0.9617 -0.2608
  777MPD2    H511524   4.581   0.838   0.576  0.0530 -1.1515  0.1236
  777MPD2    N111525   0.068   1.076   0.929  0.2659  0.1558  0.3901
  777MPD2    H711526   0.151   1.100   0.982  1.1798 -0.7244 -0.6505
  778MPD2     C11527   1.298   1.274  15.007  0.4328 -0.6562 -0.0956
  778MPD2    C111528   1.323   1.167  14.930 -0.6997 -0.1029 -0.0586
  778MPD2    C211529   1.405   1.183  14.827  0.3427  0.3598  0.7041
  778MPD2    C311530   1.462   1.303  14.797  0.7755 -0.0631  0.4512
  778MPD2    C411531   1.425   1.411  14.873 -0.2002 -0.8974 -0.6807
  778MPD2    C511532   1.343   1.399  14.978  0.5579  0.3230 -0.8587
  778MPD2     H11533   1.434   1.099  14.765  2.1245  1.3691  0.1712
  778MPD2    H111534   1.459   1.509  14.844  0.9219 -0.5597  1.7538
  778MPD2    H211535   1.230   1.272  15.092 -0.1881 -0.7696 -0.5931
  778MPD2    H311536   1.315   1.483  15.041  1.2991 -0.5876  0.6756
  778MPD2     N11537   1.557   1.303  14.693 -0.2501 -0.4107 -0.6076
  778MPD2    H511538   1.577   1.214  14.649 -2.1855 -1.4067  0.5787
  778MPD2    N111539   1.278   1.035  14.966 -0.0653  0.4507  0.0412
  778MPD2    H711540   1.314   0.959  14.909  2.4215  0.2247  1.9267
  779MPD2     C11541   0.886   0.005  14.307 -0.2336  0.0557  0.0392
  779MPD2    C111542   1.004   0.008  14.377  0.3839 -0.0418  0.5734
  779MPD2    C211543   1.080   0.120  14.381 -0.4852 -0.0624  0.2224
  779MPD2    C311544   1.024   0.236  14.331 -0.1588  0.5224 -0.5669
  779MPD2    C411545   0.916   0.229  14.246  0.0364  0.1005 -0.1053
  779MPD2    C511546   0.850   0.113  14.238  0.0512  0.0527 -0.2638
  779MPD2     H11547   1.172   0.128  14.436  0.1484 -2.8888 -0.4362
  779MPD2    H111548   0.881   0.320  14.199  1.2215  0.0990 -0.9812
  779MPD2    H211549   0.816   4.660  14.317 -1.5683  1.3841  1.5566
  779MPD2    H311550   0.756   0.107  14.184  1.3303  1.4171 -2.6519
  779MPD2     N11551   1.092   0.355  14.362 -0.0974 -0.6294 -0.0117
  779MPD2    H511552   1.173   0.346  14.422  1.3187  0.4594 -1.7480
  779MPD2    N111553   1.053   4.641  14.459  0.4159  0.6466  0.2621
  779MPD2    H711554   1.135   4.659  14.517  1.5004  0.2207 -1.1251
  780MPD2     C11555   4.135   4.336   0.997  0.0194 -0.3068 -0.0752
  780MPD2    C111556   4.182   4.237   0.915 -0.3226  0.4673 -0.1041
  780MPD2    C211557   4.272   4.276   0.818 -0.2744 -0.2794 -0.2677
  780MPD2    C311558   4.318   4.405   0.810  0.0711  0.2450  0.8551
  780MPD2    C411559   4.284   4.496   0.897 -0.3574  0.7417 -0.6181
  780MPD2    C511560   4.190   4.458   0.992 -0.7619 -0.0892  0.9527
  780MPD2     H11561   4.317   4.205   0.749 -0.7871 -1.5899  0.7317
  780MPD2    H111562   4.342   4.588   0.906 -0.7816  1.0530 -1.0594
  780MPD2    H211563   4.059   4.323   1.074 -0.3080  0.0491 -0.3336
  780MPD2    H311564   4.155   4.532   1.064 -2.9803  2.1937 -2.4410
  780MPD2     N11565   4.408   4.434   0.700 -0.0424 -0.7337 -0.5415
  780MPD2    H511566   4.431   4.352   0.644  2.0256 -1.5011  1.4068
  780MPD2    N111567   4.144   4.101   0.940  0.4513  0.1663  0.6538
  780MPD2    H711568   4.096   4.078   1.027  0.5189 -2.4636 -0.0001
  781MPD2     C11569   2.318   1.373  11.818  0.0961 -0.3751  0.2999
  781MPD2    C111570   2.375   1.446  11.923 -0.0190 -0.0781 -0.5902
  781MPD2    C211571   2.494   1.502  11.902  0.3346  0.1165 -0.6322
  781MPD2    C311572   2.565   1.474  11.781 -0.0408  0.0653  0.6174
  781MPD2    C411573   2.507   1.407  11.679 -0.2337  1.0043 -0.1255
  781MPD2    C511574   2.382   1.360  11.701  0.1152 -0.2229 -0.6979
  781MPD2     H11575   2.533   1.561  11.985 -0.5747  0.5026 -0.4824
  781MPD2    H111576   2.556   1.385  11.585 -0.6259 -1.1156  0.1617
  781MPD2    H211577   2.222   1.325  11.833  0.0196 -1.3804 -3.4376
  781MPD2    H311578   2.327   1.310  11.623 -0.7657 -1.2423  0.5814
  781MPD2     N11579   2.702   1.511  11.759 -0.2507  0.2680  0.2510
  781MPD2    H511580   2.739   1.481  11.669  0.6583  0.1568  0.6646
  781MPD2    N111581   2.300   1.468  12.040 -0.4036 -0.4928 -0.4845
  781MPD2    H711582   2.328   1.551  12.091 -0.0072 -0.8709 -0.0869
  782MPD2     C11583   0.751   2.294  10.244  0.0383 -0.5817  0.8523
  782MPD2    C111584   0.803   2.339  10.367 -0.3252  0.1254  0.0403
  782MPD2    C211585   0.755   2.457  10.419  0.2012  0.4669  0.1541
  782MPD2    C311586   0.675   2.546  10.347 -0.2588 -0.5741  0.0981
  782MPD2    C411587   0.625   2.507  10.226 -0.4698  0.0691 -0.0864
  782MPD2    C511588   0.667   2.384  10.180 -0.0201 -0.8538  0.7116
  782MPD2     H11589   0.797   2.499  10.510  1.3423 -1.4333  0.5013
  782MPD2    H111590   0.554   2.562  10.165 -0.8107  0.4255  0.6241
  782MPD2    H211591   0.775   2.199  10.197  0.3860 -0.3421  0.5485
  782MPD2    H311592   0.625   2.353  10.085  2.1392 -2.3980  0.2638
  782MPD2     N11593   0.635   2.659  10.418 -0.1308 -0.1458  0.6731
  782MPD2    H511594   0.660   2.666  10.516 -3.0826 -0.0765  1.4080
  782MPD2    N111595   0.885   2.256  10.445  0.3236  0.1783  0.4038
  782MPD2    H711596   0.905   2.167  10.401  2.9434 -0.4840  2.9116
  783MPD2     C11597   0.496   1.855  11.128 -0.0234 -0.2713  0.0057
  783MPD2    C111598   0.493   1.980  11.066 -0.3816 -0.3195 -0.5469
  783MPD2    C211599   0.601   2.024  10.990  0.0402  0.7196  0.8034
  783MPD2    C311600   0.703   1.938  10.955 -0.0439  0.6365 -0.3279
  783MPD2    C411601   0.701   1.809  11.004  0.2937  0.2383 -0.2665
  783MPD2    C511602   0.604   1.768  11.096  0.3274  0.2629 -0.0262
  783MPD2     H11603   0.593   2.127  10.956 -0.1740 -0.3147 -2.3240
  783MPD2    H111604   0.781   1.736  10.990 -0.2463 -0.6114  1.0976
  783MPD2    H211605   0.427   1.817  11.202  0.1803 -0.7987 -0.0744
  783MPD2    H311606   0.615   1.671  11.143 -0.4827 -0.5348 -1.4867
  783MPD2     N11607   0.807   1.981  10.868 -0.4421  0.0536  0.0959
  783MPD2    H511608   0.806   2.078  10.837  1.7025  0.2943  0.8177
  783MPD2    N111609   0.389   2.069  11.103  0.4167  0.3500 -0.1845
  783MPD2    H711610   0.329   2.028  11.173  2.2831 -1.7160  0.2007
  784MPD2     C11611   2.468   3.085   0.453 -0.0347 -0.0570 -0.2039
  784MPD2    C111612   2.436   3.164   0.561 -0.4984  0.1174  0.6985
  784MPD2    C211613   2.318   3.226   0.561  0.5118  0.8562  0.5616
  784MPD2    C311614   2.233   3.219   0.449 -0.9396  0.5037 -0.1856
  784MPD2    C411615   2.257   3.132   0.344  0.1034 -0.5799 -0.2379
  784MPD2    C511616   2.378   3.065   0.347 -0.2434  0.0449  0.0211
  784MPD2     H11617   2.288   3.292   0.641 -1.3135 -1.8763  2.1402
  784MPD2    H111618   2.187   3.120   0.263 -0.4706  1.6406 -0.0805
  784MPD2    H211619   2.558   3.028   0.434 -0.1048 -0.0766 -0.4786
  784MPD2    H311620   2.409   3.005   0.263  1.4131 -0.9797  1.3563
  784MPD2     N11621   2.113   3.296   0.460 -0.3102  0.2476  0.7080
  784MPD2    H511622   2.077   3.334   0.547  0.0134  0.8826  0.5603
  784MPD2    N111623   2.516   3.179   0.671 -0.3460 -0.1928 -0.6548
  784MPD2    H711624   2.481   3.233   0.750 -0.1163 -1.9864  0.6779
  785MPD2     C11625   3.353   1.208  10.828  0.4344 -0.4714  0.5640
  785MPD2    C111626   3.242   1.265  10.785  0.1005 -0.3099 -0.8654
  785MPD2    C211627   3.147   1.198  10.711  0.0646 -0.8950 -0.1483
  785MPD2    C311628   3.182   1.078  10.657 -0.1407 -0.0514  0.7910
  785MPD2    C411629   3.298   1.022  10.693  0.5247 -0.0183 -0.9630
  785MPD2    C511630   3.377   1.079  10.789 -0.1650  0.7126 -0.1670
  785MPD2     H11631   3.060   1.246  10.667  2.3765  1.5156 -2.0515
  785MPD2    H111632   3.326   0.922  10.660 -0.2753 -0.6871  0.3873
  785MPD2    H211633   3.418   1.253  10.902  0.2884  0.6308  0.0273
  785MPD2    H311634   3.469   1.036  10.826 -1.1549  0.3086  1.8353
  785MPD2     N11635   3.099   1.017  10.558 -0.0872  0.2040  0.5267
  785MPD2    H511636   3.010   1.064  10.544 -0.2286  0.0881  1.0331
  785MPD2    N111637   3.234   1.408  10.805  0.6780 -0.5553 -0.4816
  785MPD2    H711638   3.314   1.453  10.847 -0.4270  0.5832  0.4040
  786MPD2     C11639   1.532   3.922  15.171  0.1310 -0.0748  0.5638
  786MPD2    C111640   1.661   3.870  15.173  0.5055  0.2736 -0.2023
  786MPD2    C211641   1.729   3.882  15.291 -0.1804 -0.9079 -0.7616
  786MPD2    C311642   1.670   3.934  15.407  0.7163 -0.2349 -0.2280
  786MPD2    C411643   1.541   3.974  15.405  0.1474  0.2431  0.7481
  786MPD2    C511644   1.473   3.986  15.279  0.0934  0.3180 -0.5569
  786MPD2     H11645   1.828   3.839  15.305 -0.0582  0.2636  1.9519
  786MPD2    H111646   1.493   4.025  15.488  2.7277 -0.0249  2.3997
  786MPD2    H211647   1.476   3.934  15.079  0.8571  0.4864  0.1871
  786MPD2    H311648   1.377   4.035  15.273  0.4536  1.3941  2.3561
  786MPD2     N11649   1.746   3.941  15.517 -0.3332  0.5752 -0.1182
  786MPD2    H511650   1.837   3.897  15.505 -0.1740  1.8652 -3.5504
  786MPD2    N111651   1.731   3.821  15.063 -0.0513  0.9392  0.0452
  786MPD2    H711652   1.829   3.801  15.078 -0.4335 -0.1434  1.1431
  787MPD2     C11653   1.999   3.214  14.907  0.9760  0.1543 -0.2720
  787MPD2    C111654   1.961   3.257  14.780  0.6000 -0.1473  0.1101
  787MPD2    C211655   1.963   3.171  14.676 -0.0561  0.2761  0.4914
  787MPD2    C311656   2.008   3.041  14.698 -0.7498  0.0676  0.3903
  787MPD2    C411657   2.035   2.988  14.825  0.4740  0.3338 -0.2125
  787MPD2    C511658   2.026   3.081  14.927 -0.3833 -0.2710  0.3796
  787MPD2     H11659   1.944   3.208  14.576  0.3776  2.1790  1.1245
  787MPD2    H111660   2.074   2.887  14.835  0.4333  0.2758 -0.6245
  787MPD2    H211661   2.018   3.280  14.991 -1.7625  0.0124  0.4653
  787MPD2    H311662   2.063   3.045  15.023  1.2127 -2.6198 -1.1058
  787MPD2     N11663   2.034   2.964  14.584  0.1582 -0.4400 -0.1550
  787MPD2    H511664   2.011   3.012  14.497  0.0044  1.3091  0.8606
  787MPD2    N111665   1.928   3.396  14.776  0.4544  0.8283 -0.2920
  787MPD2    H711666   1.923   3.438  14.868 -0.8008 -0.3345  0.1807
  788MPD2     C11667   3.233   2.818   1.352 -0.0167 -0.2027  0.6074
  788MPD2    C111668   3.204   2.748   1.232 -0.7419 -0.3750  0.5673
  788MPD2    C211669   3.168   2.822   1.119  0.2807  0.0314  0.6621
  788MPD2    C311670   3.154   2.966   1.128 -0.2482 -0.5306  0.2794
  788MPD2    C411671   3.172   3.024   1.250 -0.1596 -0.1134 -0.5453
  788MPD2    C511672   3.208   2.954   1.362 -0.2466 -0.2666  0.1823
  788MPD2     H11673   3.170   2.767   1.026 -0.5923  1.0510  0.0357
  788MPD2    H111674   3.171   3.131   1.265  0.8489  0.1998 -2.6552
  788MPD2    H211675   3.254   2.761   1.442 -3.7090 -2.2995  0.1208
  788MPD2    H311676   3.234   3.011   1.450 -0.7481 -0.3488  0.3821
  788MPD2     N11677   3.130   3.046   1.021  0.2834  0.3254  0.0061
  788MPD2    H511678   3.130   3.146   1.038 -1.7333  0.3823 -0.3377
  788MPD2    N111679   3.222   2.608   1.222  0.1621 -0.0955 -0.0636
  788MPD2    H711680   3.221   2.562   1.131  0.1162 -2.1230  0.9501
  789MPD2     C11681   3.744   2.136  16.743  0.2632 -0.3230  0.1678
  789MPD2    C111682   3.661   2.173  16.629  0.0897  0.0782  0.1524
  789MPD2    C211683   3.570   2.277  16.641  0.1824 -0.5573 -0.4028
  789MPD2    C311684   3.556   2.345  16.761 -0.0178  0.0695  0.6655
  789MPD2    C411685   3.626   2.294  16.875 -0.0215 -0.1069  0.1109
  789MPD2    C511686   3.725   2.201  16.864 -0.0852 -0.5697 -0.6578
  789MPD2     H11687   3.508   2.309  16.558  0.3806 -0.9566 -0.7016
  789MPD2    H111688   3.595   2.328  16.973 -1.7843 -0.7603 -0.2199
  789MPD2    H211689   3.802   2.044  16.750  0.9925  0.1443  0.2801
  789MPD2    H311690   3.766   2.168  16.958  1.1728  3.0934  0.1015
  789MPD2     N11691   3.465   2.454  16.778 -0.1950  0.4148 -0.7745
  789MPD2    H511692   3.445   2.478  16.874  0.5917 -0.2093 -0.4574
  789MPD2    N111693   3.675   2.104  16.509 -0.2864  0.2178  0.0114
  789MPD2    H711694   3.610   2.122  16.433  1.1450 -0.0890 -1.2661
  790MPD2     C11695   0.386   3.884  13.617 -0.2737 -0.7957 -0.3032
  790MPD2    C111696   0.384   3.765  13.681 -0.0790  0.4646 -0.2334
  790MPD2    C211697   0.330   3.650  13.622 -0.4069  0.1678 -0.1429
  790MPD2    C311698   0.255   3.658  13.509 -0.6084  0.6235 -0.1927
  790MPD2    C411699   0.263   3.779  13.438 -0.1528 -0.2484 -0.2495
  790MPD2    C511700   0.337   3.884  13.491  0.7134  0.2943 -0.2274
  790MPD2     H11701   0.352   3.553  13.665 -2.0919 -1.0186 -1.9636
  790MPD2    H111702   0.229   3.796  13.337  3.0416 -0.2331 -1.3316
  790MPD2    H211703   0.441   3.971  13.649  1.4120 -2.6047  1.7405
  790MPD2    H311704   0.346   3.976  13.435 -3.2407  2.4422  2.6790
  790MPD2     N11705   0.195   3.544  13.441 -0.0600  0.0423  0.5367
  790MPD2    H511706   0.197   3.451  13.481  1.3704  0.6546  1.8875
  790MPD2    N111707   0.423   3.777  13.822 -0.2323 -0.3975 -0.4592
  790MPD2    H711708   0.441   3.867  13.866  2.6568 -0.6995 -0.9772
  791MPD2     C11709   4.304   3.430  12.959 -0.4802 -0.0925 -0.5449
  791MPD2    C111710   4.342   3.325  13.035  0.0696 -0.3135 -1.0711
  791MPD2    C211711   4.259   3.218  13.047 -0.0425  0.4821  0.3866
  791MPD2    C311712   4.132   3.228  12.992 -0.2030  0.7446 -0.2893
  791MPD2    C411713   4.094   3.336  12.918 -0.4222 -0.3584 -0.4507
  791MPD2    C511714   4.181   3.437  12.895 -0.6277  0.4298  0.2861
  791MPD2     H11715   4.284   3.138  13.116  0.0891  0.4968  0.3565
  791MPD2    H111716   3.988   3.343  12.898 -0.8025 -0.5694  1.4836
  791MPD2    H211717   4.373   3.514  12.953  1.7244 -2.1751 -4.5517
  791MPD2    H311718   4.146   3.525  12.841 -0.4244  0.1687 -0.2672
  791MPD2     N11719   4.048   3.123  13.025 -0.0075  0.3257  0.2322
  791MPD2    H511720   4.089   3.055  13.089 -1.5748  0.6616  1.5881
  791MPD2    N111721   4.467   3.336  13.104  0.4265 -0.0409 -0.0946
  791MPD2    H711722   4.511   3.427  13.102  0.7767 -0.2123 -0.1567
  792MPD2     C11723   0.397   3.566  11.266  0.1565  0.6605  1.2404
  792MPD2    C111724   0.425   3.525  11.135  0.4844 -0.4894 -0.0728
  792MPD2    C211725   0.329   3.454  11.061 -0.7388 -0.4639 -0.5094
  792MPD2    C311726   0.204   3.437  11.114  0.3109 -0.5041  0.1049
  792MPD2    C411727   0.175   3.482  11.243  0.7320 -0.7407  0.3590
  792MPD2    C511728   0.272   3.536  11.318  0.1022 -0.5093  0.5050
  792MPD2     H11729   0.347   3.418  10.961 -2.9367  0.2652 -1.1611
  792MPD2    H111730   0.077   3.459  11.284 -0.5233 -0.4778 -2.4790
  792MPD2    H211731   0.465   3.621  11.330  0.2752 -0.8265  2.3809
  792MPD2    H311732   0.259   3.564  11.422  1.5339  1.0028  0.2807
  792MPD2     N11733   0.097   3.367  11.050 -0.0317  0.1289 -0.4223
  792MPD2    H511734   0.019   3.336  11.107 -0.8119  2.6265 -0.1443
  792MPD2    N111735   0.556   3.563  11.083  0.2564  0.7213 -0.6355
  792MPD2    H711736   0.620   3.611  11.145  0.6479 -0.5242 -0.0832
  793MPD2     C11737   4.411   3.301  10.090  0.6474 -0.0015  0.4835
  793MPD2    C111738   4.551   3.282  10.108 -0.2308  0.2786 -0.1758
  793MPD2    C211739   4.600   3.265  10.238  0.2205  0.3726 -0.6675
  793MPD2    C311740   4.518   3.281  10.349  0.3658  0.1013 -0.7356
  793MPD2    C411741   4.385   3.322  10.331 -0.2594  0.2075 -0.1049
  793MPD2    C511742   4.329   3.323  10.203 -1.0012 -0.0129 -0.1850
  793MPD2     H11743   4.706   3.245  10.251  0.0646  0.0959  0.1734
  793MPD2    H111744   4.321   3.339  10.416  1.2759 -1.2818  1.3412
  793MPD2    H211745   4.357   3.326  10.000 -0.6817 -0.3763  1.1810
  793MPD2    H311746   4.229   3.361  10.186 -0.7432 -0.7020 -3.3387
  793MPD2     N11747   4.570   3.244  10.471  0.0635 -0.2452  0.3316
  793MPD2    H511748   4.668   3.219  10.474  0.3997  1.2425  1.7016
  793MPD2    N111749   4.637   3.252   9.999 -1.0190  0.1846  0.5732
  793MPD2    H711750   4.724   3.215  10.035 -0.7101 -1.0688 -1.4852
  794MPD2     C11751   4.116   2.438  17.309  0.3925 -0.2517 -0.5296
  794MPD2    C111752   4.074   2.534  17.404 -0.3253 -0.2395 -0.2538
  794MPD2    C211753   4.046   2.661  17.369  1.3337 -1.1582  0.1974
  794MPD2    C311754   4.071   2.699  17.236 -0.0453  0.1899 -0.0927
  794MPD2    C411755   4.132   2.612  17.150 -0.0576  0.0312  0.5548
  794MPD2    C511756   4.154   2.481  17.186  0.3237 -0.1496 -0.5696
  794MPD2     H11757   4.016   2.727  17.450  0.0215  0.6019 -1.7293
  794MPD2    H111758   4.163   2.642  17.051  0.8721  1.2623  1.2268
  794MPD2    H211759   4.140   2.335  17.333 -1.1322 -0.6958 -0.9167
  794MPD2    H311760   4.194   2.408  17.116  3.3362  1.0458 -0.1214
  794MPD2     N11761   4.033   2.825  17.178  0.1288  0.3591  0.2367
  794MPD2    H511762   4.032   2.832  17.077  2.6510  1.2631  0.2765
  794MPD2    N111763   4.053   2.513  17.538  0.0571  0.1215 -0.1130
  794MPD2    H711764   4.017   2.583  17.602  0.8888  0.5770 -0.1444
  795MPD2     C11765   2.426   0.159  12.847 -0.8478  0.2794  0.1543
  795MPD2    C111766   2.361   0.110  12.961  0.4405  0.4680 -0.3136
  795MPD2    C211767   2.431   0.054  13.062 -0.1349  0.0541  0.0878
  795MPD2    C311768   2.564   0.035  13.037 -0.6598  0.0613 -0.0274
  795MPD2    C411769   2.626   0.070  12.918  0.8328  0.4605  0.7389
  795MPD2    C511770   2.556   0.138  12.824  0.6408 -0.4981  0.4081
  795MPD2     H11771   2.378   0.025  13.152  0.7862  1.3687  1.0434
  795MPD2    H111772   2.730   0.052  12.895  0.3853 -0.1241 -0.8185
  795MPD2    H211773   2.365   0.202  12.769  0.6087 -0.6306 -1.5094
  795MPD2    H311774   2.600   0.171  12.730  1.4153 -0.5304  0.7577
  795MPD2     N11775   2.649   4.693  13.121 -0.5386 -1.0902 -0.5160
  795MPD2    H511776   2.740   4.657  13.092 -2.2617 -4.2514 -2.0142
  795MPD2    N111777   2.219   0.120  12.989 -0.1456 -0.3096 -0.2013
  795MPD2    H711778   2.187   0.117  13.085  0.4045 -0.4191 -0.0180
  796MPD2     C11779   1.836   1.897  15.765 -0.4457  0.1459 -0.5995
  796MPD2    C111780   1.909   1.929  15.881 -0.0421 -0.1935  0.3493
  796MPD2    C211781   1.923   2.064  15.918  0.5518  0.2202  0.2303
  796MPD2    C311782   1.866   2.164  15.842  0.2351 -0.7007  0.1857
  796MPD2    C411783   1.800   2.130  15.721 -0.5045  0.1327 -0.1187
  796MPD2    C511784   1.786   1.997  15.687  0.3335 -0.4018  0.3995
  796MPD2     H11785   1.971   2.096  16.010 -0.8190 -0.9740  1.3408
  796MPD2    H111786   1.752   2.210  15.666  2.2979  1.0616 -1.2460
  796MPD2    H211787   1.819   1.793  15.736 -0.8224  0.4053 -1.3122
  796MPD2    H311788   1.718   1.963  15.610  0.5199  0.9025 -0.3484
  796MPD2     N11789   1.871   2.294  15.893  0.8142  0.5166 -0.3164
  796MPD2    H511790   1.932   2.312  15.972  3.0712 -1.0411 -1.7056
  796MPD2    N111791   1.974   1.829  15.953 -0.1954  0.1119 -0.4450
  796MPD2    H711792   2.045   1.867  16.015 -1.5333 -0.7369  1.5806
  797MPD2     C11793   2.699   1.483  17.407  0.2809  1.1030 -0.3173
  797MPD2    C111794   2.712   1.619  17.429  0.2977  0.1807  0.3110
  797MPD2    C211795   2.605   1.701  17.394  0.7728  0.3471  0.4562
  797MPD2    C311796   2.498   1.650  17.334  0.1505  0.1206 -0.4393
  797MPD2    C411797   2.475   1.512  17.313 -0.1070  0.3641  0.2859
  797MPD2    C511798   2.577   1.429  17.357 -0.4061 -0.3318  0.3523
  797MPD2     H11799   2.610   1.809  17.401  0.7339  0.2412  2.1543
  797MPD2    H111800   2.388   1.470  17.264  1.2849 -0.2040 -1.7338
  797MPD2    H211801   2.784   1.420  17.428 -1.2949 -0.5764  0.9571
  797MPD2    H311802   2.573   1.321  17.349  0.7099 -0.3364 -0.1949
  797MPD2     N11803   2.407   1.745  17.274  0.5133  0.6901  0.2055
  797MPD2    H511804   2.434   1.843  17.283 -3.0764  1.6792  0.3867
  797MPD2    N111805   2.822   1.682  17.483  0.8925  0.5182 -0.3481
  797MPD2    H711806   2.822   1.782  17.465 -2.0261  0.4088 -0.9689
  798MPD2     C11807   2.665   2.376  17.341 -0.4879  0.5856  0.9509
  798MPD2    C111808   2.632   2.240  17.328 -0.6859  0.0163 -0.0049
  798MPD2    C211809   2.709   2.146  17.394 -0.0267  0.6384  0.1217
  798MPD2    C311810   2.832   2.184  17.451 -0.1603  0.5592 -0.2141
  798MPD2    C411811   2.869   2.316  17.452  0.4090  0.4495  0.1954
  798MPD2    C511812   2.783   2.409  17.399 -0.5156 -0.2918 -0.0004
  798MPD2     H11813   2.692   2.040  17.381 -0.0365  0.9236 -2.0696
  798MPD2    H111814   2.957   2.352  17.504 -0.4457  0.9216  1.3186
  798MPD2    H211815   2.600   2.459  17.312 -1.2151 -0.9283 -1.7899
  798MPD2    H311816   2.812   2.513  17.407 -2.6634  0.2768  0.5136
  798MPD2     N11817   2.906   2.080  17.499  0.2656 -0.2511  0.7692
  798MPD2    H511818   2.864   1.987  17.498 -0.2377  0.0032 -2.1536
  798MPD2    N111819   2.511   2.209  17.263  0.5118 -0.0885  0.0409
  798MPD2    H711820   2.470   2.276  17.199 -1.1822 -3.4680 -2.4085
  799MPD2     C11821   1.597   3.156  14.697  0.3961 -0.7505  0.1002
  799MPD2    C111822   1.636   3.040  14.636  0.4014  0.4302 -0.1470
  799MPD2    C211823   1.623   3.026  14.500  0.2560 -0.9824  0.1189
  799MPD2    C311824   1.553   3.112  14.425  0.4544  0.0522  0.0415
  799MPD2    C411825   1.509   3.222  14.488  0.3462  0.1984  0.2935
  799MPD2    C511826   1.540   3.254  14.619  0.4882  0.4832  0.2066
  799MPD2     H11827   1.680   2.945  14.455  1.1996  0.3576 -1.0784
  799MPD2    H111828   1.465   3.290  14.417 -0.9253 -0.8284  0.1149
  799MPD2    H211829   1.624   3.174  14.801  1.7513 -3.4401  0.2380
  799MPD2    H311830   1.528   3.356  14.652  0.0497  0.9399 -1.3613
  799MPD2     N11831   1.550   3.099  14.283  0.0758  0.4071  0.4454
  799MPD2    H511832   1.501   3.173  14.232 -0.4915  0.4661  1.0842
  799MPD2    N111833   1.679   2.925  14.708 -0.0401 -0.0785  0.0241
  799MPD2    H711834   1.718   2.860  14.640 -1.3449 -0.1815 -0.6169
  800MPD2     C11835   2.133   4.080  14.199 -0.5495 -1.2381  0.4010
  800MPD2    C111836   2.252   4.021  14.160  0.8633  0.2242  0.4569
  800MPD2    C211837   2.254   3.932  14.051  0.0823 -0.1607 -0.3637
  800MPD2    C311838   2.134   3.906  13.981 -0.1033  0.2621  0.8663
  800MPD2    C411839   2.022   3.965  14.018 -0.6175 -0.6067  0.4213
  800MPD2    C511840   2.022   4.052  14.118  0.2807 -0.4313 -0.1819
  800MPD2     H11841   2.346   3.880  14.029 -0.5763 -1.3142 -0.3578
  800MPD2    H111842   1.933   3.944  13.960  0.2615  2.1739 -1.9131
  800MPD2    H211843   2.126   4.148  14.283  2.3588  1.7067 -1.7644
  800MPD2    H311844   1.927   4.094  14.147 -0.0417 -1.0661 -0.3303
  800MPD2     N11845   2.148   3.803  13.880  1.1056 -0.8460  0.1184
  800MPD2    H511846   2.238   3.756  13.880  0.2190 -2.4991 -2.3463
  800MPD2    N111847   2.370   4.052  14.236 -0.2210 -0.0462  0.4506
  800MPD2    H711848   2.365   4.115  14.315  1.3879 -0.5364  0.9463
  801MPD2     C11849   2.527   4.273  14.846 -0.7472  0.8519  0.1975
  801MPD2    C111850   2.465   4.291  14.724  0.0718  0.3828 -0.0090
  801MPD2    C211851   2.341   4.347  14.730  0.2928  0.0485  0.1870
  801MPD2    C311852   2.270   4.376  14.844 -0.4557 -0.0879  0.6608
  801MPD2    C411853   2.332   4.350  14.967  0.2369 -0.1500  0.1237
  801MPD2    C511854   2.458   4.301  14.962  0.2712  0.5135 -0.5041
  801MPD2     H11855   2.296   4.365  14.633  2.4730  1.4521 -0.5633
  801MPD2    H111856   2.285   4.377  15.061 -2.7791 -0.4519 -1.3068
  801MPD2    H211857   2.628   4.236  14.852 -1.4098 -1.2542 -1.4497
  801MPD2    H311858   2.512   4.291  15.056  2.2705  0.1855 -1.6777
  801MPD2     N11859   2.147   4.446  14.828  0.1078 -0.4405 -0.6551
  801MPD2    H511860   2.092   4.453  14.914  1.9189  1.2821  0.3707
  801MPD2    N111861   2.522   4.261  14.594 -0.1297 -0.2031 -0.5170
  801MPD2    H711862   2.466   4.290  14.515 -0.5641 -0.5459 -0.3377
  802MPD2     C11863   1.401   0.038   0.577  0.4578 -0.2809 -0.1751
  802MPD2    C111864   1.286   0.055   0.502 -0.3978 -0.1159 -0.2116
  802MPD2    C211865   1.296   0.095   0.369  0.1641  0.1523 -0.5339
  802MPD2    C311866   1.417   0.104   0.308  0.5302 -0.2415  0.0464
  802MPD2    C411867   1.531   0.102   0.384  0.6326 -1.1557  0.1657
  802MPD2    C511868   1.519   0.074   0.521  0.2388  0.0921 -0.2972
  802MPD2     H11869   1.210   0.103   0.304  0.5024 -0.4599 -1.0706
  802MPD2    H111870   1.632   0.121   0.349  0.4001 -0.7277 -0.2513
  802MPD2    H211871   1.404   0.013   0.682 -0.6911 -2.5022 -0.6854
  802MPD2    H311872   1.607   0.046   0.577  0.0712 -0.7500 -0.4646
  802MPD2     N11873   1.434   0.127   0.166 -0.2243 -0.2864  0.0196
  802MPD2    H511874   1.528   0.137   0.131  0.1999 -0.2841  1.1370
  802MPD2    N111875   1.159   0.040   0.572  0.1491 -0.1908 -0.1501
  802MPD2    H711876   1.175   0.022   0.670 -0.3830  0.0895 -0.0123
  803MPD2     C11877   2.756   3.301  11.912 -0.0468 -0.3370  0.3103
  803MPD2    C111878   2.872   3.350  11.970  0.2519  0.0248  0.5575
  803MPD2    C211879   2.880   3.316  12.102  0.1369  0.0004  0.1342
  803MPD2    C311880   2.795   3.231  12.170  0.5054  0.5390  0.7059
  803MPD2    C411881   2.679   3.190  12.104  0.4154  0.6362  0.1270
  803MPD2    C511882   2.665   3.222  11.974 -0.8155 -0.1318 -0.1001
  803MPD2     H11883   2.969   3.350  12.154 -0.5992  0.1276  1.2857
  803MPD2    H111884   2.609   3.126  12.157  1.2638 -1.9260 -1.8884
  803MPD2    H211885   2.729   3.326  11.810 -0.3672 -1.5126  0.1088
  803MPD2    H311886   2.584   3.179  11.917 -0.0498 -1.8872  0.1472
  803MPD2     N11887   2.813   3.191  12.304 -1.0385 -0.8580  0.6928
  803MPD2    H511888   2.745   3.125  12.341 -1.5030 -0.4021  0.6643
  803MPD2    N111889   2.971   3.417  11.895 -0.4889 -0.6990  0.5648
  803MPD2    H711890   3.057   3.438  11.944  0.8883 -1.0985 -1.6977
  804MPD2     C11891   2.148   0.363  16.937 -0.6401  0.5360 -0.1282
  804MPD2    C111892   2.160   0.348  17.077 -0.6801 -0.4775 -0.4714
  804MPD2    C211893   2.240   0.438  17.149  0.5850 -0.1471  0.8541
  804MPD2    C311894   2.310   0.547  17.091 -0.5726  0.1385  0.0325
  804MPD2    C411895   2.295   0.558  16.949 -0.2126 -0.2580  0.2473
  804MPD2    C511896   2.219   0.465  16.878 -0.5226 -0.3332 -0.1210
  804MPD2     H11897   2.263   0.422  17.254  0.9301  0.6160  0.8916
  804MPD2    H111898   2.343   0.639  16.896  0.7720 -0.5288  0.7280
  804MPD2    H211899   2.092   0.293  16.877  0.3013 -0.4410  0.1342
  804MPD2    H311900   2.216   0.465  16.770  1.6977  0.5140 -0.1893
  804MPD2     N11901   2.380   0.641  17.169 -0.5916  0.1066  0.3538
  804MPD2    H511902   2.391   0.622  17.268 -1.3728 -0.4495  0.3337
  804MPD2    N111903   2.105   0.237  17.146 -0.0356 -0.5685  0.0111
  804MPD2    H711904   2.109   0.243  17.247 -2.6863  0.9019  0.0271
  805MPD2     C11905   1.407   3.175  15.713 -0.1261 -1.0534 -0.5727
  805MPD2    C111906   1.495   3.214  15.611 -0.2592  0.1773 -0.1390
  805MPD2    C211907   1.632   3.223  15.642 -0.7057 -0.1102  0.3695
  805MPD2    C311908   1.678   3.199  15.766  0.4033 -0.2616 -0.6176
  805MPD2    C411909   1.587   3.155  15.863 -0.1803 -0.2172 -0.0970
  805MPD2    C511910   1.458   3.146  15.840  0.7521  0.2713 -0.0300
  805MPD2     H11911   1.697   3.245  15.558 -0.5932  0.9479  0.7278
  805MPD2    H111912   1.609   3.134  15.967 -0.9934  0.8475  0.2948
  805MPD2    H211913   1.302   3.157  15.696 -0.2847 -0.2168 -0.4913
  805MPD2    H311914   1.390   3.116  15.919 -1.1762  1.4452 -1.2226
  805MPD2     N11915   1.820   3.225  15.793 -0.0783  0.6905  0.2231
  805MPD2    H511916   1.870   3.271  15.718  0.2818 -0.6295 -0.3492
  805MPD2    N111917   1.454   3.240  15.482 -0.0206  0.1221  0.3807
  805MPD2    H711918   1.523   3.236  15.409  0.0952  1.5007  0.4165
  806MPD2     C11919   1.788   2.976   0.332 -0.1542  0.4452  0.6239
  806MPD2    C111920   1.685   3.033   0.402 -1.0578  0.3388  0.0125
  806MPD2    C211921   1.595   3.128   0.346 -0.1131 -0.7163  0.3412
  806MPD2    C311922   1.615   3.161   0.216 -0.1915  0.4876 -0.5718
  806MPD2    C411923   1.726   3.109   0.146  0.4643  0.4443 -0.5173
  806MPD2    C511924   1.807   3.021   0.206 -0.9150  0.2087  0.0693
  806MPD2     H11925   1.512   3.179   0.393  1.1986 -0.0703  1.9525
  806MPD2    H111926   1.736   3.134   0.041  0.4297  0.7359 -0.4515
  806MPD2    H211927   1.859   2.904   0.373 -0.6195 -0.0310  0.5847
  806MPD2    H311928   1.886   2.976   0.146 -1.0690 -0.1675  0.1518
  806MPD2     N11929   1.514   3.250   0.156  0.2905  0.5180  0.4563
  806MPD2    H511930   1.447   3.293   0.219 -0.7929  0.3649 -0.6017
  806MPD2    N111931   1.674   2.997   0.537  0.4141  0.4226  0.7724
  806MPD2    H711932   1.754   2.941   0.565  0.9248  0.7991  0.0420
  807MPD2     C11933   1.231   2.932   1.305  0.1006  0.5215 -0.3721
  807MPD2    C111934   1.337   2.855   1.276 -0.4556  0.3699  0.0314
  807MPD2    C211935   1.359   2.746   1.355 -1.0334  0.2758  1.3798
  807MPD2    C311936   1.288   2.725   1.476 -0.7262  0.5445  0.5816
  807MPD2    C411937   1.178   2.799   1.500 -0.4566  0.5369  0.1914
  807MPD2    C511938   1.153   2.901   1.410 -0.3562  0.0852 -1.0108
  807MPD2     H11939   1.438   2.677   1.330 -0.4161  0.9910  1.3395
  807MPD2    H111940   1.112   2.797   1.586 -0.9670  1.6741 -0.1677
  807MPD2    H211941   1.206   3.019   1.244  0.8147  1.0119  0.0375
  807MPD2    H311942   1.066   2.959   1.441  1.1560  1.7288  0.1418
  807MPD2     N11943   1.330   2.619   1.558  0.0161  0.0487  0.4166
  807MPD2    H511944   1.402   2.556   1.524  0.2468  1.1958 -1.2173
  807MPD2    N111945   1.431   2.876   1.177  0.0969  0.3216  0.1107
  807MPD2    H711946   1.513   2.817   1.176 -1.1791 -1.4383 -0.5927
  808MPD2     C11947   2.474   3.634  10.325  0.2783  0.6032 -0.2257
  808MPD2    C111948   2.547   3.705  10.416 -0.4906 -0.2119 -0.2869
  808MPD2    C211949   2.653   3.783  10.366  0.5465  0.4126  0.4838
  808MPD2    C311950   2.683   3.789  10.228  0.2714  0.3753 -0.3848
  808MPD2    C411951   2.609   3.715  10.140 -0.1203  0.0919 -0.1625
  808MPD2    C511952   2.508   3.636  10.192 -0.0305 -0.0682 -0.0108
  808MPD2     H11953   2.718   3.839  10.432  1.6037  1.0271 -1.0542
  808MPD2    H111954   2.623   3.708  10.032 -2.0001  0.6310 -0.4449
  808MPD2    H211955   2.388   3.572  10.347  1.7092 -1.6717 -1.1300
  808MPD2    H311956   2.457   3.560  10.134  0.2429 -0.8868  0.8269
  808MPD2     N11957   2.793   3.870  10.172 -0.2991  0.4220 -0.2613
  808MPD2    H511958   2.813   3.868  10.072  1.6758 -1.3594  0.1782
  808MPD2    N111959   2.502   3.719  10.550 -0.1463 -0.5270  0.2454
  808MPD2    H711960   2.551   3.790  10.604 -0.2954  1.1492 -1.8116
  809MPD2     C11961   3.219   3.715   9.463 -0.7242  0.1870 -0.3734
  809MPD2    C111962   3.298   3.825   9.491  0.5268 -0.2106 -0.3735
  809MPD2    C211963   3.259   3.907   9.597  0.1613 -0.1076 -0.5724
  809MPD2    C311964   3.159   3.874   9.691 -0.4364 -0.4535  0.2426
  809MPD2    C411965   3.104   3.749   9.677 -0.3592 -0.3479  0.1593
  809MPD2    C511966   3.138   3.671   9.566  0.0256 -0.0933 -0.4231
  809MPD2     H11967   3.291   4.011   9.601 -1.0873  0.2299  0.7600
  809MPD2    H111968   3.032   3.715   9.751  0.7341  0.8426  1.7630
  809MPD2    H211969   3.235   3.650   9.377 -0.4691 -0.3516  0.0828
  809MPD2    H311970   3.091   3.574   9.554 -0.6498  0.1236  0.4017
  809MPD2     N11971   3.127   3.944   9.807  0.1232  0.2200 -0.1185
  809MPD2    H511972   3.059   3.903   9.870 -0.7115  3.1205  0.8659
  809MPD2    N111973   3.413   3.866   9.424  0.1773  0.2428 -0.5153
  809MPD2    H711974   3.461   3.949   9.457 -2.3467  0.8066  1.7494
  810MPD2     C11975   1.937   3.874  11.204 -0.2844 -0.5611  0.2214
  810MPD2    C111976   1.917   3.856  11.070  0.1104 -0.4796 -0.0077
  810MPD2    C211977   1.912   3.963  10.982 -0.8170 -0.1226 -0.1237
  810MPD2    C311978   1.944   4.088  11.030  0.0645 -0.1429  0.4355
  810MPD2    C411979   1.988   4.103  11.158  0.2918 -0.1672  0.7829
  810MPD2    C511980   1.984   3.998  11.245 -0.2890 -0.1042 -0.1361
  810MPD2     H11981   1.884   3.951  10.878  1.0431  0.8491 -0.7297
  810MPD2    H111982   2.010   4.198  11.205  0.8370  0.0089  0.1712
  810MPD2    H211983   1.931   3.792  11.274  3.2121 -2.2272 -1.4237
  810MPD2    H311984   2.004   4.008  11.351  1.8089  1.3318 -0.6647
  810MPD2     N11985   1.928   4.205  10.959  0.5879 -0.5859  0.3732
  810MPD2    H511986   1.980   4.286  10.990  1.1098 -0.0403 -1.9326
  810MPD2    N111987   1.871   3.726  11.036  0.0398  0.4294 -0.2427
  810MPD2    H711988   1.839   3.661  11.107  0.8333  1.6734  1.2506
  811MPD2     C11989   1.487   3.386  10.312 -0.3570 -0.2903 -0.4837
  811MPD2    C111990   1.578   3.451  10.391 -0.2662 -0.5507 -0.2373
  811MPD2    C211991   1.616   3.575  10.342 -0.1015 -0.1711  0.2848
  811MPD2    C311992   1.569   3.637  10.228 -0.1136 -0.1750  0.3507
  811MPD2    C411993   1.490   3.559  10.150  0.2876  0.2235 -0.7036
  811MPD2    C511994   1.445   3.439  10.194  0.8587  0.8146 -0.0272
  811MPD2     H11995   1.689   3.634  10.396  0.0665 -1.2090  1.2032
  811MPD2    H111996   1.461   3.583  10.048 -0.3258  1.2642 -0.2843
  811MPD2    H211997   1.443   3.291  10.338 -0.2966 -0.5118 -1.1938
  811MPD2    H311998   1.385   3.378  10.128  1.5490  0.8248 -0.6647
  811MPD2     N11999   1.630   3.753  10.196  0.3385  0.0707 -0.1062
  811MPD2    H512000   1.690   3.790  10.269  0.3025 -1.9404  0.9387
  811MPD2    N112001   1.634   3.393  10.509 -0.0401  0.1579 -0.4464
  811MPD2    H712002   1.595   3.307  10.548 -0.3351  0.1703 -0.7264
  812MPD2     C12003   0.502   3.207  12.205 -0.5534  0.0314  0.2697
  812MPD2    C112004   0.605   3.292  12.234 -0.4055  0.3560  0.0081
  812MPD2    C212005   0.708   3.252  12.328  0.1392  0.2145  0.0483
  812MPD2    C312006   0.703   3.123  12.373 -0.5790  0.0451 -0.3320
  812MPD2    C412007   0.607   3.038  12.325  0.3469  0.4863  0.1011
  812MPD2    C512008   0.504   3.079  12.241  0.2825 -0.1195  0.1169
  812MPD2     H12009   0.796   3.309  12.355  1.0309  0.3383 -3.2100
  812MPD2    H112010   0.590   2.941  12.369 -1.6329  1.3420  1.2588
  812MPD2    H212011   0.416   3.232  12.144 -1.2373  2.5215  2.2708
  812MPD2    H312012   0.435   3.005  12.202  0.4417 -1.3066  2.0913
  812MPD2     N12013   0.805   3.087  12.470 -0.2252 -0.2978  0.3864
  812MPD2    H512014   0.874   3.156  12.498  1.0023 -0.8123 -1.4071
  812MPD2    N112015   0.603   3.414  12.171 -0.3510  0.4247 -0.1743
  812MPD2    H712016   0.522   3.420  12.109  0.6315  3.5825 -1.1230
  813MPD2     C12017   4.594   0.506  12.800 -0.1592  0.1095 -0.5480
  813MPD2    C112018   4.666   0.595  12.877  0.1637  0.2808 -1.0791
  813MPD2    C212019   4.616   0.641  12.999 -0.2804 -0.5736  0.8365
  813MPD2    C312020   4.492   0.596  13.050  0.2204 -0.0820  0.0882
  813MPD2    C412021   4.413   0.519  12.970  0.1645 -0.4398  0.2581
  813MPD2    C512022   4.467   0.474  12.844 -0.3453 -0.9836  0.3643
  813MPD2     H12023   4.675   0.709  13.059 -0.1049 -0.0873  0.1179
  813MPD2    H112024   4.316   0.476  12.995 -0.1976  1.1981  1.6610
  813MPD2    H212025   4.637   0.449  12.718 -0.5643 -0.4062 -0.3994
  813MPD2    H312026   4.411   0.405  12.782 -1.2767  0.6056 -0.5692
  813MPD2     N12027   4.455   0.645  13.180  0.2859 -0.3812 -0.6198
  813MPD2    H512028   4.517   0.718  13.214  1.7538 -1.6653 -0.5319
  813MPD2    N112029   0.063   0.620  12.849 -0.0248 -0.6466 -0.0726
  813MPD2    H712030   0.090   0.702  12.902 -2.6716  0.6824 -0.7674
  814MPD2     C12031   0.479   1.475  12.484  0.5005 -0.6979 -0.1884
  814MPD2    C112032   0.407   1.546  12.389 -0.1681 -0.0727  0.3521
  814MPD2    C212033   0.430   1.679  12.379 -0.0867  0.1891 -0.0494
  814MPD2    C312034   0.523   1.749  12.454 -0.2179 -0.4651  1.1537
  814MPD2    C412035   0.583   1.679  12.553 -0.0556 -0.0921 -0.8677
  814MPD2    C512036   0.563   1.541  12.566  0.2076 -0.1973  0.8102
  814MPD2     H12037   0.380   1.730  12.298 -0.3699  0.7043  0.4506
  814MPD2    H112038   0.646   1.728  12.625 -1.1703 -0.8837  0.6661
  814MPD2    H212039   0.463   1.369  12.497 -1.1230 -0.4477 -0.1147
  814MPD2    H312040   0.617   1.476  12.634  0.9606 -0.9013 -0.4645
  814MPD2     N12041   0.559   1.887  12.440 -0.0531  0.5930 -0.0184
  814MPD2    H512042   0.627   1.922  12.506 -0.0982 -0.2955  0.4984
  814MPD2    N112043   0.327   1.490  12.285  1.0123 -0.5241 -0.0463
  814MPD2    H712044   0.279   1.549  12.218 -0.0374 -0.6833  0.5816
  815MPD2     C12045   0.934   0.721  11.538 -0.0945 -0.1661 -0.1886
  815MPD2    C112046   0.983   0.605  11.591 -0.2843  0.4828 -0.1847
  815MPD2    C212047   0.910   0.550  11.691  0.4263  0.1298 -1.0979
  815MPD2    C312048   0.791   0.607  11.743  0.0529 -0.5372  0.3257
  815MPD2    C412049   0.742   0.724  11.686  0.0933  0.0428 -0.6505
  815MPD2    C512050   0.821   0.782  11.587 -1.1206 -0.3394  0.5047
  815MPD2     H12051   0.938   0.459  11.743  1.2859  0.5690 -0.7927
  815MPD2    H112052   0.642   0.764  11.698  0.5485  1.2717 -0.9531
  815MPD2    H212053   0.976   0.773  11.453 -1.5140 -1.0300 -1.4317
  815MPD2    H312054   0.779   0.873  11.547  4.7960  1.7832 -0.9360
  815MPD2     N12055   0.713   0.528  11.833  0.3403 -0.3902  0.0026
  815MPD2    H512056   0.757   0.439  11.856  0.8398 -0.0609  0.3387
  815MPD2    N112057   1.099   0.542  11.535  0.4297 -0.5894 -0.4735
  815MPD2    H712058   1.131   0.589  11.451  3.7269  3.1018  2.8528
  816MPD2     C12059   4.698   4.447  17.283  0.5028 -0.4485 -0.1494
  816MPD2    C112060   0.090   4.494  17.310  0.4970 -0.1003 -0.0021
  816MPD2    C212061   0.199   4.410  17.272 -0.7741 -0.0302 -0.2866
  816MPD2    C312062   0.173   4.284  17.221  0.0805 -0.1876  0.6051
  816MPD2    C412063   0.049   4.233  17.228  1.0368  0.3877  0.0570
  816MPD2    C512064   4.679   4.316  17.246  0.3786  0.5164  0.0190
  816MPD2     H12065   0.301   4.442  17.291  0.2118 -3.5790  0.3688
  816MPD2    H112066   0.025   4.135  17.190  1.0740  0.1872  0.5561
  816MPD2    H212067   4.616   4.513  17.309  1.4599  0.9658 -0.7445
  816MPD2    H312068   4.581   4.279  17.217  0.3994  1.5222 -1.3361
  816MPD2     N12069   0.285   4.206  17.189 -0.4257  0.2977  0.3190
  816MPD2    H512070   0.378   4.245  17.202 -0.5362  0.1999  1.3863
  816MPD2    N112071   0.111   4.621  17.364 -0.5154 -0.0358 -0.5617
  816MPD2    H712072   0.036   4.682  17.394 -0.9654  0.7021 -3.2208
  817MPD2     C12073   0.826   1.616   9.569 -0.0435 -0.4771 -0.1992
  817MPD2    C112074   0.822   1.507   9.483 -0.6328 -0.1916  0.0715
  817MPD2    C212075   0.721   1.502   9.386 -0.3240  0.0984 -0.0776
  817MPD2    C312076   0.620   1.608   9.382  0.4259  0.9010  0.3659
  817MPD2    C412077   0.634   1.713   9.471  0.2055  0.3941 -0.3781
  817MPD2    C512078   0.738   1.722   9.558  0.3021 -0.1094 -0.2881
  817MPD2     H12079   0.706   1.418   9.319 -0.7287 -2.6293  3.4022
  817MPD2    H112080   0.566   1.797   9.471 -1.6054 -1.0925  0.4575
  817MPD2    H212081   0.898   1.626   9.648 -0.1590  0.2745 -0.1938
  817MPD2    H312082   0.751   1.808   9.622  4.9328 -0.3697 -0.9034
  817MPD2     N12083   0.519   1.610   9.281 -0.1103 -0.4717  0.3201
  817MPD2    H512084   0.509   1.526   9.225 -1.5072  0.2363 -0.4773
  817MPD2    N112085   0.916   1.405   9.477  0.4324 -0.2254 -0.7521
  817MPD2    H712086   0.912   1.345   9.396  3.0211  0.0827 -1.1211
  818MPD2     C12087   4.561   1.360   9.862 -0.6536  0.2452 -0.3188
  818MPD2    C112088   4.437   1.289   9.877  0.2433 -0.5751  0.4261
  818MPD2    C212089   4.421   1.182   9.790  0.4716  0.2653 -0.1341
  818MPD2    C312090   4.525   1.136   9.714  0.6527  0.9891  0.0306
  818MPD2    C412091   4.649   1.198   9.718 -0.3510  0.1959 -0.5658
  818MPD2    C512092   4.671   1.310   9.786 -0.2612 -0.3921  0.5875
  818MPD2     H12093   4.329   1.123   9.795  1.4883 -1.5484 -2.8524
  818MPD2    H112094   4.731   1.152   9.663 -0.9163 -1.8402  0.3125
  818MPD2    H212095   4.583   1.447   9.922 -1.1232 -0.7129  1.2708
  818MPD2    H312096   0.035   1.348   9.790  0.0501 -1.0659 -1.0561
  818MPD2     N12097   4.538   1.010   9.646 -0.6647 -0.2694  0.5926
  818MPD2    H512098   4.622   0.981   9.598  0.9306 -0.0972  3.2785
  818MPD2    N112099   4.333   1.320   9.962 -0.7972  0.4226 -0.1254
  818MPD2    H712100   4.248   1.270   9.938 -1.3925  1.4848 -0.2346
  819MPD2     C12101   1.845   2.790  15.634 -0.1074 -0.1707 -0.8601
  819MPD2    C112102   1.922   2.690  15.585 -0.0826  0.5917  0.1166
  819MPD2    C212103   2.054   2.686  15.626  0.1542 -0.5039 -0.2789
  819MPD2    C312104   2.102   2.770  15.721  0.3996 -0.1309 -0.0050
  819MPD2    C412105   2.015   2.860  15.788 -0.0649 -0.5927  0.5204
  819MPD2    C512106   1.885   2.870  15.741 -0.1932  0.7219  0.3152
  819MPD2     H12107   2.131   2.628  15.576 -1.7322 -1.7784 -1.7000
  819MPD2    H112108   2.042   2.918  15.876  1.0034 -0.6274  0.2105
  819MPD2    H212109   1.737   2.790  15.626 -0.3768  1.4949  2.9404
  819MPD2    H312110   1.814   2.927  15.799  0.0281  0.9598  0.3507
  819MPD2     N12111   2.237   2.751  15.756 -0.4643 -0.0265  0.0442
  819MPD2    H512112   2.288   2.690  15.693  1.9486 -0.6319  2.5827
  819MPD2    N112113   1.862   2.590  15.505  0.4503  0.3978  0.0816
  819MPD2    H712114   1.767   2.604  15.475  0.6058  3.4335  1.0698
  820MPD2     C12115   1.332   2.793  14.817 -0.0842  1.0749 -0.0136
  820MPD2    C112116   1.374   2.836  14.941 -0.6666 -0.5077  0.0362
  820MPD2    C212117   1.428   2.739  15.024 -0.5929  1.0540  0.0015
  820MPD2    C312118   1.437   2.607  14.985  0.1048  0.0976  0.0716
  820MPD2    C412119   1.387   2.568  14.863  0.3559 -0.5101  0.1427
  820MPD2    C512120   1.336   2.666  14.776  0.2530  0.3194  0.0998
  820MPD2     H12121   1.448   2.768  15.126  0.5358 -0.6705  0.2633
  820MPD2    H112122   1.392   2.464  14.833  1.5043 -0.5888  0.6166
  820MPD2    H212123   1.291   2.857  14.740 -1.8973 -1.7888 -1.4127
  820MPD2    H312124   1.291   2.642  14.680  2.2028 -2.6805 -0.0677
  820MPD2     N12125   1.497   2.505  15.069 -0.0595 -0.4338  0.3189
  820MPD2    H512126   1.480   2.408  15.045 -1.1537  0.0939 -1.0327
  820MPD2    N112127   1.376   2.972  14.968  0.2540  0.2459  0.3067
  820MPD2    H712128   1.337   3.037  14.901  1.1325 -0.4474 -0.8676
  821MPD2     C12129   2.278   3.849  13.056 -0.4734 -0.7498 -0.5719
  821MPD2    C112130   2.369   3.832  13.155  0.7116 -0.4339  0.0734
  821MPD2    C212131   2.506   3.855  13.139  0.0794  0.7519  0.2405
  821MPD2    C312132   2.546   3.900  13.017 -0.5880 -0.0556  0.3501
  821MPD2    C412133   2.459   3.906  12.912 -0.1858  0.3672  0.4806
  821MPD2    C512134   2.324   3.891  12.935 -0.0128 -0.2456  0.3948
  821MPD2     H12135   2.571   3.866  13.226 -1.6494 -0.3482  1.6783
  821MPD2    H112136   2.484   3.940  12.812 -0.1899 -1.7455 -0.2425
  821MPD2    H212137   2.173   3.828  13.076 -0.6911  0.2014 -0.7036
  821MPD2    H312138   2.251   3.894  12.854 -0.1144  1.1160  0.5361
  821MPD2     N12139   2.678   3.943  12.997 -1.0491 -0.1428  0.2569
  821MPD2    H512140   2.694   4.004  12.917  1.6686  1.5059  2.0125
  821MPD2    N112141   2.334   3.779  13.283  0.6106 -0.0774  0.3356
  821MPD2    H712142   2.411   3.757  13.346  0.5764 -1.9702 -0.2815
  822MPD2     C12143   2.935   4.282  16.099 -0.5191 -0.0615 -0.0865
  822MPD2    C112144   2.909   4.238  16.231  0.5008  0.2322 -0.5960
  822MPD2    C212145   2.825   4.322  16.306 -0.1396 -0.8960  0.0963
  822MPD2    C312146   2.776   4.442  16.267 -0.3459 -0.2078  0.5081
  822MPD2    C412147   2.798   4.472  16.137  0.2301  0.4593 -0.0426
  822MPD2    C512148   2.880   4.403  16.062  0.3261 -0.1371  0.1915
  822MPD2     H12149   2.804   4.295  16.409  0.2986  2.0675  0.9474
  822MPD2    H112150   2.738   4.548  16.086  0.2311  1.0907  0.8927
  822MPD2    H212151   3.001   4.237  16.026 -0.8739  0.9260 -1.0076
  822MPD2    H312152   2.903   4.430  15.959 -0.7298  0.3379  0.0813
  822MPD2     N12153   2.709   4.529  16.357  1.0586 -0.1719 -1.0007
  822MPD2    H512154   2.682   4.483  16.444  0.8342  2.2261  0.1952
  822MPD2    N112155   2.966   4.122  16.281 -0.5336  0.1866 -0.5348
  822MPD2    H712156   2.937   4.091  16.373 -0.4746  1.0888 -0.2115
  823MPD2     C12157   2.385   0.069  17.054 -0.7047 -0.3418  0.0335
  823MPD2    C112158   2.398   4.708  16.963 -0.3486  0.1042 -0.2921
  823MPD2    C212159   2.407   4.577  17.005  0.0368 -0.1366  0.3402
  823MPD2    C312160   2.401   4.541  17.139 -0.9326  0.3912  0.3618
  823MPD2    C412161   2.377   4.650  17.229 -0.3444  0.2871 -0.7528
  823MPD2    C512162   2.379   0.038  17.188  0.0659 -0.4359 -0.0602
  823MPD2     H12163   2.419   4.494  16.937 -0.0334 -1.5457  2.0486
  823MPD2    H112164   2.369   4.626  17.334  1.1009 -1.4379 -1.0288
  823MPD2    H212165   2.389   0.177  17.042 -0.6812 -0.4303 -0.7692
  823MPD2    H312166   2.372   0.107  17.272 -0.4874 -1.9901  1.1873
  823MPD2     N12167   2.429   4.416  17.202 -0.5694 -0.1516 -0.0260
  823MPD2    H512168   2.406   4.414  17.300  1.1409 -1.6594  0.3442
  823MPD2    N112169   2.405   0.004  16.826  0.0398 -0.3769  0.0063
  823MPD2    H712170   2.390   0.102  16.802 -1.2715 -0.1443  1.7386
  824MPD2     C12171   3.431   3.316  16.374 -0.1138  0.3555  0.1860
  824MPD2    C112172   3.383   3.405  16.282 -0.1956 -0.5762 -0.3552
  824MPD2    C212173   3.428   3.388  16.150  0.0886 -0.0977 -0.0919
  824MPD2    C312174   3.505   3.289  16.112  0.7269 -0.2420  0.5018
  824MPD2    C412175   3.540   3.197  16.204  0.3199 -0.3690 -0.3636
  824MPD2    C512176   3.512   3.211  16.336  0.1576 -0.9133 -0.8473
  824MPD2     H12177   3.402   3.466  16.079 -1.9610 -2.6243 -2.0921
  824MPD2    H112178   3.607   3.115  16.178  0.3626 -1.6436  3.8785
  824MPD2    H212179   3.406   3.318  16.479  0.7418 -0.2162  0.4082
  824MPD2    H312180   3.545   3.143  16.414 -1.9154  0.9662  1.6338
  824MPD2     N12181   3.551   3.292  15.978 -0.3216  0.1805  0.1209
  824MPD2    H512182   3.517   3.371  15.925 -0.8580 -0.0798  0.0711
  824MPD2    N112183   3.314   3.518  16.325  0.1707  0.3868 -0.2197
  824MPD2    H712184   3.285   3.525  16.422  0.5156 -1.2276 -0.0113
  825MPD2     C12185   3.962   3.748  15.889 -0.5863 -0.0678  0.0385
  825MPD2    C112186   3.946   3.697  15.760  0.1771 -0.0362  0.0560
  825MPD2    C212187   4.004   3.756  15.651  0.7109  0.0471 -0.8465
  825MPD2    C312188   4.064   3.881  15.672  0.1125 -0.2552  0.5651
  825MPD2    C412189   4.082   3.928  15.802  0.2525  0.3427  0.6848
  825MPD2    C512190   4.043   3.858  15.905 -0.2940  0.5236 -0.4285
  825MPD2     H12191   4.005   3.710  15.553  0.6228  1.7230 -1.6510
  825MPD2    H112192   4.140   4.017  15.823  0.3611 -0.1137  2.3312
  825MPD2    H212193   3.926   3.697  15.977 -3.8229  3.1196  0.5906
  825MPD2    H312194   4.067   3.887  16.007  0.6554  1.9691 -1.0506
  825MPD2     N12195   4.128   3.959  15.568  0.6044  0.4270  0.3899
  825MPD2    H512196   4.177   4.041  15.601  0.4044  0.4932  0.5274
  825MPD2    N112197   3.867   3.581  15.746  0.4252 -0.5520 -0.0882
  825MPD2    H712198   3.838   3.534  15.831 -0.1549  0.0221  0.0355
  826MPD2     C12199   3.560   3.257  13.225  0.2448  0.9577  1.0338
  826MPD2    C112200   3.635   3.237  13.341  0.1164 -0.2951 -0.4078
  826MPD2    C212201   3.559   3.220  13.459 -0.5400  0.0233 -0.8524
  826MPD2    C312202   3.418   3.232  13.458 -0.6192  0.1551  0.6553
  826MPD2    C412203   3.357   3.284  13.345  0.4191 -0.4477  0.1509
  826MPD2    C512204   3.424   3.282  13.226 -0.0636 -0.8742  0.8041
  826MPD2     H12205   3.608   3.200  13.554  0.5577 -2.8946 -2.0381
  826MPD2    H112206   3.251   3.305  13.340  0.6676  0.0596 -2.4507
  826MPD2    H212207   3.606   3.264  13.127 -1.1484  1.2680  0.3967
  826MPD2    H312208   3.380   3.310  13.132  1.6539 -1.9796 -0.3276
  826MPD2     N12209   3.345   3.220  13.573  0.7523  0.3419 -0.2079
  826MPD2    H512210   3.258   3.272  13.568 -0.9357 -2.5069  0.0024
  826MPD2    N112211   3.771   3.252  13.345  0.4185  0.4076 -0.0516
  826MPD2    H712212   3.821   3.299  13.270  0.8621  0.9158  0.5597
  827MPD2     C12213   0.656   4.329   9.720 -0.5323  0.2984  0.4670
  827MPD2    C112214   0.576   4.303   9.824  0.0507 -0.8869 -0.2731
  827MPD2    C212215   0.452   4.246   9.793  0.0932  0.3843  0.4516
  827MPD2    C312216   0.403   4.243   9.665 -0.1417 -1.0753  0.0733
  827MPD2    C412217   0.480   4.293   9.563 -0.0731 -0.4274  0.4066
  827MPD2    C512218   0.614   4.318   9.592  0.1379  0.0868 -0.5218
  827MPD2     H12219   0.391   4.199   9.869  1.4656  0.2246  1.4630
  827MPD2    H112220   0.441   4.288   9.462 -0.3504  1.0155  0.4411
  827MPD2    H212221   0.759   4.352   9.747 -0.9750  0.8957  1.6738
  827MPD2    H312222   0.687   4.328   9.513 -0.6370 -0.5429 -1.3104
  827MPD2     N12223   0.268   4.215   9.645 -0.5391 -0.6804 -0.4674
  827MPD2    H512224   0.224   4.200   9.736  0.3747  2.7252  0.5519
  827MPD2    N112225   0.627   4.333   9.955  0.2198  0.3345 -0.7370
  827MPD2    H712226   0.722   4.369   9.963  0.9917 -1.3102 -2.3145
  828MPD2     C12227   3.256   4.110  12.098 -0.3061  0.5065  0.4638
  828MPD2    C112228   3.175   4.118  11.988 -0.0971  0.8536  0.0130
  828MPD2    C212229   3.234   4.083  11.865 -0.6565  0.4018  0.3168
  828MPD2    C312230   3.366   4.031  11.863  0.2686  0.1554  0.1775
  828MPD2    C412231   3.437   4.023  11.978  0.6568  0.5096  0.6878
  828MPD2    C512232   3.388   4.075  12.091 -0.5751  0.1491 -0.1824
  828MPD2     H12233   3.180   4.098  11.772 -0.6559 -2.3884 -0.1349
  828MPD2    H112234   3.538   3.985  11.984  0.8324  0.8852  0.0392
  828MPD2    H212235   3.223   4.143  12.195 -1.8663  0.1966  0.0415
  828MPD2    H312236   3.449   4.077  12.181  0.5267  0.2156 -0.9442
  828MPD2     N12237   3.429   3.975  11.753  0.1773 -0.6133  0.6052
  828MPD2    H512238   3.528   3.961  11.764 -0.1572 -1.7934  2.1493
  828MPD2    N112239   3.046   4.183  11.995  0.7734 -0.0019 -0.5947
  828MPD2    H712240   2.992   4.201  11.910  0.7804  0.8804 -0.4164
  829MPD2     C12241   2.369   0.103  11.659 -0.5212 -0.1157 -0.1457
  829MPD2    C112242   2.466   0.025  11.604 -0.1315 -0.1448 -0.2942
  829MPD2    C212243   2.534   4.677  11.689  0.4561  0.2127  0.3933
  829MPD2    C312244   2.488   4.662  11.824  0.4356  0.5165  0.4338
  829MPD2    C412245   2.385   0.004  11.866  0.8401  0.0453  0.7241
  829MPD2    C512246   2.328   0.094  11.789 -0.2686  0.5869 -0.4504
  829MPD2     H12247   2.625   4.630  11.655  0.6607  0.7063  0.2509
  829MPD2    H112248   2.343   0.009  11.966 -1.3552 -0.6767 -0.1568
  829MPD2    H212249   2.321   0.180  11.600  1.8762  1.7558  0.3346
  829MPD2    H312250   2.248   0.156  11.828  1.1284  1.2665  1.3421
  829MPD2     N12251   2.548   4.568  11.918  0.2404  0.2292  0.4034
  829MPD2    H512252   2.515   4.568  12.014 -1.6218  1.0840 -0.2401
  829MPD2    N112253   2.505   0.051  11.472 -0.4106  0.6263  0.5066
  829MPD2    H712254   2.460   0.132  11.432 -0.5279  0.6338  0.6575
  830MPD2     C12255   3.015   2.522  15.523 -0.3671  0.7273  0.4038
  830MPD2    C112256   2.910   2.605  15.501 -0.2351  0.0806  0.1392
  830MPD2    C212257   2.907   2.701  15.402  0.4999 -0.3337 -0.2344
  830MPD2    C312258   3.014   2.717  15.316  0.3960  0.3834 -0.2151
  830MPD2    C412259   3.116   2.633  15.333  0.2413  0.5811  0.2761
  830MPD2    C512260   3.125   2.545  15.433  0.3778  0.0381 -0.7062
  830MPD2     H12261   2.821   2.766  15.392  0.5529 -0.1855  0.3014
  830MPD2    H112262   3.201   2.651  15.268  0.8175  0.3242  0.9535
  830MPD2    H212263   3.016   2.438  15.592 -1.5654  0.2049 -0.2108
  830MPD2    H312264   3.213   2.482  15.443 -1.6834 -2.5991  0.7987
  830MPD2     N12265   3.033   2.820  15.217 -0.3170  0.5456  0.3945
  830MPD2    H512266   3.126   2.856  15.194  0.5716 -1.6045  0.6964
  830MPD2    N112267   2.814   2.602  15.604  0.6499 -0.5667 -0.1720
  830MPD2    H712268   2.834   2.541  15.683 -0.1827 -1.1162 -0.3877
  831MPD2     C12269   2.956   4.600  16.664 -0.4234  0.1259  0.1257
  831MPD2    C112270   2.994   4.482  16.608 -0.1605 -0.5376 -0.0206
  831MPD2    C212271   2.916   4.370  16.629 -0.1656 -0.2625  0.6377
  831MPD2    C312272   2.790   4.374  16.685  0.1814  0.3545 -0.0403
  831MPD2    C412273   2.753   4.494  16.752 -0.1235 -0.7734 -0.0738
  831MPD2    C512274   2.835   4.608  16.739 -0.0308  0.8244  0.2210
  831MPD2     H12275   2.948   4.274  16.591 -0.2988  0.7260 -1.9361
  831MPD2    H112276   2.657   4.495  16.802  0.1854  0.0063  0.5050
  831MPD2    H212277   3.022   4.685  16.670  0.4919 -0.7425  2.4831
  831MPD2    H312278   2.806   4.696  16.794  1.2316  2.0353 -1.0649
  831MPD2     N12279   2.700   4.265  16.690  0.3526  0.0996  0.4241
  831MPD2    H512280   2.611   4.282  16.735  0.5405 -2.8479  1.9325
  831MPD2    N112281   3.117   4.477  16.539  0.3255 -0.4584 -0.2088
  831MPD2    H712282   3.162   4.562  16.505  0.5668 -0.6731 -0.4266
  832MPD2     C12283   1.363   0.812  17.418 -0.4395  0.4186 -0.4603
  832MPD2    C112284   1.317   0.941  17.386  0.4430 -0.0498 -0.5548
  832MPD2    C212285   1.209   0.952  17.304  0.4090  0.7651 -0.0511
  832MPD2    C312286   1.144   0.837  17.260 -0.5095  0.2320  0.3679
  832MPD2    C412287   1.191   0.715  17.297 -0.1055  0.1957  0.0264
  832MPD2    C512288   1.299   0.699  17.375 -0.0111  0.7681 -0.6125
  832MPD2     H12289   1.179   1.051  17.274 -3.0062 -0.3527 -0.3167
  832MPD2    H112290   1.145   0.625  17.256  1.5320 -0.4723 -0.3153
  832MPD2    H212291   1.452   0.805  17.479 -0.1200  0.3491 -0.9301
  832MPD2    H312292   1.318   0.596  17.403 -0.1254  1.0470  0.5064
  832MPD2     N12293   1.021   0.849  17.187 -0.5685 -0.2985  0.1033
  832MPD2    H512294   0.976   0.759  17.171  0.1378 -0.3134 -1.7129
  832MPD2    N112295   1.380   1.050  17.445 -0.2478 -0.8590 -0.0136
  832MPD2    H712296   1.455   1.029  17.509  1.4967  0.8361 -1.5367
  833MPD2     C12297   3.393   2.309  12.753 -0.5528  1.4408 -0.6855
  833MPD2    C112298   3.346   2.364  12.636  0.0891  0.1926  0.7384
  833MPD2    C212299   3.432   2.365  12.531 -0.2279 -0.0018  0.0130
  833MPD2    C312300   3.555   2.305  12.539 -0.2730  0.2349  0.4806
  833MPD2    C412301   3.602   2.249  12.656 -0.9835  0.3592  0.1554
  833MPD2    C512302   3.525   2.266  12.769 -0.1847  0.2393 -0.1602
  833MPD2     H12303   3.400   2.417  12.441 -2.1873 -0.8975  0.2145
  833MPD2    H112304   3.700   2.203  12.665 -1.1500  0.4896  2.7531
  833MPD2    H212305   3.328   2.316  12.839  0.4428  1.9839  0.0202
  833MPD2    H312306   3.566   2.231  12.863 -0.2545 -1.2306 -0.6722
  833MPD2     N12307   3.641   2.294  12.426  0.2226 -0.1790 -0.2886
  833MPD2    H512308   3.726   2.241  12.442 -0.8106 -1.4075  1.1502
  833MPD2    N112309   3.215   2.415  12.631  0.1516 -0.4047 -0.5834
  833MPD2    H712310   3.161   2.427  12.716  0.6600 -0.1006 -0.3020
  834MPD2     C12311   3.915   1.542  11.833 -0.1606 -0.2961  0.0308
  834MPD2    C112312   3.919   1.648  11.750  0.0059 -0.1201  0.0965
  834MPD2    C212313   3.904   1.778  11.800 -0.4713  0.2489 -0.6261
  834MPD2    C312314   3.902   1.805  11.931 -0.6880  0.7365  0.3623
  834MPD2    C412315   3.910   1.699  12.018  0.3919  0.5649  0.1040
  834MPD2    C512316   3.914   1.569  11.967 -0.1231  0.3614  0.4272
  834MPD2     H12317   3.895   1.861  11.731  0.0830 -1.5493 -2.8386
  834MPD2    H112318   3.898   1.709  12.125  0.6294 -2.0128  0.3602
  834MPD2    H212319   3.931   1.443  11.790  0.0490 -0.2476 -0.0022
  834MPD2    H312320   3.918   1.482  12.031 -0.3630  0.6592  0.8506
  834MPD2     N12321   3.883   1.940  11.966  0.5910  0.1278 -0.3287
  834MPD2    H512322   3.873   2.009  11.892 -0.2050 -2.1351 -2.3378
  834MPD2    N112323   3.921   1.614  11.611 -0.2282  0.0418  0.4948
  834MPD2    H712324   3.909   1.517  11.584  0.3748 -0.0583  0.5860
  835MPD2     C12325   4.218   4.319  10.934  0.2868 -0.9314 -0.3947
  835MPD2    C112326   4.093   4.358  10.970 -0.7969 -0.1130  0.0710
  835MPD2    C212327   4.047   4.322  11.094  0.5872  0.3254  0.2426
  835MPD2    C312328   4.120   4.242  11.179  0.1246 -0.5411 -0.6930
  835MPD2    C412329   4.241   4.196  11.140  0.1696  0.4523 -0.2534
  835MPD2    C512330   4.294   4.235  11.017  0.0010 -0.5354  0.2007
  835MPD2     H12331   3.950   4.358  11.128 -0.2110  0.8082 -2.5214
  835MPD2    H112332   4.306   4.131  11.197 -2.6020 -0.5598  1.7348
  835MPD2    H212333   4.258   4.323  10.833 -2.3365 -1.1515 -1.4317
  835MPD2    H312334   4.384   4.194  10.974  1.5564  1.4312  1.5775
  835MPD2     N12335   4.072   4.234  11.309 -0.2547 -0.4522 -0.0624
  835MPD2    H512336   3.985   4.281  11.331  0.4531 -0.4686  2.7859
  835MPD2    N112337   4.004   4.439  10.883  0.0304 -0.1135  0.0134
  835MPD2    H712338   3.912   4.454  10.924  0.1516  1.3901 -0.2442
  836MPD2     C12339   3.516   4.413  11.471 -0.4070 -0.4487  0.0858
  836MPD2    C112340   3.573   4.403  11.596  0.3848  0.3207  0.4036
  836MPD2    C212341   3.489   4.401  11.707  0.2848 -0.5593 -0.1770
  836MPD2    C312342   3.351   4.421  11.690  0.6239 -0.1480  0.6111
  836MPD2    C412343   3.300   4.420  11.560  0.8828  0.7556 -0.1500
  836MPD2    C512344   3.381   4.420  11.450  0.7023  0.3794  0.3979
  836MPD2     H12345   3.541   4.394  11.802  1.0930 -4.9040 -0.9386
  836MPD2    H112346   3.193   4.413  11.544  0.3985  1.0787  2.9452
  836MPD2    H212347   3.580   4.403  11.384 -0.0235 -1.4436  0.4808
  836MPD2    H312348   3.345   4.419  11.348  0.5952 -0.8439  0.4505
  836MPD2     N12349   3.261   4.423  11.798  0.0242 -0.0059  0.1090
  836MPD2    H512350   3.162   4.409  11.779 -0.1790  0.3986  0.8691
  836MPD2    N112351   3.709   4.382  11.593  0.5881  0.5644 -0.0633
  836MPD2    H712352   3.754   4.386  11.502  1.7756  1.3022  0.5574
  837MPD2     C12353   2.207   4.282  10.304 -1.0535 -0.0435  0.1915
  837MPD2    C112354   2.146   4.292  10.184  0.3092  0.0441  0.2584
  837MPD2    C212355   2.189   4.393  10.099  0.2345 -0.0801 -0.0233
  837MPD2    C312356   2.280   4.484  10.136  0.4173 -0.3231  0.0517
  837MPD2    C412357   2.330   4.488  10.262 -0.3365 -0.6451  0.7089
  837MPD2    C512358   2.307   4.378  10.342 -0.2249  0.1571 -0.0488
  837MPD2     H12359   2.149   4.406   9.999  1.1093 -0.5735 -0.4373
  837MPD2    H112360   2.411   4.559  10.278  0.0358 -0.3962 -2.2973
  837MPD2    H212361   2.184   4.202  10.374  0.7195 -1.4806 -0.8670
  837MPD2    H312362   2.359   4.371  10.437 -2.0022  0.2934  0.9376
  837MPD2     N12363   2.300   4.593  10.047  0.8199  0.1665 -0.1521
  837MPD2    H512364   2.257   4.581   9.956 -0.7824  3.9652  0.0981
  837MPD2    N112365   2.039   4.204  10.142 -0.3793  0.5171  0.0569
  837MPD2    H712366   2.008   4.224  10.048 -0.0295  1.3181  0.1059
  838MPD2     C12367   0.096   2.712  12.006 -0.5538  0.1010 -0.0211
  838MPD2    C112368   0.105   2.618  11.912 -0.3782 -0.4268 -0.1765
  838MPD2    C212369   0.025   2.507  11.925  0.3310 -0.2371  0.1917
  838MPD2    C312370   4.661   2.499  12.017 -0.2521 -0.0676 -0.2914
  838MPD2    C412371   4.640   2.604  12.105  0.3462 -0.3338 -0.0136
  838MPD2    C512372   0.004   2.699  12.104  0.1883  0.0878  0.2187
  838MPD2     H12373   0.027   2.422  11.858  0.9810  1.7955 -2.3794
  838MPD2    H112374   4.560   2.608  12.178 -0.6728 -0.6023 -1.1152
  838MPD2    H212375   0.157   2.802  12.007 -0.3064 -0.0676 -0.2638
  838MPD2    H312376   4.733   2.774  12.182 -2.0721  4.0100 -3.8170
  838MPD2     N12377   4.569   2.389  12.009  0.3386  0.8266 -0.0612
  838MPD2    H512378   4.593   2.328  11.931 -1.3379  0.4068 -0.2478
  838MPD2    N112379   0.198   2.622  11.804  0.1216 -0.0505  0.4719
  838MPD2    H712380   0.215   2.532  11.760 -0.1330 -1.0957  2.5322
  839MPD2     C12381   0.124   2.031  11.838 -0.0980 -0.3182 -1.1549
  839MPD2    C112382   0.142   2.069  11.706  0.9094  0.6524  0.4489
  839MPD2    C212383   0.234   2.162  11.667 -0.8587 -0.2422 -0.4447
  839MPD2    C312384   0.309   2.226  11.762 -0.9327  0.8001  0.0860
  839MPD2    C412385   0.287   2.190  11.894 -0.0472 -0.0288 -0.1652
  839MPD2    C512386   0.191   2.096  11.928  0.2583 -0.0647  0.0759
  839MPD2     H12387   0.244   2.185  11.561  1.1925  0.7090 -0.0518
  839MPD2    H112388   0.341   2.242  11.972 -0.0292  1.3728 -1.1267
  839MPD2    H212389   0.054   1.954  11.868  0.7925 -0.6304  0.0967
  839MPD2    H312390   0.169   2.072  12.032  0.9080  0.3770  0.3145
  839MPD2     N12391   0.398   2.322  11.722 -0.6865  0.3239  0.1197
  839MPD2    H512392   0.427   2.381  11.800  4.5331 -0.9899 -0.9041
  839MPD2    N112393   0.068   1.998  11.602  0.4110 -0.2443 -0.2572
  839MPD2    H712394   0.098   2.017  11.507 -0.8673 -1.0948 -0.8319
  840MPD2     C12395   0.754   0.181  10.070  0.6104 -0.4675 -0.3608
  840MPD2    C112396   0.819   0.113  10.176  0.4798 -0.6246  0.0600
  840MPD2    C212397   0.909   0.175  10.259  0.0180 -0.1905  0.0202
  840MPD2    C312398   0.929   0.310  10.245  0.0372 -0.1413 -0.0355
  840MPD2    C412399   0.870   0.374  10.138  0.5060 -0.1912  0.3778
  840MPD2    C512400   0.782   0.316  10.049  0.1897  0.3584 -0.0331
  840MPD2     H12401   0.960   0.129  10.343 -0.0857  0.5694  0.4983
  840MPD2    H112402   0.886   0.481  10.129  0.1967 -0.1416  0.4269
  840MPD2    H212403   0.694   0.129   9.997 -1.0220  3.1936 -1.6152
  840MPD2    H312404   0.744   0.367   9.961 -1.3757  1.5130  1.3140
  840MPD2     N12405   1.008   0.385  10.327 -0.2407  0.2880 -0.0090
  840MPD2    H512406   1.024   0.482  10.303  1.3805  0.0737  0.1799
  840MPD2    N112407   0.780   4.713  10.200 -0.5186  0.1380 -0.1737
  840MPD2    H712408   0.721   4.677  10.125 -0.1792 -2.2048  0.6604
  841MPD2     C12409   0.164   4.319  14.059  0.0710 -0.1460  0.0229
  841MPD2    C112410   0.088   4.293  14.167 -0.4166 -0.0067  0.1344
  841MPD2    C212411   0.130   4.356  14.290  0.0171 -0.4282  0.1607
  841MPD2    C312412   0.230   4.458  14.299 -0.4436 -0.1510 -0.1855
  841MPD2    C412413   0.298   4.484  14.179 -0.7630  0.2027 -0.4829
  841MPD2    C512414   0.251   4.425  14.064  0.1759  0.2989 -0.7222
  841MPD2     H12415   0.088   4.321  14.384 -1.2604  2.2716  0.5992
  841MPD2    H112416   0.368   4.566  14.172 -0.1044 -0.3454 -0.2868
  841MPD2    H212417   0.158   4.258  13.969  1.7672 -0.5994  0.2083
  841MPD2    H312418   0.285   4.468  13.971  0.0027  1.2600 -0.3443
  841MPD2     N12419   0.260   4.508  14.430  0.0563 -0.2366  0.1223
  841MPD2    H512420   0.204   4.466  14.503 -2.2622  0.8790 -1.0047
  841MPD2    N112421   4.726   4.199  14.166 -0.6999  0.3709  0.2086
  841MPD2    H712422   4.683   4.175  14.255  0.1190  0.0593  0.5154
  842MPD2     C12423   0.661   1.334  16.904 -0.1234  0.5773 -0.2658
  842MPD2    C112424   0.578   1.225  16.905 -0.8311  0.5428 -0.2136
  842MPD2    C212425   0.553   1.157  17.026  0.1468 -0.0895 -0.2385
  842MPD2    C312426   0.601   1.220  17.143 -0.0243 -0.3354  0.9637
  842MPD2    C412427   0.695   1.319  17.136 -0.8253 -0.4745  0.0969
  842MPD2    C512428   0.725   1.381  17.015 -0.5286  0.5340 -0.5826
  842MPD2     H12429   0.471   1.085  17.031  0.5455 -0.4994  0.3977
  842MPD2    H112430   0.747   1.355  17.224 -0.8703  1.3247 -0.6069
  842MPD2    H212431   0.689   1.377  16.809  2.2957  0.4225  0.3813
  842MPD2    H312432   0.800   1.460  17.007  1.6931 -1.2945  2.0743
  842MPD2     N12433   0.557   1.191  17.275 -0.3642 -0.0212 -0.7197
  842MPD2    H512434   0.624   1.200  17.350 -0.5093 -0.3158 -0.5571
  842MPD2    N112435   0.521   1.194  16.776  0.0511 -0.2381 -0.0875
  842MPD2    H712436   0.543   1.262  16.704  2.9461 -0.6054  0.4456
  843MPD2     C12437   2.506   1.800  17.711  0.0929 -0.6838 -0.5916
  843MPD2    C112438   2.608   1.772   0.050 -0.2266  0.9196 -0.2514
  843MPD2    C212439   2.691   1.877   0.090  0.0716 -0.2948  0.3311
  843MPD2    C312440   2.667   2.008   0.047  0.5006  0.7419 -0.1169
  843MPD2    C412441   2.563   2.030  17.703 -0.3388 -0.1893  0.4044
  843MPD2    C512442   2.479   1.924  17.672  0.2334  0.4113 -0.0931
  843MPD2     H12443   2.781   1.853   0.146  1.8758 -1.3365 -2.9983
  843MPD2    H112444   2.531   2.127  17.667  0.0281 -0.2527 -0.0881
  843MPD2    H212445   2.439   1.720  17.683 -1.2075  0.5860 -1.1168
  843MPD2    H312446   2.395   1.935  17.605 -0.3620  3.1946  1.0837
  843MPD2     N12447   2.749   2.121   0.078  0.0905  0.2006  0.0734
  843MPD2    H512448   2.730   2.214   0.042  1.2825  0.2264 -0.4934
  843MPD2    N112449   2.626   1.639   0.089 -0.1952 -0.0996  0.1456
  843MPD2    H712450   2.558   1.572   0.053 -0.2112 -1.7561  3.3411
  844MPD2     C12451   1.061   0.761  16.663  0.0177  0.2446  0.1356
  844MPD2    C112452   1.077   0.697  16.788  0.1722 -0.4229  0.1098
  844MPD2    C212453   1.154   0.756  16.878  0.1110 -0.2495  0.0419
  844MPD2    C312454   1.206   0.883  16.858 -0.4935  0.3932  0.0835
  844MPD2    C412455   1.191   0.946  16.736 -0.4093  0.8111 -0.2572
  844MPD2    C512456   1.117   0.890  16.641 -0.0893 -0.0965 -0.1534
  844MPD2     H12457   1.186   0.709  16.971 -2.1388 -2.4274 -0.2734
  844MPD2    H112458   1.226   1.047  16.718 -0.2719  0.6836 -0.6926
  844MPD2    H212459   0.998   0.734  16.580 -0.2168 -1.6562  0.9219
  844MPD2    H312460   1.109   0.931  16.541  3.2056 -1.1641 -0.8547
  844MPD2     N12461   1.278   0.930  16.968  0.2442 -0.1505  0.3334
  844MPD2    H512462   1.290   0.863  17.044  0.5205 -0.4373  0.0379
  844MPD2    N112463   1.031   0.566  16.813  0.2332  0.4176  0.3255
  844MPD2    H712464   1.066   0.516  16.894 -0.8804  0.3597  0.7677
  845MPD2     C12465   1.882   1.724  17.149  0.3522  0.1614  0.1720
  845MPD2    C112466   1.757   1.697  17.197  0.0927  0.7313  0.5749
  845MPD2    C212467   1.707   1.567  17.198  0.4922  0.5921  0.3207
  845MPD2    C312468   1.771   1.469  17.137  0.6641  0.3203 -0.0696
  845MPD2    C412469   1.892   1.494  17.076 -0.4549  0.2494 -0.2071
  845MPD2    C512470   1.945   1.623  17.074 -0.1772 -0.1107 -0.4375
  845MPD2     H12471   1.618   1.547  17.257  1.5712 -1.9503  1.0604
  845MPD2    H112472   1.953   1.414  17.035  0.2856 -0.3872  2.0926
  845MPD2    H212473   1.924   1.820  17.174  1.0629  0.3789 -1.8517
  845MPD2    H312474   2.043   1.640  17.031 -0.0937  1.4879  0.3983
  845MPD2     N12475   1.703   1.343  17.128  0.3757  1.0670 -0.1556
  845MPD2    H512476   1.607   1.337  17.159  1.0288 -0.6372  1.5666
  845MPD2    N112477   1.668   1.802  17.221 -0.1853 -0.2071 -0.1307
  845MPD2    H712478   1.695   1.892  17.183  1.0993 -0.4280  0.2724
  846MPD2     C12479   2.366   1.571  13.523  0.2222 -0.0647  0.5530
  846MPD2    C112480   2.485   1.639  13.543 -0.3613  0.0978 -0.4283
  846MPD2    C212481   2.523   1.667  13.671  0.3387 -0.3065 -1.0049
  846MPD2    C312482   2.451   1.630  13.783  0.0958  0.2901  0.8988
  846MPD2    C412483   2.334   1.563  13.763  0.3863 -0.5977  0.5313
  846MPD2    C512484   2.297   1.539  13.634 -0.3016 -0.1881  0.5673
  846MPD2     H12485   2.616   1.724  13.675 -0.1749  0.4965 -0.2655
  846MPD2    H112486   2.277   1.531  13.849 -0.6136 -0.4073 -0.0706
  846MPD2    H212487   2.323   1.557  13.424 -0.6723  3.7414  0.4165
  846MPD2    H312488   2.202   1.491  13.615 -0.0748 -0.8051  0.9726
  846MPD2     N12489   2.497   1.654  13.915  0.1316 -0.2222  0.2333
  846MPD2    H512490   2.597   1.670  13.927  0.1661 -0.5115  0.3332
  846MPD2    N112491   2.557   1.701  13.444 -0.1133 -0.0003  0.3021
  846MPD2    H712492   2.633   1.764  13.467  0.8535 -0.5395 -1.4282
  847MPD2     C12493   3.157   2.942  14.829 -0.6070  0.2440  0.0728
  847MPD2    C112494   3.208   3.068  14.825  0.7827 -0.1074 -0.5324
  847MPD2    C212495   3.303   3.093  14.922 -0.0254 -0.4949  0.4844
  847MPD2    C312496   3.341   3.009  15.027  0.0872  0.4152 -0.0510
  847MPD2    C412497   3.304   2.880  15.017  0.1526 -0.8080  1.0402
  847MPD2    C512498   3.213   2.847  14.920 -0.9769 -0.0117  0.2320
  847MPD2     H12499   3.353   3.189  14.919  0.6411 -0.8923 -1.2188
  847MPD2    H112500   3.338   2.806  15.087  0.6287 -0.3314  1.3147
  847MPD2    H212501   3.072   2.911  14.769 -0.3694 -1.9137  0.8760
  847MPD2    H312502   3.180   2.745  14.905 -0.0488 -0.0005 -1.7991
  847MPD2     N12503   3.422   3.053  15.136 -0.0842 -0.3388 -0.0553
  847MPD2    H512504   3.463   3.145  15.119 -0.0812 -1.0090 -3.7502
  847MPD2    N112505   3.164   3.177  14.746  0.0189 -0.0632 -0.1370
  847MPD2    H712506   3.225   3.258  14.735  0.1756  0.4509  4.6695
  848MPD2     C12507   0.849   1.018  16.424  0.2831 -0.1098  0.2775
  848MPD2    C112508   0.882   1.099  16.533 -0.0211 -0.4013  0.0112
  848MPD2    C212509   0.953   1.216  16.513 -0.0866 -0.4780  0.6376
  848MPD2    C312510   0.978   1.253  16.382  0.3915 -0.0822  0.7725
  848MPD2    C412511   0.950   1.174  16.272 -0.3639 -0.0987 -0.0964
  848MPD2    C512512   0.891   1.058  16.302 -0.7236  0.3109  0.1615
  848MPD2     H12513   0.994   1.268  16.598 -1.2197 -0.2366  1.0423
  848MPD2    H112514   0.964   1.206  16.170 -0.4835 -2.2170 -0.7715
  848MPD2    H212515   0.797   0.924  16.436  0.5753 -0.3037  0.0159
  848MPD2    H312516   0.860   1.002  16.214  2.0112 -1.1399  0.1495
  848MPD2     N12517   1.046   1.370  16.347  0.1410 -0.3853 -0.0717
  848MPD2    H512518   1.081   1.365  16.252  1.5144 -0.8518  0.4524
  848MPD2    N112519   0.844   1.063  16.669  0.1882 -0.5208  0.3876
  848MPD2    H712520   0.885   1.117  16.744  0.9282 -2.0602  1.0939
  849MPD2     C12521   4.480   0.845  14.274  0.3442  1.2911  0.6289
  849MPD2    C112522   4.621   0.848  14.280 -0.1351 -0.3463 -0.4659
  849MPD2    C212523   4.684   0.810  14.402 -0.5076 -0.6918 -0.0530
  849MPD2    C312524   4.608   0.773  14.512  0.4077  0.1686 -0.8908
  849MPD2    C412525   4.469   0.772  14.502 -0.0964  0.3234  0.3653
  849MPD2    C512526   4.405   0.817  14.386 -0.4177 -0.7147  0.3655
  849MPD2     H12527   0.055   0.811  14.410 -0.3803  2.2283 -2.0104
  849MPD2    H112528   4.407   0.747  14.588 -1.0037  1.8282  0.1523
  849MPD2    H212529   4.441   0.857  14.174 -1.6494 -0.4628  1.1899
  849MPD2    H312530   4.299   0.832  14.367 -0.2266 -0.2523 -0.3364
  849MPD2     N12531   4.668   0.729  14.636  0.1252 -0.0939 -0.0699
  849MPD2    H512532   4.609   0.686  14.707 -2.4873  3.2489 -0.1931
  849MPD2    N112533   4.690   0.869  14.157 -0.0999  0.1737 -1.0131
  849MPD2    H712534   4.639   0.861  14.070 -0.8337 -1.6576 -0.4287
  850MPD2     C12535   3.146   3.967  14.740  0.2179 -0.6876  0.2429
  850MPD2    C112536   3.132   4.044  14.851 -0.1192 -0.3314 -0.5187
  850MPD2    C212537   3.239   4.050  14.933  0.3150 -0.7113  0.8211
  850MPD2    C312538   3.348   3.965  14.914  0.9088 -0.5076  0.0781
  850MPD2    C412539   3.361   3.896  14.795  0.1923  0.5933  0.3713
  850MPD2    C512540   3.254   3.890  14.708  0.8006 -0.0227  0.4378
  850MPD2     H12541   3.224   4.101  15.027  0.9363 -0.0202  0.5444
  850MPD2    H112542   3.453   3.843  14.776 -1.0461 -0.8526 -1.5744
  850MPD2    H212543   3.070   3.961  14.662  0.8544 -1.7939 -0.3002
  850MPD2    H312544   3.264   3.841  14.612 -0.2273 -1.3434  1.0125
  850MPD2     N12545   3.454   3.949  15.012  0.4030  0.2825  0.1314
  850MPD2    H512546   3.512   3.867  15.001  1.2395  0.6322  2.0247
  850MPD2    N112547   3.007   4.095  14.890  0.4629  0.0121  0.2370
  850MPD2    H712548   2.926   4.044  14.854 -0.7776  2.0863  0.0831
  851MPD2     C12549   2.984   3.751  15.549 -0.5089  0.4758 -0.3189
  851MPD2    C112550   2.914   3.748  15.431  0.1045  0.0294  0.1815
  851MPD2    C212551   2.916   3.631  15.357 -0.0617 -0.0554  0.2919
  851MPD2    C312552   2.994   3.522  15.396 -0.4768 -0.0391 -0.7806
  851MPD2    C412553   3.066   3.529  15.514  0.5428 -0.6698  0.2015
  851MPD2    C512554   3.057   3.641  15.589 -0.3883  0.6453  0.3061
  851MPD2     H12555   2.873   3.625  15.258 -0.8950 -3.2391  0.8439
  851MPD2    H112556   3.136   3.455  15.550  0.4461  0.3708  2.5527
  851MPD2    H212557   2.989   3.849  15.596  0.5069  0.3832 -0.2376
  851MPD2    H312558   3.108   3.647  15.685 -0.9137  1.7917  0.5171
  851MPD2     N12559   3.004   3.414  15.303 -0.1458  0.4358 -0.1901
  851MPD2    H512560   2.960   3.425  15.212  0.5532  1.2765 -0.4280
  851MPD2    N112561   2.848   3.865  15.386  0.7140 -0.0056 -0.3996
  851MPD2    H712562   2.870   3.954  15.430  0.4746 -0.8288  1.3957
  852MPD2     C12563   3.224   1.075   9.787  0.4143 -0.5386 -0.3960
  852MPD2    C112564   3.178   1.169   9.878 -0.4705  0.4762 -0.0613
  852MPD2    C212565   3.203   1.304   9.858 -0.3936 -0.1516  0.4204
  852MPD2    C312566   3.265   1.344   9.742  0.0628  0.4250  0.0836
  852MPD2    C412567   3.318   1.250   9.656  0.1456 -0.8408  0.1583
  852MPD2    C512568   3.289   1.116   9.676 -0.2739  0.2295  0.2298
  852MPD2     H12569   3.158   1.382   9.919 -1.1252  0.1841 -0.5618
  852MPD2    H112570   3.370   1.276   9.564  0.5823 -1.6164  0.1814
  852MPD2    H212571   3.194   0.971   9.791  2.0995 -1.1240 -2.9576
  852MPD2    H312572   3.313   1.043   9.600 -1.6194  1.1176 -1.0616
  852MPD2     N12573   3.293   1.484   9.736  0.4858 -0.2296 -0.3997
  852MPD2    H512574   3.256   1.545   9.808  2.7358  0.4519  0.2008
  852MPD2    N112575   3.097   1.124   9.987 -0.2032 -0.6059 -0.2420
  852MPD2    H712576   3.068   1.192  10.056  0.6810  0.1918 -0.6589
  853MPD2     C12577   0.336   0.929  12.407  0.3056 -0.1364  0.2951
  853MPD2    C112578   0.198   0.936  12.405 -0.0944 -0.5256  0.6894
  853MPD2    C212579   0.125   0.873  12.303 -0.2386  0.1957 -0.1849
  853MPD2    C312580   0.187   0.813  12.195  0.4501  0.5071 -0.2773
  853MPD2    C412581   0.326   0.824  12.192  0.3865  0.2318 -0.0128
  853MPD2    C512582   0.395   0.884  12.298  0.0317  0.8080  0.5366
  853MPD2     H12583   0.017   0.883  12.297  0.1315  3.8630 -0.6415
  853MPD2    H112584   0.388   0.779  12.116  2.6308 -0.2562  2.1212
  853MPD2    H212585   0.390   0.963  12.494 -0.6935  0.6135  0.6164
  853MPD2    H312586   0.503   0.882  12.298  0.0300  0.8481  0.9921
  853MPD2     N12587   0.125   0.768  12.076 -0.6013  0.1053  0.3154
  853MPD2    H512588   0.184   0.766  11.994 -0.4984  0.5905  0.3769
  853MPD2    N112589   0.143   1.010  12.513  0.4022  0.4571  0.3470
  853MPD2    H712590   0.207   1.061  12.574 -0.8650 -0.5375  2.5335
  854MPD2     C12591   1.304   1.174  12.741  0.4812 -0.1873 -0.6356
  854MPD2    C112592   1.391   1.266  12.793  0.3666  0.0672 -0.0062
  854MPD2    C212593   1.469   1.231  12.904 -0.5443  0.3842 -0.1076
  854MPD2    C312594   1.474   1.101  12.944  1.3085  0.2078 -0.0429
  854MPD2    C412595   1.388   1.002  12.893 -0.9021  0.0681  0.0515
  854MPD2    C512596   1.304   1.043  12.796  0.1654  0.5878 -0.3599
  854MPD2     H12597   1.524   1.311  12.953  1.7930 -0.0481 -2.0375
  854MPD2    H112598   1.384   0.898  12.924  0.6347 -0.8102 -2.6730
  854MPD2    H212599   1.235   1.194  12.659  1.1088 -0.8910 -1.3326
  854MPD2    H312600   1.238   0.964  12.760 -0.0183  0.2763  0.6487
  854MPD2     N12601   1.571   1.060  13.039  0.3626 -0.2603 -0.3627
  854MPD2    H512602   1.599   0.963  13.048 -1.7526 -0.6276  2.2455
  854MPD2    N112603   1.383   1.389  12.725  0.7549 -0.1096  0.5747
  854MPD2    H712604   1.307   1.401  12.659  1.1214  0.0630  0.1857
  855MPD2     C12605   1.645   1.200  14.027  0.2325 -0.4685 -0.0978
  855MPD2    C112606   1.641   1.074  13.968  0.3466  0.3933 -0.5979
  855MPD2    C212607   1.650   1.064  13.832 -0.2860 -0.3545 -0.9227
  855MPD2    C312608   1.686   1.171  13.750  0.4476 -0.1382 -0.2876
  855MPD2    C412609   1.681   1.291  13.806 -1.0215  0.2756 -0.1361
  855MPD2    C512610   1.669   1.305  13.943  0.0568 -0.0075  0.2709
  855MPD2     H12611   1.647   0.964  13.791 -3.4511 -0.5567 -0.1979
  855MPD2    H112612   1.680   1.383  13.748  1.2549  1.0746  1.0856
  855MPD2    H212613   1.620   1.215  14.132 -1.4189 -0.5605 -0.4790
  855MPD2    H312614   1.661   1.403  13.988 -0.7740 -0.3171  0.8061
  855MPD2     N12615   1.726   1.158  13.616 -0.0879  0.6622  0.4953
  855MPD2    H512616   1.746   1.240  13.560  2.1767  0.0032  0.3347
  855MPD2    N112617   1.608   0.956  14.043 -0.3709  0.0828  0.9303
  855MPD2    H712618   1.589   0.870  13.992  2.0233  0.2697 -0.2740
  856MPD2     C12619   4.215   1.556  14.031  0.3592  0.1239  0.0806
  856MPD2    C112620   4.230   1.698  14.013  0.2114  0.2201  1.2839
  856MPD2    C212621   4.131   1.766  13.951 -0.5744  0.4328 -0.5097
  856MPD2    C312622   4.018   1.705  13.908 -0.0274 -0.2135  0.2024
  856MPD2    C412623   3.999   1.571  13.926 -0.2395 -0.4707 -0.2314
  856MPD2    C512624   4.095   1.504  13.997  0.0040 -0.2055 -0.6341
  856MPD2     H12625   4.149   1.868  13.920  0.0566  0.2087 -0.9024
  856MPD2    H112626   3.903   1.525  13.906 -1.5046  2.4743 -0.8170
  856MPD2    H212627   4.278   1.500  14.100 -0.0044 -0.3994 -0.0202
  856MPD2    H312628   4.069   1.404  14.030  1.9716 -0.4226  0.2418
  856MPD2     N12629   3.915   1.772  13.842 -0.3274  0.2778 -0.0827
  856MPD2    H512630   3.850   1.711  13.792 -1.5982  0.7461  0.9890
  856MPD2    N112631   4.348   1.768  14.052  0.3779 -0.6017 -0.2680
  856MPD2    H712632   4.342   1.869  14.064  3.6626 -0.2527 -1.4151
  857MPD2     C12633   0.488   3.944  13.092  0.0812  0.2970 -0.5943
  857MPD2    C112634   0.614   3.967  13.040 -0.3382  0.4370  0.5110
  857MPD2    C212635   0.684   4.077  13.095  0.0033 -0.1350  0.1124
  857MPD2    C312636   0.628   4.179  13.170 -0.5719 -0.2630  0.0486
  857MPD2    C412637   0.495   4.164  13.197 -0.3114  0.2194  0.2672
  857MPD2    C512638   0.429   4.047  13.157 -0.2021  0.0771 -0.2327
  857MPD2     H12639   0.788   4.094  13.071  0.3267 -1.4486  0.6139
  857MPD2    H112640   0.444   4.238  13.257  3.3040  2.5303  0.4973
  857MPD2    H212641   0.439   3.852  13.063 -1.8106  1.1143 -0.0029
  857MPD2    H312642   0.325   4.042  13.190 -0.1199 -0.2536 -0.0220
  857MPD2     N12643   0.703   4.296  13.206  0.2070 -0.4918 -0.1524
  857MPD2    H512644   0.802   4.285  13.185  0.3962  1.7637 -0.4583
  857MPD2    N112645   0.667   3.870  12.952  0.0825 -0.7671  0.6870
  857MPD2    H712646   0.611   3.788  12.932 -0.7965 -0.4379  1.7787
  858MPD2     C12647   0.954   2.922  16.566 -0.4595 -0.4542  0.2188
  858MPD2    C112648   1.068   2.974  16.619 -0.4805  0.6979  0.0182
  858MPD2    C212649   1.064   3.051  16.736 -0.2251 -0.2861 -0.2319
  858MPD2    C312650   0.943   3.081  16.799 -0.4870 -0.2249  0.6426
  858MPD2    C412651   0.833   3.039  16.730 -0.1411  0.5506  0.5789
  858MPD2    C512652   0.840   2.946  16.624  0.3539 -0.7402  0.3914
  858MPD2     H12653   1.158   3.070  16.786 -0.2011  0.7597 -0.6761
  858MPD2    H112654   0.736   3.068  16.769 -0.1558  0.4858  0.5911
  858MPD2    H212655   0.946   2.854  16.482  1.1651 -0.0265 -0.2915
  858MPD2    H312656   0.749   2.912  16.574  1.5386 -0.7979 -1.7326
  858MPD2     N12657   0.926   3.161  16.918 -0.1826 -0.5381 -0.3003
  858MPD2    H512658   0.830   3.184  16.941 -0.2118 -1.0681  0.1120
  858MPD2    N112659   1.192   2.937  16.553  0.5361  0.1897  0.5264
  858MPD2    H712660   1.189   2.859  16.488  0.5563  1.0865 -0.5456
  859MPD2     C12661   4.423   0.620  15.298  0.1246 -0.2100 -0.7465
  859MPD2    C112662   4.510   0.567  15.392  0.4318 -0.3308  0.2752
  859MPD2    C212663   4.502   0.435  15.435 -0.2247  0.5745  0.2770
  859MPD2    C312664   4.409   0.350  15.381 -0.0135 -0.1880 -0.3107
  859MPD2    C412665   4.330   0.408  15.278  0.0172 -1.2712  0.3793
  859MPD2    C512666   4.337   0.536  15.236  0.3244 -0.1000 -0.9086
  859MPD2     H12667   4.575   0.392  15.503 -0.7030 -1.7574 -0.6873
  859MPD2    H112668   4.258   0.348  15.223 -0.4461 -0.2406 -0.1478
  859MPD2    H212669   4.443   0.722  15.267 -0.0966  0.9301  2.9611
  859MPD2    H312670   4.277   0.574  15.154  0.0160  2.2010  0.3897
  859MPD2     N12671   4.387   0.213  15.414 -0.3735  0.2259 -0.2448
  859MPD2    H512672   4.331   0.160  15.348 -0.8022 -0.1126  0.3932
  859MPD2    N112673   4.619   0.651  15.442 -0.3415  0.0313 -0.5161
  859MPD2    H712674   4.613   0.747  15.409  1.2364 -0.1172 -1.2284
  860MPD2     C12675   2.479   0.535  11.852  0.7238 -0.3431 -0.2645
  860MPD2    C112676   2.405   0.637  11.902 -0.9742 -0.1719 -0.0403
  860MPD2    C212677   2.287   0.618  11.973 -0.1228  0.2729 -0.0546
  860MPD2    C312678   2.243   0.493  11.999 -0.5709 -0.0881 -0.9165
  860MPD2    C412679   2.321   0.387  11.954 -0.7760  0.8289  0.1093
  860MPD2    C512680   2.437   0.412  11.888 -0.2096 -1.0724  0.8496
  860MPD2     H12681   2.250   0.701  12.032 -1.6456  0.9178 -1.9536
  860MPD2    H112682   2.289   0.284  11.963  0.1046  0.5800  0.4237
  860MPD2    H212683   2.564   0.549  11.786  0.0872  1.9541 -0.5791
  860MPD2    H312684   2.489   0.322  11.859  0.2807 -0.2195 -0.9356
  860MPD2     N12685   2.137   0.474  12.083  0.0792  0.1693 -0.2439
  860MPD2    H512686   2.093   0.557  12.123  0.3696 -0.6910  1.8346
  860MPD2    N112687   2.454   0.768  11.886  0.0181 -0.8415  0.0326
  860MPD2    H712688   2.398   0.842  11.928  1.0236 -0.4363  0.6510
  861MPD2     C12689   1.495   3.854  10.845 -0.2766 -0.2621 -1.1350
  861MPD2    C112690   1.455   3.958  10.925 -0.0148  0.1620 -0.3219
  861MPD2    C212691   1.397   4.075  10.866  0.5541 -0.0322  0.2793
  861MPD2    C312692   1.398   4.090  10.728  0.2377  0.5927 -0.8641
  861MPD2    C412693   1.450   3.988  10.651  0.4531 -0.1935 -0.1434
  861MPD2    C512694   1.495   3.870  10.712 -0.2477  0.7314 -1.0060
  861MPD2     H12695   1.351   4.153  10.925  0.0991 -0.6115  0.6911
  861MPD2    H112696   1.450   3.998  10.543  2.2394 -0.1666 -0.1333
  861MPD2    H212697   1.542   3.763  10.878  0.3585  0.1195 -0.9739
  861MPD2    H312698   1.509   3.788  10.642  0.5300 -1.3870  1.6004
  861MPD2     N12699   1.344   4.197  10.655  0.5352  0.7531 -0.1781
  861MPD2    H512700   1.338   4.180  10.555 -2.4629  2.3814 -0.2886
  861MPD2    N112701   1.458   3.956  11.067  0.5248  0.0615 -0.5032
  861MPD2    H712702   1.449   4.044  11.116  0.8033  0.5302 -1.2917
  862MPD2     C12703   1.035   4.371  10.079  0.1768 -0.0384  0.0226
  862MPD2    C112704   1.075   4.315  10.193 -0.5749 -0.1255  0.0535
  862MPD2    C212705   1.039   4.182  10.222 -0.2777 -0.6972 -0.4833
  862MPD2    C312706   0.948   4.106  10.148  0.1951 -0.0646  0.6010
  862MPD2    C412707   0.897   4.171  10.038  0.4607 -0.4437 -0.4939
  862MPD2    C512708   0.945   4.298  10.003  0.0338 -0.3402 -0.6757
  862MPD2     H12709   1.079   4.145  10.315 -1.2613  0.8999  0.5870
  862MPD2    H112710   0.831   4.121   9.968 -0.9446  0.7077  0.0205
  862MPD2    H212711   1.057   4.473  10.050 -0.2551 -0.9349 -3.5203
  862MPD2    H312712   0.905   4.347   9.915  0.9810  1.0600 -0.3248
  862MPD2     N12713   0.892   3.983  10.195 -0.1252 -0.2806  0.0706
  862MPD2    H512714   0.828   3.944  10.126 -1.2525  1.1994  0.2948
  862MPD2    N112715   1.153   4.378  10.295 -0.1683  0.1179  0.5106
  862MPD2    H712716   1.177   4.324  10.377 -0.9480 -1.9177 -0.6003
  863MPD2     C12717   4.360   1.828  16.529 -0.2457 -0.7025  0.4112
  863MPD2    C112718   4.316   1.914  16.617 -0.4494 -0.8327  0.2818
  863MPD2    C212719   4.353   1.900  16.748 -0.6078  0.2564 -0.2938
  863MPD2    C312720   4.431   1.791  16.792 -0.4951  0.1072 -1.1965
  863MPD2    C412721   4.462   1.697  16.701  0.0635  0.0442 -0.3969
  863MPD2    C512722   4.431   1.719  16.569 -0.2057 -0.3793  0.4726
  863MPD2     H12723   4.330   1.980  16.817  3.1079  2.4236 -1.5977
  863MPD2    H112724   4.521   1.607  16.718  0.5035  0.2187 -0.9718
  863MPD2    H212725   4.348   1.844  16.423 -1.4192 -0.3587  0.5946
  863MPD2    H312726   4.465   1.648  16.494  0.1662 -0.7665  1.0076
  863MPD2     N12727   4.482   1.784  16.927  0.1536 -0.2739 -0.3657
  863MPD2    H512728   4.561   1.722  16.942  0.0656  0.0485  1.4503
  863MPD2    N112729   4.238   2.020  16.561 -0.1804  0.5605 -0.3668
  863MPD2    H712730   4.248   2.040  16.462 -0.6893  1.5406 -0.2208
  864MPD2     C12731   4.452   3.697  16.988 -0.7188  1.7266  0.4408
  864MPD2    C112732   4.499   3.650  16.864 -0.1063 -0.1265  0.1552
  864MPD2    C212733   4.632   3.679  16.827 -0.4988 -0.0895  0.1449
  864MPD2    C312734   4.707   3.769  16.902  0.2662 -0.1926  0.2428
  864MPD2    C412735   4.641   3.837  16.999 -0.1026 -0.0476 -0.0102
  864MPD2    C512736   4.524   3.787  17.055  0.0952  0.6443  0.0198
  864MPD2     H12737   4.680   3.633  16.742 -1.5723 -1.6555  0.3963
  864MPD2    H112738   4.686   3.927  17.038  0.2381 -0.5183  0.6723
  864MPD2    H212739   4.364   3.652  17.032 -0.7839 -0.1203 -1.5483
  864MPD2    H312740   4.477   3.829  17.144 -0.2234  1.2852 -0.4518
  864MPD2     N12741   0.093   3.824  16.863  0.7139  0.1312  0.4937
  864MPD2    H512742   0.116   3.907  16.916  1.1578  0.1546  0.2670
  864MPD2    N112743   4.409   3.565  16.798 -0.4776 -0.3821  0.4557
  864MPD2    H712744   4.325   3.546  16.852 -0.3962  2.4174  1.5998
  865MPD2     C12745   0.598   4.173  16.269  0.1651 -0.3375  0.4179
  865MPD2    C112746   0.513   4.080  16.336 -0.1469  0.2990 -0.2642
  865MPD2    C212747   0.442   4.117  16.447 -0.1362 -0.2187 -0.3441
  865MPD2    C312748   0.452   4.251  16.490  0.1209 -0.0170  0.1335
  865MPD2    C412749   0.539   4.341  16.434 -0.2739 -0.2076 -0.2909
  865MPD2    C512750   0.614   4.295  16.323 -0.1096  0.4277  0.1141
  865MPD2     H12751   0.371   4.046  16.490 -1.7432  1.3116 -0.4514
  865MPD2    H112752   0.562   4.441  16.468 -0.4523 -0.6190  1.0135
  865MPD2    H212753   0.650   4.153  16.176  0.6796 -2.3973  1.1382
  865MPD2    H312754   0.681   4.365  16.274 -0.4992  0.9968  0.3917
  865MPD2     N12755   0.396   4.298  16.615  0.2096 -0.0388  0.1822
  865MPD2    H512756   0.409   4.399  16.622  0.4285 -0.0833  0.4067
  865MPD2    N112757   0.495   3.949  16.287 -0.1052 -0.2667 -0.0398
  865MPD2    H712758   0.552   3.925  16.206 -0.7530  0.3486 -0.6789
  866MPD2     C12759   2.245   4.485  11.491  1.0019  0.3661 -0.1263
  866MPD2    C112760   2.242   4.423  11.360 -0.0190  0.4289  0.1134
  866MPD2    C212761   2.130   4.433  11.277 -0.1728  0.3427  0.6357
  866MPD2    C312762   2.027   4.512  11.318 -0.3996 -0.1223 -0.1265
  866MPD2    C412763   2.031   4.564  11.444  0.5256 -0.2282  0.4497
  866MPD2    C512764   2.139   4.550  11.529 -0.8455  0.0769  0.1779
  866MPD2     H12765   2.126   4.361  11.196  0.8461  2.1187 -0.9930
  866MPD2    H112766   1.949   4.624  11.483  1.0593 -0.3704  1.7861
  866MPD2    H212767   2.333   4.483  11.555 -0.5771 -1.3220  1.9832
  866MPD2    H312768   2.144   4.603  11.624  0.3632  1.9868 -0.9520
  866MPD2     N12769   1.909   4.532  11.248  1.1429  0.1290 -0.2598
  866MPD2    H512770   1.837   4.576  11.304  1.4107  1.9420 -1.3563
  866MPD2    N112771   2.360   4.358  11.322  0.0881  0.3122 -0.1459
  866MPD2    H712772   2.430   4.331  11.390  1.4412  2.1879 -0.7724
  867MPD2     C12773   3.426   3.491  17.331  0.6460  0.2616 -0.3516
  867MPD2    C112774   3.543   3.449  17.374 -1.1364  0.4385  0.7494
  867MPD2    C212775   3.577   3.496  17.497 -0.4908 -0.0922  0.3228
  867MPD2    C312776   3.493   3.571  17.574 -0.0937 -0.0856  0.0558
  867MPD2    C412777   3.379   3.621  17.530  0.1425  0.1734 -1.0095
  867MPD2    C512778   3.340   3.578  17.398  0.5534  0.3746  0.2645
  867MPD2     H12779   3.679   3.486  17.534 -0.2959  1.8209  0.3139
  867MPD2    H112780   3.310   3.686  17.584  1.1059  1.0062 -0.7861
  867MPD2    H212781   3.392   3.453  17.236  1.5454  2.4407 -1.5622
  867MPD2    H312782   3.244   3.606  17.357  0.4078 -0.2800  0.1611
  867MPD2     N12783   3.526   3.608  17.712 -0.0139 -0.1669 -0.6018
  867MPD2    H512784   3.472   3.682   0.006  0.7459 -0.0856  0.2195
  867MPD2    N112785   3.631   3.377  17.295  0.2797  0.1588 -0.7479
  867MPD2    H712786   3.591   3.344  17.208 -0.7142  0.2636 -0.3342
  868MPD2     C12787   1.411   3.130  13.594  0.4576 -0.5038 -0.3943
  868MPD2    C112788   1.325   3.020  13.607 -0.7130 -0.6180 -0.1100
  868MPD2    C212789   1.255   3.010  13.727 -0.3812 -0.3642 -0.2050
  868MPD2    C312790   1.288   3.086  13.833  0.4913 -0.2491 -0.4915
  868MPD2    C412791   1.387   3.181  13.823  0.2876 -0.0265  0.9516
  868MPD2    C512792   1.447   3.201  13.703 -0.8019 -0.7301 -0.6040
  868MPD2     H12793   1.181   2.931  13.737 -0.0022 -0.7136 -0.1858
  868MPD2    H112794   1.419   3.240  13.908 -2.4922  0.6230  1.5441
  868MPD2    H212795   1.473   3.145  13.506  0.0851 -0.0983 -0.5894
  868MPD2    H312796   1.529   3.272  13.699 -0.9440 -0.5532 -0.4025
  868MPD2     N12797   1.220   3.069  13.956 -0.3924 -0.2484 -0.4255
  868MPD2    H512798   1.146   3.000  13.948  0.4502 -1.0600 -1.3787
  868MPD2    N112799   1.306   2.942  13.482 -0.1533 -0.2486  0.1769
  868MPD2    H712800   1.353   2.974  13.398  2.0656  2.4068  2.4180
  869MPD2     C12801   1.895   0.263   0.277  0.5096 -0.4760  0.2533
  869MPD2    C112802   1.844   0.343   0.370  0.3184  1.1244  0.5147
  869MPD2    C212803   1.931   0.382   0.473  0.0618  0.1013 -0.1998
  869MPD2    C312804   2.063   0.342   0.477  0.0244 -0.1365 -0.0099
  869MPD2    C412805   2.113   0.266   0.368  0.3159  0.7979  0.4864
  869MPD2    C512806   2.024   0.229   0.266  0.7941 -0.1394  0.5272
  869MPD2     H12807   1.887   0.434   0.557  0.1282  0.1978 -0.2245
  869MPD2    H112808   2.214   0.229   0.353 -0.6254 -2.0462  1.2006
  869MPD2    H212809   1.828   0.217   0.205 -0.6048  0.1863  0.8704
  869MPD2    H312810   2.057   0.157   0.193 -1.3681 -0.5538 -0.0554
  869MPD2     N12811   2.146   0.388   0.583  0.6136  0.5551 -0.1190
  869MPD2    H512812   2.094   0.433   0.658 -0.5777 -0.9381 -0.0530
  869MPD2    N112813   1.709   0.388   0.370 -1.1967 -0.7387  0.4348
  869MPD2    H712814   1.678   0.445   0.448  1.0150 -0.1265  0.8621
  870MPD2     C12815   0.940   4.460   1.692  0.2147  0.2962 -0.1040
  870MPD2    C112816   0.990   4.395   1.580  0.3837 -0.1808 -0.1903
  870MPD2    C212817   0.913   4.396   1.461 -0.2214  0.3118 -0.5517
  870MPD2    C312818   0.787   4.438   1.463  0.0254  0.1940 -1.1114
  870MPD2    C412819   0.740   4.522   1.571 -0.3430 -0.6779  0.1402
  870MPD2    C512820   0.815   4.524   1.689 -0.1398  0.4998  0.7909
  870MPD2     H12821   0.939   4.354   1.365 -1.8885  0.3308 -1.0219
  870MPD2    H112822   0.641   4.564   1.578 -1.4497 -3.4983  1.4224
  870MPD2    H212823   1.008   4.456   1.776  1.2783 -2.8676 -1.0999
  870MPD2    H312824   0.769   4.564   1.779 -3.2152 -1.8773  0.2886
  870MPD2     N12825   0.706   4.410   1.359  0.2838  0.0648 -0.2458
  870MPD2    H512826   0.740   4.343   1.291 -0.6342  0.9904 -1.6274
  870MPD2    N112827   1.119   4.332   1.590 -1.0641 -0.0726 -0.5571
  870MPD2    H712828   1.160   4.336   1.683 -0.6154 -3.0820 -0.6346
  871MPD2     C12829   2.837   3.866  16.852  0.5365 -0.3974  0.4409
  871MPD2    C112830   2.786   3.801  16.967 -1.1556 -0.5765 -0.1688
  871MPD2    C212831   2.769   3.670  16.976  0.0858 -0.2134 -0.6800
  871MPD2    C312832   2.783   3.597  16.862 -0.3817  0.1045 -0.0177
  871MPD2    C412833   2.824   3.659  16.747  0.3967 -0.0490  0.9640
  871MPD2    C512834   2.853   3.792  16.737 -0.4783 -0.2336 -0.0859
  871MPD2     H12835   2.736   3.629  17.071  2.0887 -1.3557 -0.4663
  871MPD2    H112836   2.828   3.619  16.646  0.5776 -0.6671  1.2233
  871MPD2    H212837   2.849   3.973  16.855  2.5564 -0.6166 -0.1260
  871MPD2    H312838   2.881   3.842  16.646 -0.9840  2.8060  1.4520
  871MPD2     N12839   2.769   3.462  16.858  0.5236  0.2701 -0.1217
  871MPD2    H512840   2.726   3.416  16.937 -0.4189  1.9574  0.3450
  871MPD2    N112841   2.740   3.900  17.061  0.5433 -0.2063 -0.7021
  871MPD2    H712842   2.776   3.995  17.052 -1.9625  0.5950 -2.3388
  872MPD2     C12843   3.837   1.237  13.577 -0.0122 -0.2870  0.2560
  872MPD2    C112844   3.898   1.251  13.702 -0.1465 -0.3992  0.4727
  872MPD2    C212845   3.828   1.247  13.820 -0.3449  0.0596 -0.4257
  872MPD2    C312846   3.694   1.238  13.815 -0.0704 -0.1161 -0.3996
  872MPD2    C412847   3.629   1.225  13.696 -0.2476 -0.0824 -0.2034
  872MPD2    C512848   3.697   1.230  13.580  0.8164  0.2455 -0.3565
  872MPD2     H12849   3.882   1.264  13.913  1.0719 -3.3411 -0.6327
  872MPD2    H112850   3.522   1.206  13.694  0.1787 -2.4272 -1.0065
  872MPD2    H212851   3.892   1.226  13.484  0.3951 -1.0912  0.5833
  872MPD2    H312852   3.644   1.224  13.485  1.5720 -0.7961 -0.7148
  872MPD2     N12853   3.605   1.230  13.929  0.3265 -0.0523  0.2191
  872MPD2    H512854   3.507   1.244  13.908  0.5566 -0.8116 -1.3928
  872MPD2    N112855   4.040   1.259  13.698  0.2238  0.3192 -0.1800
  872MPD2    H712856   4.089   1.272  13.610  0.2386  1.4273 -0.0048
  873MPD2     C12857   0.700   1.036   0.841  0.1494 -0.0275  0.1654
  873MPD2    C112858   0.576   1.040   0.904  0.0846  0.2170 -0.7893
  873MPD2    C212859   0.480   0.945   0.859  1.0103  0.6109  0.1338
  873MPD2    C312860   0.512   0.872   0.742  0.0902  0.0815 -0.0525
  873MPD2    C412861   0.627   0.893   0.669 -0.3896 -0.2435  0.5064
  873MPD2    C512862   0.729   0.960   0.730  0.6412  0.9754  0.8540
  873MPD2     H12863   0.380   0.938   0.901  0.2019 -1.7486 -2.2268
  873MPD2    H112864   0.653   0.831   0.584  1.6769  0.8519  0.3361
  873MPD2    H212865   0.787   1.097   0.866  0.4175 -0.4345  0.2274
  873MPD2    H312866   0.829   0.956   0.688 -1.0361  1.3758 -3.1506
  873MPD2     N12867   0.429   0.780   0.672 -0.1109 -0.8467 -0.1557
  873MPD2    H512868   0.444   0.756   0.575 -2.6317  0.9384 -0.9932
  873MPD2    N112869   0.552   1.132   1.007 -0.2964 -0.2694 -0.2198
  873MPD2    H712870   0.629   1.192   1.036 -0.5903  0.5777 -1.2312
  874MPD2     C12871   0.473   1.474  16.008 -0.1648  0.3481 -0.3799
  874MPD2    C112872   0.540   1.425  16.115  0.4157  0.2583  0.1700
  874MPD2    C212873   0.676   1.452  16.135  0.5227  0.3528 -0.4110
  874MPD2    C312874   0.728   1.550  16.058 -0.1335 -0.0066 -0.2720
  874MPD2    C412875   0.668   1.595  15.947  0.2597 -1.0880 -0.5578
  874MPD2    C512876   0.542   1.559  15.924 -0.1243 -0.1966  0.4812
  874MPD2     H12877   0.726   1.415  16.224  1.0861  1.2141 -0.3702
  874MPD2    H112878   0.719   1.669  15.886  0.6529  0.5227  1.7374
  874MPD2    H212879   0.366   1.471  15.993 -0.4160  0.9245  1.2771
  874MPD2    H312880   0.494   1.608  15.839 -0.3410 -1.1561  0.0442
  874MPD2     N12881   0.859   1.594  16.098 -0.7311  0.6898  0.3360
  874MPD2    H512882   0.901   1.538  16.171 -2.1319  1.0548  1.4110
  874MPD2    N112883   0.473   1.331  16.201 -0.7047 -0.2678 -0.7489
  874MPD2    H712884   0.381   1.305  16.166 -0.3869 -2.5261  0.0848
  875MPD2     C12885   1.550   4.184  14.984  0.6853 -0.0949 -0.0479
  875MPD2    C112886   1.448   4.282  14.986  1.0939  0.2688 -0.2276
  875MPD2    C212887   1.444   4.383  15.083  0.8984 -0.3147 -0.0389
  875MPD2    C312888   1.565   4.412  15.146  0.5578 -0.7666 -0.0188
  875MPD2    C412889   1.678   4.335  15.116  0.7551  0.5880 -0.0333
  875MPD2    C512890   1.668   4.210  15.055 -0.1453 -0.8623 -0.3597
  875MPD2     H12891   1.356   4.443  15.101  0.5418 -1.0182  0.5882
  875MPD2    H112892   1.776   4.352  15.158  0.8965 -1.0997  0.3161
  875MPD2    H212893   1.552   4.098  14.919 -0.8391  0.4053 -0.7426
  875MPD2    H312894   1.759   4.152  15.039 -0.2512 -0.0514 -3.9467
  875MPD2     N12895   1.581   4.509  15.252 -0.6976 -0.0184 -0.2857
  875MPD2    H512896   1.672   4.542  15.281 -1.1880 -0.0136  1.2683
  875MPD2    N112897   1.348   4.273  14.885 -0.1905 -0.6575  0.3565
  875MPD2    H712898   1.354   4.199  14.816 -0.9838 -0.8161  0.4583
  876MPD2     C12899   0.227   0.912  16.206 -0.1855  0.2820 -1.6088
  876MPD2    C112900   0.359   0.905  16.233  0.4870  0.6878  0.1467
  876MPD2    C212901   0.397   0.834  16.350 -0.3703 -0.0247  0.1430
  876MPD2    C312902   0.294   0.765  16.433  0.2040  0.5203 -0.6506
  876MPD2    C412903   0.159   0.782  16.400 -1.1634  0.0619 -0.2063
  876MPD2    C512904   0.129   0.852  16.282 -0.3591  0.2703 -0.0037
  876MPD2     H12905   0.498   0.808  16.379 -0.7179 -1.8211 -0.2567
  876MPD2    H112906   0.081   0.721  16.444 -0.6896 -1.0481 -0.9040
  876MPD2    H212907   0.192   0.943  16.109 -1.6768  0.3192 -1.0567
  876MPD2    H312908   0.028   0.836  16.247  0.4241 -2.7916 -0.8192
  876MPD2     N12909   0.340   0.670  16.524 -0.6069  0.0393 -0.4910
  876MPD2    H512910   0.436   0.638  16.517 -0.9251 -1.2340  0.9321
  876MPD2    N112911   0.452   0.967  16.145  0.0582  0.0718 -0.1298
  876MPD2    H712912   0.408   1.018  16.069  1.7797  0.3459 -0.9470
  877MPD2     C12913   0.422   1.405  15.554  1.0112 -0.3071 -0.8921
  877MPD2    C112914   0.554   1.370  15.550  0.5674  0.0818 -1.1351
  877MPD2    C212915   0.627   1.385  15.435  0.0271 -0.5448  0.5463
  877MPD2    C312916   0.568   1.443  15.320  0.3301  0.2244  0.8019
  877MPD2    C412917   0.438   1.482  15.325 -0.3156  0.0976  0.8036
  877MPD2    C512918   0.368   1.461  15.439 -0.3724 -0.3631  0.9080
  877MPD2     H12919   0.731   1.355  15.437  0.2231  0.0974  0.1394
  877MPD2    H112920   0.388   1.525  15.239  0.9008 -0.1717 -0.0418
  877MPD2    H212921   0.368   1.381  15.645  1.8275 -1.2028 -0.6456
  877MPD2    H312922   0.262   1.485  15.445 -0.1876  1.4568 -3.3364
  877MPD2     N12923   0.640   1.444  15.193  0.9492  0.3735 -0.2820
  877MPD2    H512924   0.581   1.446  15.110 -0.2014  0.4712  0.5336
  877MPD2    N112925   0.619   1.305  15.661 -0.4071 -0.2576 -0.6711
  877MPD2    H712926   0.720   1.302  15.666 -0.5942 -1.3156  2.4861
  878MPD2     C12927   0.050   0.488  13.268  0.5613 -0.4056 -0.0686
  878MPD2    C112928   0.174   0.538  13.279  0.1876 -0.0341  0.6960
  878MPD2    C212929   0.215   0.581  13.409 -0.6177  0.5713  0.1826
  878MPD2    C312930   0.131   0.580  13.514 -0.4556 -0.2929  0.1888
  878MPD2    C412931   0.003   0.534  13.495 -0.3216 -0.0418 -0.5326
  878MPD2    C512932   4.697   0.474  13.373  0.4865 -0.1674  0.1600
  878MPD2     H12933   0.318   0.609  13.421  0.0978 -1.7130 -0.5785
  878MPD2    H112934   4.672   0.509  13.575 -2.5657  0.8003 -2.1928
  878MPD2    H212935   0.006   0.468  13.171 -2.4898  0.1209  1.1868
  878MPD2    H312936   4.604   0.421  13.358  0.4323 -0.3906  1.2601
  878MPD2     N12937   0.178   0.621  13.644 -0.4338  0.9313  0.1902
  878MPD2    H512938   0.273   0.654  13.641 -0.2535  0.1194 -3.7114
  878MPD2    N112939   0.251   0.535  13.162 -0.5243  0.1447  0.2624
  878MPD2    H712940   0.216   0.480  13.084  0.6312  1.4129 -1.1464
  879MPD2     C12941   0.710   1.909  17.171  0.2766 -0.6733 -0.0446
  879MPD2    C112942   0.696   2.017  17.090  0.1606  0.5035 -0.1142
  879MPD2    C212943   0.686   1.988  16.954 -1.1447 -0.4460 -0.0113
  879MPD2    C312944   0.714   1.860  16.895 -0.1688  0.2791  0.0163
  879MPD2    C412945   0.740   1.756  16.988 -0.3460  0.3826 -0.2428
  879MPD2    C512946   0.730   1.787  17.121  0.3043  0.5915  0.8366
  879MPD2     H12947   0.656   2.064  16.883  0.3596  0.1774  0.0247
  879MPD2    H112948   0.760   1.655  16.955  0.6411  0.3126  0.5735
  879MPD2    H212949   0.712   1.932  17.277 -1.5102 -2.5391  0.4062
  879MPD2    H312950   0.748   1.709  17.194 -2.2606 -1.0906 -0.3794
  879MPD2     N12951   0.719   1.828  16.759 -0.5272 -0.0937  0.0276
  879MPD2    H512952   0.734   1.729  16.740  0.5327 -0.1468  1.0890
  879MPD2    N112953   0.683   2.144  17.143  0.2854  0.2946  0.1370
  879MPD2    H712954   0.672   2.154  17.244 -1.7797  0.7597 -0.1284
  880MPD2     C12955   1.371   3.901  17.669 -0.3022  0.5633  0.2080
  880MPD2    C112956   1.350   3.910   0.055  0.0145  0.9334 -0.0554
  880MPD2    C212957   1.420   3.828   0.141  0.1929  0.3638  0.1141
  880MPD2    C312958   1.522   3.745   0.098  0.4847 -0.3158 -0.7147
  880MPD2    C412959   1.545   3.737  17.709 -0.0682 -0.2187 -0.3099
  880MPD2    C512960   1.468   3.816  17.625  0.4911  0.9079  0.4936
  880MPD2     H12961   1.394   3.825   0.246  0.0090 -1.2314  0.0200
  880MPD2    H112962   1.615   3.671  17.659 -1.0798 -0.7807 -0.9909
  880MPD2    H212963   1.317   3.961  17.597 -0.8742 -2.2451 -1.6806
  880MPD2    H312964   1.480   3.797  17.519 -1.1380  2.4368  0.0530
  880MPD2     N12965   1.590   3.671   0.193  0.4280  0.3619  0.0747
  880MPD2    H512966   1.588   3.702   0.290 -0.0909 -4.2137  1.5078
  880MPD2    N112967   1.261   4.015   0.093  0.2281  0.4958  0.0421
  880MPD2    H712968   1.223   4.062   0.011 -0.5442  0.4036  0.3481
  881MPD2     C12969   1.800   4.684   0.021 -0.0790 -0.6333  0.8467
  881MPD2    C112970   1.695   4.661  17.681  0.1137  0.6853 -0.9466
  881MPD2    C212971   1.586   4.594  17.720 -0.1075 -0.2738  0.4401
  881MPD2    C312972   1.559   4.586   0.106  0.7597  0.2779  0.4332
  881MPD2    C412973   1.661   4.611   0.192  0.5098 -0.4717 -0.1518
  881MPD2    C512974   1.784   4.645   0.151  0.2616 -0.3949 -0.2236
  881MPD2     H12975   1.518   4.566  17.640 -0.1587 -0.3406  0.5063
  881MPD2    H112976   1.653   4.586   0.297 -2.2675 -1.1358 -0.5251
  881MPD2    H212977   1.898   4.714  17.735 -0.0655  0.3502  1.7701
  881MPD2    H312978   1.867   4.661   0.219 -0.0529  2.9288 -0.6350
  881MPD2     N12979   1.433   4.544   0.158 -0.1615 -0.5289 -0.0907
  881MPD2    H512980   1.426   4.543   0.259 -2.0771 -2.5255 -0.2453
  881MPD2    N112981   1.723   4.667  17.542  0.2497 -0.2219  0.4562
  881MPD2    H712982   1.669   4.608  17.479  0.3257 -0.4185  0.5735
  882MPD2     C12983   0.638   1.064  14.545  0.4286 -0.3045  0.1300
  882MPD2    C112984   0.607   1.174  14.623 -0.6451 -0.3470  0.1312
  882MPD2    C212985   0.473   1.198  14.665  0.3479 -0.2470  0.0205
  882MPD2    C312986   0.377   1.105  14.622 -0.6795 -0.3592  0.2791
  882MPD2    C412987   0.415   0.994  14.548  0.6643 -0.2017  0.4489
  882MPD2    C512988   0.544   0.985  14.499  0.2758 -1.0642  0.1530
  882MPD2     H12989   0.433   1.288  14.712  0.4557 -1.6278  2.7457
  882MPD2    H112990   0.352   0.908  14.525 -1.8081  1.7658 -0.1756
  882MPD2    H212991   0.741   1.040  14.520  0.5474  0.4188 -0.0898
  882MPD2    H312992   0.579   0.899  14.443 -0.6630 -2.1213  1.1818
  882MPD2     N12993   0.235   1.110  14.652  0.3710 -0.9181  0.3635
  882MPD2    H512994   0.178   1.040  14.607 -0.0355 -1.5309  1.8303
  882MPD2    N112995   0.709   1.249  14.668 -0.2175 -0.0770 -0.3940
  882MPD2    H712996   0.796   1.208  14.634 -0.0481  1.3549 -1.6766
  883MPD2     C12997   2.323   1.255  15.851 -0.0866  0.0176  0.1230
  883MPD2    C112998   2.351   1.318  15.732  0.2573  0.4968 -0.6529
  883MPD2    C212999   2.405   1.444  15.727  0.3877  0.3755 -0.5970
  883MPD2    C313000   2.431   1.514  15.847  0.9173  0.5300 -0.1522
  883MPD2    C413001   2.395   1.455  15.966  0.0635  0.0615  0.1274
  883MPD2    C513002   2.350   1.327  15.961  0.3605  0.7664  0.4482
  883MPD2     H13003   2.427   1.480  15.627  1.8785 -2.7255 -1.3984
  883MPD2    H113004   2.410   1.496  16.065  0.5828  0.8681 -0.2870
  883MPD2    H213005   2.269   1.163  15.870  1.7125 -1.6721 -2.9529
  883MPD2    H313006   2.339   1.273  16.054  0.3771 -0.6716 -0.3896
  883MPD2     N13007   2.497   1.638  15.843 -0.0736  0.1815  0.1990
  883MPD2    H513008   2.533   1.659  15.750  1.0899  0.3547  0.6869
  883MPD2    N113009   2.321   1.257  15.605 -0.1972  0.4552  0.3758
  883MPD2    H713010   2.325   1.326  15.530  2.1720 -0.9134 -0.7390
  884MPD2     C13011   4.233   2.021  15.290 -0.8442  0.1847  0.1411
  884MPD2    C113012   4.231   2.076  15.161 -0.0211  0.2734 -0.5696
  884MPD2    C213013   4.113   2.133  15.118 -0.5526 -0.8407  0.1404
  884MPD2    C313014   3.999   2.140  15.199 -0.3781 -0.1211  0.5156
  884MPD2    C413015   3.996   2.074  15.320  0.5521  0.5567 -0.0027
  884MPD2    C513016   4.113   2.023  15.366  0.2791 -0.2792  0.6144
  884MPD2     H13017   4.112   2.189  15.025  1.2334 -0.7812  0.1538
  884MPD2    H113018   3.908   2.061  15.382 -0.4968 -0.6956 -1.7612
  884MPD2    H213019   4.319   1.968  15.328 -1.0233 -0.3408 -0.1919
  884MPD2    H313020   4.110   1.968  15.460  1.0716 -1.3315  0.0271
  884MPD2     N13021   3.883   2.201  15.141 -0.3174 -0.4576 -0.3176
  884MPD2    H513022   3.890   2.217  15.041 -1.8943  2.1649 -0.0010
  884MPD2    N113023   4.345   2.102  15.082  0.6493  0.4800  0.1000
  884MPD2    H713024   4.323   2.150  14.995  1.1194  0.2294 -0.1542
  885MPD2     C13025   2.108   2.728   0.176  0.0994  0.1876  0.9153
  885MPD2    C113026   2.236   2.727   0.138 -0.0483  0.4142 -0.4928
  885MPD2    C213027   2.259   2.749   0.005 -0.1463  0.1047 -0.8513
  885MPD2    C313028   2.149   2.766  17.662 -0.0198  0.1234  0.4779
  885MPD2    C413029   2.019   2.760  17.714 -0.0472  0.3955  0.0337
  885MPD2    C513030   1.996   2.754   0.096  0.5195 -0.1617 -0.0244
  885MPD2     H13031   2.362   2.761  17.721 -0.1100 -0.7283 -1.0374
  885MPD2    H113032   1.937   2.802  17.657 -1.4716 -1.9071  0.3534
  885MPD2    H213033   2.091   2.698   0.279 -0.2733 -0.1514  0.7558
  885MPD2    H313034   1.897   2.757   0.139  0.6624 -3.3881  0.5879
  885MPD2     N13035   2.179   2.770  17.529  0.0587  0.2668 -0.9197
  885MPD2    H513036   2.274   2.772  17.494 -0.8772  0.2471 -3.5404
  885MPD2    N113037   2.338   2.701   0.225  0.0284  0.1879 -0.2234
  885MPD2    H713038   2.307   2.703   0.322 -0.3979 -2.4774 -0.3185
  886MPD2     C13039   3.898   0.600  15.185 -0.6987  0.0393 -0.0779
  886MPD2    C113040   3.971   0.654  15.290 -0.4777 -0.7193  0.3961
  886MPD2    C213041   3.972   0.792  15.295 -0.3047 -0.1552  0.4573
  886MPD2    C313042   3.910   0.874  15.200 -0.9884 -1.2997  0.1942
  886MPD2    C413043   3.851   0.815  15.095 -0.2281 -0.1849  0.2568
  886MPD2    C513044   3.842   0.681  15.089 -0.6452  0.1868  0.8594
  886MPD2     H13045   4.025   0.840  15.376 -1.5049  1.2165  0.4280
  886MPD2    H113046   3.799   0.870  15.017  0.4733 -0.3292 -0.3133
  886MPD2    H213047   3.892   0.493  15.172 -2.7035  0.2112 -0.5642
  886MPD2    H313048   3.772   0.639  15.017  0.1018  0.3260  0.0576
  886MPD2     N13049   3.922   1.015  15.185  0.0225 -1.0899  0.3508
  886MPD2    H513050   3.876   1.057  15.105  0.6718 -1.7834 -0.3895
  886MPD2    N113051   4.033   0.581  15.392  0.1780  0.2391 -0.1339
  886MPD2    H713052   4.076   0.629  15.471  0.2338 -0.2787  0.1554
  887MPD2     C13053   4.568   0.644  15.898 -0.2296  0.3861  0.1166
  887MPD2    C113054   4.470   0.708  15.816 -0.3308  0.2477 -0.1644
  887MPD2    C213055   4.482   0.842  15.788 -0.3959  0.3199  0.4088
  887MPD2    C313056   4.568   0.923  15.854  0.1665 -0.5469  0.3855
  887MPD2    C413057   4.660   0.864  15.941  0.5962  0.2407  0.0212
  887MPD2    C513058   4.660   0.725  15.957 -0.3430  0.0086  0.2191
  887MPD2     H13059   4.405   0.889  15.728  0.3826  1.9875  0.7136
  887MPD2    H113060   4.734   0.921  15.996  0.4233 -0.0239  0.5272
  887MPD2    H213061   4.557   0.541  15.928 -1.6730  0.7260  0.7418
  887MPD2    H313062   4.734   0.681  16.023  1.0829  1.8057 -0.1812
  887MPD2     N13063   4.570   1.064  15.827  0.6264 -0.1914 -0.3887
  887MPD2    H513064   4.509   1.101  15.755  1.5519 -1.7730 -1.9880
  887MPD2    N113065   4.363   0.641  15.765  0.6495  0.0055 -0.3840
  887MPD2    H713066   4.304   0.688  15.697 -0.1986 -1.0064 -0.3529
  888MPD2     C13067   1.753   0.629  15.237  0.6641 -0.5951  0.3630
  888MPD2    C113068   1.652   0.719  15.261  0.6149 -0.1387 -0.4071
  888MPD2    C213069   1.652   0.840  15.194 -0.5102 -0.4416  0.2128
  888MPD2    C313070   1.755   0.886  15.119 -0.7422 -0.7556  0.7580
  888MPD2    C413071   1.862   0.799  15.103 -0.5880  0.5924  1.3002
  888MPD2    C513072   1.858   0.676  15.161  0.0199  0.6678 -0.1922
  888MPD2     H13073   1.572   0.909  15.217  0.8219  0.9103  0.8057
  888MPD2    H113074   1.940   0.819  15.030  1.2066  2.0661  3.6226
  888MPD2    H213075   1.747   0.526  15.269  1.6882  0.1214  2.8692
  888MPD2    H313076   1.935   0.603  15.138 -0.3417  0.9368 -2.2273
  888MPD2     N13077   1.752   1.014  15.082 -0.0214 -0.4889  0.6318
  888MPD2    H513078   1.683   1.077  15.122 -1.4218 -1.1967 -0.6573
  888MPD2    N113079   1.538   0.694  15.338  0.3970  0.2558 -0.4089
  888MPD2    H713080   1.461   0.760  15.335  1.4098  1.3928 -1.1568
  889MPD2     C13081   0.633   0.257  12.889  0.6139 -0.2646  0.6093
  889MPD2    C113082   0.720   0.267  12.997 -0.1502  1.3771 -1.2383
  889MPD2    C213083   0.784   0.389  13.018 -0.1071  0.3187 -0.2883
  889MPD2    C313084   0.756   0.500  12.940  0.7203 -0.1362  0.5262
  889MPD2    C413085   0.671   0.481  12.833 -0.3588  0.4513  0.1411
  889MPD2    C513086   0.614   0.358  12.804  0.1109  0.1648 -0.1860
  889MPD2     H13087   0.866   0.407  13.087 -1.4191  1.2576  1.0426
  889MPD2    H113088   0.641   0.565  12.772  0.0338  0.6063  0.1632
  889MPD2    H213089   0.596   0.158  12.863 -1.6784  1.6229 -3.3336
  889MPD2    H313090   0.565   0.346  12.708 -1.4512 -0.5133  0.6888
  889MPD2     N13091   0.812   0.628  12.964  0.5337 -0.1934 -0.0026
  889MPD2    H513092   0.874   0.632  13.043 -2.3844  0.8407  2.2408
  889MPD2    N113093   0.749   0.144  13.063 -0.2189 -0.5652  0.2797
  889MPD2    H713094   0.710   0.056  13.030  1.4392 -1.7849  1.5297
  890MPD2     C13095   0.191   2.232  14.702 -0.0362  0.5674  0.3023
  890MPD2    C113096   0.305   2.283  14.756 -0.1284  0.0153  0.2808
  890MPD2    C213097   0.377   2.201  14.837 -0.4467  0.2099  0.0790
  890MPD2    C313098   0.348   2.073  14.865 -0.3964  0.1900  0.2317
  890MPD2    C413099   0.226   2.025  14.811 -0.7511  0.0858 -0.0604
  890MPD2    C513100   0.155   2.103  14.721  0.6805  0.5306 -0.6565
  890MPD2     H13101   0.451   2.242  14.905  0.7123 -1.3051 -0.2862
  890MPD2    H113102   0.177   1.932  14.834 -0.4565  0.1714  0.8933
  890MPD2    H213103   0.128   2.289  14.634 -0.7396  0.1425  0.5946
  890MPD2    H313104   0.057   2.075  14.684  0.1085  0.8182  0.6540
  890MPD2     N13105   0.431   1.996  14.950 -0.6586  0.2868 -0.1691
  890MPD2    H513106   0.515   2.035  14.991  0.6630 -4.7189  1.8868
  890MPD2    N113107   0.352   2.412  14.726  0.0665  0.0131 -0.4227
  890MPD2    H713108   0.283   2.460  14.669  0.8157 -0.9719 -2.1473
  891MPD2     C13109   3.362   1.220  16.278  0.2721  0.4162  0.1921
  891MPD2    C113110   3.279   1.278  16.371  0.2226 -0.5754  1.5439
  891MPD2    C213111   3.305   1.262  16.507 -0.1235  0.1631  0.6775
  891MPD2    C313112   3.419   1.200  16.550  0.0184 -0.4951 -0.2579
  891MPD2    C413113   3.503   1.149  16.460  0.1538  0.2143  0.0193
  891MPD2    C513114   3.471   1.153  16.328 -0.0698  0.0614 -0.5717
  891MPD2     H13115   3.236   1.312  16.574  1.3042  1.2764  1.3098
  891MPD2    H113116   3.598   1.101  16.483  0.6647  2.0127  1.6490
  891MPD2    H213117   3.351   1.234  16.171 -1.4912  0.0131  0.3254
  891MPD2    H313118   3.538   1.097  16.263  0.5205  1.1991 -0.9474
  891MPD2     N13119   3.443   1.192  16.689  0.3774 -0.6309  0.4315
  891MPD2    H513120   3.365   1.217  16.749 -1.3127 -0.5077 -1.8356
  891MPD2    N113121   3.166   1.333  16.319 -0.3549 -0.4314 -0.3893
  891MPD2    H713122   3.167   1.344  16.218  0.0762 -1.8760 -0.5341
  892MPD2     C13123   4.465   1.891  14.791  0.9118 -0.2544 -0.3870
  892MPD2    C113124   4.365   1.804  14.837 -0.2031  0.5676 -0.2347
  892MPD2    C213125   4.406   1.678  14.866  0.2236  0.1403  0.5732
  892MPD2    C313126   4.541   1.644  14.858 -0.8383 -0.0242 -0.2440
  892MPD2    C413127   4.628   1.739  14.828 -0.2440 -0.6597  0.6661
  892MPD2    C513128   4.596   1.861  14.789  0.1496  0.2236 -0.2806
  892MPD2     H13129   4.337   1.598  14.891  2.6856 -2.0230  0.4853
  892MPD2    H113130   4.735   1.721  14.825 -0.5721 -2.3969 -0.5301
  892MPD2    H213131   4.434   1.986  14.749 -0.5324 -1.0445 -1.0760
  892MPD2    H313132   4.676   1.923  14.750 -1.3940  2.7985  0.6112
  892MPD2     N13133   4.593   1.508  14.871  0.7227 -0.2666 -0.2535
  892MPD2    H513134   4.688   1.491  14.840  1.5397  1.0062  1.5532
  892MPD2    N113135   4.240   1.856  14.848  0.0914 -0.1313  0.2469
  892MPD2    H713136   4.221   1.945  14.802  0.9096 -0.0355  0.0985
  893MPD2     C13137   0.370   0.469   1.254 -0.1543  0.3107 -0.4246
  893MPD2    C113138   0.469   0.504   1.347 -0.0050  0.5406  0.1331
  893MPD2    C213139   0.440   0.590   1.454 -0.2494 -0.3218 -0.5409
  893MPD2    C313140   0.309   0.632   1.479 -0.0997  0.9295  0.3058
  893MPD2    C413141   0.214   0.596   1.384  0.4956 -0.3913 -0.4751
  893MPD2    C513142   0.240   0.506   1.286  0.2217  0.5541  0.2374
  893MPD2     H13143   0.516   0.623   1.524 -1.3934 -0.5491  0.8107
  893MPD2    H113144   0.112   0.631   1.384  1.0174  1.1387  1.3476
  893MPD2    H213145   0.391   0.408   1.167  1.0136 -1.8740  1.3896
  893MPD2    H313146   0.159   0.482   1.218  0.9117 -1.1263  0.0067
  893MPD2     N13147   0.273   0.721   1.584 -0.6196 -0.2905  0.4581
  893MPD2    H513148   0.180   0.761   1.588 -0.1870  0.6501  1.1595
  893MPD2    N113149   0.604   0.469   1.319 -0.0362 -1.2907  0.0543
  893MPD2    H713150   0.615   0.411   1.236  2.8259  0.2495 -0.6461
  894MPD2     C13151   3.595   2.156   1.741  0.4203 -0.0406 -0.4244
  894MPD2    C113152   3.534   2.277   1.769  0.1504 -0.5196 -0.2045
  894MPD2    C213153   3.603   2.375   1.834 -0.0585 -0.4258  0.2268
  894MPD2    C313154   3.737   2.357   1.874 -0.3297  0.2210 -0.2575
  894MPD2    C413155   3.797   2.226   1.854  0.1604 -0.0107 -0.5215
  894MPD2    C513156   3.727   2.143   1.781 -0.7834 -0.5289  0.1788
  894MPD2     H13157   3.552   2.468   1.855  2.2393  0.9168 -0.1527
  894MPD2    H113158   3.895   2.192   1.885  0.2771 -0.1498 -1.0389
  894MPD2    H213159   3.534   2.082   1.690  0.9701 -0.7297 -0.0813
  894MPD2    H313160   3.787   2.061   1.743  1.1567  1.2692 -0.6795
  894MPD2     N13161   3.801   2.461   1.942  0.6617 -0.1526 -0.1100
  894MPD2    H513162   3.750   2.545   1.965 -0.5497 -0.5577 -1.2875
  894MPD2    N113163   3.403   2.316   1.735 -0.1390  0.0390  0.7703
  894MPD2    H713164   3.380   2.414   1.744 -0.9338 -0.1976  1.3076
  895MPD2     C13165   3.611   0.395  13.238 -0.4302 -0.2642  1.0711
  895MPD2    C113166   3.593   0.438  13.112  0.0634  0.0877 -0.0932
  895MPD2    C213167   3.621   0.358  13.001 -0.3914  0.2914  0.2422
  895MPD2    C313168   3.679   0.233  13.034  0.1528 -0.6123 -0.3516
  895MPD2    C413169   3.689   0.187  13.165  0.0523 -0.0474  0.8264
  895MPD2    C513170   3.666   0.272  13.268  0.6399  0.3466  0.5953
  895MPD2     H13171   3.629   0.396  12.900 -0.9216 -1.0616 -0.3035
  895MPD2    H113172   3.740   0.094  13.185 -0.7783 -1.2172 -2.5216
  895MPD2    H213173   3.589   0.465  13.319  0.4218 -2.7942  3.4996
  895MPD2    H313174   3.678   0.236  13.369  3.6196  1.4251  0.6240
  895MPD2     N13175   3.716   0.139  12.935  0.2385  0.7079  0.0258
  895MPD2    H513176   3.744   0.049  12.972  2.4214  2.0051  1.5209
  895MPD2    N113177   3.526   0.565  13.085  0.0009  0.0488 -0.1838
  895MPD2    H713178   3.506   0.582  12.987 -0.3091 -2.1518 -0.5110
  896MPD2     C13179   0.722   3.380   2.175 -0.2766 -0.4356  0.0079
  896MPD2    C113180   0.658   3.317   2.075  0.0035 -0.7795 -0.7036
  896MPD2    C213181   0.567   3.212   2.104  0.1687  0.3794 -0.4029
  896MPD2    C313182   0.543   3.166   2.232 -0.6792 -0.0860 -1.4366
  896MPD2    C413183   0.627   3.223   2.329 -0.1573 -0.4684  0.2405
  896MPD2    C513184   0.713   3.324   2.300 -0.0364  0.3265  0.4247
  896MPD2     H13185   0.503   3.179   2.023  0.3184 -0.5545 -0.1440
  896MPD2    H113186   0.621   3.188   2.432  1.2152  0.2331  0.5664
  896MPD2    H213187   0.783   3.468   2.163  2.9954 -2.7623 -0.5763
  896MPD2    H313188   0.774   3.371   2.376 -1.3723  1.0024  1.0892
  896MPD2     N13189   0.441   3.069   2.258 -0.2967  0.3117  0.0677
  896MPD2    H513190   0.400   3.036   2.171 -0.2052 -0.1923  0.2121
  896MPD2    N113191   0.681   3.364   1.946 -0.4426 -0.3698 -0.0957
  896MPD2    H713192   0.767   3.418   1.948 -2.1049  2.3313 -1.2726
  897MPD2     C13193   2.703   0.370  10.056 -0.4936  0.4463 -0.0172
  897MPD2    C113194   2.715   0.388  10.193  0.7618 -0.3268  0.4751
  897MPD2    C213195   2.602   0.435  10.262  0.0936 -0.5764 -0.5779
  897MPD2    C313196   2.494   0.490  10.196 -0.1090 -0.1023  0.1056
  897MPD2    C413197   2.489   0.474  10.061 -0.3517 -0.6893 -0.0131
  897MPD2    C513198   2.594   0.421   9.990  0.1066  0.9780 -0.6688
  897MPD2     H13199   2.616   0.460  10.367 -0.2647 -0.6080 -0.5215
  897MPD2    H113200   2.409   0.502   9.993 -0.2516 -2.3087 -0.8064
  897MPD2    H213201   2.788   0.336   9.998 -0.4496 -1.8260  1.3802
  897MPD2    H313202   2.586   0.423   9.882 -2.4273 -0.6277 -0.5107
  897MPD2     N13203   2.389   0.540  10.278 -0.1256  0.2277 -0.0856
  897MPD2    H513204   2.412   0.543  10.377  1.5077 -0.7688 -0.4244
  897MPD2    N113205   2.828   0.323  10.251 -0.2857 -0.5532  0.0160
  897MPD2    H713206   2.892   0.282  10.185 -2.2261  0.9059 -2.7727
  898MPD2     C13207   4.051   1.280  16.976  0.1396 -0.0784  0.0071
  898MPD2    C113208   4.039   1.314  17.106  0.1584 -0.4889  0.8495
  898MPD2    C213209   3.923   1.370  17.158 -0.5957  0.0988 -0.3216
  898MPD2    C313210   3.815   1.396  17.070 -0.1810  0.1270  1.1346
  898MPD2    C413211   3.827   1.364  16.943  0.4334  0.1970 -0.5137
  898MPD2    C513212   3.938   1.302  16.898 -0.8631  0.7605  0.7180
  898MPD2     H13213   3.923   1.400  17.263 -0.5820 -1.7021  0.1859
  898MPD2    H113214   3.740   1.371  16.878 -0.8116 -0.3357  1.0881
  898MPD2    H213215   4.133   1.225  16.931 -0.6436 -0.7605 -0.6043
  898MPD2    H313216   3.941   1.266  16.795  0.6915  1.4695  0.5212
  898MPD2     N13217   3.705   1.456  17.131  0.5009  0.6241  0.4233
  898MPD2    H513218   3.710   1.459  17.232  2.3237 -0.5612  0.3642
  898MPD2    N113219   4.145   1.287  17.204 -0.0730 -0.1896  0.5524
  898MPD2    H713220   4.119   1.296  17.302  1.2343 -0.8442  0.9499
  899MPD2     C13221   0.126   1.737  17.721  0.8161  0.5923 -0.0755
  899MPD2    C113222   4.729   1.766  17.684  0.3960  0.1886  0.4893
  899MPD2    C213223   4.625   1.697   0.005 -0.9448  0.3721  0.1135
  899MPD2    C313224   4.660   1.629   0.126  0.0695 -0.1467  0.0567
  899MPD2    C413225   0.052   1.626   0.172  0.0163 -0.4654 -0.1865
  899MPD2    C513226   0.148   1.675   0.092 -0.4455 -0.6056 -0.1171
  899MPD2     H13227   4.520   1.703  17.726 -0.4657  1.1530 -1.5524
  899MPD2    H113228   0.092   1.583   0.263 -1.1583 -0.0366  0.5235
  899MPD2    H213229   0.209   1.772  17.660  1.2988 -0.9816 -0.3162
  899MPD2    H313230   0.247   1.658   0.132 -0.1834 -0.4661 -0.7035
  899MPD2     N13231   4.561   1.568   0.209  0.0020  0.3589  0.0299
  899MPD2    H513232   4.601   1.543   0.298  1.7818  0.5335 -0.7243
  899MPD2    N113233   4.708   1.844  17.564  0.3909 -0.5659  0.1102
  899MPD2    H713234   0.056   1.885  17.527  0.2040 -0.2304  0.0515
  900MPD2     C13235   0.075   3.378  12.811 -0.4856  0.4721  0.1407
  900MPD2    C113236   4.695   3.296  12.814 -0.3285 -0.1087 -0.7835
  900MPD2    C213237   4.575   3.336  12.750 -0.0910 -0.8215 -0.5568
  900MPD2    C313238   4.572   3.464  12.690  0.1216 -0.4545 -0.2115
  900MPD2    C413239   4.684   3.549  12.713  0.8162 -0.0991 -0.1553
  900MPD2    C513240   0.064   3.503  12.753 -0.1492 -0.4668 -0.6200
  900MPD2     H13241   4.489   3.270  12.749 -0.4927 -0.2737 -1.8753
  900MPD2    H113242   4.687   3.651  12.676  2.1265  0.5199  1.6447
  900MPD2    H213243   0.177   3.352  12.833 -0.4905  0.5377  0.2396
  900MPD2    H313244   0.151   3.568  12.749 -0.1598 -0.3780  0.4089
  900MPD2     N13245   4.450   3.512  12.633 -0.1994  0.0379  0.2784
  900MPD2    H513246   4.378   3.440  12.635  0.3856 -0.5788 -0.8804
  900MPD2    N113247   4.720   3.165  12.857  0.4088 -0.4450  0.2425
  900MPD2    H713248   0.082   3.143  12.848  0.4248  0.0030 -0.6829
  901MPD2     C13249   4.450   2.125  12.730 -0.4049 -0.3392  0.3531
  901MPD2    C113250   4.586   2.123  12.778  0.4598 -0.8296  0.3876
  901MPD2    C213251   4.646   2.238  12.829 -0.4257  0.5269  0.2428
  901MPD2    C313252   4.580   2.358  12.819 -0.0585  0.4662  0.9977
  901MPD2    C413253   4.455   2.362  12.762  0.7783  0.6044 -0.4377
  901MPD2    C513254   4.396   2.250  12.710  0.2964  0.2584  0.7818
  901MPD2     H13255   0.011   2.241  12.865 -1.0479 -1.5291  2.1793
  901MPD2    H113256   4.398   2.454  12.754 -1.0507 -0.3459  1.6943
  901MPD2    H213257   4.397   2.037  12.696  0.8970 -0.9982  0.0156
  901MPD2    H313258   4.302   2.256  12.657  0.2447 -0.1882  0.8269
  901MPD2     N13259   4.641   2.477  12.856 -0.6236 -0.1132 -0.2498
  901MPD2    H513260   4.737   2.460  12.884 -0.2418 -0.5211 -1.7759
  901MPD2    N113261   4.646   1.995  12.777 -0.1916  0.0738  0.0472
  901MPD2    H713262   4.595   1.922  12.729  0.8589 -1.5256  1.3545
  902MPD2     C13263   3.860   1.129  12.644  0.2714  0.0202 -0.0331
  902MPD2    C113264   3.767   1.159  12.553 -0.5969  0.6122  0.1698
  902MPD2    C213265   3.726   1.050  12.471  0.0934 -0.9166  0.2157
  902MPD2    C313266   3.789   0.923  12.478  0.2561  0.4752 -0.0566
  902MPD2    C413267   3.885   0.895  12.569 -0.6531  0.2491 -0.0775
  902MPD2    C513268   3.908   1.000  12.657 -0.3275  0.0127  1.1452
  902MPD2     H13269   3.654   1.075  12.394  1.6572 -0.6382 -1.1550
  902MPD2    H113270   3.939   0.801  12.575 -0.2099  0.4892 -0.3348
  902MPD2    H213271   3.893   1.206  12.713 -0.4310  0.3206 -0.0332
  902MPD2    H313272   3.989   0.983  12.725 -0.1643 -2.3455  0.3577
  902MPD2     N13273   3.730   0.840  12.383  0.0914  0.2288  0.4336
  902MPD2    H513274   3.647   0.881  12.341 -0.7179 -2.2273 -0.3602
  902MPD2    N113275   3.706   1.290  12.545 -0.4304  0.1407 -1.0588
  902MPD2    H713276   3.735   1.358  12.616  2.0280 -0.6008 -1.3698
  903MPD2     C13277   3.375   1.083  12.053 -0.4222 -0.4454  0.3572
  903MPD2    C113278   3.320   0.958  12.035  0.5066  0.5999  0.0991
  903MPD2    C213279   3.188   0.949  11.994  1.0222 -0.4831  0.4518
  903MPD2    C313280   3.113   1.063  11.966 -0.1471 -0.2648 -0.5069
  903MPD2    C413281   3.178   1.186  11.986 -0.2895  0.3915  0.0152
  903MPD2    C513282   3.304   1.189  12.035  0.4150 -0.0260 -0.9352
  903MPD2     H13283   3.140   0.853  11.980 -0.1121  0.4712 -2.2309
  903MPD2    H113284   3.127   1.278  11.962  0.0374  0.9531  1.4621
  903MPD2    H213285   3.476   1.095  12.092  0.4943 -0.3600 -2.0247
  903MPD2    H313286   3.355   1.283  12.050  1.5510 -0.5121 -1.7571
  903MPD2     N13287   2.979   1.051  11.934  0.3587 -0.3361  0.2231
  903MPD2    H513288   2.942   0.956  11.933  2.0631 -1.0114  0.9149
  903MPD2    N113289   3.409   0.849  12.066  0.3278 -0.2869  1.2000
  903MPD2    H713290   3.503   0.868  12.098  0.2300 -1.3214  2.1256
  904MPD2     C13291   3.493   4.672  13.527  0.6193 -0.4116 -0.1135
  904MPD2    C113292   3.516   0.056  13.578  0.4992  0.3370  0.5346
  904MPD2    C213293   3.595   0.055  13.696  0.5015  1.1792 -0.4050
  904MPD2    C313294   3.651   4.677  13.751 -0.8009 -0.4634 -0.0302
  904MPD2    C413295   3.634   4.557  13.686  0.5539  0.8867  0.3532
  904MPD2    C513296   3.555   4.562  13.581 -0.2428 -0.6969  0.0896
  904MPD2     H13297   3.600   0.143  13.759 -3.3720  1.5508 -0.6207
  904MPD2    H113298   3.676   4.461  13.713  1.7548  0.7548 -1.9978
  904MPD2    H213299   3.432   4.658  13.438 -0.6713 -2.0419  1.0347
  904MPD2    H313300   3.538   4.467  13.531  0.9700 -0.0981 -1.4576
  904MPD2     N13301   3.735   4.682  13.866 -0.0782  0.1574 -0.3573
  904MPD2    H513302   3.763   0.034  13.905 -0.8052  0.4449 -0.4886
  904MPD2    N113303   3.458   0.168  13.530 -0.5888 -0.1240  0.2089
  904MPD2    H713304   3.383   0.171  13.461  0.2990  0.9585 -0.7219
  905MPD2     C13305   3.162   0.459  12.934  0.6386 -0.4734 -0.4790
  905MPD2    C113306   3.219   0.354  13.006 -0.1187 -0.8765  0.3489
  905MPD2    C213307   3.276   0.240  12.940 -0.6211 -0.6030 -0.1586
  905MPD2    C313308   3.282   0.243  12.800 -0.0570  0.0382  0.0628
  905MPD2    C413309   3.226   0.345  12.730  0.3107  0.2362  0.2186
  905MPD2    C513310   3.171   0.454  12.793 -0.1313 -0.3383  0.4466
  905MPD2     H13311   3.331   0.169  13.000 -2.5483 -1.3974  0.6775
  905MPD2    H113312   3.226   0.349  12.622 -1.2794  1.6432  0.2783
  905MPD2    H213313   3.119   0.550  12.973 -1.3376 -1.4389 -0.4519
  905MPD2    H313314   3.122   0.533  12.737 -1.4179 -1.9968 -0.7595
  905MPD2     N13315   3.342   0.140  12.729 -0.1276  0.0860  0.0405
  905MPD2    H513316   3.365   0.164  12.633  2.0162  0.8085  0.7226
  905MPD2    N113317   3.238   0.360  13.147  0.1291  0.3097 -0.0916
  905MPD2    H713318   3.263   0.274  13.194  0.4857  0.3908 -0.1359
  906MPD2     C13319   0.982   0.540  11.120  0.1660  0.5782 -1.2778
  906MPD2    C113320   1.038   0.445  11.039  0.5987 -0.0715 -0.0390
  906MPD2    C213321   1.038   0.309  11.079  0.2789  0.1089 -0.1588
  906MPD2    C313322   1.003   0.273  11.210  0.3071  0.5594 -0.3005
  906MPD2    C413323   0.935   0.371  11.285 -0.1663 -0.1527  0.2456
  906MPD2    C513324   0.935   0.506  11.242  0.0659 -0.2324 -0.2149
  906MPD2     H13325   1.078   0.230  11.017  2.5542  0.4017  0.9224
  906MPD2    H113326   0.877   0.356  11.375 -1.8623  0.2566 -0.7886
  906MPD2    H213327   0.981   0.645  11.096  1.5423  1.5539  2.8878
  906MPD2    H313328   0.906   0.585  11.310 -0.1826  0.2263 -0.8504
  906MPD2     N13329   1.021   0.146  11.265 -0.1897 -0.1043 -0.5738
  906MPD2    H513330   0.975   0.121  11.352 -1.0389 -0.4049 -1.1105
  906MPD2    N113331   1.106   0.474  10.914  0.1897  0.2649  0.4295
  906MPD2    H713332   1.166   0.409  10.865  0.6477 -0.1648  1.5698
  907MPD2     C13333   0.091   4.119  15.563 -0.4430  0.1356 -0.2695
  907MPD2    C113334   4.701   4.084  15.612  0.1145  0.5475 -0.6784
  907MPD2    C213335   4.689   4.050  15.749  0.1036 -0.8711 -0.2156
  907MPD2    C313336   0.062   4.053  15.836  0.0409  0.2836  0.1329
  907MPD2    C413337   0.188   4.091  15.790 -0.6175  0.2022 -0.4434
  907MPD2    C513338   0.199   4.120  15.653  0.0751  0.3628  0.4436
  907MPD2     H13339   4.594   4.009  15.782  0.0741  0.8006  1.8072
  907MPD2    H113340   0.280   4.080  15.847 -0.3883  1.3550 -0.5908
  907MPD2    H213341   0.097   4.145  15.458 -0.5141 -0.2514 -0.3681
  907MPD2    H313342   0.298   4.142  15.614  0.4291 -1.4836  0.3087
  907MPD2     N13343   0.025   4.021  15.969  0.4571 -0.1371  0.1418
  907MPD2    H513344   4.668   3.988  15.983 -0.0197  0.6317 -1.2147
  907MPD2    N113345   4.585   4.052  15.533 -0.5502  0.0360  0.3132
  907MPD2    H713346   4.495   4.064  15.579 -0.3533  1.5866  0.3081
  908MPD2     C13347   2.668   4.217  10.071  0.0502 -0.7861 -0.5935
  908MPD2    C113348   2.661   4.219  10.203  0.1116  0.1948 -0.2556
  908MPD2    C213349   2.750   4.290  10.274 -0.0761 -0.0105 -0.0987
  908MPD2    C313350   2.833   4.376  10.207 -0.2859  0.1228  0.4281
  908MPD2    C413351   2.849   4.377  10.070 -0.2815  0.0031 -0.8317
  908MPD2    C513352   2.754   4.301  10.008  0.4780  0.1445 -0.1257
  908MPD2     H13353   2.752   4.282  10.383 -0.5210 -1.4617 -0.1983
  908MPD2    H113354   2.923   4.438  10.019  1.2976 -2.7326 -1.8162
  908MPD2    H213355   2.603   4.153  10.012  1.2440 -1.5489 -1.0819
  908MPD2    H313356   2.761   4.295   9.900  1.4467 -0.0921 -0.0486
  908MPD2     N13357   2.894   4.482  10.286  0.5945  0.2219 -0.2133
  908MPD2    H513358   2.888   4.470  10.387 -0.7685  0.2513 -0.2940
  908MPD2    N113359   2.557   4.131  10.256  0.2963 -0.2610  0.0821
  908MPD2    H713360   2.497   4.078  10.195 -1.3015  3.3257 -1.4159
  909MPD2     C13361   2.692   2.883  11.684  0.3339 -0.2729  0.0103
  909MPD2    C113362   2.626   2.980  11.613 -0.4922 -0.8796 -0.5140
  909MPD2    C213363   2.511   3.039  11.662 -0.1674 -0.1368  0.3974
  909MPD2    C313364   2.458   3.011  11.788  0.1132  0.3059  0.6361
  909MPD2    C413365   2.525   2.915  11.860  0.5273 -0.7683 -0.0805
  909MPD2    C513366   2.636   2.853  11.805 -0.7414  0.0174  0.1085
  909MPD2     H13367   2.460   3.115  11.603  0.8875  0.7534  0.6211
  909MPD2    H113368   2.506   2.894  11.964  1.2107  2.2070  0.6488
  909MPD2    H213369   2.779   2.825  11.659 -1.0922 -2.2350 -0.4234
  909MPD2    H313370   2.684   2.777  11.865  0.2449 -1.5071 -2.6129
  909MPD2     N13371   2.338   3.066  11.834 -0.0294 -0.3237  0.0147
  909MPD2    H513372   2.323   3.161  11.802 -1.4070  0.1431  2.0583
  909MPD2    N113373   2.667   3.021  11.489 -0.2828 -0.1678  0.0300
  909MPD2    H713374   2.613   3.098  11.449 -0.1181 -0.1674 -0.1870
  910MPD2     C13375   3.064   0.355  15.937 -0.2104 -0.0141  0.2987
  910MPD2    C113376   3.182   0.313  15.886  0.0538  0.0512  0.7302
  910MPD2    C213377   3.192   0.300  15.750  0.1107  0.5025 -0.5227
  910MPD2    C313378   3.081   0.327  15.668  0.3979  0.3707  0.9353
  910MPD2    C413379   2.965   0.382  15.723 -0.2224  0.2616 -0.2634
  910MPD2    C513380   2.957   0.396  15.857 -0.4681  0.2994 -0.1914
  910MPD2     H13381   3.282   0.266  15.701  0.8105  1.1503  0.3085
  910MPD2    H113382   2.883   0.419  15.662  0.3997  0.5268 -0.9307
  910MPD2    H213383   3.063   0.383  16.042  3.2566 -0.5703  0.4990
  910MPD2    H313384   2.874   0.443  15.908  1.9314  2.8248  1.4068
  910MPD2     N13385   3.077   0.321  15.528  0.3975  0.1698 -0.2783
  910MPD2    H513386   2.987   0.345  15.486 -0.1513 -0.4431  0.5557
  910MPD2    N113387   3.285   0.272  15.972 -0.6174 -0.8142  0.1972
  910MPD2    H713388   3.366   0.234  15.924 -0.3538  0.2186 -0.1680
  911MPD2     C13389   1.586   0.697  16.774 -0.5288  0.5611 -0.4732
  911MPD2    C113390   1.645   0.801  16.723  0.7128 -0.7480  0.6315
  911MPD2    C213391   1.584   0.872  16.619  0.1933 -0.5488 -0.4133
  911MPD2    C313392   1.463   0.823  16.570 -0.0696 -0.6384  0.6980
  911MPD2    C413393   1.405   0.716  16.639  0.4570 -0.8001 -0.6246
  911MPD2    C513394   1.471   0.649  16.733 -0.5095  0.7991 -0.2842
  911MPD2     H13395   1.626   0.961  16.573  0.2764 -1.0275 -1.2748
  911MPD2    H113396   1.319   0.658  16.610 -0.4000 -0.0578  0.4556
  911MPD2    H213397   1.633   0.649  16.859 -1.5301 -0.0426 -0.2615
  911MPD2    H313398   1.439   0.558  16.783  0.1963  0.4108 -0.5448
  911MPD2     N13399   1.395   0.867  16.455  0.2671  0.0977 -0.1638
  911MPD2    H513400   1.307   0.817  16.446 -0.7412  1.5179  1.8326
  911MPD2    N113401   1.767   0.841  16.773 -0.5261 -0.7133 -0.3089
  911MPD2    H713402   1.817   0.764  16.815 -0.8850 -0.7073  0.1277
  912MPD2     C13403   0.919   0.502  16.044 -0.4994  0.2596 -0.3069
  912MPD2    C113404   0.941   0.581  16.154  0.4270 -0.0403  0.2027
  912MPD2    C213405   0.932   0.528  16.285 -0.2230  0.8807 -0.3594
  912MPD2    C313406   0.893   0.395  16.300 -0.1233 -0.4495  0.7530
  912MPD2    C413407   0.892   0.311  16.190  0.1891  0.4101 -0.7205
  912MPD2    C513408   0.903   0.365  16.064 -0.3711 -1.2815 -0.2383
  912MPD2     H13409   0.942   0.591  16.373  1.7600 -0.7690  0.6259
  912MPD2    H113410   0.884   0.204  16.203  3.3254 -0.1090 -3.0996
  912MPD2    H213411   0.927   0.548  15.947 -1.2876 -0.0163 -0.5088
  912MPD2    H313412   0.887   0.299  15.979  0.4670  0.4587 -1.7508
  912MPD2     N13413   0.886   0.345  16.432 -0.0555  0.0391  0.3148
  912MPD2    H513414   0.884   0.413  16.508  0.9791 -2.2043  2.3609
  912MPD2    N113415   0.993   0.706  16.126  0.5361 -0.0513  0.1503
  912MPD2    H713416   0.998   0.738  16.030 -0.2113 -0.2498  0.0470
  913MPD2     C13417   2.123   2.062  10.908 -0.0899 -0.7382  1.2376
  913MPD2    C113418   2.165   1.933  10.919 -0.2822  0.2409  0.5712
  913MPD2    C213419   2.130   1.839  10.824 -0.4962  0.7952  0.2000
  913MPD2    C313420   2.058   1.888  10.714 -0.5324  0.0412  0.0900
  913MPD2    C413421   2.023   2.019  10.701 -0.2890 -0.3148  0.7112
  913MPD2    C513422   2.050   2.104  10.804 -0.3946  0.1394  0.5610
  913MPD2     H13423   2.163   1.736  10.831 -1.5823  0.4261  0.0087
  913MPD2    H113424   1.961   2.043  10.615  3.7467 -2.9675 -2.9683
  913MPD2    H213425   2.139   2.138  10.984 -0.4616 -0.3941  0.9752
  913MPD2    H313426   2.019   2.208  10.805  3.0786  1.1788 -0.0002
  913MPD2     N13427   2.003   1.803  10.620 -0.4875  0.5567 -0.1899
  913MPD2    H513428   1.952   1.849  10.546  1.7442  1.2564 -1.2707
  913MPD2    N113429   2.252   1.897  11.029 -0.2864  0.9520 -0.3368
  913MPD2    H713430   2.275   1.968  11.098  1.7965 -0.3143  0.2774
  914MPD2     C13431   4.529   1.636  12.059  0.0264  0.1503 -0.6489
  914MPD2    C113432   4.557   1.770  12.103  0.1022 -0.6843  0.1528
  914MPD2    C213433   4.641   1.789  12.212  0.2615 -0.2109 -0.7267
  914MPD2    C313434   4.687   1.675  12.275  0.4366 -0.3701 -0.4387
  914MPD2    C413435   4.665   1.543  12.234  0.6787  0.0282 -0.4621
  914MPD2    C513436   4.582   1.527  12.130 -0.6865 -0.1681 -0.1525
  914MPD2     H13437   4.662   1.890  12.243 -0.5013  0.2528 -1.6835
  914MPD2    H113438   4.702   1.451  12.278  0.0303 -0.1798 -0.3539
  914MPD2    H213439   4.456   1.618  11.980 -0.4642 -2.2920  0.3705
  914MPD2    H313440   4.567   1.428  12.088  1.7466  0.3626 -2.2350
  914MPD2     N13441   0.036   1.703  12.383  0.1076 -0.2315  0.0240
  914MPD2    H513442   0.065   1.799  12.392 -0.5842 -0.2943  2.9388
  914MPD2    N113443   4.502   1.889  12.047 -0.6403 -0.0184 -0.1300
  914MPD2    H713444   4.547   1.976  12.076  0.0571 -1.2335  2.3832
  915MPD2     C13445   2.431   1.938  15.612 -0.6501 -0.2800 -0.0899
  915MPD2    C113446   2.478   2.060  15.637  0.5209 -0.3770 -0.0583
  915MPD2    C213447   2.433   2.125  15.752 -0.3399  0.1350  0.0313
  915MPD2    C313448   2.349   2.056  15.844  0.0654  0.2134 -0.4807
  915MPD2    C413449   2.296   1.930  15.809  0.0156  0.4974  0.2479
  915MPD2    C513450   2.341   1.873  15.693  0.6437  0.2641  0.2338
  915MPD2     H13451   2.467   2.221  15.788 -1.3864 -0.3791  2.4051
  915MPD2    H113452   2.224   1.878  15.871 -0.1047 -0.7483 -0.9329
  915MPD2    H213453   2.449   1.878  15.523 -0.2737 -1.8018  1.0109
  915MPD2    H313454   2.302   1.774  15.676 -0.8737  0.5503  2.0568
  915MPD2     N13455   2.317   2.126  15.959  0.2300  0.0472  0.2520
  915MPD2    H513456   2.353   2.219  15.978  1.1585 -0.1771 -0.4138
  915MPD2    N113457   2.553   2.115  15.529  0.4803  0.2426 -0.0196
  915MPD2    H713458   2.566   2.063  15.443 -0.4530 -1.0468  0.6112
  916MPD2     C13459   0.419   0.129  16.257 -0.7189  0.5550  0.0055
  916MPD2    C113460   0.497   0.124  16.370 -0.3080 -0.1033  0.2888
  916MPD2    C213461   0.604   0.048  16.369  0.5480 -0.0327 -0.3651
  916MPD2    C313462   0.640   4.719  16.257 -0.2825 -0.0960  0.0445
  916MPD2    C413463   0.575   0.003  16.137 -0.2313  0.1574 -0.4376
  916MPD2    C513464   0.457   0.072  16.138 -0.0745 -0.8909 -0.3966
  916MPD2     H13465   0.661   0.032  16.460 -1.5067 -0.8350  0.7776
  916MPD2    H113466   0.611   4.690  16.048 -1.8889  0.6548 -1.3843
  916MPD2    H213467   0.322   0.179  16.254 -0.5555  0.9043  0.4928
  916MPD2    H313468   0.388   0.088  16.056  0.5743  1.2987 -0.5139
  916MPD2     N13469   0.752   4.635  16.260  0.4788  0.6201  0.0772
  916MPD2    H513470   0.801   4.631  16.349  1.3070 -1.8702 -0.4874
  916MPD2    N113471   0.444   0.188  16.481 -0.1644 -0.0853  0.6943
  916MPD2    H713472   0.369   0.256  16.471  1.4140  1.5306 -0.2454
  917MPD2     C13473   0.987   2.405  11.291 -0.5810  0.0759  0.1498
  917MPD2    C113474   0.928   2.464  11.400  0.0745 -0.4222  0.3709
  917MPD2    C213475   0.909   2.600  11.401 -0.3754  0.1344 -1.2577
  917MPD2    C313476   0.952   2.682  11.298  0.5278 -0.4671  1.0312
  917MPD2    C413477   1.013   2.621  11.191 -0.4992 -0.2684  0.8623
  917MPD2    C513478   1.021   2.483  11.190 -0.5287  0.5116 -0.3979
  917MPD2     H13479   0.873   2.643  11.493  1.6374  0.2704 -0.5423
  917MPD2    H113480   1.052   2.676  11.105 -0.4978  0.7250  1.5011
  917MPD2    H213481   1.010   2.302  11.268  0.2931  0.1785  0.5683
  917MPD2    H313482   1.075   2.434  11.110  0.8335 -1.3276  1.6386
  917MPD2     N13483   0.941   2.820  11.297 -0.1336 -0.0126  0.4620
  917MPD2    H513484   0.985   2.870  11.221 -1.8954  0.3647 -0.3274
  917MPD2    N113485   0.880   2.384  11.507 -0.6936  0.3400  0.4553
  917MPD2    H713486   0.843   2.444  11.580 -0.8436  2.2477 -1.1832
  918MPD2     C13487   0.743   2.861  12.092  0.4934  0.5874 -0.2376
  918MPD2    C113488   0.860   2.794  12.117  0.1760  0.3008  0.5989
  918MPD2    C213489   0.872   2.660  12.098 -0.5417 -0.1428  0.4440
  918MPD2    C313490   0.770   2.589  12.036 -0.1510 -0.4406  0.0227
  918MPD2    C413491   0.650   2.659  12.011  0.3898 -1.0619  1.0320
  918MPD2    C513492   0.635   2.797  12.044 -0.1901 -0.4735  0.3483
  918MPD2     H13493   0.964   2.608  12.122 -0.7513 -0.9895 -0.5649
  918MPD2    H113494   0.579   2.599  11.955  0.9357 -0.0719 -0.6986
  918MPD2    H213495   0.742   2.962  12.132 -0.7828 -0.2231  1.8043
  918MPD2    H313496   0.536   2.838  12.030 -0.8591 -2.2051  0.0064
  918MPD2     N13497   0.789   2.448  11.995  0.0866  0.5424 -0.3339
  918MPD2    H513498   0.876   2.400  12.015 -0.0110  0.7400  0.5645
  918MPD2    N113499   0.969   2.861  12.183 -0.1873  0.5159  0.0642
  918MPD2    H713500   1.045   2.801  12.213 -0.4036  1.1413  1.8584
  919MPD2     C13501   1.892   1.417  11.911  0.0066  0.3688 -0.1649
  919MPD2    C113502   1.911   1.314  11.830  0.3293  0.7112  0.0887
  919MPD2    C213503   1.972   1.346  11.709 -0.1363  0.8793  0.0745
  919MPD2    C313504   1.995   1.477  11.664 -0.4330  0.1445 -0.5017
  919MPD2    C413505   1.970   1.574  11.756 -0.4488 -0.5381  0.6504
  919MPD2    C513506   1.922   1.545  11.877 -0.0982  0.5760 -0.3607
  919MPD2     H13507   1.979   1.264  11.639 -4.1624  0.4252  0.2363
  919MPD2    H113508   1.976   1.677  11.724  0.0657 -0.9445 -0.5706
  919MPD2    H213509   1.849   1.404  12.009  0.4605 -1.1019 -0.1506
  919MPD2    H313510   1.884   1.632  11.930 -0.3132 -0.0359  0.4766
  919MPD2     N13511   2.040   1.511  11.535 -0.0504  0.6058 -0.1300
  919MPD2    H513512   2.039   1.607  11.501  0.9961  0.3970 -0.7523
  919MPD2    N113513   1.867   1.181  11.861 -0.2293  0.1659 -0.4144
  919MPD2    H713514   1.884   1.112  11.789  2.2075 -1.1135  1.3948
  920MPD2     C13515   1.593   2.009  10.832  0.7001  0.5729 -0.2358
  920MPD2    C113516   1.607   1.887  10.774  0.4442  0.2111  1.1674
  920MPD2    C213517   1.705   1.796  10.823  0.2861  0.2139 -0.1787
  920MPD2    C313518   1.781   1.824  10.939  0.7880 -0.3207 -0.3416
  920MPD2    C413519   1.766   1.954  10.991  0.7478 -0.5935 -0.0065
  920MPD2    C513520   1.666   2.041  10.939  0.1305 -0.0524 -0.6511
  920MPD2     H13521   1.710   1.698  10.777 -0.3534  0.5214 -0.9141
  920MPD2    H113522   1.822   1.995  11.074 -0.2160 -0.3638  0.5283
  920MPD2    H213523   1.523   2.079  10.788  1.9473  2.3255  0.5605
  920MPD2    H313524   1.656   2.145  10.970 -1.6499 -0.8644  1.5304
  920MPD2     N13525   1.875   1.731  10.987  0.0663  0.3249 -0.3981
  920MPD2    H513526   1.895   1.655  10.923 -1.8877 -0.7498  0.2842
  920MPD2    N113527   1.529   1.845  10.654  0.4437  0.4192  0.1791
  920MPD2    H713528   1.551   1.755  10.612 -2.2169 -0.5551  0.8967
  921MPD2     C13529   2.513   1.618  16.668 -0.5017 -0.0479 -0.1277
  921MPD2    C113530   2.506   1.541  16.558 -0.0449 -0.5259 -1.0911
  921MPD2    C213531   2.420   1.432  16.563 -0.4729 -0.0751  0.3862
  921MPD2    C313532   2.341   1.409  16.669 -0.4085  0.3547  0.3948
  921MPD2    C413533   2.354   1.493  16.774  0.2643  0.8586  0.2571
  921MPD2    C513534   2.437   1.599  16.770 -0.1397 -0.5552 -0.3675
  921MPD2     H13535   2.425   1.356  16.486  1.0698 -0.3556  0.7648
  921MPD2    H113536   2.303   1.486  16.869 -1.7373  1.3456 -0.7776
  921MPD2    H213537   2.590   1.694  16.675 -0.9403  0.1783  2.2585
  921MPD2    H313538   2.445   1.654  16.863 -0.6062 -1.1396  0.0192
  921MPD2     N13539   2.261   1.293  16.661  0.7929 -0.6819  0.3322
  921MPD2    H513540   2.269   1.231  16.581  1.3233  0.3936 -0.4376
  921MPD2    N113541   2.598   1.567  16.451  0.2253  0.3851 -0.1739
  921MPD2    H713542   2.672   1.635  16.462  0.0022  0.8607 -1.6323
  922MPD2     C13543   2.949   3.417   0.469  0.1677 -0.1570  0.7103
  922MPD2    C113544   2.820   3.426   0.513  0.3922  0.5919  0.4121
  922MPD2    C213545   2.717   3.383   0.432  0.2006 -0.4784 -0.1419
  922MPD2    C313546   2.743   3.323   0.313  1.2019 -0.2576  0.6060
  922MPD2    C413547   2.868   3.314   0.271 -1.1863  1.1115  0.4238
  922MPD2    C513548   2.970   3.357   0.352  0.1273  0.2304 -0.9464
  922MPD2     H13549   2.613   3.394   0.459  0.3050 -1.9001  0.8258
  922MPD2    H113550   2.890   3.294   0.167 -2.2912 -3.3869  1.0689
  922MPD2    H213551   3.034   3.456   0.524  1.2840 -0.9880 -0.4459
  922MPD2    H313552   3.073   3.341   0.322  0.4223 -1.1011  0.7879
  922MPD2     N13553   2.619   3.302   0.236  0.6455  0.1847  0.1044
  922MPD2    H513554   2.533   3.338   0.275  1.3765  0.2811  1.6174
  922MPD2    N113555   2.779   3.474   0.638 -0.4861 -0.2264  0.0521
  922MPD2    H713556   2.679   3.475   0.654 -0.3979 -0.3723  0.6397
  923MPD2     C13557   4.421   4.675   8.737 -0.2769 -0.0847 -0.6351
  923MPD2    C113558   4.420   0.069   8.765 -0.1212  0.1638 -0.0187
  923MPD2    C213559   4.538   0.126   8.794  0.0158 -0.3533  0.3011
  923MPD2    C313560   4.667   0.061   8.784 -0.6438  0.5934 -0.0177
  923MPD2    C413561   4.663   4.669   8.733  0.0866  0.3321 -0.4155
  923MPD2    C513562   4.543   4.605   8.723  0.9469  0.3061  0.4053
  923MPD2     H13563   4.534   0.223   8.843  0.9526  0.0038 -0.3280
  923MPD2    H113564   0.014   4.610   8.713 -1.0908 -1.0843 -1.4944
  923MPD2    H213565   4.330   4.617   8.723 -0.1970 -0.8036  1.6652
  923MPD2    H313566   4.533   4.501   8.692  1.1199  0.5447 -0.4536
  923MPD2     N13567   0.050   0.127   8.796 -0.1092 -0.2798 -0.1546
  923MPD2    H513568   0.131   0.067   8.779  1.3939  0.4204  4.4984
  923MPD2    N113569   4.297   0.141   8.761  0.1994  0.2361  0.1299
  923MPD2    H713570   4.218   0.077   8.759 -0.8163  1.4692  1.4474
  924MPD2     C13571   4.005   3.699  16.348  0.3582  0.0202  0.1196
  924MPD2    C113572   4.076   3.740  16.454 -0.4057  0.1567  0.4946
  924MPD2    C213573   4.216   3.747  16.447  0.0088  0.2346  0.5273
  924MPD2    C313574   4.282   3.706  16.337  0.3785  0.0931  0.2707
  924MPD2    C413575   4.209   3.670  16.220 -0.9604 -0.2170 -0.4246
  924MPD2    C513576   4.069   3.672  16.229 -0.4693  0.8310 -0.2321
  924MPD2     H13577   4.257   3.792  16.537  2.5025 -1.0671  0.0218
  924MPD2    H113578   4.268   3.645  16.132 -0.3705 -0.4162  0.0293
  924MPD2    H213579   3.898   3.682  16.346  0.4819 -0.7588  0.0547
  924MPD2    H313580   4.013   3.632  16.145 -0.6127  1.0827 -0.2558
  924MPD2     N13581   4.425   3.713  16.338 -0.6792 -0.5252  0.0579
  924MPD2    H513582   4.465   3.715  16.431  0.5018  1.6375 -0.4948
  924MPD2    N113583   4.009   3.789  16.572  0.0195  0.4554  0.0808
  924MPD2    H713584   4.076   3.806  16.646  0.2370 -0.3291  0.0620
  925MPD2     C13585   3.587   1.427  14.792 -0.0510 -0.4824 -0.1217
  925MPD2    C113586   3.464   1.424  14.728  0.0337  0.1942  0.1015
  925MPD2    C213587   3.356   1.472  14.796 -0.3231 -0.6325 -0.0422
  925MPD2    C313588   3.374   1.513  14.928  0.6888  0.1854 -0.3131
  925MPD2    C413589   3.494   1.497  14.987  0.2697  0.1947  0.3393
  925MPD2    C513590   3.604   1.455  14.922  0.3862 -0.4915 -0.5612
  925MPD2     H13591   3.263   1.464  14.740 -0.4306 -0.1777  0.0705
  925MPD2    H113592   3.511   1.531  15.088  0.9546  0.8598  0.0062
  925MPD2    H213593   3.669   1.384  14.736 -1.1000  0.7522 -2.5959
  925MPD2    H313594   3.701   1.449  14.970 -1.0362 -2.1929  2.0483
  925MPD2     N13595   3.273   1.568  15.013 -0.2572 -0.4642 -0.1489
  925MPD2    H513596   3.308   1.589  15.105  1.2498 -0.3587 -0.7383
  925MPD2    N113597   3.440   1.363  14.599 -0.0701  0.6980  0.2000
  925MPD2    H713598   3.346   1.360  14.558 -1.2905 -0.5758  3.1146
  926MPD2     C13599   2.258   4.356  13.380 -0.7970 -0.5383 -0.4431
  926MPD2    C113600   2.161   4.433  13.321  0.4046  0.2890  0.2647
  926MPD2    C213601   2.173   4.458  13.183 -0.5735  0.2971  0.2851
  926MPD2    C313602   2.285   4.423  13.120  0.0179 -0.6605 -0.2174
  926MPD2    C413603   2.377   4.335  13.179 -0.7808  0.2738 -0.4809
  926MPD2    C513604   2.361   4.302  13.308  0.9275  0.1374  0.7002
  926MPD2     H13605   2.097   4.520  13.137 -0.3352 -0.1684 -0.7256
  926MPD2    H113606   2.461   4.300  13.121 -0.1777  0.7270  0.1227
  926MPD2    H213607   2.243   4.329  13.484 -2.8568  0.5107 -0.4506
  926MPD2    H313608   2.443   4.246  13.351 -0.0074 -1.9520 -0.2272
  926MPD2     N13609   2.309   4.465  12.984 -0.3346 -0.6328  0.4760
  926MPD2    H513610   2.390   4.434  12.932  0.3007  1.1723  0.3613
  926MPD2    N113611   2.049   4.489  13.385  0.4314 -0.3052  0.2232
  926MPD2    H713612   1.988   4.559  13.345  1.9863  0.6075 -0.5632
  927MPD2     C13613   1.275   2.266  17.638  0.3708  0.3553 -0.1227
  927MPD2    C113614   1.362   2.197  17.718  0.6045  0.3696 -0.0415
  927MPD2    C213615   1.494   2.211  17.690  0.0496  0.0160  0.3044
  927MPD2    C313616   1.539   2.290  17.588  0.1994  0.1722  0.3469
  927MPD2    C413617   1.452   2.353  17.505 -0.2035  0.2501 -0.2368
  927MPD2    C513618   1.324   2.334  17.529  0.2201 -0.5861 -0.8506
  927MPD2     H13619   1.574   2.159  17.740  0.5550  1.6653  1.2188
  927MPD2    H113620   1.487   2.406  17.417  1.0158 -2.8401 -1.6286
  927MPD2    H213621   1.169   2.270  17.661  0.0739 -1.4590 -1.2179
  927MPD2    H313622   1.246   2.380  17.470  0.1111 -2.0244 -1.8360
  927MPD2     N13623   1.682   2.300  17.572  0.0097  0.4426 -0.3948
  927MPD2    H513624   1.737   2.240  17.632  1.6164  0.5424 -1.7611
  927MPD2    N113625   1.304   2.123   0.070  0.1725 -0.1257 -0.0705
  927MPD2    H713626   1.202   2.116   0.074  0.2277 -0.8057  0.0970
  928MPD2     C13627   3.843   0.819   0.804  0.6843 -0.0363 -0.2891
  928MPD2    C113628   3.959   0.751   0.826 -0.3123  0.3241 -0.2714
  928MPD2    C213629   4.037   0.720   0.719  0.4982  0.2239  0.7300
  928MPD2    C313630   4.004   0.750   0.588 -1.0887 -0.3767 -0.0092
  928MPD2    C413631   3.875   0.788   0.567 -0.3970  0.0980  0.8014
  928MPD2    C513632   3.803   0.826   0.677 -0.1236  0.1178  0.1974
  928MPD2     H13633   4.136   0.684   0.744  1.5891  1.5994 -1.6638
  928MPD2    H113634   3.814   0.798   0.478  2.9138  2.6336 -1.1706
  928MPD2    H213635   3.779   0.850   0.886 -0.1434 -0.3424 -0.8137
  928MPD2    H313636   3.698   0.852   0.672 -0.0588 -0.0691 -2.1542
  928MPD2     N13637   4.094   0.739   0.474 -0.0242  0.0527  0.0243
  928MPD2    H513638   4.057   0.760   0.382  0.7759  2.0499  0.1443
  928MPD2    N113639   3.993   0.721   0.959  0.3034  0.3516  0.4118
  928MPD2    H713640   3.919   0.737   1.026 -1.2345 -0.2794 -1.1463
  929MPD2     C13641   0.430   0.433   9.530  0.1387 -0.2730 -0.4329
  929MPD2    C113642   0.319   0.362   9.571 -0.5358  0.4410 -0.5749
  929MPD2    C213643   0.196   0.423   9.581  0.6636  0.2851 -0.4481
  929MPD2    C313644   0.176   0.537   9.510 -0.2906  0.7444  0.7268
  929MPD2    C413645   0.281   0.602   9.449  0.3984  0.1745 -0.2089
  929MPD2    C513646   0.412   0.560   9.472  0.0107 -0.4428  0.3562
  929MPD2     H13647   0.121   0.369   9.636  1.4594 -1.0168 -0.6447
  929MPD2    H113648   0.252   0.690   9.393 -0.6155  2.1168  3.4022
  929MPD2    H213649   0.527   0.389   9.546 -1.1962 -3.0935 -0.0936
  929MPD2    H313650   0.495   0.613   9.428  1.7146 -1.9329  1.8079
  929MPD2     N13651   0.055   0.602   9.518 -0.1164  0.0508  0.0056
  929MPD2    H513652   0.056   0.698   9.487 -1.1176 -0.8856 -2.9268
  929MPD2    N113653   0.334   0.229   9.622 -0.0357 -0.0166 -0.6160
  929MPD2    H713654   0.429   0.195   9.620  0.4676  1.2975  0.8240
  930MPD2     C13655   1.535   2.035  14.218 -0.0909 -0.0009 -0.3773
  930MPD2    C113656   1.666   2.019  14.175  0.3047 -0.4018 -0.6047
  930MPD2    C213657   1.692   2.023  14.039  0.3677 -0.9531  0.3460
  930MPD2    C313658   1.583   2.043  13.954  0.1337  0.0123 -0.2760
  930MPD2    C413659   1.451   2.062  14.002  0.0477 -0.5350  0.0641
  930MPD2    C513660   1.429   2.052  14.136  0.8652  0.0259 -0.1130
  930MPD2     H13661   1.790   1.992  14.004 -0.6337 -0.4080 -2.9248
  930MPD2    H113662   1.366   2.071  13.936  0.9745 -2.4815 -1.3941
  930MPD2    H213663   1.508   2.017  14.321  2.3021  0.4246  0.3192
  930MPD2    H313664   1.327   2.055  14.171 -0.3139  1.9529 -3.7538
  930MPD2     N13665   1.600   2.052  13.812 -0.0623  0.2437  1.1245
  930MPD2    H513666   1.512   2.063  13.763 -0.1301 -1.1910  0.9430
  930MPD2    N113667   1.765   1.985  14.271  0.1337 -0.5412 -0.1581
  930MPD2    H713668   1.741   1.974  14.369 -0.5930 -2.2851 -0.5232
  931MPD2     C13669   1.659   1.543   0.423 -0.4424 -0.9538  0.7338
  931MPD2    C113670   1.541   1.556   0.490  0.5792  0.7185 -0.3840
  931MPD2    C213671   1.507   1.468   0.585 -0.1848 -0.5704  0.7004
  931MPD2    C313672   1.603   1.377   0.625  0.0388 -0.3172  0.0157
  931MPD2    C413673   1.721   1.374   0.563 -1.2231 -0.2207 -0.1728
  931MPD2    C513674   1.756   1.461   0.464 -0.2247 -0.4051  0.0940
  931MPD2     H13675   1.412   1.467   0.637 -1.1986  3.1765 -1.0559
  931MPD2    H113676   1.803   1.311   0.595 -1.4580 -1.0803 -1.2399
  931MPD2    H213677   1.697   1.607   0.344  0.6972 -0.4100  1.7214
  931MPD2    H313678   1.856   1.459   0.424  0.9379  3.2482  2.8415
  931MPD2     N13679   1.596   1.297   0.738 -0.4322  0.1571 -0.6008
  931MPD2    H513680   1.685   1.262   0.772 -0.1348  1.1915 -0.3183
  931MPD2    N113681   1.461   1.665   0.447 -0.2263  0.9214 -0.6413
  931MPD2    H713682   1.506   1.733   0.387 -1.1658  0.4769 -1.8624
  932MPD2     C13683   3.388   1.221  11.317  0.8756 -0.1449  0.3144
  932MPD2    C113684   3.500   1.202  11.244  0.3339 -0.1693 -0.0851
  932MPD2    C213685   3.519   1.088  11.173  0.4826  0.3255 -0.0045
  932MPD2    C313686   3.424   0.984  11.185  0.2765 -0.5046 -0.1190
  932MPD2    C413687   3.307   0.998  11.262  0.9937  0.5455  0.7878
  932MPD2    C513688   3.289   1.126  11.322 -0.7506 -0.2336 -0.0102
  932MPD2     H13689   3.610   1.069  11.118 -0.5912 -0.2273 -1.5775
  932MPD2    H113690   3.250   0.909  11.286  0.0906  1.3299  1.5600
  932MPD2    H213691   3.373   1.310  11.378  1.5739 -0.2179  0.5938
  932MPD2    H313692   3.204   1.137  11.389 -0.5235 -1.4376  0.4630
  932MPD2     N13693   3.439   0.850  11.138 -0.7068  0.0491  0.3760
  932MPD2    H513694   3.376   0.778  11.171 -0.7626  0.7881  1.8555
  932MPD2    N113695   3.598   1.302  11.225  0.1047 -0.4439 -0.1227
  932MPD2    H713696   3.674   1.281  11.162  0.7157 -0.7020  0.6956
  933MPD2     C13697   3.782   0.886   1.637  0.0351 -0.6847  0.3507
  933MPD2    C113698   3.783   0.889   1.501 -0.1308 -1.1489  0.8986
  933MPD2    C213699   3.680   0.957   1.434 -0.0331  1.5526 -0.1058
  933MPD2    C313700   3.588   1.036   1.501  0.6129  0.1991 -0.1960
  933MPD2    C413701   3.588   1.029   1.642 -0.0621  0.5012 -0.2070
  933MPD2    C513702   3.689   0.959   1.701 -0.0891 -0.1531  0.2307
  933MPD2     H13703   3.675   0.940   1.327 -0.3341  0.8083  0.0255
  933MPD2    H113704   3.514   1.081   1.702  0.1503 -0.2764  0.7167
  933MPD2    H213705   3.860   0.842   1.700 -1.3848  0.5836  2.9941
  933MPD2    H313706   3.704   0.974   1.807  2.7956 -1.3928  0.0192
  933MPD2     N13707   3.491   1.110   1.425 -0.4692  0.0970 -0.0078
  933MPD2    H513708   3.493   1.090   1.326  0.2958 -0.5053  0.1293
  933MPD2    N113709   3.878   0.816   1.421 -0.1969 -0.3892  0.2323
  933MPD2    H713710   3.871   0.825   1.320 -1.7797  1.6464  0.5274
  934MPD2     C13711   0.669   2.759   2.463 -1.3647 -0.1300 -0.0001
  934MPD2    C113712   0.712   2.718   2.337  0.2092  0.3177 -0.8862
  934MPD2    C213713   0.645   2.613   2.268 -0.2557  0.5627  0.3184
  934MPD2    C313714   0.544   2.537   2.329  0.0738  0.7758 -0.3881
  934MPD2    C413715   0.524   2.571   2.465 -0.0322 -0.0535 -0.7003
  934MPD2    C513716   0.578   2.683   2.522  0.2544 -0.1718 -0.4992
  934MPD2     H13717   0.670   2.586   2.167  0.3451 -1.6619  1.0653
  934MPD2    H113718   0.441   2.523   2.515 -0.7455  0.3756 -1.4774
  934MPD2    H213719   0.711   2.839   2.523  0.1892 -0.2255 -0.9746
  934MPD2    H313720   0.532   2.714   2.615 -0.0375  1.9010 -1.3307
  934MPD2     N13721   0.471   2.427   2.269  0.0567 -0.4840 -0.3312
  934MPD2    H513722   0.393   2.391   2.323 -2.1591  2.1309 -1.8047
  934MPD2    N113723   0.798   2.803   2.265  0.1581 -0.5120  0.0691
  934MPD2    H713724   0.810   2.797   2.164 -1.2006 -1.3650 -0.0411
  935MPD2     C13725   0.527   1.778   1.492  0.4311 -0.2915  0.3255
  935MPD2    C113726   0.422   1.862   1.462  0.1174 -0.5733 -0.2499
  935MPD2    C213727   0.370   1.935   1.567 -0.6117  0.1360 -0.0586
  935MPD2    C313728   0.429   1.935   1.695  0.3129  0.3948 -0.0718
  935MPD2    C413729   0.533   1.851   1.725  0.4625  0.2162 -0.0133
  935MPD2    C513730   0.580   1.778   1.620  0.5297  0.6550 -0.3570
  935MPD2     H13731   0.288   2.004   1.549 -1.7766 -1.7917 -2.2561
  935MPD2    H113732   0.581   1.861   1.822 -0.8392 -0.2604  0.6690
  935MPD2    H213733   0.575   1.715   1.419 -3.0449 -1.3262 -1.0811
  935MPD2    H313734   0.667   1.715   1.635  1.2395  1.6421 -0.3286
  935MPD2     N13735   0.390   2.016   1.807  0.1201 -0.2540  0.1236
  935MPD2    H513736   0.446   2.018   1.891  0.6683  2.1042 -0.2931
  935MPD2    N113737   0.374   1.874   1.337 -0.8191  0.7754  0.4274
  935MPD2    H713738   0.290   1.928   1.318 -1.0883  0.2204  0.0324
  936MPD2     C13739   3.696   4.205  12.235  0.4511 -0.1811 -0.0317
  936MPD2    C113740   3.820   4.229  12.290 -0.4764  0.6065 -0.2155
  936MPD2    C213741   3.908   4.321  12.239 -0.3133 -0.3579 -0.3538
  936MPD2    C313742   3.864   4.407  12.140  0.3916  0.2179 -0.1624
  936MPD2    C413743   3.732   4.400  12.098 -0.1675  0.5516 -0.2913
  936MPD2    C513744   3.660   4.291  12.134 -0.2573  0.4123 -0.6881
  936MPD2     H13745   4.002   4.336  12.291 -1.3302  0.5770  1.2466
  936MPD2    H113746   3.694   4.464  12.019  2.5135  2.3986 -0.0672
  936MPD2    H213747   3.625   4.131  12.272 -0.6168  0.5778 -0.5607
  936MPD2    H313748   3.560   4.289  12.091 -0.1936  0.2411 -0.8257
  936MPD2     N13749   3.937   4.519  12.102 -0.0742 -0.2609 -0.2865
  936MPD2    H513750   3.887   4.588  12.046  1.9817  0.8056 -0.8434
  936MPD2    N113751   3.874   4.163  12.397  0.0076 -0.4272 -0.6658
  936MPD2    H713752   3.969   4.189  12.419 -0.1428 -0.1427 -0.3411
  937MPD2     C13753   1.983   0.501  11.614  0.0370 -0.2091  0.0572
  937MPD2    C113754   2.049   0.616  11.662 -0.5872  0.4059 -0.1780
  937MPD2    C213755   2.170   0.649  11.605  0.0512 -0.2037  0.0559
  937MPD2    C313756   2.238   0.556  11.527  0.2291 -0.6317 -0.3748
  937MPD2    C413757   2.177   0.434  11.502  0.2081  0.3732  0.1365
  937MPD2    C513758   2.043   0.416  11.534 -0.2037 -0.0184  0.2020
  937MPD2     H13759   2.230   0.736  11.630  0.9806 -1.0430  0.7807
  937MPD2    H113760   2.226   0.356  11.446 -1.2677  0.4893 -1.3026
  937MPD2    H213761   1.881   0.473  11.637 -1.1759  2.9354 -1.4869
  937MPD2    H313762   1.991   0.328  11.501 -0.3981 -0.2718  1.1700
  937MPD2     N13763   2.377   0.590  11.490  0.2689 -0.5430  0.4860
  937MPD2    H513764   2.404   0.687  11.503 -1.0350 -0.2666  1.1887
  937MPD2    N113765   1.975   0.712  11.740  0.2450 -0.2177 -0.0479
  937MPD2    H713766   2.010   0.806  11.747 -1.0738  0.3128 -0.5729
  938MPD2     C13767   4.340   1.955   1.189  0.0343  0.5995 -0.3429
  938MPD2    C113768   4.231   2.005   1.263  0.2887  0.3464  0.1184
  938MPD2    C213769   4.121   1.918   1.282  0.4889 -0.0147  0.3532
  938MPD2    C313770   4.124   1.790   1.233 -0.3860  0.3944  0.4919
  938MPD2    C413771   4.232   1.748   1.159  0.5775  0.1400 -0.1018
  938MPD2    C513772   4.346   1.827   1.141 -0.4669 -0.4121 -0.2161
  938MPD2     H13773   4.034   1.963   1.328 -0.1790 -1.5452  0.5832
  938MPD2    H113774   4.232   1.647   1.122 -1.6575  0.8681 -2.0318
  938MPD2    H213775   4.425   2.020   1.174 -0.1204  1.0059  0.5452
  938MPD2    H313776   4.434   1.791   1.090 -0.6160 -1.7788  0.4964
  938MPD2     N13777   4.025   1.697   1.266  0.4016 -0.2388  0.3701
  938MPD2    H513778   4.046   1.600   1.248  2.0140  0.3960 -1.2197
  938MPD2    N113779   4.218   2.131   1.321  0.0474 -0.3860  0.1611
  938MPD2    H713780   4.132   2.153   1.371  0.1499 -0.3179  0.3061
  939MPD2     C13781   0.348   2.490   0.916 -0.4914  0.5883  0.4260
  939MPD2    C113782   0.355   2.615   0.852  0.2405  0.5806  0.2555
  939MPD2    C213783   0.403   2.617   0.721 -0.4037  0.0863  0.4109
  939MPD2    C313784   0.426   2.505   0.643  0.0228 -0.6042  0.5480
  939MPD2    C413785   0.397   2.386   0.702  0.1198 -0.2890  0.1133
  939MPD2    C513786   0.365   2.377   0.831  0.1386 -0.4397  0.2967
  939MPD2     H13787   0.429   2.711   0.675 -0.6428 -0.6278 -1.1944
  939MPD2    H113788   0.417   2.289   0.658  0.4889  0.2266 -0.8653
  939MPD2    H213789   0.306   2.475   1.015 -2.0851  0.5884 -0.2436
  939MPD2    H313790   0.352   2.280   0.878 -1.0183 -2.0163 -3.2805
  939MPD2     N13791   0.480   2.522   0.514 -0.4191 -0.3082  0.5465
  939MPD2    H513792   0.486   2.617   0.481 -3.6632 -0.7096 -1.2285
  939MPD2    N113793   0.320   2.726   0.925 -0.0016  0.2307 -0.6983
  939MPD2    H713794   0.291   2.718   1.022 -3.3363  0.7529 -1.6481
  940MPD2     C13795   4.537   0.114  12.985  0.5880  0.9528  0.6526
  940MPD2    C113796   4.530   4.716  13.014 -0.4643 -0.5090 -0.1318
  940MPD2    C213797   4.648   4.640  13.009 -0.1796  0.2485 -0.1292
  940MPD2    C313798   0.029   4.689  12.962 -0.3053  0.1112  1.2188
  940MPD2    C413799   0.024   0.078  12.912  0.0211  0.2100 -0.2316
  940MPD2    C513800   4.654   0.158  12.927 -0.2212  0.0520 -0.0219
  940MPD2     H13801   4.652   4.535  13.038  1.4874  0.2883 -0.1690
  940MPD2    H113802   0.110   0.121  12.863  0.0701 -0.4765 -0.7511
  940MPD2    H213803   4.457   0.185  13.002 -0.6626  0.3410 -2.6578
  940MPD2    H313804   4.659   0.261  12.893 -2.6541 -0.4184 -1.7777
  940MPD2     N13805   0.155   4.623  12.955  0.1059 -0.3979 -0.4226
  940MPD2    H513806   0.229   4.682  12.919 -0.3249 -0.2697 -1.1116
  940MPD2    N113807   4.408   4.664  13.055 -0.2234 -0.1180  0.2913
  940MPD2    H713808   4.333   4.732  13.064  1.6415  2.1776 -1.6274
  941MPD2     C13809   4.090   3.545   9.632 -0.6850 -0.1831 -0.2692
  941MPD2    C113810   4.191   3.464   9.683 -0.5955 -0.5533  0.7210
  941MPD2    C213811   4.158   3.371   9.770 -0.7845  0.3500 -0.3989
  941MPD2    C313812   4.028   3.360   9.814  0.3354 -0.2058 -0.1509
  941MPD2    C413813   3.934   3.448   9.776 -0.4632 -0.2834 -0.6387
  941MPD2    C513814   3.966   3.544   9.685  0.1617  0.1567  0.0725
  941MPD2     H13815   4.230   3.299   9.808  0.0771  0.8742 -1.0474
  941MPD2    H113816   3.830   3.445   9.806 -0.2036 -1.0857  0.1677
  941MPD2    H213817   4.096   3.621   9.556  1.2528 -0.2643 -0.1946
  941MPD2    H313818   3.898   3.619   9.648 -0.6630  1.0572  3.4322
  941MPD2     N13819   3.986   3.258   9.904  0.2081 -0.1366 -0.0388
  941MPD2    H513820   3.898   3.272   9.952  1.2101  2.3928  1.0660
  941MPD2    N113821   4.327   3.470   9.632  0.0578 -0.3035 -0.1642
  941MPD2    H713822   4.395   3.418   9.686 -0.5995 -0.1706  0.8144
  942MPD2     C13823   3.179   1.065   9.252 -0.2041 -0.1887 -0.6755
  942MPD2    C113824   3.128   0.972   9.338  0.1709  0.1408  0.1645
  942MPD2    C213825   3.186   0.841   9.333 -0.4412  0.3861 -1.0843
  942MPD2    C313826   3.292   0.817   9.251  0.2117 -0.2321 -0.4893
  942MPD2    C413827   3.333   0.920   9.163  0.3702  0.1666  0.6114
  942MPD2    C513828   3.273   1.040   9.159 -0.1728  0.2864 -0.6958
  942MPD2     H13829   3.143   0.763   9.395 -1.3358  0.0358 -2.1288
  942MPD2    H113830   3.405   0.906   9.083  0.2567  1.8220  0.2038
  942MPD2    H213831   3.148   1.169   9.246 -0.5956 -0.3167 -0.8621
  942MPD2    H313832   3.306   1.119   9.093 -0.0130  0.7075 -0.1132
  942MPD2     N13833   3.359   0.696   9.240 -0.0463 -0.4443 -0.5137
  942MPD2    H513834   3.444   0.711   9.185 -0.1125 -1.6181 -0.9282
  942MPD2    N113835   3.029   0.996   9.441  0.0029 -0.0963  0.2272
  942MPD2    H713836   3.003   0.917   9.498  0.2360 -1.0237 -0.9430
  943MPD2     C13837   3.042   2.335  10.374  0.1776  0.1265  0.3004
  943MPD2    C113838   2.930   2.364  10.437  0.3764 -0.0170  0.0230
  943MPD2    C213839   2.923   2.331  10.575  0.1784  0.2947  0.4436
  943MPD2    C313840   3.019   2.255  10.639 -0.0653 -0.0845  0.0979
  943MPD2    C413841   3.138   2.231  10.569  0.0582 -0.1135 -1.2225
  943MPD2    C513842   3.137   2.269  10.440  0.4965  0.6104  0.2147
  943MPD2     H13843   2.836   2.361  10.632 -0.1148 -0.3398  0.3362
  943MPD2    H113844   3.226   2.188  10.616 -0.1267 -0.3996 -1.1363
  943MPD2    H213845   3.046   2.353  10.267 -0.5011  1.2659  0.4668
  943MPD2    H313846   3.213   2.229  10.374  0.5087  1.0397 -0.0281
  943MPD2     N13847   3.010   2.216  10.772  0.5596 -0.0846 -0.4000
  943MPD2    H513848   3.078   2.145  10.798  0.1250 -0.1145  0.6909
  943MPD2    N113849   2.824   2.422  10.366  0.3472  0.4105 -0.0763
  943MPD2    H713850   2.841   2.456  10.273 -3.6003  0.2932 -0.8614
  944MPD2     C13851   1.757   2.465  11.346 -0.3726 -0.4449  0.0512
  944MPD2    C113852   1.839   2.529  11.433 -0.6705 -0.1131 -0.4364
  944MPD2    C213853   1.828   2.664  11.464 -0.6526  0.0066  0.4307
  944MPD2    C313854   1.722   2.744  11.408 -0.1734 -0.0263 -0.5420
  944MPD2    C413855   1.634   2.673  11.329  0.6469 -0.0804 -0.6866
  944MPD2    C513856   1.654   2.540  11.302  0.8942  0.0758 -0.2293
  944MPD2     H13857   1.892   2.714  11.536  0.3789  0.7168 -0.9835
  944MPD2    H113858   1.558   2.723  11.271  1.1306 -0.8930 -2.0138
  944MPD2    H213859   1.765   2.361  11.317 -1.0364  0.6635 -4.1769
  944MPD2    H313860   1.580   2.493  11.238 -2.5420  1.2556  2.8303
  944MPD2     N13861   1.728   2.886  11.424  0.4714  0.0636 -0.5113
  944MPD2    H513862   1.787   2.916  11.501 -1.7284  0.3173  1.0931
  944MPD2    N113863   1.950   2.455  11.478  0.2076  0.1500 -0.2225
  944MPD2    H713864   1.935   2.355  11.471 -0.8251  0.2651  0.2931
    1TMC1    C113865   0.703   3.508  14.842 -0.5340 -0.1797  0.1284
    1TMC1    C213866   0.656   3.441  14.735 -0.3769 -0.1374  1.0732
    1TMC1    C313867   0.581   3.326  14.759  0.8661 -0.5886  0.3355
    1TMC1    C413868   0.679   3.468  14.967  0.0132 -0.0813  0.6125
    1TMC1    C513869   0.590   3.365  14.985 -0.0908 -0.4829 -0.2556
    1TMC1    C613870   0.547   3.288  14.880 -0.1914 -0.1816 -0.6303
    1TMC1     C13871   0.768   3.641  14.841  0.1755 -0.0702  0.2623
    1TMC1     O13872   0.833   3.673  14.935 -0.1331  0.3917 -0.1011
    1TMC1     H13873   0.672   3.470  14.631  1.2137 -1.2799  0.9970
    1TMC1    H113874   0.697   3.534  15.051  1.8864  0.1959 -0.0274
    1TMC1    H213875   0.483   3.202  14.901 -0.4558 -0.3909 -2.3025
    1TMC1    C713876   0.520   3.348  15.112 -0.3228 -0.3632  0.2524
    1TMC1    C813877   0.549   3.246  14.645  0.0385  0.1432 -0.6489
    1TMC1    O113878   0.583   3.388  15.210  0.3637  0.4107  0.6368
    1TMC1    O213879   0.433   3.196  14.627 -0.0745  0.1694 -0.3633
    1TMC1    O313880   0.385   3.353  15.087  0.2440 -0.3836  0.3152
    1TMC1    H313881   0.350   3.345  14.996 -0.9375 -1.6762  0.8857
    1TMC1    O513882   0.657   3.233  14.567 -0.4655  0.0846  0.2125
    1TMC1    H513883   0.747   3.252  14.601 -1.0824  1.0823  1.2769
    2MPD2     C13884   0.839   4.101  14.632  0.3428  0.1415 -0.8183
    2MPD2    C113885   0.815   4.011  14.532 -0.1373  0.2778 -0.5272
    2MPD2    C213886   0.771   3.884  14.559  0.0686  0.3701 -0.3788
    2MPD2    C313887   0.785   3.834  14.688 -0.3456  1.4036 -1.3263
    2MPD2    C413888   0.829   3.917  14.791 -0.1780 -0.4744  0.6504
    2MPD2    C513889   0.855   4.049  14.759  0.7068 -0.0351  0.5388
    2MPD2     H13890   0.731   3.819  14.482 -0.8548 -0.2058  0.5842
    2MPD2    H113891   0.823   3.893  14.897 -1.8126 -0.6585  0.5227
    2MPD2    H213892   0.854   4.202  14.597  0.2337 -0.1927 -1.8298
    2MPD2    H313893   0.894   4.118  14.833  1.1327 -0.3054  0.5647
    2MPD2     N13894   0.746   3.700  14.721 -0.2037  0.3884 -0.1747
    2MPD2    H513895   0.689   3.650  14.653  0.4725  2.1264 -2.0025
    2MPD2    N113896   0.829   4.062  14.400 -0.4669 -0.0535 -0.1563
    2MPD2    H713897   0.857   4.160  14.393  1.1934 -0.6355 -1.5594
    3TMC2    C113898   0.767   4.101  14.184 -0.4496  0.1782 -0.5080
    3TMC2    C213899   0.830   4.221  14.182 -0.0461 -0.4779  0.3405
    3TMC2    C313900   0.809   4.290  14.067  0.4177  0.6735 -0.0461
    3TMC2    C413901   0.686   4.057  14.081  0.0790 -0.6702  0.2102
    3TMC2    C513902   0.663   4.138  13.972  0.3726  0.2246  0.0165
    3TMC2    C613903   0.734   4.253  13.959  0.9803 -0.1831 -0.4991
    3TMC2     C13904   0.807   3.996  14.282  0.3549  0.1142  0.8507
    3TMC2     O13905   0.788   3.879  14.256 -0.5290 -0.0951  0.2500
    3TMC2     H13906   0.905   4.256  14.252  0.6962  1.4576 -1.4328
    3TMC2    H113907   0.631   3.964  14.090 -1.1976  0.2186  1.5894
    3TMC2    H213908   0.724   4.327  13.880 -1.7581  0.6642  0.6391
    3TMC2    C713909   0.533   4.122  13.911 -0.7406  0.1622  0.1593
    3TMC2    C813910   0.898   4.403  14.056  0.0498  0.6003  0.0073
    3TMC2    O113911   0.450   4.039  13.948 -0.0033  0.5137 -0.2799
    3TMC2    O213912   0.868   4.511  14.006 -0.4202  0.1420  0.4910
    3TMC2    O513913   1.021   4.354  14.062 -0.0976  0.3062 -0.3778
    3TMC2    H513914   1.022   4.258  14.084  0.9593 -0.1167 -2.2761
    4TMC2    C113915   0.063   0.032  13.314 -0.5159 -0.3760 -0.0556
    4TMC2    C213916   0.146   0.136  13.281  0.5468  0.1212 -0.3170
    4TMC2    C313917   0.279   0.106  13.268  0.4957 -0.6085 -0.8218
    4TMC2    C413918   0.107   4.640  13.350  0.5627 -0.2040  0.4034
    4TMC2    C513919   0.242   4.620  13.334  1.0413  0.0584  0.0970
    4TMC2    C613920   0.329   4.716  13.284 -0.0940 -0.6616  0.7109
    4TMC2     C13921   4.663   0.069  13.333 -0.2227 -0.2844 -0.5908
    4TMC2     O13922   4.634   0.178  13.284  0.0875 -0.8349 -0.4996
    4TMC2     H13923   0.111   0.231  13.242  1.2047  0.5550  0.1523
    4TMC2    H113924   0.041   4.559  13.378 -0.2371  0.2525 -0.1339
    4TMC2    H213925   0.436   4.704  13.291 -0.2913 -2.8301  0.0440
    4TMC2    C713926   0.304   4.544  13.446  0.5144  1.0628 -0.3461
    4TMC2    C813927   0.338   0.183  13.166 -0.0894  0.3772  0.0077
    4TMC2    O113928   0.411   4.592  13.490  0.3236 -0.0741 -0.8613
    4TMC2    O213929   0.277   0.236  13.074 -0.2350 -0.2742  0.0750
    4TMC2    O513930   0.444   0.227  13.232 -0.5431  0.1339 -0.0838
    4TMC2    H513931   0.449   0.182  13.318 -2.7700 -1.7713 -0.9614
    5MPD2     C13932   4.169   4.732  13.466  0.5285  0.9652 -0.3865
    5MPD2    C113933   4.222   0.069  13.355 -0.3608  0.2239  0.1576
    5MPD2    C213934   4.359   0.059  13.329 -0.2982  0.0504  0.7755
    5MPD2    C313935   4.444   4.722  13.414  0.5140  0.3663 -0.0928
    5MPD2    C413936   4.391   4.648  13.516 -0.4556  0.3215  0.3585
    5MPD2    C513937   4.257   4.661  13.541 -0.4784 -0.7263  0.1905
    5MPD2     H13938   4.409   0.131  13.265 -1.6462 -0.6900 -1.0887
    5MPD2    H113939   4.453   4.599  13.589 -1.5300 -2.4071 -0.5758
    5MPD2    H213940   4.072   0.019  13.507 -0.3546 -1.4195 -1.0823
    5MPD2    H313941   4.215   4.602  13.623  1.3575 -0.7076  1.1546
    5MPD2     N13942   4.586   4.717  13.397 -0.1060 -0.6721  0.3700
    5MPD2    H513943   4.635   4.650  13.454  0.9694 -0.2953 -0.1173
    5MPD2    N113944   4.140   0.157  13.284  0.0801  0.2021  0.6693
    5MPD2    H713945   4.042   0.161  13.312 -0.7152 -0.5037 -1.9904
    6MPD1     C13946   4.264   2.068  13.224 -0.1576  0.6218  0.4680
    6MPD1    C113947   4.369   1.986  13.182 -0.8466 -0.2223 -0.0662
    6MPD1    C213948   4.354   1.851  13.184  0.5781 -0.1975 -1.0754
    6MPD1    C313949   4.231   1.791  13.206 -0.1512 -0.1785  0.0997
    6MPD1    C413950   4.129   1.871  13.256  0.3530 -0.1002 -0.0317
    6MPD1    C513951   4.147   2.011  13.261 -1.2199  0.3067  0.6276
    6MPD1     H13952   4.429   1.780  13.151 -0.4541 -1.1772 -1.3212
    6MPD1    H113953   4.030   1.827  13.256  0.4653 -0.3516  0.2145
    6MPD1    H213954   4.277   2.175  13.229  0.7122  0.6571 -2.3295
    6MPD1    H313955   4.058   2.070  13.277 -2.3112 -1.1957  0.0825
    6MPD1     N13956   4.209   1.655  13.184 -0.0662 -0.4199 -0.1445
    6MPD1    H513957   4.125   1.617  13.227 -0.6297  1.3884  0.3402
    6MPD1    N113958   4.497   2.049  13.163 -0.3687  0.6139  0.5204
    6MPD1    H613959   4.558   1.995  13.102 -2.7767  0.7587 -1.9572
    6MPD1    H713960   4.482   2.143  13.130  1.8265  1.0317  0.7023
    7MPD2     C13961   4.085   0.941  13.537 -0.5023  0.9296 -0.6915
    7MPD2    C113962   4.080   0.950  13.398 -0.5834  0.6595 -0.5922
    7MPD2    C213963   4.041   0.834  13.321  0.1747  0.1820 -0.3256
    7MPD2    C313964   4.002   0.719  13.391 -0.2572 -0.1488 -0.1688
    7MPD2    C413965   4.001   0.715  13.533 -0.3484  0.1016 -0.4070
    7MPD2    C513966   4.043   0.831  13.596  0.3973  0.2144 -0.1474
    7MPD2     H13967   4.051   0.840  13.213  0.7705  0.3037 -0.2605
    7MPD2    H113968   3.954   0.631  13.584 -3.6645  3.1449  1.5239
    7MPD2    H213969   4.121   1.024  13.597  0.9402  0.8494 -1.4399
    7MPD2    H313970   4.060   0.830  13.703  1.0175  0.5564 -0.2396
    7MPD2     N13971   3.960   0.607  13.317 -0.4626 -0.6417 -0.1356
    7MPD2    H513972   3.943   0.520  13.366 -1.3159 -1.5363 -2.0007
    7MPD2    N113973   4.125   1.057  13.319  0.6690 -0.2543  0.5705
    7MPD2    H713974   4.119   1.045  13.218  0.4137  0.9708  0.4354
    8TMC3    C113975   3.921   0.477  13.126 -0.0428 -0.2367  0.1091
    8TMC3    C213976   3.999   0.385  13.193  0.0279 -0.4290 -0.0494
    8TMC3    C313977   4.054   0.293  13.108 -0.5300 -0.2879 -0.7251
    8TMC3    C413978   3.895   0.476  12.993 -0.0392  0.5818 -1.0221
    8TMC3    C513979   3.987   0.412  12.917  0.3414 -0.5473  0.4865
    8TMC3    C613980   4.061   0.313  12.972 -0.2487 -0.8138  0.3026
    8TMC3     C13981   3.923   0.611  13.183  0.0999  0.6497  0.6484
    8TMC3     O13982   3.916   0.693  13.093 -0.0727 -0.3030  0.1630
    8TMC3     H13983   4.024   0.372  13.298 -0.7994 -1.2898  0.0459
    8TMC3    H113984   3.826   0.546  12.947 -1.0302 -0.0661 -0.5379
    8TMC3    H213985   4.134   0.263  12.910  1.1537 -0.0023  1.2917
    8TMC3    C713986   4.055   0.487  12.813  0.2349 -0.4501 -0.9062
    8TMC3    C813987   4.157   0.203  13.161  0.2178 -0.3587 -0.2238
    8TMC3    O113988   4.146   0.433  12.757 -0.1296  0.1760 -0.2325
    8TMC3    O213989   4.237   0.156  13.081  0.0968  1.0246  0.6089
    9TMC3    C113990   4.239   1.442  13.113 -0.7352 -0.0887  0.3290
    9TMC3    C213991   4.272   1.371  13.004 -0.2377 -0.5880 -0.3798
    9TMC3    C313992   4.294   1.239  13.024 -0.3256  0.2323  0.5671
    9TMC3    C413993   4.219   1.384  13.240 -0.4212 -0.4115 -0.9345
    9TMC3    C513994   4.233   1.252  13.247  0.0064 -0.1217  0.8473
    9TMC3    C613995   4.270   1.174  13.140  0.0850  0.1057 -0.5813
    9TMC3     C13996   4.286   1.572  13.108  0.7440  0.1162  0.0392
    9TMC3     O13997   4.384   1.597  13.038 -0.6045  0.2595  0.2798
    9TMC3     H13998   4.315   1.420  12.918  0.3124  0.5510  0.5297
    9TMC3    H113999   4.190   1.446  13.324  0.5358  0.4068 -1.2070
    9TMC3    H214000   4.300   1.070  13.148 -0.7099  0.0043  0.9777
    9TMC3    C714001   4.179   1.181  13.361  0.0425 -0.0908 -0.0862
    9TMC3    C814002   4.304   1.164  12.896 -0.1274  0.4387 -0.4810
    9TMC3    O114003   4.163   1.237  13.467 -0.2475 -0.2735 -0.6046
    9TMC3    O214004   4.378   1.203  12.809  0.5886 -0.1486  0.3514
   10MPD2     C14005   4.224   0.703  12.686 -0.5313  0.5318  0.5195
   10MPD2    C114006   4.140   0.714  12.795 -0.3097  0.0195 -0.4149
   10MPD2    C214007   4.136   0.839  12.857 -0.0888  0.5080  0.3491
   10MPD2    C314008   4.230   0.938  12.830 -0.1840  0.7225  0.2147
   10MPD2    C414009   4.317   0.918  12.726  0.2290  0.3627  0.2438
   10MPD2    C514010   4.313   0.800  12.657  0.3020 -0.4953  0.1337
   10MPD2     H14011   4.061   0.845  12.936  1.1621  2.3628  1.4040
   10MPD2    H114012   4.392   0.992  12.699  0.9725 -0.6928 -0.5877
   10MPD2    H214013   4.224   0.619  12.617 -1.0255 -0.0669  1.2522
   10MPD2    H314014   4.378   0.798  12.570 -2.0164 -0.3761 -1.6325
   10MPD2     N14015   4.227   1.052  12.907  0.1574 -0.5775  0.3072
   10MPD2    H514016   4.162   1.052  12.985  1.1617 -2.3885  1.1593
   10MPD2    N114017   4.050   0.620  12.844 -0.2446  0.2628 -0.4874
   10MPD2    H714018   3.996   0.641  12.927  0.2195  2.0199 -0.6494
   11MPD2     C14019   0.275   4.139  13.762 -0.3366 -0.1714  0.0007
   11MPD2    C114020   0.383   4.230  13.749 -0.4425  0.3642 -0.6438
   11MPD2    C214021   0.381   4.322  13.645 -0.3346 -0.2872  0.5658
   11MPD2    C314022   0.262   4.336  13.573  0.4091 -0.6284  0.2249
   11MPD2    C414023   0.155   4.252  13.595 -0.5267  0.6527 -0.6170
   11MPD2    C514024   0.165   4.158  13.689 -0.3024 -0.1639 -0.2787
   11MPD2     H14025   0.474   4.375  13.626 -0.7102  0.1721  0.0016
   11MPD2    H114026   0.067   4.243  13.532 -0.0642  0.3134 -1.2201
   11MPD2    H214027   0.258   4.077  13.850 -0.9173  0.9874  0.7186
   11MPD2    H314028   0.075   4.099  13.701  0.0707 -0.6081  0.3631
   11MPD2     N14029   0.233   4.432  13.477  0.1604  0.2523 -0.0628
   11MPD2    H514030   0.144   4.419  13.430 -1.0515 -1.0516  2.5947
   11MPD2    N114031   0.509   4.221  13.820  0.6091  0.6839 -0.5366
   11MPD2    H714032   0.580   4.291  13.802  0.8230  0.3357 -1.0340
    1MPD1     C14033   3.242   2.081  17.215  0.1514 -0.2221  0.3061
    1MPD1    C114034   3.376   2.117  17.210 -0.1125  0.1959 -0.1325
    1MPD1    C214035   3.451   2.048  17.115  0.1638 -0.7935 -0.1355
    1MPD1    C314036   3.397   1.938  17.046  1.3070  0.0445  0.2307
    1MPD1    C414037   3.266   1.901  17.054  0.1413 -0.1265 -0.1451
    1MPD1    C514038   3.191   1.981  17.137 -0.4726 -0.1846  0.2462
    1MPD1     H14039   3.554   2.071  17.089 -0.0140 -0.2898 -0.3975
    1MPD1    H114040   3.222   1.830  16.986 -0.2326  1.1013 -1.1922
    1MPD1    H214041   3.179   2.131  17.288  0.3726  1.6849 -0.8314
    1MPD1    H314042   3.084   1.982  17.151 -0.5018  0.3055 -0.0083
    1MPD1     N14043   3.470   1.868  16.944 -0.0813  0.4584  0.1494
    1MPD1    H514044   3.425   1.797  16.887 -1.5044  1.2138  0.3172
    1MPD1    N114045   3.407   2.240  17.266  0.6751 -0.5360  0.7660
    1MPD1    H614046   3.345   2.270  17.341 -0.3842  0.5369 -0.5398
    1MPD1    H714047   3.502   2.248  17.303  0.2551  2.3677  1.2341
    2MPD1     C14048   4.313   1.278  16.557 -0.1525 -0.2765 -0.1322
    2MPD1    C114049   4.204   1.263  16.474  0.1155 -0.4053  0.2043
    2MPD1    C214050   4.093   1.345  16.497 -0.2940  0.0268 -0.0532
    2MPD1    C314051   4.096   1.440  16.601  0.2134  0.5697 -0.1815
    2MPD1    C414052   4.196   1.445  16.686  0.0956  0.9880  0.7650
    2MPD1    C514053   4.312   1.369  16.654  0.0970 -0.8176  0.8651
    2MPD1     H14054   4.003   1.337  16.439  1.7103  1.3364 -3.3322
    2MPD1    H114055   4.197   1.518  16.766 -0.4050 -0.6590  2.2595
    2MPD1    H214056   4.396   1.209  16.560  1.1395  1.1950 -2.8187
    2MPD1    H314057   4.401   1.384  16.715 -1.0251 -0.3807  2.3886
    2MPD1     N14058   3.975   1.514  16.623  0.2888 -0.2416 -0.4690
    2MPD1    H514059   3.902   1.496  16.555  0.6356 -1.4716 -0.5226
    2MPD1    N114060   4.193   1.153  16.384  0.1435 -0.3658  0.2956
    2MPD1    H614061   4.132   1.166  16.303  0.3100 -0.6043  0.1331
    2MPD1    H714062   4.281   1.107  16.364 -0.1271 -0.4249 -0.7587
    3TMC3    C114063   3.812   1.652  16.709 -0.0651  1.0635  0.2484
    3TMC3    C214064   3.738   1.640  16.598 -0.1766 -0.2094  0.0471
    3TMC3    C314065   3.623   1.714  16.589  0.6190 -0.2376 -0.5685
    3TMC3    C414066   3.761   1.722  16.816  0.6218 -0.6325  0.5923
    3TMC3    C514067   3.634   1.777  16.814 -0.3874 -0.2931 -0.7024
    3TMC3    C614068   3.567   1.771  16.698 -0.0979  0.0437  0.2631
    3TMC3     C14069   3.944   1.606  16.721  0.0579  0.4025 -0.4931
    3TMC3     O14070   4.011   1.651  16.808  0.4742  0.0717 -0.3410
    3TMC3     H14071   3.789   1.610  16.507 -1.2251 -3.1610  0.4087
    3TMC3    H114072   3.817   1.728  16.909 -1.0999 -0.3815  1.6144
    3TMC3    H214073   3.470   1.817  16.684  0.4903  1.5961  1.2536
    3TMC3    C714074   3.603   1.856  16.930  0.1677 -0.0721  0.0969
    3TMC3    C814075   3.542   1.709  16.469  0.4091  0.0534 -0.4944
    3TMC3    O114076   3.695   1.890  17.006 -0.1153  0.2079  0.0311
    3TMC3    O214077   3.459   1.801  16.453  0.0799 -0.5966  0.0597
    4MPD1     C14078   3.385   1.519  16.015  0.1330 -0.0830 -0.5886
    4MPD1    C114079   3.507   1.459  16.044  0.3894  0.0661 -0.5511
    4MPD1    C214080   3.565   1.486  16.173  0.8669 -0.2628 -0.4349
    4MPD1    C314081   3.507   1.571  16.263 -0.1808 -0.0461 -0.7030
    4MPD1    C414082   3.384   1.626  16.225  0.9136  0.0136 -0.1627
    4MPD1    C514083   3.323   1.599  16.103 -0.0733  0.0888  0.3007
    4MPD1     H14084   3.659   1.441  16.204  0.6982 -0.8151 -0.7266
    4MPD1    H114085   3.328   1.686  16.295 -0.3039 -1.3507  0.0436
    4MPD1    H214086   3.336   1.488  15.924 -2.2748  0.6201  0.4644
    4MPD1    H314087   3.226   1.644  16.085 -0.3044 -0.6781 -0.3444
    4MPD1     N14088   3.574   1.605  16.384  0.4060 -0.1320 -0.6276
    4MPD1    H514089   3.651   1.543  16.407 -0.9609 -1.8664 -0.7908
    4MPD1    N114090   3.574   1.388  15.939  0.1197 -0.0099 -0.9411
    4MPD1    H614091   3.504   1.342  15.881 -0.6070 -0.0589 -0.0320
    4MPD1    H714092   3.648   1.323  15.965 -0.4329  0.9081  2.9259
    1TCq1    O114093   4.309   0.494  11.674  1.0013 -0.1296  0.3964
    1TCq1    C114094   4.323   0.460  11.544  0.2679  0.2240  0.1696
    1TCq1    O214095   4.416   0.407  11.487  0.2448  0.5650 -0.2037
    1TCq1    C214096   4.201   0.485  11.471  0.1827 -0.3214 -0.1096
    1TCq1    C314097   4.182   0.397  11.362 -0.0955 -0.2803  0.0611
    1TCq1    C414098   4.073   0.419  11.287 -0.3792  0.1471 -0.5603
    1TCq1    C514099   3.971   0.498  11.325 -0.2726  0.0909  0.5183
    1TCq1    C614100   3.999   0.589  11.425  0.2156 -0.3922  0.2471
    1TCq1    C714101   4.107   0.577  11.508  0.1415 -0.2620  0.3044
    1TCq1    C814102   3.890   0.671  11.479 -0.1073 -0.1503  0.5457
    1TCq1    O414103   3.798   0.691  11.399  0.1515 -0.2418  0.2491
    1TCq1    C914104   4.031   0.319  11.192  0.0194 -0.0562 -0.1509
    1TCq1    O514105   3.907   0.294  11.187  0.3892  0.5770  0.0863
    1TCq1    O614106   4.124   0.264  11.125 -0.0631 -0.7898  0.1677
    1TCq1    H114107   4.216   0.508  11.701  1.0318  0.4676  0.1782
    1TCq1    H214108   4.262   0.335  11.324  0.2892  0.5608 -0.5060
    1TCq1    H314109   3.873   0.495  11.278 -0.3330  0.4925  0.6155
    1TCq1    H414110   4.139   0.656  11.575  1.7501  0.3959 -1.2358
    2MPD1     C14111   3.647   0.991  11.800  0.3467  0.6583  0.1769
    2MPD1    C114112   3.742   0.925  11.877 -0.0092  0.2474  0.1733
    2MPD1    C214113   3.823   0.824  11.821  0.5276 -0.6087  0.1404
    2MPD1    C314114   3.828   0.803  11.682  0.2105  0.3825 -0.5587
    2MPD1    C414115   3.753   0.890  11.607  0.7796  0.2318  0.3574
    2MPD1    C514116   3.657   0.974  11.662  0.3878  0.6345 -0.0235
    2MPD1     H14117   3.896   0.772  11.882  1.9141 -0.8240 -1.6956
    2MPD1    H114118   3.749   0.889  11.499  0.4156  0.8778  0.3627
    2MPD1    H214119   3.565   1.051  11.838 -0.4776  0.6166 -1.5057
    2MPD1    H314120   3.588   1.024  11.594  0.4011  1.0667  0.2828
    2MPD1     N14121   3.900   0.706  11.614 -0.4115 -0.5946  0.8895
    2MPD1    H514122   3.976   0.654  11.656  0.7094  0.5116  0.2153
    2MPD1    N114123   3.719   0.921  12.013  0.0166 -0.2807  0.1912
    2MPD1    H614124   3.692   1.016  12.041 -1.0340 -0.7243  0.6787
    2MPD1    H714125   3.801   0.899  12.069  0.1422 -1.4408 -0.4499
    1TMC1    C114126   1.159   2.775   0.814 -0.4128  0.6301 -0.4451
    1TMC1    C214127   1.083   2.874   0.869  0.7381 -0.3906 -0.3989
    1TMC1    C314128   1.037   2.857   0.995  0.3250  0.7043 -0.2608
    1TMC1    C414129   1.186   2.660   0.880 -0.2154  0.0399 -0.0940
    1TMC1    C514130   1.128   2.645   1.005  0.8978 -0.3012 -0.0567
    1TMC1    C614131   1.060   2.747   1.065 -0.3505 -0.4211 -0.1626
    1TMC1     C14132   1.201   2.796   0.675 -0.3029 -0.6741  0.3697
    1TMC1     O14133   1.128   2.870   0.612  0.2115  0.4998 -0.3261
    1TMC1     H14134   1.058   2.964   0.815  1.5305 -0.7594 -1.3769
    1TMC1    H114135   1.247   2.584   0.831  1.1521  0.5990  0.7232
    1TMC1    H214136   1.011   2.719   1.158 -0.7157 -2.2154 -0.8923
    1TMC1    C714137   1.106   2.518   1.071  0.2956  0.4921  0.4593
    1TMC1    C814138   0.952   2.957   1.056  0.0079 -0.1613 -0.0179
    1TMC1    O114139   1.123   2.499   1.190  0.2848 -0.5832 -0.4610
    1TMC1    O214140   0.844   2.941   1.113 -0.1218 -0.3455  0.0786
    1TMC1    O314141   1.152   2.432   0.980 -0.1132 -0.0330  0.1326
    1TMC1    H314142   1.117   2.465   0.895  2.7767  0.3494 -0.8781
    1TMC1    O514143   1.011   3.073   1.029 -0.2836 -0.5289 -0.0680
    1TMC1    H514144   1.104   3.069   0.999  0.0449  2.0596  0.6447
    2MPD1     C14145   1.533   2.757   0.278  0.1388  0.0241 -0.3673
    2MPD1    C114146   1.585   2.693   0.389  0.0670 -0.1467 -0.7615
    2MPD1    C214147   1.522   2.705   0.509  0.3084 -0.0109  0.0274
    2MPD1    C314148   1.393   2.753   0.525 -0.2808  0.9858  0.0898
    2MPD1    C414149   1.338   2.803   0.410 -0.6155  0.2746 -0.2660
    2MPD1    C514150   1.400   2.798   0.288 -0.1216  0.5624  1.0813
    2MPD1     H14151   1.581   2.652   0.583 -1.2468 -0.7666  0.7204
    2MPD1    H114152   1.237   2.843   0.407 -1.0678 -0.9219 -1.4563
    2MPD1    H214153   1.579   2.765   0.180 -1.4249 -0.1487 -1.1136
    2MPD1    H314154   1.357   2.849   0.202 -1.7049  0.1830  1.6470
    2MPD1     N14155   1.326   2.745   0.648  0.4007 -0.1622 -0.6571
    2MPD1    H514156   1.376   2.691   0.719  0.9735  4.4591  2.4366
    2MPD1    N114157   1.714   2.652   0.380  0.1362 -0.3016 -0.6982
    2MPD1    H614158   1.729   2.619   0.284  0.1491 -0.0097 -0.7977
    2MPD1    H714159   1.750   2.579   0.441 -0.4477  0.8770  1.0429
    1MPD1     C14160   1.482   1.052  10.964  0.4017 -0.0401  0.0833
    1MPD1    C114161   1.465   0.921  10.929  0.0740  0.0705 -0.2511
    1MPD1    C214162   1.457   0.824  11.031 -0.2271  0.1240  0.4365
    1MPD1    C314163   1.456   0.866  11.165 -0.4136  0.1372 -0.1572
    1MPD1    C414164   1.456   0.996  11.195 -0.9547 -0.4335  0.7653
    1MPD1    C514165   1.483   1.087  11.093  0.0877 -0.5597  0.5114
    1MPD1     H14166   1.447   0.719  11.006 -0.0422  0.2534 -0.2000
    1MPD1    H114167   1.457   1.030  11.298 -1.7805 -0.7925  0.8904
    1MPD1    H214168   1.478   1.130  10.889 -2.7980  0.1998  0.5051
    1MPD1    H314169   1.499   1.189  11.128  0.5934 -0.6929  0.6659
    1MPD1     N14170   1.469   0.761  11.256  0.7488  0.4102 -0.5065
    1MPD1    H514171   1.484   0.666  11.221 -0.1561  0.2620 -0.4923
    1MPD1    N114172   1.430   0.886  10.798  0.2449  0.4751 -0.4049
    1MPD1    H614173   1.463   0.794  10.770  1.1011  0.0892  1.8484
    1MPD1    H714174   1.468   0.948  10.727  2.1279 -1.1907 -0.8558
    2MPD1     C14175   0.570   0.756  11.279 -0.8472 -0.2095  0.2325
    2MPD1    C114176   0.595   0.887  11.244  0.1520 -0.2256  0.3243
    2MPD1    C214177   0.636   0.911  11.115  0.2585 -0.2494  0.6679
    2MPD1    C314178   0.688   0.807  11.043 -0.6996 -0.0454 -0.8425
    2MPD1    C414179   0.681   0.679  11.090 -1.2245  0.1704 -0.2470
    2MPD1    C514180   0.631   0.653  11.210 -1.0724  0.5741 -0.5053
    2MPD1     H14181   0.634   1.013  11.078  2.5020 -0.4369  0.0225
    2MPD1    H114182   0.703   0.599  11.021  1.8676  1.2808 -0.5618
    2MPD1    H214183   0.516   0.738  11.372 -0.2952 -3.4988 -0.0932
    2MPD1    H314184   0.623   0.553  11.251  0.9566  0.2568 -0.9103
    2MPD1     N14185   0.729   0.813  10.909 -0.6617 -0.1390 -0.2661
    2MPD1    H514186   0.743   0.724  10.863 -0.4619 -1.1351  1.7025
    2MPD1    N114187   0.525   0.980  11.318  0.1312  0.3353  0.4358
    2MPD1    H614188   0.583   1.063  11.328  1.1390 -0.2988 -0.0800
    2MPD1    H714189   0.514   0.945  11.413 -0.8871 -0.6143 -0.0328
    3MPD1     C14190   0.467   0.253  10.357  0.9407  0.2752  0.5261
    3MPD1    C114191   0.492   0.245  10.491  0.6225 -0.9847 -0.3944
    3MPD1    C214192   0.580   0.346  10.543  0.1377 -0.3133  0.4450
    3MPD1    C314193   0.637   0.450  10.460  0.6339  0.7439 -0.6975
    3MPD1    C414194   0.601   0.452  10.329 -0.6008  0.0714 -0.3899
    3MPD1    C514195   0.530   0.346  10.279 -0.1881 -0.2668 -0.3743
    3MPD1     H14196   0.584   0.364  10.650 -1.2296  2.1614  0.1072
    3MPD1    H114197   0.644   0.524  10.260 -0.0636 -1.3357 -1.5230
    3MPD1    H214198   0.404   0.180  10.308  0.0194  0.9543  0.6949
    3MPD1    H314199   0.496   0.354  10.177 -1.1878 -0.7588 -0.0792
    3MPD1     N14200   0.724   0.550  10.516  0.3894  0.0990 -0.9016
    3MPD1    H514201   0.747   0.534  10.614 -1.7461 -2.6668 -0.8194
    3MPD1    N114202   0.415   0.164  10.580 -0.2227  0.2181  0.6821
    3MPD1    H614203   0.466   0.139  10.665 -2.1515 -1.6284  1.2757
    3MPD1    H714204   0.377   0.081  10.536 -0.0707  0.9001 -0.7424
    4MPD2     C14205   1.724   1.262  11.458 -0.4892  0.0099  0.6752
    4MPD2    C114206   1.777   1.152  11.389  0.1532  0.6926  0.4398
    4MPD2    C214207   1.801   1.156  11.255  0.0565 -0.7008  0.1821
    4MPD2    C314208   1.781   1.277  11.186  0.6408 -0.3320  0.0617
    4MPD2    C414209   1.738   1.390  11.254  0.1614 -0.3616 -0.7136
    4MPD2    C514210   1.716   1.381  11.388  0.3457 -0.4640 -0.3453
    4MPD2     H14211   1.830   1.074  11.190 -0.3500 -0.6814 -0.0246
    4MPD2    H114212   1.718   1.477  11.194  1.5121  0.6182  0.2665
    4MPD2    H214213   1.686   1.264  11.559 -2.7313 -3.2471 -0.1028
    4MPD2    H314214   1.682   1.464  11.449  0.0087  0.9088 -2.4151
    4MPD2     N14215   1.792   1.267  11.048 -0.0358  0.0702 -0.6735
    4MPD2    H514216   1.834   1.185  11.006  0.5738 -1.2385  2.5262
    4MPD2    N114217   1.782   1.022  11.451 -0.5052  0.1598  0.2980
    4MPD2    H714218   1.824   0.954  11.388 -1.7827 -0.0005 -0.3924
    5TMC3    C114219   1.734   0.833  11.570  0.0958  0.3351 -0.4766
    5TMC3    C214220   1.608   0.792  11.568  0.3685  0.0777  0.3511
    5TMC3    C314221   1.566   0.708  11.470  0.6732 -0.2050 -0.4834
    5TMC3    C414222   1.818   0.778  11.484 -0.3724 -0.2571 -0.1023
    5TMC3    C514223   1.784   0.682  11.393 -0.4175 -0.7240 -0.3704
    5TMC3    C614224   1.650   0.635  11.393 -0.0617  0.1460  0.4305
    5TMC3     C14225   1.727   0.977  11.566  0.4313 -0.0165  0.9411
    5TMC3     O14226   1.684   1.044  11.660 -0.1075  0.1413 -0.4472
    5TMC3     H14227   1.537   0.856  11.620 -0.1652 -0.3598  0.1610
    5TMC3    H114228   1.920   0.814  11.483 -0.8825  1.1027 -2.5536
    5TMC3    H214229   1.608   0.575  11.312  1.5592 -2.2321  1.3305
    5TMC3    C714230   1.839   0.711  11.266  0.3658  0.8508  0.5722
    5TMC3    C814231   1.455   0.779  11.396 -0.0430  0.0788  0.2695
    5TMC3    O114232   1.912   0.807  11.263  0.3079 -0.4940  0.4599
    5TMC3    O214233   1.385   0.862  11.455  0.7546  0.3741  0.6640
    6TMC3    C114234   0.798   0.915  10.699 -0.4553  0.1962 -0.7235
    6TMC3    C214235   0.765   0.796  10.641 -0.0475  0.4885  0.4638
    6TMC3    C314236   0.826   0.755  10.527 -0.4527  0.0329  0.7911
    6TMC3    C414237   0.897   0.996  10.649  1.1390  0.2949 -0.6589
    6TMC3    C514238   0.969   0.943  10.544 -0.6597 -0.5884 -0.2353
    6TMC3    C614239   0.936   0.826  10.482 -0.0436  0.3590 -0.2629
    6TMC3     C14240   0.762   0.934  10.844 -0.2831  0.4218 -0.4606
    6TMC3     O14241   0.763   1.048  10.891 -0.7672  0.1778  0.4433
    6TMC3     H14242   0.686   0.735  10.682 -0.2714  1.0036  0.8004
    6TMC3    H114243   0.940   1.081  10.699  0.7896 -0.2102  0.4980
    6TMC3    H214244   0.989   0.792  10.395  1.8495 -2.0624  1.8182
    6TMC3    C714245   1.091   1.008  10.504  0.8452 -0.6275 -0.0477
    6TMC3    C814246   0.775   0.654  10.445  0.4355 -0.9665  0.2627
    6TMC3    O114247   1.138   1.082  10.583  0.7274  0.2048 -0.2192
    6TMC3    O214248   0.808   0.665  10.329  0.3839  0.4687  0.1042
    7MPD2     C14249   1.779   0.667  10.751 -0.0674 -0.8629  0.2368
    7MPD2    C114250   1.830   0.775  10.819 -0.5169  0.4684  0.4159
    7MPD2    C214251   1.842   0.761  10.959  0.0245 -0.0952 -0.0381
    7MPD2    C314252   1.791   0.650  11.028 -0.3254 -0.0165 -0.0185
    7MPD2    C414253   1.734   0.551  10.960 -0.5462  1.0335  0.2178
    7MPD2    C514254   1.734   0.565  10.825 -0.0252  0.0265  0.0607
    7MPD2     H14255   1.875   0.846  11.017 -1.5112  0.4064  0.0967
    7MPD2    H114256   1.679   0.473  11.011  0.4678 -0.5905 -1.1853
    7MPD2    H214257   1.758   0.662  10.645  1.6054  3.0960 -0.2925
    7MPD2    H314258   1.681   0.493  10.764 -1.8665  2.1482 -0.8695
    7MPD2     N14259   1.785   0.633  11.170  0.1433 -0.3313 -0.7205
    7MPD2    H514260   1.737   0.548  11.199  0.7333 -0.2968  0.3649
    7MPD2    N114261   1.849   0.899  10.750 -0.5132  0.8122  0.0658
    7MPD2    H714262   1.816   0.898  10.655 -2.0222 -1.8375  0.6085
    8TMC3    C114263   1.902   1.134  10.727  0.0012 -0.1612  0.5869
    8TMC3    C214264   1.799   1.127  10.632 -0.9235  0.5997 -0.0875
    8TMC3    C314265   1.696   1.215  10.639 -0.1822 -0.1105 -0.0472
    8TMC3    C414266   1.907   1.240  10.809 -0.1642  0.4228  0.4874
    8TMC3    C514267   1.794   1.324  10.817 -0.3016  0.5932  0.0682
    8TMC3    C614268   1.691   1.309  10.731  0.2804 -0.0718  0.1552
    8TMC3     C14269   1.912   1.014  10.805  0.2994 -0.2875  0.7110
    8TMC3     O14270   1.956   1.030  10.919  0.0971  0.2964  0.2288
    8TMC3     H14271   1.795   1.049  10.556 -1.0519  0.5007  0.0219
    8TMC3    H114272   1.987   1.246  10.882 -0.5161  1.0261  0.8279
    8TMC3    H214273   1.601   1.368  10.739 -0.4939 -1.3825  1.0061
    8TMC3    C714274   1.748   1.361  10.955 -0.2283 -1.0247  0.3053
    8TMC3    C814275   1.576   1.173  10.575 -0.0978 -0.3724 -0.1888
    8TMC3    O114276   1.683   1.465  10.964  0.0210  0.2638  0.0341
    8TMC3    O214277   1.481   1.175  10.649  0.5006 -0.2003  0.5320
    9MPD2     C14278   1.501   1.111  10.222 -0.2378 -0.2311 -0.3390
    9MPD2    C114279   1.478   1.122  10.359  0.1705  0.0975  0.2899
    9MPD2    C214280   1.354   1.084  10.407 -0.1882  0.1697 -0.4042
    9MPD2    C314281   1.251   1.044  10.320 -0.3787  0.6080 -0.2762
    9MPD2    C414282   1.270   1.055  10.186 -0.0961  0.1715 -0.0957
    9MPD2    C514283   1.400   1.061  10.134  0.7373  0.1707 -0.2250
    9MPD2     H14284   1.340   1.084  10.515 -0.1862 -1.0468 -0.4026
    9MPD2    H114285   1.189   1.027  10.119 -0.0956  1.9275 -0.8147
    9MPD2    H214286   1.596   1.144  10.180 -0.4410 -0.5133 -1.0152
    9MPD2    H314287   1.424   1.069  10.028  1.2797 -0.1893 -0.1313
    9MPD2     N14288   1.128   0.993  10.371  0.3135 -0.3097  0.1836
    9MPD2    H514289   1.062   0.953  10.305 -1.2179  2.1127  0.2289
    9MPD2    N114290   1.589   1.153  10.441  0.7671 -0.6619 -0.6130
    9MPD2    H714291   1.682   1.161  10.401  0.4317  1.0340 -1.0294
    1MPD1     C14292   4.703   4.500  15.822  0.0900 -0.4498 -0.2096
    1MPD1    C114293   4.689   4.635  15.791 -0.6817  0.4311  0.0674
    1MPD1    C214294   4.728   4.684  15.671 -0.0379 -0.7678  0.5989
    1MPD1    C314295   0.064   4.603  15.588  0.4311 -0.8872  0.6962
    1MPD1    C414296   0.095   4.475  15.623 -0.1363 -0.0717 -0.2378
    1MPD1    C514297   0.044   4.425  15.740  0.4864  0.0594 -0.0947
    1MPD1     H14298   4.691   0.047  15.655 -0.3265 -0.8162  0.9680
    1MPD1    H114299   0.155   4.409  15.562  0.6538  0.7607 -0.3711
    1MPD1    H214300   4.664   4.460  15.915 -2.4021  1.1768 -0.5452
    1MPD1    H314301   0.064   4.322  15.767 -1.2625  0.4074  2.5260
    1MPD1     N14302   0.110   4.648  15.464  0.1584  0.1594  0.0582
    1MPD1    H514303   0.176   4.588  15.416 -0.2362 -0.8363  0.7751
    1MPD1    N114304   4.602   4.716  15.865  0.0592 -0.6926  0.6332
    1MPD1    H614305   4.597   4.704  15.966 -0.7622  1.2594  0.8111
    1MPD1    H714306   4.612   0.079  15.854 -0.6813 -0.7747 -0.8064
    2TMC2    C114307   0.322   0.249  15.246 -0.1882 -0.2966 -0.3212
    2TMC2    C214308   0.398   0.162  15.166 -0.2748  0.5043 -0.3641
    2TMC2    C314309   0.355   0.032  15.169  0.0956 -0.1992 -0.4183
    2TMC2    C414310   0.216   0.215  15.323 -0.3368  0.2905 -0.1474
    2TMC2    C514311   0.178   0.083  15.314 -0.7622  0.1063  0.2955
    2TMC2    C614312   0.240   4.728  15.232  0.0297 -0.3744 -0.1467
    2TMC2     C14313   0.345   0.390  15.216 -0.4245 -0.0845  0.9849
    2TMC2     O14314   0.455   0.425  15.173 -0.0635  0.2979 -0.4032
    2TMC2     H14315   0.484   0.194  15.108 -1.8276  0.9001 -2.4347
    2TMC2    H114316   0.172   0.283  15.395 -2.3995  0.2040 -1.3516
    2TMC2    H214317   0.189   4.633  15.217 -2.1610  0.4859  1.8709
    2TMC2    C714318   0.082   0.038  15.412  0.3619  0.0163  0.4465
    2TMC2    C814319   0.429   4.676  15.080  0.0463 -0.8846 -0.6151
    2TMC2    O114320   4.728   0.118  15.441  0.1154  0.2003  0.1125
    2TMC2    O214321   0.511   4.714  14.998 -0.8134  0.4582 -0.0492
    2TMC2    O514322   0.466   4.574  15.161  0.6386  0.1469  0.3097
    2TMC2    H514323   0.410   4.575  15.241  0.7303 -1.0628  0.3945
    3MPD1     C14324   0.181   0.870  15.180  1.0122 -0.0790  0.3949
    3MPD1    C114325   0.067   0.793  15.175 -0.0547  0.4475  0.0803
    3MPD1    C214326   0.085   0.656  15.182 -0.1290  0.0810  0.8832
    3MPD1    C314327   0.216   0.602  15.200 -0.2350  0.2243 -0.5639
    3MPD1    C414328   0.329   0.682  15.203 -0.4762  0.2649  0.1555
    3MPD1    C514329   0.307   0.817  15.185  0.5543 -0.1311  0.0302
    3MPD1     H14330   4.736   0.592  15.196 -1.7789  2.5103  1.7480
    3MPD1    H114331   0.428   0.643  15.219 -0.4690  0.0464 -0.4014
    3MPD1    H214332   0.183   0.978  15.184 -1.2972  0.0212 -0.9745
    3MPD1    H314333   0.393   0.883  15.191  0.1212  0.5714 -1.4846
    3MPD1     N14334   0.228   0.466  15.229  0.2956  0.1382  0.5543
    3MPD1    H514335   0.144   0.409  15.233 -0.3511  1.3113  3.6034
    3MPD1    N114336   4.673   0.844  15.200 -0.4824  0.2269  0.9943
    3MPD1    H614337   4.613   0.795  15.134  0.1743 -0.8496  1.1975
    3MPD1    H714338   4.673   0.944  15.182 -3.0605  0.1705  0.6998
    1TMC1    C114339   3.964   3.735  12.865 -0.6932  0.4939 -0.0885
    1TMC1    C214340   3.901   3.678  12.977  0.3123  0.2345 -0.1765
    1TMC1    C314341   3.773   3.630  12.958  0.6909 -0.0139 -0.2103
    1TMC1    C414342   3.906   3.727  12.736 -0.0843 -0.2781 -0.1737
    1TMC1    C514343   3.778   3.676  12.728  0.0956  0.3137 -0.1567
    1TMC1    C614344   3.710   3.625  12.833  0.8250  0.2776 -0.1484
    1TMC1     C14345   4.072   3.837  12.880  0.2364 -0.1534 -0.1361
    1TMC1     O14346   4.093   3.915  12.789  0.5471  0.1611  0.0681
    1TMC1     H14347   3.929   3.704  13.079  0.3228  1.2969 -0.4512
    1TMC1    H114348   3.947   3.780  12.652  0.2059  0.2604  0.3072
    1TMC1    H214349   3.613   3.577  12.827  0.7174  0.3757  0.7385
    1TMC1    C714350   3.732   3.655  12.596  0.8149 -0.6057  0.2749
    1TMC1    C814351   3.704   3.596  13.084  0.4048  0.3876 -0.2875
    1TMC1    O114352   3.757   3.739  12.507  0.1584 -0.0513 -0.0174
    1TMC1    O214353   3.759   3.565  13.190  0.0699  1.2468 -0.1938
    1TMC1    O314354   3.635   3.558  12.598  0.3082  0.1325  0.0422
    1TMC1    H314355   3.643   3.487  12.665  0.6736 -0.9584 -1.1610
    1TMC1    O514356   3.575   3.617  13.058 -0.2908  0.2643 -0.3280
    1TMC1    H514357   3.562   3.656  12.969  0.6097 -1.9380 -1.4153
    2MPD2     C14358   4.274   4.024  12.997 -0.0578  0.1988  0.1653
    2MPD2    C114359   4.240   3.901  13.050  0.3288 -0.3029 -0.1620
    2MPD2    C214360   4.294   3.856  13.167 -0.2888 -0.5758 -0.6258
    2MPD2    C314361   4.400   3.918  13.229  0.1657  0.2464  0.4172
    2MPD2    C414362   4.445   4.037  13.166  0.3892  0.0930 -0.0019
    2MPD2    C514363   4.384   4.080  13.055  0.9003  0.0443  0.4345
    2MPD2     H14364   4.264   3.763  13.214 -0.3090 -0.2657 -0.0252
    2MPD2    H114365   4.534   4.087  13.204 -1.1461  2.5610  0.3033
    2MPD2    H214366   4.234   4.065  12.905  4.6186  1.5898 -1.2867
    2MPD2    H314367   4.433   4.162  13.002  0.7539 -0.7042 -0.8729
    2MPD2     N14368   4.462   3.850  13.338  0.6031  0.1378  0.0994
    2MPD2    H514369   4.418   3.762  13.363 -0.6142  0.1095 -2.0924
    2MPD2    N114370   4.135   3.824  13.001  0.0115 -0.1337 -0.6345
    2MPD2    H714371   4.117   3.741  13.057  0.9025 -0.1067 -0.3142
    3TCq1    O114372   0.103   3.685  13.902  0.8794 -0.5323 -0.3572
    3TCq1    C114373   0.072   3.788  13.818  0.3163  0.2811  0.0655
    3TCq1    O214374   0.074   3.906  13.846 -0.0602 -0.3377  0.0903
    3TCq1    C214375   0.006   3.733  13.696  0.0731 -0.1428  0.2257
    3TCq1    C314376   4.680   3.618  13.708  0.0524  0.2475  0.2242
    3TCq1    C414377   4.573   3.590  13.625 -0.3536  0.0035  0.5468
    3TCq1    C514378   4.521   3.687  13.537 -0.0594  0.0997  0.0074
    3TCq1    C614379   4.593   3.802  13.524  0.2550  0.1537 -0.0492
    3TCq1    C714380   4.699   3.825  13.609 -0.4297  0.1295 -0.5535
    3TCq1    C814381   4.561   3.901  13.419 -1.0013 -0.3061 -0.7030
    3TCq1    O414382   4.630   4.004  13.402  0.3466 -0.6156  0.6861
    3TCq1    C914383   4.491   3.470  13.626 -0.1810  0.1271 -0.2706
    3TCq1    O514384   4.497   3.414  13.738 -0.2562  0.1989 -0.4809
    3TCq1    O614385   4.438   3.423  13.523  0.3600 -0.2645 -0.2307
    3TCq1    H114386   0.105   3.605  13.845 -1.6097  0.0997 -1.3361
    3TCq1    H214387   4.709   3.548  13.785  0.0753 -0.2980 -0.2776
    3TCq1    H314388   4.424   3.670  13.491 -0.5135  1.9819  0.2610
    3TCq1    H414389   0.013   3.920  13.600  0.8561 -0.7809 -2.6747
    1MPD2     C14390   3.580   0.158  14.193 -0.0064 -0.3443 -0.4082
    1MPD2    C114391   3.488   0.074  14.141 -0.1120  0.3301  0.8029
    1MPD2    C214392   3.478   4.692  14.210 -0.0368  0.0026  0.0432
    1MPD2    C314393   3.552   4.657  14.317 -0.5327 -0.0245 -0.1109
    1MPD2    C414394   3.648   0.003  14.360  0.3607  0.0377 -0.4115
    1MPD2    C514395   3.664   0.121  14.295  0.0162  0.4592 -0.2823
    1MPD2     H14396   3.393   4.630  14.185  1.0120 -0.6652 -1.8497
    1MPD2    H114397   3.716   4.715  14.441 -0.4513  1.2702  0.6500
    1MPD2    H214398   3.601   0.256  14.153 -1.5750 -0.1023 -0.6134
    1MPD2    H314399   3.738   0.192  14.329  1.7290 -1.8075  0.6921
    1MPD2     N14400   3.518   4.539  14.375  0.0329 -0.1694 -0.8026
    1MPD2    H514401   3.430   4.498  14.346 -0.4034 -0.2397  0.5872
    1MPD2    N114402   3.406   0.114  14.031  0.1477 -0.0588 -0.5142
    1MPD2    H714403   3.386   0.212  14.013  0.6796  0.2923  0.7881
    2TMC3    C114404   3.256   0.084  13.855 -0.1759  0.0595 -0.7403
    2TMC3    C214405   3.232   4.730  13.765  0.0928  0.0545  0.4614
    2TMC3    C314406   3.114   4.714  13.715 -0.5494 -0.4471 -0.0734
    2TMC3    C414407   3.167   0.179  13.889 -0.1287 -0.9706  0.1100
    2TMC3    C514408   3.048   0.176  13.832 -0.0531  0.0843  0.5330
    2TMC3    C614409   3.020   0.078  13.734  0.3632 -0.2880  0.7980
    2TMC3     C14410   3.339   0.024  13.953 -0.2951 -0.1673 -0.2684
    2TMC3     O14411   3.325   4.641  13.966 -0.6693 -0.2372  1.1783
    2TMC3     H14412   3.301   4.647  13.748  0.4726 -0.0361  2.3480
    2TMC3    H114413   3.173   0.244  13.975 -1.1773  2.2965 -2.2785
    2TMC3    H214414   2.920   0.050  13.703  0.5054 -1.0578  1.0248
    2TMC3    C714415   2.951   0.284  13.843  0.2486 -0.2611 -0.2150
    2TMC3    C814416   3.057   4.579  13.732 -0.7167  0.0553 -0.0170
    2TMC3    O114417   2.866   0.289  13.756 -0.0444 -0.2486  0.6684
    2TMC3    O214418   2.951   4.551  13.680 -0.8565  0.0793  0.0186
    3TCq1    O114419   2.867   1.045  14.860 -0.0966 -0.5257 -0.3827
    3TCq1    C114420   2.765   1.025  14.775  0.4797  0.3924 -0.1855
    3TCq1    O214421   2.704   1.121  14.719  0.1329 -0.9224 -0.2327
    3TCq1    C214422   2.799   0.899  14.711  0.8044  0.6916 -0.6471
    3TCq1    C314423   2.843   0.790  14.783 -0.1875 -1.1199  0.6163
    3TCq1    C414424   2.860   0.668  14.716  0.1423 -0.0302 -0.4160
    3TCq1    C514425   2.845   0.663  14.584 -0.7493  0.3587  0.0265
    3TCq1    C614426   2.795   0.767  14.517  0.7006 -0.6931  0.3606
    3TCq1    C714427   2.773   0.885  14.582 -0.1713  0.3708 -1.0188
    3TCq1    C814428   2.748   0.758  14.377 -0.0975  0.6387  0.4586
    3TCq1    O414429   2.645   0.818  14.345  0.0786  0.8146  0.1724
    3TCq1    C914430   2.901   0.552  14.787 -0.3372  0.1115 -0.7738
    3TCq1    O514431   2.883   0.441  14.730 -0.0743 -0.0157 -0.1726
    3TCq1    O614432   2.935   0.566  14.904  0.3069 -0.5875  0.0453
    3TCq1    H114433   2.930   0.970  14.858  1.4321  0.7145  2.5037
    3TCq1    H214434   2.854   0.791  14.891 -0.1914  1.7218  0.5900
    3TCq1    H314435   2.855   0.566  14.535 -0.5978  2.1580 -3.5214
    3TCq1    H414436   2.713   0.963  14.535  1.1570  2.1697  0.2952
    4MPD2     C14437   2.702   0.660  14.100  0.1882  0.1193  0.2346
    4MPD2    C114438   2.798   0.605  14.180 -0.1555 -0.3971 -0.9317
    4MPD2    C214439   2.873   0.499  14.135 -0.2229  0.4078 -0.2868
    4MPD2    C314440   2.854   0.450  14.006 -0.2368 -0.0411  0.1983
    4MPD2    C414441   2.756   0.506  13.923 -0.4248  0.0300 -0.5630
    4MPD2    C514442   2.682   0.610  13.968 -0.3882 -0.2176 -0.4647
    4MPD2     H14443   2.943   0.448  14.199 -1.7233 -0.2333  0.8344
    4MPD2    H114444   2.727   0.466  13.827  0.1079  1.8286 -1.4709
    4MPD2    H214445   2.637   0.742  14.129  1.4087  1.1459  0.0990
    4MPD2    H314446   2.594   0.637  13.910 -0.8720  0.9591  0.8264
    4MPD2     N14447   2.946   0.351  13.965 -0.1690  0.1365  0.0970
    4MPD2    H514448   3.011   0.318  14.036  0.7078  1.0070 -0.3061
    4MPD2    N114449   2.820   0.651  14.314 -0.0283  0.1359  0.3954
    4MPD2    H714450   2.898   0.610  14.364 -1.1303 -2.5899 -0.1211
    5TMC2    C114451   3.277   4.277  14.432 -0.3868 -1.1124  0.4587
    5TMC2    C214452   3.331   4.149  14.433 -0.0596 -0.1036 -0.0071
    5TMC2    C314453   3.454   4.136  14.492 -0.2072 -0.9092 -0.6056
    5TMC2    C414454   3.349   4.383  14.484  0.4835  0.2467 -0.3139
    5TMC2    C514455   3.478   4.372  14.529 -0.0980  0.7310 -0.1557
    5TMC2    C614456   3.531   4.248  14.527 -0.0317  0.5808  0.0154
    5TMC2     C14457   3.242   4.323  14.299 -0.1188 -0.2429  0.0626
    5TMC2     O14458   3.276   4.440  14.275 -0.2433 -0.0851 -0.0509
    5TMC2     H14459   3.282   4.061  14.393  0.2500 -0.9882  1.5642
    5TMC2    H114460   3.304   4.482  14.489  1.0224  0.5330 -1.1194
    5TMC2    H214461   3.638   4.238  14.543  0.0059 -1.8722 -1.8545
    5TMC2    C714462   3.566   4.484  14.489  0.0579  0.2573 -0.1871
    5TMC2    C814463   3.537   4.013  14.468 -0.4653 -0.1135  0.1388
    5TMC2    O114464   3.675   4.486  14.539 -0.0764  0.9243  0.0442
    5TMC2    O214465   3.496   3.936  14.383 -0.0438 -0.3710  0.4219
    5TMC2    O514466   3.619   3.986  14.573  0.0717  0.1900 -0.3702
    5TMC2    H514467   3.606   4.051  14.646  4.7290 -1.8596  2.2829
    6MPD2     C14468   2.982   4.331  13.854  0.0913 -0.0329 -0.3283
    6MPD2    C114469   3.089   4.405  13.898 -0.0358 -0.3175  0.2997
    6MPD2    C214470   3.148   4.367  14.017 -0.8193 -0.3174  0.5990
    6MPD2    C314471   3.105   4.258  14.091 -0.2527  0.1169 -0.1327
    6MPD2    C414472   3.002   4.183  14.040 -0.3398  0.4070 -0.0635
    6MPD2    C514473   2.937   4.221  13.927  0.9232  0.0734 -0.2964
    6MPD2     H14474   3.233   4.427  14.047  0.0552  1.2140 -4.9932
    6MPD2    H114475   2.969   4.095  14.094 -3.1494  0.0722 -2.3628
    6MPD2    H214476   2.926   4.349  13.762 -0.5907 -1.3770 -0.1729
    6MPD2    H314477   2.849   4.167  13.891  1.7175 -1.9499  0.7820
    6MPD2     N14478   3.155   4.238  14.229  0.6150  0.0284  0.4714
    6MPD2    H514479   3.121   4.151  14.269 -0.2542 -1.0774 -2.6412
    6MPD2    N114480   3.125   4.529  13.837  0.2458 -0.5643  0.3430
    6MPD2    H714481   3.206   4.573  13.879 -0.9666  0.6180  1.4149
  945NH4     N114482   4.336   1.552   1.798 -0.4115 -0.1924  0.3999
  945NH4     H214483   4.370   1.615   1.873 -1.4329  1.5699 -0.6310
  945NH4     H314484   4.234   1.533   1.802 -0.4962  0.2769  0.3977
  945NH4     H414485   4.387   1.461   1.807  0.4369  0.1821 -0.6271
  945NH4     H514486   4.360   1.590   1.704  1.2110  0.2983  1.0209
  946SOD     NA14487   4.136   1.828  17.131 -0.3127 -0.3082  0.4447
  947SOD     NA14488   2.740   0.305  14.656  0.1891 -0.3196  0.6975
  948SOD     NA14489   2.960   1.363  12.425 -0.4749  0.4990  0.4009
  949SOD     NA14490   2.488   0.530   3.593  0.1304 -0.4702  0.1887
  950SOD     NA14491   2.333   2.761  14.755 -0.5018 -0.0377 -0.0346
  951SOD     NA14492   1.235   1.268  10.683  0.1181  0.1760  0.2453
  952SOD     NA14493   0.048   0.310  15.867 -0.1847  0.2527  0.4347
  953SOL     OW14494   2.273   1.095   4.994  0.3840 -0.0350  0.0707
  953SOL    HW114495   2.186   1.056   4.983  0.3069  0.3440 -0.6771
  953SOL    HW214496   2.281   1.108   5.088  1.0993 -3.5536  0.5129
  954SOL     OW14497   1.386   1.358  16.549  0.3815  0.1391  0.7658
  954SOL    HW114498   1.459   1.360  16.611  0.3502  0.1897  0.8009
  954SOL    HW214499   1.324   1.388  16.614  0.0035 -1.3139  1.0599
  955SOL     OW14500   0.633   2.495   8.179 -0.0129  0.7544 -0.6125
  955SOL    HW114501   0.706   2.491   8.118 -1.3024  1.7874 -2.2270
  955SOL    HW214502   0.652   2.414   8.226 -1.3932 -0.1265 -1.5773
  956SOL     OW14503   3.991   3.554   3.904 -0.0703  0.5310  0.1250
  956SOL    HW114504   4.072   3.522   3.865  0.6065 -0.3566  2.2687
  956SOL    HW214505   4.031   3.586   3.985  1.8558 -3.0833  0.6052
  957SOL     OW14506   0.742   1.619   1.094 -0.5524  0.0616 -0.5023
  957SOL    HW114507   0.667   1.666   1.130 -0.7158 -1.7351  1.5731
  957SOL    HW214508   0.809   1.687   1.091  1.7145 -2.3197 -4.0493
  958SOL     OW14509   4.320   3.952   7.386 -0.3260  0.3822 -0.7019
  958SOL    HW114510   4.237   3.931   7.344  0.9656 -1.9170 -2.1174
  958SOL    HW214511   4.378   3.983   7.317 -1.7007  3.1094 -0.6492
  959SOL     OW14512   3.735   2.697   6.295 -0.0101  0.0107 -0.3829
  959SOL    HW114513   3.765   2.654   6.376 -0.1055  1.2438  0.3080
  959SOL    HW214514   3.807   2.756   6.274  1.4539 -1.9409 -0.8331
  960SOL     OW14515   2.687   4.622  13.746 -0.2796 -0.3230 -0.2319
  960SOL    HW114516   2.662   4.532  13.765  2.6885 -1.1662 -0.2213
  960SOL    HW214517   2.775   4.615  13.709 -0.6997 -1.5536 -0.9893
  961SOL     OW14518   1.943   4.348   4.618 -0.5554 -0.2784 -0.0403
  961SOL    HW114519   2.026   4.357   4.571 -0.3514 -0.3638  0.3034
  961SOL    HW214520   1.972   4.332   4.708  0.3731 -0.2079 -0.3228
  962SOL     OW14521   4.410   0.256  14.886  0.2062  0.5955  1.4229
  962SOL    HW114522   4.438   0.206  14.810 -0.0989 -1.8977  2.9491
  962SOL    HW214523   4.481   0.319  14.899  1.7215 -0.7630 -0.5468
  963SOL     OW14524   0.798   0.747   4.115 -0.0311  0.1136  0.3009
  963SOL    HW114525   0.817   0.674   4.174  1.3978  1.7141  1.7937
  963SOL    HW214526   0.717   0.714   4.076  0.7294 -1.2801 -0.1072
  964SOL     OW14527   0.285   0.243   7.637 -0.3354 -0.0933 -0.6042
  964SOL    HW114528   0.270   0.337   7.644  2.2310  0.0993  2.3057
  964SOL    HW214529   0.251   0.218   7.551  2.2065 -2.2081 -1.0085
  965SOL     OW14530   3.189   0.652  15.355  0.0016 -0.0700  0.1083
  965SOL    HW114531   3.124   0.655  15.285 -0.0430  0.9074  0.1969
  965SOL    HW214532   3.232   0.734  15.331  0.6489  0.4060  2.8254
  966SOL     OW14533   3.146   3.640   4.245 -0.2863  0.2427  0.0642
  966SOL    HW114534   3.154   3.635   4.340  0.0896 -1.2254 -0.0406
  966SOL    HW214535   3.238   3.657   4.225 -0.3578  1.3013  0.6173
  967SOL     OW14536   0.542   4.057   3.284 -0.5523 -0.3508 -0.1707
  967SOL    HW114537   0.585   3.980   3.248 -1.0237  0.3121 -2.1343
  967SOL    HW214538   0.470   4.071   3.223 -0.8560  1.5047  0.6191
  968SOL     OW14539   3.664   2.697   8.647  0.0198  0.0921 -0.0948
  968SOL    HW114540   3.721   2.773   8.636 -2.1517  1.4021 -2.2152
  968SOL    HW214541   3.578   2.732   8.622  0.2057 -1.0845 -2.4191
  969SOL     OW14542   1.671   4.300   6.075 -0.4766 -0.0695  0.2598
  969SOL    HW114543   1.629   4.385   6.085  0.7707  0.8451 -2.2197
  969SOL    HW214544   1.604   4.231   6.071 -0.3346 -0.3786  3.0765
  970SOL     OW14545   3.693   1.768   4.490 -0.1565 -0.1545 -0.2069
  970SOL    HW114546   3.727   1.803   4.572  2.4465 -2.1350 -0.4581
  970SOL    HW214547   3.612   1.734   4.527  0.6853 -1.3950  0.4713
  971SOL     OW14548   1.096   3.783  16.273 -0.0651  0.5893  0.3312
  971SOL    HW114549   1.109   3.719  16.204  1.5206  0.5776  0.6405
  971SOL    HW214550   1.047   3.733  16.339 -0.3770 -1.1934 -1.2765
  972SOL     OW14551   2.545   3.293   3.024 -0.8643 -0.2280  0.0450
  972SOL    HW114552   2.485   3.256   2.959 -1.0020 -1.1803  0.7003
  972SOL    HW214553   2.563   3.209   3.067  0.0442 -0.4013 -0.6711
  973SOL     OW14554   0.860   0.519   8.479 -0.0849 -0.3071  0.5183
  973SOL    HW114555   0.930   0.583   8.463 -0.4200 -0.2267 -0.6158
  973SOL    HW214556   0.879   0.446   8.421 -0.7409  0.1083 -0.2116
  974SOL     OW14557   2.117   4.188   2.709  0.0931 -0.4144 -0.7540
  974SOL    HW114558   2.130   4.222   2.620 -0.4281  2.1630  0.1815
  974SOL    HW214559   2.199   4.219   2.747  1.2038 -1.1124 -2.5494
  975SOL     OW14560   1.930   4.592  10.086  0.1556  0.3612 -0.1517
  975SOL    HW114561   1.889   4.562  10.167  0.5788  0.2602  0.0267
  975SOL    HW214562   1.877   4.669  10.064 -0.2961  0.7249  2.2099
  976SOL     OW14563   2.597   2.555   3.741  0.2623 -0.5413  0.2525
  976SOL    HW114564   2.629   2.518   3.823  0.3832  1.9419  1.3420
  976SOL    HW214565   2.679   2.559   3.691 -0.9830  1.4451 -1.6210
  977SOL     OW14566   2.713   2.480  13.757  0.0113  0.5106  0.2072
  977SOL    HW114567   2.634   2.467  13.810  0.5685 -2.9546  0.1806
  977SOL    HW214568   2.756   2.547  13.810  0.2278  1.8701 -1.6956
  978SOL     OW14569   1.304   2.695  14.427  0.4271  0.3388  0.1470
  978SOL    HW114570   1.234   2.635  14.402  0.2717  0.2224  0.8845
  978SOL    HW214571   1.250   2.765  14.464 -1.2557  0.8688 -3.3278
  979SOL     OW14572   3.000   1.803  16.872  0.0656  0.1788 -0.1242
  979SOL    HW114573   2.920   1.754  16.891 -0.6047  0.2841 -2.7398
  979SOL    HW214574   2.980   1.896  16.874 -1.8023 -0.2555  1.8670
  980SOL     OW14575   1.411   3.734   1.333 -0.4985  0.2937 -0.4405
  980SOL    HW114576   1.341   3.783   1.377  1.2859 -1.0281  3.8923
  980SOL    HW214577   1.358   3.658   1.307 -1.4331  1.1509 -1.0041
  981SOL     OW14578   4.150   2.112   0.073  0.1595 -0.5439  0.6980
  981SOL    HW114579   4.222   2.173   0.056 -0.4087 -0.4930 -1.4837
  981SOL    HW214580   4.200   2.040   0.036 -1.0239 -0.6237 -0.7270
  982SOL     OW14581   4.661   0.441  14.444  0.2381  0.4430 -0.3478
  982SOL    HW114582   4.653   0.474  14.354 -1.2268  1.0659  0.0178
  982SOL    HW214583   0.015   0.458  14.466  1.0169 -1.1924 -2.3042
  983SOL     OW14584   0.903   1.370   6.462 -0.5210  0.2254 -0.1120
  983SOL    HW114585   0.897   1.282   6.425  0.8413 -0.0013  0.2277
  983SOL    HW214586   0.835   1.424   6.422  1.9162  1.5950 -2.3439
  984SOL     OW14587   2.050   4.242   9.820  0.2574  0.0056  0.3878
  984SOL    HW114588   2.116   4.182   9.784  0.5599 -1.1840  2.9846
  984SOL    HW214589   2.038   4.289   9.737  1.0980  0.9102  0.7697
  985SOL     OW14590   1.724   1.947   7.469 -0.1510  0.2138  0.5246
  985SOL    HW114591   1.756   2.026   7.512  0.1329 -0.1164  0.9218
  985SOL    HW214592   1.806   1.928   7.423  0.0556 -0.7833  1.3254
  986SOL     OW14593   2.294   4.581   5.472 -0.6521  0.1847 -0.1801
  986SOL    HW114594   2.257   4.660   5.432  1.3548  1.5011  0.5699
  986SOL    HW214595   2.326   4.547   5.388  0.6949  1.0363 -0.0167
  987SOL     OW14596   0.535   2.041   9.309 -0.2407 -0.3875 -0.3227
  987SOL    HW114597   0.480   1.968   9.336  1.8251 -1.5985  0.6392
  987SOL    HW214598   0.541   2.097   9.386  1.1253  0.7128 -1.2095
  988SOL     OW14599   3.902   2.572   4.573 -0.1324  0.4673  0.5446
  988SOL    HW114600   3.844   2.568   4.497 -0.3773  0.9004  0.7076
  988SOL    HW214601   3.895   2.487   4.615  1.3803  0.4994  0.8870
  989SOL     OW14602   3.704   3.896   7.327 -0.3372  0.2951  0.9696
  989SOL    HW114603   3.667   3.832   7.388 -0.5202 -0.5902 -0.0743
  989SOL    HW214604   3.792   3.910   7.362  0.4406  2.1609 -1.7656
  990SOL     OW14605   0.524   2.380   3.670 -0.2829  0.4509 -0.2517
  990SOL    HW114606   0.602   2.346   3.626 -0.2046 -0.1067  0.3155
  990SOL    HW214607   0.461   2.311   3.650 -1.8866  2.0963 -0.7959
  991SOL     OW14608   1.769   2.880  11.700 -0.8577 -0.8085 -0.0745
  991SOL    HW114609   1.788   2.944  11.768 -3.4278 -1.1503  0.9722
  991SOL    HW214610   1.807   2.803  11.742  1.2141 -0.9220 -2.1544
  992SOL     OW14611   2.274   1.928   8.015 -0.3448 -0.1000 -0.1887
  992SOL    HW114612   2.265   1.956   8.106  1.2928  0.7281 -0.2882
  992SOL    HW214613   2.195   1.973   7.987 -0.4948 -0.0209  0.3517
  993SOL     OW14614   3.522   4.046   8.015  0.2044 -0.0285  0.3414
  993SOL    HW114615   3.525   4.077   7.924 -0.4836  0.5359  0.5179
  993SOL    HW214616   3.548   4.119   8.071 -1.7314  0.6534  0.3403
  994SOL     OW14617   1.235   4.171   6.468  0.2981 -0.7266 -0.3758
  994SOL    HW114618   1.288   4.105   6.423 -0.2457 -0.8809 -0.8088
  994SOL    HW214619   1.297   4.236   6.501 -2.4625  0.6153  2.1456
  995SOL     OW14620   4.532   2.942   4.986 -0.5079  0.5275 -0.1703
  995SOL    HW114621   4.530   2.953   5.081 -2.4999 -0.0520 -0.1347
  995SOL    HW214622   4.470   3.009   4.958  0.0437  1.4643  0.8766
  996SOL     OW14623   0.058   1.597  10.007 -0.0392 -0.4596  0.7870
  996SOL    HW114624   4.716   1.588  10.060 -0.6638 -0.4969 -0.1554
  996SOL    HW214625   0.108   1.519  10.031  1.2759  0.1661  0.0416
  997SOL     OW14626   4.257   1.436   8.089  0.8526 -0.3263 -0.4651
  997SOL    HW114627   4.268   1.490   8.167 -0.9301 -1.6615  0.7101
  997SOL    HW214628   4.325   1.474   8.034 -1.0563 -1.2817 -3.5011
  998SOL     OW14629   2.914   0.869   4.282 -0.2559  0.5659  0.2953
  998SOL    HW114630   2.898   0.775   4.270 -2.1590  0.7232  1.5730
  998SOL    HW214631   2.923   0.911   4.197 -0.5785  1.2658  0.6104
  999SOL     OW14632   1.656   0.193  14.252 -0.4620 -0.2129  0.0842
  999SOL    HW114633   1.658   0.249  14.330  0.1543 -0.7609  0.4557
  999SOL    HW214634   1.614   0.260  14.198  0.5866 -0.9063 -1.6001
 1000SOL     OW14635   3.476   2.432   5.404 -0.7692  0.4505 -0.2376
 1000SOL    HW114636   3.475   2.433   5.500 -1.3100 -0.1371 -0.2312
 1000SOL    HW214637   3.475   2.524   5.379  0.8448  0.3237 -0.8040
 1001SOL     OW14638   4.634   2.559   0.226  0.2910  0.1458  0.4137
 1001SOL    HW114639   4.687   2.639   0.225 -0.2674  0.5160  0.0763
 1001SOL    HW214640   4.555   2.603   0.259  0.0083  1.1441 -1.5274
 1002SOL     OW14641   1.021   0.017   6.963  0.6803 -0.3660  0.3636
 1002SOL    HW114642   1.089   0.056   7.018  0.1768 -1.7712  1.9654
 1002SOL    HW214643   0.934   0.051   6.987  1.0138 -0.1001  1.1760
 1003SOL     OW14644   0.565   3.061   5.842 -0.2729 -0.3077  0.7929
 1003SOL    HW114645   0.614   3.099   5.914  0.0516  2.6754 -0.9620
 1003SOL    HW214646   0.566   3.135   5.780 -1.2819  0.1954  1.3702
 1004SOL     OW14647   0.406   4.692   4.360  0.3264 -0.0207 -0.2240
 1004SOL    HW114648   0.384   4.647   4.442  3.2241 -1.6485 -0.3244
 1004SOL    HW214649   0.462   4.626   4.319 -1.1310 -0.8316 -0.9082
 1005SOL     OW14650   2.658   0.659   4.576  0.2349  0.0750 -0.2062
 1005SOL    HW114651   2.753   0.670   4.571  0.0679  2.1770  1.3028
 1005SOL    HW214652   2.651   0.623   4.664  0.5730 -0.4075 -0.3761
 1006SOL     OW14653   2.253   0.711  13.758 -0.0147 -0.1052 -0.3280
 1006SOL    HW114654   2.246   0.756  13.842 -1.1631 -2.3033  0.7267
 1006SOL    HW214655   2.245   0.781  13.693  3.3596  1.0481  0.4827
 1007SOL     OW14656   4.642   4.395   1.675 -0.4293 -0.5430 -0.0739
 1007SOL    HW114657   4.711   4.357   1.729 -0.3836 -1.3663 -0.7035
 1007SOL    HW214658   4.658   4.488   1.689 -2.1382 -0.0423 -1.4072
 1008SOL     OW14659   3.577   4.375   1.831  0.2955  0.3846  0.0897
 1008SOL    HW114660   3.532   4.454   1.799 -0.6014 -0.3929 -0.5477
 1008SOL    HW214661   3.668   4.383   1.802  0.1039 -1.8038 -1.0967
 1009SOL     OW14662   3.074   2.074   6.208 -0.1067 -0.0090  0.3969
 1009SOL    HW114663   3.143   2.137   6.188  0.3427  0.4363  3.3378
 1009SOL    HW214664   3.080   1.992   6.158 -2.1240 -0.5195  0.9947
 1010SOL     OW14665   1.723   2.687   5.402 -0.1784  1.0491  0.4776
 1010SOL    HW114666   1.644   2.636   5.385  0.6379 -0.0086 -0.1786
 1010SOL    HW214667   1.759   2.696   5.314 -1.1629 -1.6603 -0.1796
 1011SOL     OW14668   0.800   2.684   2.891  0.0405  0.2979  0.3529
 1011SOL    HW114669   0.864   2.740   2.847 -0.0838 -1.1181 -1.6376
 1011SOL    HW214670   0.853   2.620   2.938  0.8699  0.4438 -0.3933
 1012SOL     OW14671   2.352   3.511   2.805  0.2266 -0.0909  0.1801
 1012SOL    HW114672   2.289   3.470   2.864 -1.3135  0.7619 -0.8740
 1012SOL    HW214673   2.428   3.521   2.863 -0.3152 -2.0297  1.2434
 1013SOL     OW14674   0.879   2.802   4.908  0.4232 -0.5120  0.3770
 1013SOL    HW114675   0.920   2.797   4.994  4.0176 -2.0018 -1.4456
 1013SOL    HW214676   0.839   2.888   4.921  2.1813  0.3986 -0.3713
 1014SOL     OW14677   3.347   2.764  17.321 -0.0066  0.3283 -0.3326
 1014SOL    HW114678   3.400   2.840  17.297  0.0499 -0.5954 -3.0807
 1014SOL    HW214679   3.295   2.747  17.242 -0.7825 -0.3753  0.3223
 1015SOL     OW14680   0.941   2.648  15.031 -0.3781  0.0711 -0.6472
 1015SOL    HW114681   0.906   2.703  15.101  2.3526  0.8300  0.1273
 1015SOL    HW214682   0.965   2.728  14.984 -1.9977 -0.4433 -2.3636
 1016SOL     OW14683   1.267   3.149   3.010 -0.1565 -0.6633 -0.0395
 1016SOL    HW114684   1.207   3.175   3.080  0.6714  0.0807  0.3869
 1016SOL    HW214685   1.274   3.054   3.009 -0.2357 -0.6521 -1.5382
 1017SOL     OW14686   4.290   3.638  12.010  0.2566 -0.4628 -0.3213
 1017SOL    HW114687   4.362   3.687  12.051 -0.5246 -0.8374  1.5178
 1017SOL    HW214688   4.305   3.548  12.037  0.6826  0.2191  1.7197
 1018SOL     OW14689   3.706   1.386  17.423 -0.3853 -0.4411 -0.4668
 1018SOL    HW114690   3.634   1.338  17.383 -1.5801  2.8918 -2.2459
 1018SOL    HW214691   3.706   1.345  17.510 -1.6467  0.3681 -0.0871
 1019SOL     OW14692   4.330   3.588   5.903 -0.2285 -0.1651 -0.1519
 1019SOL    HW114693   4.408   3.622   5.947 -0.4034 -0.8688  0.7144
 1019SOL    HW214694   4.264   3.644   5.944 -0.0578 -1.7322  2.2409
 1020SOL     OW14695   3.461   1.026   0.938  0.0079 -0.0625  0.4782
 1020SOL    HW114696   3.495   1.101   0.985  0.1737 -0.2015  0.5806
 1020SOL    HW214697   3.468   1.044   0.844 -0.4373 -0.2155  0.4152
 1021SOL     OW14698   3.623   0.580  10.610  0.3968 -0.4800 -0.1284
 1021SOL    HW114699   3.613   0.508  10.672 -0.1160  1.5277  2.1059
 1021SOL    HW214700   3.534   0.591  10.579  0.0328 -0.6150  0.8739
 1022SOL     OW14701   0.603   2.945   8.657  0.2111 -0.4198 -0.9933
 1022SOL    HW114702   0.652   2.939   8.739  0.0763  2.3813 -0.6996
 1022SOL    HW214703   0.569   2.856   8.656  0.5811 -0.5839  0.8054
 1023SOL     OW14704   0.435   4.246   7.558 -0.0982 -0.3056  0.3833
 1023SOL    HW114705   0.369   4.230   7.490 -0.6744  1.5637  0.4814
 1023SOL    HW214706   0.498   4.301   7.512  0.1612 -1.0463 -0.1516
 1024SOL     OW14707   0.002   1.511   6.074 -0.0268  0.2220 -0.2147
 1024SOL    HW114708   4.694   1.537   6.154 -1.0628 -2.0000 -0.0926
 1024SOL    HW214709   4.696   1.572   6.013 -1.6093 -1.5402 -0.8233
 1025SOL     OW14710   1.848   4.201   2.666  0.2509 -0.6334 -0.0985
 1025SOL    HW114711   1.942   4.214   2.680 -0.2152  1.2998  1.0383
 1025SOL    HW214712   1.829   4.162   2.751 -4.0756  0.8716 -0.3821
 1026SOL     OW14713   2.779   0.933   3.606  0.5157  0.4803  0.6839
 1026SOL    HW114714   2.823   0.994   3.546 -0.3855  0.1702 -0.3034
 1026SOL    HW214715   2.801   0.971   3.691  1.2285  0.1601  0.6473
 1027SOL     OW14716   3.872   2.129   6.280 -0.0466 -0.2654  0.0939
 1027SOL    HW114717   3.809   2.187   6.238  0.4287 -0.4505 -0.8852
 1027SOL    HW214718   3.816   2.068   6.328  0.7873 -1.2873 -0.2335
 1028SOL     OW14719   0.153   4.284   7.755 -0.3371  0.1341 -0.1556
 1028SOL    HW114720   0.149   4.365   7.806 -0.7531  0.3073 -0.4603
 1028SOL    HW214721   0.204   4.218   7.803 -1.3633 -0.6103 -0.0771
 1029SOL     OW14722   1.187   1.647  10.790  0.1447 -0.5181  0.0763
 1029SOL    HW114723   1.099   1.679  10.809  0.6042 -0.2612  1.6942
 1029SOL    HW214724   1.237   1.718  10.830  2.3708 -1.5231 -0.8916
 1030SOL     OW14725   3.744   1.787   7.296  0.0187  0.0858 -0.0236
 1030SOL    HW114726   3.801   1.732   7.350  0.2468  1.9088  1.5554
 1030SOL    HW214727   3.668   1.734   7.274  1.3526 -1.9353  0.1863
 1031SOL     OW14728   2.125   0.686   4.795 -0.1760  0.2462 -0.3282
 1031SOL    HW114729   2.080   0.674   4.712 -1.8469 -1.4311  0.8057
 1031SOL    HW214730   2.098   0.774   4.819 -1.1984 -0.0576 -0.3776
 1032SOL     OW14731   1.267   0.148  12.102 -0.6660  0.4238  0.1085
 1032SOL    HW114732   1.311   0.186  12.179 -0.7132  1.6737 -0.4701
 1032SOL    HW214733   1.180   0.140  12.140 -0.8069  0.1007 -0.2912
 1033SOL     OW14734   1.883   1.260   3.464  0.1724 -0.3169 -0.2912
 1033SOL    HW114735   1.911   1.351   3.469 -0.8919  0.0379 -0.8494
 1033SOL    HW214736   1.803   1.264   3.413 -1.6656 -0.7520  2.5417
 1034SOL     OW14737   2.307   2.716  11.683 -0.0672  0.5455 -0.0988
 1034SOL    HW114738   2.312   2.808  11.709  2.1634  0.8036 -1.4413
 1034SOL    HW214739   2.214   2.700  11.668  0.0171  0.6823 -0.7873
 1035SOL     OW14740   4.029   2.246   6.955 -0.3758  1.1551  0.0158
 1035SOL    HW114741   3.962   2.189   6.993  1.2197  0.6429  2.0317
 1035SOL    HW214742   3.973   2.261   6.879  0.7687  2.2843 -0.6057
 1036SOL     OW14743   0.227   3.239   1.842  0.0759  0.3041  0.2744
 1036SOL    HW114744   0.214   3.242   1.937 -0.8968  0.1195  0.1446
 1036SOL    HW214745   0.315   3.277   1.831  0.8199 -1.0232  1.6525
 1037SOL     OW14746   3.242   3.034   7.728 -0.4073 -0.4327 -0.1794
 1037SOL    HW114747   3.153   3.066   7.745 -0.6870 -2.2371  1.7283
 1037SOL    HW214748   3.228   2.940   7.714  1.1185 -0.7360  0.3029
 1038SOL     OW14749   3.997   3.229   6.074  0.0814 -0.2280 -0.8542
 1038SOL    HW114750   4.090   3.209   6.084 -0.1885 -0.8620  0.3535
 1038SOL    HW214751   3.994   3.323   6.092 -0.4777 -0.3452 -0.3483
 1039SOL     OW14752   0.473   4.365   5.069 -0.4279 -0.2968  0.1329
 1039SOL    HW114753   0.509   4.356   4.981 -0.3528 -1.5769  0.2956
 1039SOL    HW214754   0.423   4.284   5.075  0.9517 -1.1265  0.5369
 1040SOL     OW14755   3.550   1.772   1.979 -0.3128 -0.4823 -0.3712
 1040SOL    HW114756   3.621   1.835   1.988 -0.4515 -0.7958  2.8412
 1040SOL    HW214757   3.480   1.825   1.941 -0.2428 -1.5470 -1.9894
 1041SOL     OW14758   2.892   2.528  10.085 -0.1850 -0.4650 -0.9922
 1041SOL    HW114759   2.956   2.573  10.141 -1.7645  0.2641  0.2333
 1041SOL    HW214760   2.949   2.486  10.020 -2.8854 -2.2909 -2.1614
 1042SOL     OW14761   2.233   4.299   5.452 -0.2123 -0.3001 -0.1687
 1042SOL    HW114762   2.235   4.394   5.437 -1.6862 -0.0888  0.9183
 1042SOL    HW214763   2.215   4.290   5.546 -1.3897 -1.9030 -0.5603
 1043SOL     OW14764   2.194   2.641   7.932 -0.8958  0.0311  0.0073
 1043SOL    HW114765   2.261   2.622   7.999 -0.8588  0.2642  0.0369
 1043SOL    HW214766   2.192   2.735   7.947 -0.0285  0.0494  0.0407
 1044SOL     OW14767   1.911   4.118  16.872  1.0261  0.5197 -0.0411
 1044SOL    HW114768   1.961   4.173  16.931  1.1603  1.3344 -0.8986
 1044SOL    HW214769   1.963   4.039  16.861  0.3720  0.6466 -4.4290
 1045SOL     OW14770   4.545   1.729  12.892  0.3303  0.5573  0.1630
 1045SOL    HW114771   4.531   1.681  12.810 -0.1476 -0.7314  0.9887
 1045SOL    HW214772   4.478   1.689  12.948  0.5300  0.2286  0.1667
 1046SOL     OW14773   2.889   4.030   5.329  0.3215  0.4754  0.0857
 1046SOL    HW114774   2.856   4.087   5.398 -0.6496 -0.3286  0.2853
 1046SOL    HW214775   2.978   4.063   5.324  0.6711 -0.6776 -1.2753
 1047SOL     OW14776   0.265   1.230   4.655 -0.5442 -0.1611 -0.2489
 1047SOL    HW114777   0.232   1.249   4.743 -0.4321  1.0101 -0.4567
 1047SOL    HW214778   0.344   1.285   4.650  0.0590 -0.9538  0.4723
 1048SOL     OW14779   1.484   4.716   1.975 -0.3396 -0.2547 -0.0517
 1048SOL    HW114780   1.513   0.070   1.977  1.6037 -0.8409 -1.2326
 1048SOL    HW214781   1.498   4.685   1.885 -1.7373 -1.0389  0.0043
 1049SOL     OW14782   3.841   4.502  15.087 -0.7362 -0.5009  0.2072
 1049SOL    HW114783   3.869   4.529  15.175 -1.1357 -0.2567  0.2612
 1049SOL    HW214784   3.773   4.437  15.106 -1.9062  0.1238 -1.8322
 1050SOL     OW14785   0.257   4.637   8.768 -0.0335 -0.1164 -0.1478
 1050SOL    HW114786   0.265   4.574   8.696  2.3037  0.1494 -0.1240
 1050SOL    HW214787   0.288   4.581   8.840  0.4846 -1.5141 -1.4429
 1051SOL     OW14788   3.249   0.949   5.405  0.6186 -0.2142  0.3381
 1051SOL    HW114789   3.341   0.967   5.422  0.7900  1.2170 -2.1412
 1051SOL    HW214790   3.214   0.959   5.494  0.2548 -0.5443  0.2304
 1052SOL     OW14791   2.877   3.085   7.249  0.5076 -0.6000 -0.1361
 1052SOL    HW114792   2.866   2.991   7.265  1.6265 -0.7911 -0.4938
 1052SOL    HW214793   2.960   3.101   7.294  0.9601  1.0859 -1.5600
 1053SOL     OW14794   0.505   2.521   1.196  0.0481  0.0309 -0.0594
 1053SOL    HW114795   0.582   2.571   1.222 -0.0201 -0.4600  1.0679
 1053SOL    HW214796   0.482   2.523   1.289  1.6219 -0.7209  0.3478
 1054SOL     OW14797   2.191   0.921   4.096 -0.1161  0.3455 -0.4352
 1054SOL    HW114798   2.171   1.010   4.124  0.9903  0.6468 -0.5977
 1054SOL    HW214799   2.276   0.900   4.134 -0.0021  1.8062  0.0942
 1055SOL     OW14800   3.685   4.713   5.098  0.0822 -1.0289  0.3877
 1055SOL    HW114801   3.677   0.061   5.057  1.7497 -1.8171 -1.5987
 1055SOL    HW214802   3.764   4.736   5.146  1.6369  0.3146 -2.8278
 1056SOL     OW14803   0.695   1.845   5.943  0.0672 -0.2536  0.0341
 1056SOL    HW114804   0.613   1.895   5.935  0.8032  0.8500 -0.4763
 1056SOL    HW214805   0.738   1.884   5.867  0.6992  0.5236  0.7864
 1057SOL     OW14806   4.013   3.752   5.354  0.2261  0.4802  0.1622
 1057SOL    HW114807   4.073   3.805   5.407  0.2031  2.1579 -1.5073
 1057SOL    HW214808   3.973   3.707   5.429  2.8831 -0.7369  0.8383
 1058SOL     OW14809   1.479   0.245   4.223  0.1294 -0.0411  0.3141
 1058SOL    HW114810   1.574   0.233   4.224  0.1785  0.3324  0.0480
 1058SOL    HW214811   1.463   0.250   4.129 -1.8380  0.9560  0.7161
 1059SOL     OW14812   1.487   4.058   8.810  0.6232  0.0579  0.4918
 1059SOL    HW114813   1.571   4.073   8.766  0.7306  0.4758  0.8297
 1059SOL    HW214814   1.441   4.009   8.743  1.0729 -1.4449  1.2840
 1060SOL     OW14815   1.820   2.093   7.081 -0.4372  0.3713 -0.3762
 1060SOL    HW114816   1.818   2.015   7.026 -1.7232  0.5659 -0.6123
 1060SOL    HW214817   1.747   2.154   7.068 -1.1419 -0.3130  0.3655
 1061SOL     OW14818   2.299   0.845  13.356 -0.2043  0.5211  0.1264
 1061SOL    HW114819   2.301   0.751  13.373 -0.0877  0.6187  0.6464
 1061SOL    HW214820   2.227   0.840  13.293 -2.0854 -1.0144  2.3795
 1062SOL     OW14821   1.963   4.256   3.273 -0.3808  0.0533  0.3797
 1062SOL    HW114822   1.894   4.197   3.302 -0.5836 -1.2685 -2.8127
 1062SOL    HW214823   1.929   4.282   3.188  0.7586  0.7663  0.1329
 1063SOL     OW14824   1.841   4.661   4.422  0.4762  0.6388  0.6803
 1063SOL    HW114825   1.922   4.655   4.473  1.7009 -2.2153 -1.5960
 1063SOL    HW214826   1.773   4.694   4.481  0.4959 -0.7738  1.4970
 1064SOL     OW14827   3.301   1.039   3.726 -0.0377 -0.0990  0.1074
 1064SOL    HW114828   3.288   1.032   3.632 -1.9631  2.9201  0.1161
 1064SOL    HW214829   3.236   1.109   3.738 -1.9738 -1.5841 -1.5987
 1065SOL     OW14830   4.140   1.709   7.650 -0.2251 -0.1445  0.5442
 1065SOL    HW114831   4.085   1.684   7.724  0.2771 -0.4898  0.7974
 1065SOL    HW214832   4.197   1.776   7.688 -1.2452  2.9043 -3.2486
 1066SOL     OW14833   3.068   3.164  11.463 -0.5425 -0.1962 -0.4887
 1066SOL    HW114834   3.030   3.080  11.437 -0.6662 -0.1465 -0.4693
 1066SOL    HW214835   3.053   3.165  11.558  1.5715 -1.6585 -0.1427
 1067SOL     OW14836   0.476   3.490  16.994  0.8848  0.0151 -0.2196
 1067SOL    HW114837   0.502   3.580  16.979  0.7567  0.1220  0.1947
 1067SOL    HW214838   0.506   3.477  17.084  2.4598 -2.1926 -1.0665
 1068SOL     OW14839   4.167   4.414   4.038  0.0079  0.2245 -0.3731
 1068SOL    HW114840   4.255   4.452   4.038  0.0520  0.1360 -1.6518
 1068SOL    HW214841   4.150   4.414   4.132  1.4424  0.4241 -0.1199
 1069SOL     OW14842   2.858   2.578   9.342  0.3004  0.3796 -0.0665
 1069SOL    HW114843   2.919   2.612   9.276  0.4082 -1.7052 -1.0160
 1069SOL    HW214844   2.776   2.602   9.299  1.1846 -1.5874 -2.8187
 1070SOL     OW14845   3.722   1.375   6.044  0.1363 -0.1744  0.1781
 1070SOL    HW114846   3.711   1.460   6.001  0.2323  0.7658  2.0300
 1070SOL    HW214847   3.743   1.400   6.134 -0.0694  0.5802  0.0209
 1071SOL     OW14848   2.861   0.882   4.911  0.8793 -0.4377 -0.2312
 1071SOL    HW114849   2.844   0.891   5.004 -1.4330  0.2668 -0.7256
 1071SOL    HW214850   2.786   0.929   4.874 -0.3015 -2.1549 -0.0226
 1072SOL     OW14851   1.769   2.357   6.978  0.2694  0.0019 -0.0630
 1072SOL    HW114852   1.680   2.333   6.949  0.3175 -1.7942  1.2090
 1072SOL    HW214853   1.828   2.314   6.917  0.4593  1.9680 -1.2552
 1073SOL     OW14854   1.369   0.740   3.499  0.5257 -0.1200  0.4542
 1073SOL    HW114855   1.346   0.661   3.450  2.0602  0.1553 -0.7239
 1073SOL    HW214856   1.457   0.715   3.524  0.4037 -0.6177  0.3733
 1074SOL     OW14857   1.184   3.662   3.298  0.2118 -0.2233  0.0164
 1074SOL    HW114858   1.157   3.573   3.322 -1.5296  1.0702  2.9490
 1074SOL    HW214859   1.270   3.646   3.261 -0.7302 -1.8469 -1.4505
 1075SOL     OW14860   3.276   0.826   4.164 -0.5022 -0.0752  0.1439
 1075SOL    HW114861   3.309   0.757   4.221  0.3348 -1.0811 -1.5735
 1075SOL    HW214862   3.322   0.907   4.187  0.0938 -1.1291  2.6645
 1076SOL     OW14863   1.407   4.287   3.073  0.1828  0.3933 -0.9103
 1076SOL    HW114864   1.359   4.338   3.008  0.1391 -3.3992 -3.8564
 1076SOL    HW214865   1.481   4.245   3.028 -0.5427 -0.0671 -1.6774
 1077SOL     OW14866   3.631   2.063   7.418 -0.0338 -0.7097  0.2433
 1077SOL    HW114867   3.717   2.048   7.378 -2.0195 -2.0404 -3.4874
 1077SOL    HW214868   3.573   2.005   7.369 -0.0450 -0.2167 -0.3175
 1078SOL     OW14869   1.691   4.672  11.407  0.1604  0.6191 -0.5963
 1078SOL    HW114870   1.603   4.671  11.369  0.3203  1.2133 -0.9852
 1078SOL    HW214871   1.704   0.023  11.440  0.1933  0.2790  0.3148
 1079SOL     OW14872   1.155   4.343   6.137 -0.7665 -0.5533  0.4472
 1079SOL    HW114873   1.239   4.344   6.182 -0.2853  0.3454 -0.4887
 1079SOL    HW214874   1.146   4.250   6.114 -0.5163 -0.6867  0.8913
 1080SOL     OW14875   3.243   0.043   7.087  0.0684 -0.2360  0.1439
 1080SOL    HW114876   3.203   0.130   7.094  0.7953 -0.0817  2.6801
 1080SOL    HW214877   3.184   0.004   7.023  0.2924  0.0984 -0.2594
 1081SOL     OW14878   0.607   3.895   0.304  0.0743  0.0569 -0.7862
 1081SOL    HW114879   0.565   3.980   0.290 -1.2883 -0.4054  0.4664
 1081SOL    HW214880   0.541   3.856   0.361  0.6312 -2.1355 -1.6539
 1082SOL     OW14881   0.257   4.270   6.524 -0.1944 -0.4020  0.0576
 1082SOL    HW114882   0.172   4.275   6.568 -0.8433 -0.4261 -1.1999
 1082SOL    HW214883   0.295   4.354   6.550  0.1739 -1.3730  2.6501
 1083SOL     OW14884   3.377   2.728  10.066 -0.2608  0.9613 -0.1449
 1083SOL    HW114885   3.387   2.785   9.991  0.8955 -2.0695 -2.2974
 1083SOL    HW214886   3.341   2.790  10.129 -0.1405  2.1473 -1.2450
 1084SOL     OW14887   1.927   2.048   1.321 -0.2255  0.5827 -0.0655
 1084SOL    HW114888   2.007   2.098   1.337 -1.0153  2.2703 -1.4676
 1084SOL    HW214889   1.959   1.957   1.321  0.7518  0.9032  2.4163
 1085SOL     OW14890   2.795   0.556   8.313  0.3599 -0.2644  0.0728
 1085SOL    HW114891   2.726   0.595   8.367 -0.9392 -0.3181 -1.5540
 1085SOL    HW214892   2.746   0.514   8.243  0.0727  1.0166 -0.5060
 1086SOL     OW14893   3.294   1.627   3.736  0.0896  0.3343  0.1546
 1086SOL    HW114894   3.284   1.621   3.641 -0.3533  1.4966  0.1315
 1086SOL    HW214895   3.252   1.712   3.743  0.5264  0.4672  1.0534
 1087SOL     OW14896   4.629   3.944   6.641 -0.1621  0.8674  0.1378
 1087SOL    HW114897   4.612   3.926   6.549 -1.9091  2.2948  0.1713
 1087SOL    HW214898   4.558   4.005   6.662 -1.1634 -0.7702  1.5070
 1088SOL     OW14899   1.194   1.607   6.056  0.8203 -0.1750 -0.3826
 1088SOL    HW114900   1.122   1.648   6.008  0.7337  1.1306  0.8637
 1088SOL    HW214901   1.169   1.606   6.148  0.4123  0.8221 -0.4867
 1089SOL     OW14902   2.899   3.325   2.516  0.2030 -0.3562  0.7113
 1089SOL    HW114903   2.992   3.342   2.503 -0.0233 -0.4055 -0.8997
 1089SOL    HW214904   2.878   3.296   2.427 -0.5320 -1.6567  1.2993
 1090SOL     OW14905   3.650   4.484   1.398 -0.4804  0.9795 -0.5236
 1090SOL    HW114906   3.639   4.570   1.357  2.4141  1.5488 -0.1040
 1090SOL    HW214907   3.715   4.512   1.463 -0.7096  2.4689 -0.9319
 1091SOL     OW14908   0.098   2.689   7.282  0.1783 -0.0890 -0.3931
 1091SOL    HW114909   0.091   2.662   7.190  0.6972  0.5292 -0.6202
 1091SOL    HW214910   0.039   2.763   7.269  5.1658  3.6534 -1.9506
 1092SOL     OW14911   2.157   4.415   3.635  0.1972 -0.3706 -0.5797
 1092SOL    HW114912   2.093   4.387   3.700  0.6168  0.8732  0.3868
 1092SOL    HW214913   2.236   4.450   3.677 -1.4535  1.8079  0.7363
 1093SOL     OW14914   1.650   1.259   1.589  0.2039 -0.1416 -0.6655
 1093SOL    HW114915   1.585   1.190   1.603 -0.8516  1.0148  0.0440
 1093SOL    HW214916   1.715   1.244   1.658  1.8108 -0.1188 -2.1584
 1094SOL     OW14917   0.072   0.314   3.370 -0.0352  0.8955  0.0809
 1094SOL    HW114918   0.089   0.406   3.351  2.0207  0.5431  0.2771
 1094SOL    HW214919   0.026   0.326   3.454  0.4562  1.0636  0.3236
 1095SOL     OW14920   4.289   2.345   8.109 -0.6193  0.4507 -0.4510
 1095SOL    HW114921   4.200   2.370   8.081 -1.1768 -0.2581  0.6734
 1095SOL    HW214922   4.345   2.392   8.047  0.5469 -0.3256  0.0213
 1096SOL     OW14923   1.337   3.673   9.001  0.0214 -0.3978  0.2597
 1096SOL    HW114924   1.376   3.757   9.024 -1.0196  1.1995 -3.6883
 1096SOL    HW214925   1.268   3.668   9.067 -1.8872 -2.9043 -1.9376
 1097SOL     OW14926   2.194   3.233   8.664 -0.6336 -0.5246 -0.0067
 1097SOL    HW114927   2.168   3.297   8.731  1.4349  0.4500 -0.1278
 1097SOL    HW214928   2.285   3.258   8.646 -0.3238 -0.4252  1.7071
 1098SOL     OW14929   0.577   2.085   7.429 -0.0420  0.6591  0.0748
 1098SOL    HW114930   0.509   2.017   7.425  2.0807 -1.5098  1.0015
 1098SOL    HW214931   0.527   2.164   7.408  0.1790  1.0075  0.8888
 1099SOL     OW14932   2.635   4.082  13.910 -0.2122 -0.0454 -0.2117
 1099SOL    HW114933   2.600   4.017  13.971 -1.9900 -0.2695 -1.5070
 1099SOL    HW214934   2.563   4.084  13.848  1.4939  2.2052 -2.1039
 1100SOL     OW14935   4.204   4.452   4.859  0.1940 -0.5572  0.2411
 1100SOL    HW114936   4.215   4.448   4.954 -1.0521  0.5583  0.4307
 1100SOL    HW214937   4.291   4.486   4.838 -0.7816  1.6213 -0.2347
 1101SOL     OW14938   4.301   2.112   7.867  0.6914 -0.5085 -0.7764
 1101SOL    HW114939   4.301   2.206   7.884 -0.7605 -0.6279 -0.1549
 1101SOL    HW214940   4.317   2.103   7.773 -2.1473  0.5524 -1.3476
 1102SOL     OW14941   0.709   0.948   4.985 -0.1001 -0.1559 -0.0091
 1102SOL    HW114942   0.674   0.891   5.053  0.6152  1.0691  1.3832
 1102SOL    HW214943   0.798   0.912   4.981  0.0001 -0.1145  2.1003
 1103SOL     OW14944   0.221   3.356   5.090 -0.1348 -0.3603 -0.3558
 1103SOL    HW114945   0.210   3.315   5.176  2.1840 -0.4421 -0.0905
 1103SOL    HW214946   0.215   3.275   5.039  0.0327 -0.9076  0.4977
 1104SOL     OW14947   3.632   3.094   8.327  0.0317 -0.5791 -0.0919
 1104SOL    HW114948   3.670   3.139   8.252 -1.0897  0.5771  0.0362
 1104SOL    HW214949   3.643   3.157   8.398  1.3806 -1.8873  0.8404
 1105SOL     OW14950   3.306   2.499   9.014  0.0953  0.4370  0.2365
 1105SOL    HW114951   3.259   2.535   8.939  0.8758  2.3710  0.6676
 1105SOL    HW214952   3.387   2.464   8.976 -0.8000  0.2144 -1.4391
 1106SOL     OW14953   1.493   3.069   5.020 -0.0340  0.1598 -0.0052
 1106SOL    HW114954   1.548   3.120   4.960  0.1781 -1.7249 -1.4175
 1106SOL    HW214955   1.485   2.996   4.959  1.1490  0.1690 -0.1787
 1107SOL     OW14956   3.842   4.447   1.150  0.0500  0.3464 -0.4900
 1107SOL    HW114957   3.830   4.459   1.056 -1.5279  2.4362 -0.0234
 1107SOL    HW214958   3.894   4.525   1.171  0.1066  0.4383 -0.9759
 1108SOL     OW14959   4.324   4.508   5.427  0.2783  0.4291 -0.3178
 1108SOL    HW114960   4.312   4.465   5.512 -0.8471  2.1728  0.4027
 1108SOL    HW214961   4.290   4.597   5.430  1.1248  0.7530 -0.2725
 1109SOL     OW14962   4.176   3.511  16.939  0.2290 -0.1797  0.4531
 1109SOL    HW114963   4.200   3.427  16.978 -0.1807 -0.4434  0.1473
 1109SOL    HW214964   4.156   3.566  17.014  1.2317  2.1829 -1.0234
 1110SOL     OW14965   2.125   1.544  14.204 -0.1994  0.2508  0.2394
 1110SOL    HW114966   2.177   1.604  14.150  1.4151 -1.7024 -0.3669
 1110SOL    HW214967   2.128   1.463  14.153 -0.8140  1.2259 -1.3556
 1111SOL     OW14968   3.833   2.376   3.613 -0.2556  0.4902 -0.0010
 1111SOL    HW114969   3.852   2.360   3.520 -1.0099 -1.3850  0.1633
 1111SOL    HW214970   3.778   2.300   3.636 -2.9827  1.4380 -3.3060
 1112SOL     OW14971   0.188   2.065  16.332 -0.0819 -0.2638  0.4175
 1112SOL    HW114972   0.235   2.016  16.265 -0.4516 -1.6790  1.1984
 1112SOL    HW214973   0.099   2.030  16.335 -0.7602  1.4232  0.1371
 1113SOL     OW14974   3.246   2.561   0.895 -0.1192 -0.2919  0.2516
 1113SOL    HW114975   3.298   2.635   0.927 -0.3255  0.4212 -1.0479
 1113SOL    HW214976   3.262   2.583   0.803  2.8993 -1.3057  0.5298
 1114SOL     OW14977   0.198   1.754   2.526 -0.1151  0.5478  0.3083
 1114SOL    HW114978   0.219   1.843   2.498 -0.0030  0.0927 -1.0981
 1114SOL    HW214979   0.252   1.743   2.604  0.8187  0.9575 -0.2772
 1115SOL     OW14980   4.102   4.466   7.525 -0.2509  0.2833  0.5931
 1115SOL    HW114981   4.196   4.476   7.514 -0.3147 -0.7482 -0.9826
 1115SOL    HW214982   4.102   4.371   7.539 -0.0349  0.2981  0.6792
 1116SOL     OW14983   3.287   1.176   3.244 -0.2270 -0.4362 -0.1663
 1116SOL    HW114984   3.310   1.107   3.181 -1.5658  0.2190 -1.3743
 1116SOL    HW214985   3.281   1.125   3.325 -0.3100  1.2643  0.8955
 1117SOL     OW14986   3.583   2.171   8.790  0.4138  0.0917  0.6365
 1117SOL    HW114987   3.597   2.259   8.826 -1.7988 -0.8789  3.8908
 1117SOL    HW214988   3.512   2.194   8.731  1.5733  1.2182 -0.3299
 1118SOL     OW14989   0.633   1.107  12.622 -0.0743  0.4117  0.2790
 1118SOL    HW114990   0.563   1.170  12.640  1.9227  2.4369  0.9902
 1118SOL    HW214991   0.699   1.155  12.673  2.0964  0.3652 -2.4815
 1119SOL     OW14992   3.286   0.795  17.423  0.4615 -0.1699 -0.3438
 1119SOL    HW114993   3.298   0.701  17.405  2.3750 -0.3992  2.1635
 1119SOL    HW214994   3.202   0.820  17.385  0.9503  0.4209 -1.0220
 1120SOL     OW14995   1.273   3.505   1.347  0.2144  0.2561  0.5047
 1120SOL    HW114996   1.285   3.415   1.378  0.4314  0.8815  2.2230
 1120SOL    HW214997   1.190   3.514   1.394  0.0976 -1.0524  0.5632
 1121SOL     OW14998   3.418   2.622   4.512  0.2135 -0.4192 -0.3165
 1121SOL    HW114999   3.379   2.537   4.533  3.3407 -0.9839  3.1362
 1121SOL    HW215000   3.361   2.669   4.572  1.5453  0.6102  0.1389
 1122SOL     OW15001   3.013   1.968   5.225 -0.5173 -0.4507 -0.3520
 1122SOL    HW115002   2.968   1.991   5.144  2.8264 -1.5673 -2.5384
 1122SOL    HW215003   3.069   2.044   5.239  0.9589 -1.5607 -0.1722
 1123SOL     OW15004   2.524   3.839   8.288 -0.0703 -0.9127 -0.1421
 1123SOL    HW115005   2.473   3.907   8.243  0.9363 -0.6746 -0.9341
 1123SOL    HW215006   2.475   3.757   8.280  0.8805 -1.3839 -1.1472
 1124SOL     OW15007   4.331   2.933   8.269  0.1958 -0.1604 -0.2144
 1124SOL    HW115008   4.373   2.983   8.339 -0.5962  1.4947 -0.9269
 1124SOL    HW215009   4.362   2.846   8.292 -0.3839 -0.0637  0.9042
 1125SOL     OW15010   2.317   1.676   9.702  0.6382  0.0996 -0.1189
 1125SOL    HW115011   2.364   1.715   9.775 -3.0781  0.8682  1.8845
 1125SOL    HW215012   2.341   1.584   9.715 -0.8312 -0.2241  0.3465
 1126SOL     OW15013   4.150   3.853   3.540 -0.0839 -0.2916  0.0474
 1126SOL    HW115014   4.100   3.772   3.547 -1.4638  0.3762 -1.8790
 1126SOL    HW215015   4.150   3.874   3.634  3.3056 -1.4827  0.2881
 1127SOL     OW15016   0.599   2.449   7.616  0.1889  0.3746 -0.0549
 1127SOL    HW115017   0.599   2.366   7.568 -0.1258  0.1778  0.2939
 1127SOL    HW215018   0.690   2.477   7.612  1.3166 -3.3269 -0.5509
 1128SOL     OW15019   3.769   0.440  17.081 -0.0790  0.5085  0.0469
 1128SOL    HW115020   3.785   0.513  17.020 -1.1661  0.2906 -0.5157
 1128SOL    HW215021   3.807   0.468  17.164  1.5288  2.2354 -1.2631
 1129SOL     OW15022   1.213   0.620   4.887  0.0175  0.1598 -0.4028
 1129SOL    HW115023   1.262   0.691   4.845 -0.0345  0.7033  0.4432
 1129SOL    HW215024   1.204   0.647   4.979 -0.7870 -0.4510 -0.2994
 1130SOL     OW15025   2.564   4.168   7.503 -0.2836 -0.6893  0.6997
 1130SOL    HW115026   2.479   4.174   7.547 -0.4060  1.3118  0.1899
 1130SOL    HW215027   2.524   4.171   7.416  1.8744 -1.1923 -0.3029
 1131SOL     OW15028   0.573   2.995   7.137  0.4506 -0.1680  0.0737
 1131SOL    HW115029   0.534   2.948   7.210 -3.2174  0.1289 -1.7045
 1131SOL    HW215030   0.495   3.001   7.081 -1.3036 -0.6401  2.4712
 1132SOL     OW15031   2.409   0.656   2.119  0.1318  0.1375 -0.2392
 1132SOL    HW115032   2.399   0.713   2.195  1.8509 -1.9892  1.5324
 1132SOL    HW215033   2.396   0.574   2.166 -0.4638  1.6152  2.1755
 1133SOL     OW15034   0.842   4.290   4.937  0.2940 -0.4898 -0.1348
 1133SOL    HW115035   0.842   4.382   4.910 -3.6739 -1.1046 -2.2635
 1133SOL    HW215036   0.876   4.294   5.026 -0.4406 -0.4771  0.1489
 1134SOL     OW15037   1.775   4.078   7.381  0.6321 -0.2385 -0.1116
 1134SOL    HW115038   1.778   4.101   7.474  0.7256  0.0607 -0.1885
 1134SOL    HW215039   1.864   4.080   7.345  0.1390  0.1988 -1.2859
 1135SOL     OW15040   3.475   3.745  11.142  0.6551 -0.3231 -0.0508
 1135SOL    HW115041   3.414   3.711  11.208 -0.1753  2.0552  0.4147
 1135SOL    HW215042   3.498   3.664  11.096  0.5030  0.3911 -1.3849
 1136SOL     OW15043   2.801   1.915   1.666  0.1676 -0.1920 -0.4272
 1136SOL    HW115044   2.781   1.889   1.576 -0.1284 -1.1305 -0.0932
 1136SOL    HW215045   2.735   1.982   1.685  0.3338  0.0398 -0.6718
 1137SOL     OW15046   3.976   1.595  13.507  0.4292  0.0551 -0.2015
 1137SOL    HW115047   3.930   1.581  13.424 -1.4365 -0.8057  0.9796
 1137SOL    HW215048   3.906   1.581  13.571 -0.4613  0.7494 -1.0293
 1138SOL     OW15049   0.231   2.340  16.202 -0.0049  0.7926 -0.5215
 1138SOL    HW115050   0.204   2.252  16.228 -0.3840  0.7458 -1.0585
 1138SOL    HW215051   0.150   2.384  16.176 -0.3476 -0.6683 -1.9756
 1139SOL     OW15052   1.343   1.275   5.260 -0.3513 -0.2127  0.2133
 1139SOL    HW115053   1.424   1.310   5.298 -0.7280  1.0280 -0.1635
 1139SOL    HW215054   1.294   1.250   5.339 -1.4692 -0.1939 -0.4784
 1140SOL     OW15055   0.183   3.163   0.283 -0.4666  0.4031  0.4729
 1140SOL    HW115056   0.260   3.114   0.253 -2.3960 -0.9235 -2.3685
 1140SOL    HW215057   0.139   3.088   0.323  0.6117  0.1579  1.2107
 1141SOL     OW15058   4.069   3.056   8.328  0.8608  0.0581 -0.7469
 1141SOL    HW115059   4.160   3.027   8.318  0.3761 -1.2175 -1.4762
 1141SOL    HW215060   4.068   3.072   8.423 -1.6980  0.1642 -0.8030
 1142SOL     OW15061   4.021   4.634   3.984 -0.0814 -0.4201 -0.2046
 1142SOL    HW115062   4.090   4.689   4.020  1.1836  0.3773 -3.8054
 1142SOL    HW215063   4.074   4.554   3.982  1.6854  0.7413 -0.2448
 1143SOL     OW15064   0.612   3.121   4.600  0.3342  0.4699 -0.2697
 1143SOL    HW115065   0.698   3.130   4.641  0.5484  0.2692 -0.6722
 1143SOL    HW215066   0.561   3.189   4.643 -2.0932  0.0195 -2.4592
 1144SOL     OW15067   2.940   2.865   2.143  0.3832  0.1288 -0.4207
 1144SOL    HW115068   3.020   2.829   2.105  1.1056 -1.6344  2.7091
 1144SOL    HW215069   2.971   2.943   2.190 -1.1601 -0.3034  1.3057
 1145SOL     OW15070   2.154   4.019   0.649  0.5387 -0.1240  0.6195
 1145SOL    HW115071   2.212   3.948   0.621 -0.2220 -1.0507  1.3924
 1145SOL    HW215072   2.112   4.045   0.567 -1.5985 -1.4257  1.2829
 1146SOL     OW15073   1.516   1.966   7.286  0.0565 -0.3065 -0.3695
 1146SOL    HW115074   1.599   1.940   7.326  1.1653  1.4955 -1.4595
 1146SOL    HW215075   1.475   2.006   7.363  2.0511  2.2433 -0.6190
 1147SOL     OW15076   1.511   1.392   0.220 -0.0756  0.2277  0.3483
 1147SOL    HW115077   1.560   1.404   0.301  0.4992  0.4374 -0.0270
 1147SOL    HW215078   1.419   1.388   0.244  0.6602  0.6181  3.1815
 1148SOL     OW15079   0.345   2.853   3.100  0.9316 -0.3249 -0.1520
 1148SOL    HW115080   0.282   2.844   3.029  1.2948  1.5902 -0.6977
 1148SOL    HW215081   0.422   2.838   3.044  1.6112 -0.6322  0.8522
 1149SOL     OW15082   4.268   2.031  16.275  0.0750  0.0222  0.1152
 1149SOL    HW115083   4.215   1.997  16.203 -0.6901  0.6324  0.3902
 1149SOL    HW215084   4.325   2.090  16.225  2.5197 -1.6694  0.8649
 1150SOL     OW15085   0.153   3.885   3.158  0.4196 -0.2097  0.2959
 1150SOL    HW115086   0.172   3.820   3.226 -1.4013 -1.1020 -0.0384
 1150SOL    HW215087   0.096   3.941   3.211  0.4445  0.8651 -0.8003
 1151SOL     OW15088   4.628   2.752   4.688  0.7432 -0.0983  0.0875
 1151SOL    HW115089   4.636   2.837   4.644 -3.7384 -0.1430 -0.8411
 1151SOL    HW215090   4.612   2.789   4.775 -1.3164  1.4957 -0.9641
 1152SOL     OW15091   2.766   2.575  11.080 -0.6940 -0.1390 -0.2922
 1152SOL    HW115092   2.794   2.566  10.989 -1.8162 -3.9605 -0.2524
 1152SOL    HW215093   2.712   2.499  11.101  1.3732 -1.0926  1.5393
 1153SOL     OW15094   1.221   4.169  16.832  0.1840  0.0104  0.6746
 1153SOL    HW115095   1.257   4.083  16.809  0.2899  0.2079  0.0989
 1153SOL    HW215096   1.132   4.155  16.798 -0.3130  0.6660  1.7167
 1154SOL     OW15097   2.075   4.214   8.539 -0.4845  0.2011  0.0482
 1154SOL    HW115098   2.133   4.182   8.470 -0.9451 -1.9696  0.6674
 1154SOL    HW215099   2.077   4.309   8.526  0.8482  0.3045  0.9976
 1155SOL     OW15100   4.192   1.198   5.710 -0.2237  0.5226 -0.3413
 1155SOL    HW115101   4.103   1.234   5.707 -0.0671  1.1904  2.3555
 1155SOL    HW215102   4.197   1.185   5.805  1.6657  0.2112 -0.4969
 1156SOL     OW15103   4.673   2.278   1.326  0.0203  0.5251 -0.5912
 1156SOL    HW115104   4.715   2.224   1.394  2.3727  2.9545 -0.1190
 1156SOL    HW215105   4.586   2.240   1.326  0.4315 -0.4096 -0.6624
 1157SOL     OW15106   4.260   3.998  16.137  0.3210 -0.5541  0.3497
 1157SOL    HW115107   4.301   3.916  16.110 -0.6947 -0.8118 -0.3988
 1157SOL    HW215108   4.284   3.998  16.230  0.9252  1.2123  0.2010
 1158SOL     OW15109   3.568   1.330   2.797  0.4357 -0.0573 -0.2607
 1158SOL    HW115110   3.563   1.415   2.755 -2.0796  0.3117  0.8177
 1158SOL    HW215111   3.644   1.360   2.847  0.9791 -0.0925 -1.0557
 1159SOL     OW15112   1.333   3.637   7.982  0.0881  0.2974 -0.3553
 1159SOL    HW115113   1.342   3.594   8.067  0.4798 -1.1629 -1.1311
 1159SOL    HW215114   1.411   3.609   7.933 -1.1068 -1.2353 -1.3785
 1160SOL     OW15115   3.838   4.451  14.720  0.4580 -0.6633  0.4470
 1160SOL    HW115116   3.797   4.449  14.634  0.5850 -2.3220  0.4177
 1160SOL    HW215117   3.928   4.465  14.691  0.0554  1.1095  0.0736
 1161SOL     OW15118   1.377   1.759   6.375  0.0286  0.6387 -0.2439
 1161SOL    HW115119   1.434   1.801   6.440  0.1550  1.0632 -0.6313
 1161SOL    HW215120   1.301   1.817   6.380 -0.1883  0.2768  0.6562
 1162SOL     OW15121   1.901   3.256   9.373  0.2085  0.7434 -0.2800
 1162SOL    HW115122   1.901   3.338   9.421  2.0879  0.3057  0.4590
 1162SOL    HW215123   1.989   3.226   9.397 -0.2130  0.8267  1.3911
 1163SOL     OW15124   2.750   3.343   4.970  0.2155 -0.3291 -0.4236
 1163SOL    HW115125   2.800   3.268   4.938  0.4859 -2.3714  4.8934
 1163SOL    HW215126   2.682   3.302   5.022 -0.0266 -0.3446 -0.7494
 1164SOL     OW15127   1.442   2.415  10.162 -0.0860 -0.1092  0.2937
 1164SOL    HW115128   1.479   2.339  10.117  0.7514  0.1783  0.4864
 1164SOL    HW215129   1.349   2.425  10.141  0.0199  0.1918 -0.0393
 1165SOL     OW15130   3.844   0.106   0.561  0.1180  0.6191 -0.2195
 1165SOL    HW115131   3.898   0.114   0.640 -0.2989 -0.3992  0.1786
 1165SOL    HW215132   3.814   0.015   0.568  0.7691  0.4054 -0.2787
 1166SOL     OW15133   4.409   0.347   5.274 -0.0000  0.5472  1.0597
 1166SOL    HW115134   4.493   0.375   5.311  1.2339 -0.5503 -0.9405
 1166SOL    HW215135   4.426   0.254   5.259 -1.2068  0.4464  0.3622
 1167SOL     OW15136   2.218   4.030   4.178  0.4244 -0.3156 -0.2490
 1167SOL    HW115137   2.210   3.995   4.267  0.6004 -1.4359 -0.6795
 1167SOL    HW215138   2.304   3.998   4.153 -0.0470 -0.9570 -1.0627
 1168SOL     OW15139   4.264   0.055   0.725 -0.2158 -0.2478  0.0480
 1168SOL    HW115140   4.331   4.724   0.731 -0.0719 -0.1446 -0.3933
 1168SOL    HW215141   4.311   0.127   0.683  0.4360  0.6615  2.3319
 1169SOL     OW15142   0.989   2.881  13.911 -0.2330  0.2312 -0.2720
 1169SOL    HW115143   1.022   2.802  13.955 -0.8267  0.0200 -0.2062
 1169SOL    HW215144   0.927   2.834  13.855  0.3620 -1.4372  0.4725
 1170SOL     OW15145   0.160   3.369   7.053 -0.0306 -0.1997  0.3397
 1170SOL    HW115146   0.238   3.402   7.008  0.0477 -0.8374  0.0059
 1170SOL    HW215147   0.163   3.410   7.140 -0.3237  0.9270 -0.1803
 1171SOL     OW15148   0.433   0.054   7.272  0.4867 -0.5175 -0.1253
 1171SOL    HW115149   0.505   0.110   7.300  0.2934 -0.5542  0.4389
 1171SOL    HW215150   0.402   0.018   7.355 -0.8271 -2.9115 -1.6555
 1172SOL     OW15151   4.339   4.640   6.990 -0.2381 -0.4081 -0.4007
 1172SOL    HW115152   4.425   4.665   7.023 -0.6833 -0.1906  0.5932
 1172SOL    HW215153   4.279   4.679   7.054  1.4109 -1.7486  1.9675
 1173SOL     OW15154   2.071   3.173   6.538  0.7605 -0.2714 -0.6195
 1173SOL    HW115155   2.100   3.110   6.471 -2.0599  2.2093 -4.1607
 1173SOL    HW215156   2.120   3.147   6.616  1.0883 -0.9528 -1.0467
 1174SOL     OW15157   0.266   1.250  13.286  0.0088  0.0083 -0.2766
 1174SOL    HW115158   0.235   1.324  13.338  1.3475 -1.0805  2.0603
 1174SOL    HW215159   0.265   1.283  13.196 -0.7865  0.7973  0.0129
 1175SOL     OW15160   0.120   4.492   5.950 -0.3622 -0.5097 -0.2613
 1175SOL    HW115161   0.035   4.461   5.981 -1.2498 -0.3256 -2.5081
 1175SOL    HW215162   0.118   4.451   5.863 -2.0961  0.2504 -0.5836
 1176SOL     OW15163   0.745   3.264   8.693 -0.2322  0.9971  0.5312
 1176SOL    HW115164   0.833   3.243   8.724 -0.4465  0.3646  0.7258
 1176SOL    HW215165   0.696   3.196   8.739  1.2824 -1.5625 -1.6401
 1177SOL     OW15166   4.699   3.615   1.850 -0.4362 -0.6902 -0.1854
 1177SOL    HW115167   4.684   3.539   1.793  0.5356  1.5559 -3.4169
 1177SOL    HW215168   4.628   3.670   1.818  1.8092  1.5002 -1.4314
 1178SOL     OW15169   4.300   2.586   2.011 -0.4541 -0.0908 -0.0819
 1178SOL    HW115170   4.332   2.593   1.921  1.8465 -3.1160  0.5104
 1178SOL    HW215171   4.295   2.677   2.040 -0.0010  0.5402 -1.9923
 1179SOL     OW15172   1.177   3.224   6.213 -0.1625 -0.0691  0.0276
 1179SOL    HW115173   1.096   3.269   6.237  0.7757  3.1214 -2.7697
 1179SOL    HW215174   1.159   3.209   6.120  2.0995  1.5960 -0.6810
 1180SOL     OW15175   4.115   1.981   5.834 -0.3296 -0.3303 -0.7118
 1180SOL    HW115176   4.186   2.014   5.779  0.2389  0.1593  0.3148
 1180SOL    HW215177   4.138   2.006   5.923  1.0740 -3.1802 -0.2432
 1181SOL     OW15178   3.528   0.127   0.835 -0.3077  0.3139 -0.4538
 1181SOL    HW115179   3.561   0.042   0.864 -0.8999  0.6320  1.1517
 1181SOL    HW215180   3.593   0.179   0.881  1.0086 -1.1551 -0.6507
 1182SOL     OW15181   2.343   4.317   4.026 -0.1315 -0.3132  0.6725
 1182SOL    HW115182   2.429   4.319   4.070 -0.1688  1.0911  0.7013
 1182SOL    HW215183   2.335   4.228   3.994  1.4029 -0.4735  0.6947
 1183SOL     OW15184   0.898   4.508  16.546 -0.0501 -0.2415 -0.0835
 1183SOL    HW115185   0.880   4.415  16.560  0.6305 -0.4938 -0.8428
 1183SOL    HW215186   0.835   4.551  16.604 -0.8058 -2.5851  0.8290
 1184SOL     OW15187   2.252   0.326  16.373 -0.6468  0.8573  0.2397
 1184SOL    HW115188   2.187   0.372  16.426  0.0860 -0.4939  2.2991
 1184SOL    HW215189   2.258   0.240  16.415  1.0906  0.8303 -0.0813
 1185SOL     OW15190   1.154   1.577   8.289 -0.2721 -0.4645  0.1088
 1185SOL    HW115191   1.106   1.504   8.251 -0.4652  0.3966 -1.2704
 1185SOL    HW215192   1.191   1.618   8.211 -2.0643 -0.1638 -0.5814
 1186SOL     OW15193   2.774   2.722   6.807  0.4054 -0.1083  0.3662
 1186SOL    HW115194   2.783   2.743   6.900  1.3829  1.8249 -0.1601
 1186SOL    HW215195   2.858   2.751   6.771 -0.2282  2.0013  0.5319
 1187SOL     OW15196   3.743   0.284   6.806 -0.7967 -0.2091 -0.2321
 1187SOL    HW115197   3.689   0.287   6.885 -1.6318 -2.6577 -0.7166
 1187SOL    HW215198   3.679   0.278   6.735  1.6898  0.9370 -2.5804
 1188SOL     OW15199   3.246   3.992   1.840  0.2636  0.0534 -0.0128
 1188SOL    HW115200   3.261   3.897   1.845  0.0252  0.0966  1.3447
 1188SOL    HW215201   3.201   4.000   1.924  0.4635  0.2300  0.0757
 1189SOL     OW15202   0.749   1.031  14.041 -0.2803 -0.7578 -0.7735
 1189SOL    HW115203   0.739   0.967  13.971  0.2609 -2.1736  0.4449
 1189SOL    HW215204   0.673   1.086  14.023  2.0548  1.8135 -2.8032
 1190SOL     OW15205   1.361   4.260   7.501  0.6311 -0.4667 -0.0750
 1190SOL    HW115206   1.367   4.215   7.585  0.8499  0.2416  0.2855
 1190SOL    HW215207   1.430   4.240   7.437  0.1840  1.6485 -1.2169
 1191SOL     OW15208   1.324   1.626   3.726 -0.0863 -0.4060 -0.1450
 1191SOL    HW115209   1.380   1.553   3.698 -0.7337 -0.9828  0.0539
 1191SOL    HW215210   1.369   1.655   3.805 -0.7721 -0.3813  0.2319
 1192SOL     OW15211   2.760   2.173  11.834 -0.1591  0.3095 -0.4580
 1192SOL    HW115212   2.773   2.144  11.744 -3.7636  1.0303 -1.2137
 1192SOL    HW215213   2.679   2.223  11.824 -0.9734 -0.7502  0.8755
 1193SOL     OW15214   3.294   0.431   4.872 -0.1215  0.5379 -0.0415
 1193SOL    HW115215   3.264   0.476   4.951  0.2310  1.5191 -0.4643
 1193SOL    HW215216   3.233   0.359   4.862 -0.1629  0.2028  2.5055
 1194SOL     OW15217   2.636   0.180   7.546  0.2233  0.1079  0.2084
 1194SOL    HW115218   2.709   0.174   7.484 -0.6304  2.3693 -0.9975
 1194SOL    HW215219   2.599   0.265   7.523 -0.0348 -0.6858 -2.2852
 1195SOL     OW15220   3.315   0.327  12.222  0.1076  0.5922 -0.0946
 1195SOL    HW115221   3.331   0.297  12.133  1.0139  0.8635 -0.0198
 1195SOL    HW215222   3.232   0.372  12.208  0.2790  1.7459  2.4203
 1196SOL     OW15223   3.794   1.940   2.794  0.2857 -0.8269  0.6920
 1196SOL    HW115224   3.842   1.862   2.770  3.1209  0.9012  0.7413
 1196SOL    HW215225   3.709   1.896   2.800 -0.2310 -0.3771 -3.2298
 1197SOL     OW15226   1.203   1.279   5.517  0.3264  0.5238  0.8372
 1197SOL    HW115227   1.198   1.205   5.578 -1.0087 -0.6085 -0.6293
 1197SOL    HW215228   1.120   1.326   5.527 -0.5390 -0.6893 -0.5505
 1198SOL     OW15229   4.166   4.498   2.975  0.2133  0.1506  0.2765
 1198SOL    HW115230   4.243   4.443   2.962 -1.0766 -1.9810  1.5490
 1198SOL    HW215231   4.096   4.436   2.997  2.3787 -2.6292 -0.6127
 1199SOL     OW15232   4.700   3.245   3.722 -0.1083 -0.1428 -0.0531
 1199SOL    HW115233   0.002   3.160   3.740  0.3996 -0.1257 -1.0571
 1199SOL    HW215234   4.733   3.247   3.632 -0.5923  0.5012 -0.2144
 1200SOL     OW15235   4.319   3.299   6.105 -0.5415 -0.8085 -0.2825
 1200SOL    HW115236   4.399   3.339   6.071 -1.5969  0.7088 -0.9724
 1200SOL    HW215237   4.327   3.301   6.200 -0.5264 -1.7043 -0.2601
 1201SOL     OW15238   3.455   0.570   2.811  0.1723 -0.2976  0.6003
 1201SOL    HW115239   3.443   0.485   2.852  0.0190 -0.5149  0.1142
 1201SOL    HW215240   3.364   0.591   2.791  0.6153 -1.3057 -2.5212
 1202SOL     OW15241   1.093   0.746   8.940  0.0024 -0.4827 -0.1588
 1202SOL    HW115242   1.071   0.654   8.952  0.9528 -0.8497 -1.2018
 1202SOL    HW215243   1.011   0.783   8.906  1.5476  0.8676 -2.3939
 1203SOL     OW15244   0.616   4.554   7.651  0.5334 -0.2003 -0.2741
 1203SOL    HW115245   0.584   4.520   7.567  2.1821 -2.2091 -0.1202
 1203SOL    HW215246   0.540   4.594   7.692  1.8233  1.8144  0.1408
 1204SOL     OW15247   3.151   3.979  15.889 -0.2114 -0.5067  0.0711
 1204SOL    HW115248   3.124   4.005  15.977 -0.6803 -0.4194 -0.0961
 1204SOL    HW215249   3.202   4.054  15.859 -1.4899 -0.3106 -1.6764
 1205SOL     OW15250   2.356   3.310   3.713 -0.1821  0.3436 -0.3070
 1205SOL    HW115251   2.427   3.374   3.707 -0.3375  0.3449 -2.1893
 1205SOL    HW215252   2.329   3.323   3.622  1.9449 -0.2754 -1.0354
 1206SOL     OW15253   0.645   1.803   7.298  0.1301  0.3700  0.3157
 1206SOL    HW115254   0.625   1.779   7.388  1.1819 -2.4334 -0.1809
 1206SOL    HW215255   0.725   1.756   7.274 -0.8289 -1.6145  0.9446
 1207SOL     OW15256   2.513   1.137   3.966  0.0977 -0.1414  0.4315
 1207SOL    HW115257   2.451   1.210   3.969 -0.8400 -0.9993  1.8814
 1207SOL    HW215258   2.535   1.136   4.059 -0.2935  0.6579  0.5345
 1208SOL     OW15259   3.351   3.071   2.105  0.4333  0.7380 -0.5281
 1208SOL    HW115260   3.439   3.036   2.115  1.2108  2.8101  0.0042
 1208SOL    HW215261   3.345   3.086   2.011 -1.9505  0.3402 -0.4459
 1209SOL     OW15262   0.977   4.389   8.428  0.2471  0.3422  0.0130
 1209SOL    HW115263   0.917   4.316   8.446 -0.2475  0.9444  0.8112
 1209SOL    HW215264   0.970   4.439   8.510 -1.2545 -2.8919  1.8839
 1210SOL     OW15265   3.678   4.297  15.916  1.2793  0.1156 -0.0280
 1210SOL    HW115266   3.733   4.260  15.985 -0.8942 -1.9082  0.6495
 1210SOL    HW215267   3.680   4.388  15.945 -1.0384  0.2297 -0.1819
 1211SOL     OW15268   2.778   2.868   4.140 -0.2626  0.1462  0.2764
 1211SOL    HW115269   2.697   2.919   4.136 -1.2151 -1.2883  1.2587
 1211SOL    HW215270   2.828   2.925   4.198 -0.8533  0.7805  0.1686
 1212SOL     OW15271   0.940   1.642  15.534 -0.6142 -0.6186  0.1032
 1212SOL    HW115272   0.867   1.701  15.513  1.3029  0.5299 -3.3633
 1212SOL    HW215273   0.988   1.632  15.452  0.3365 -3.6648  1.0188
 1213SOL     OW15274   4.594   3.089   6.885 -0.1055  0.4879 -0.7391
 1213SOL    HW115275   4.512   3.127   6.917  0.3995  0.2736  0.8276
 1213SOL    HW215276   4.574   3.067   6.794 -1.0142  0.5141 -0.5508
 1214SOL     OW15277   1.822   1.120   2.466 -0.2526  0.3841 -0.5453
 1214SOL    HW115278   1.771   1.067   2.405 -0.9149 -0.0777  0.4090
 1214SOL    HW215279   1.861   1.063   2.532  1.7638  1.7629 -0.5485
 1215SOL     OW15280   0.646   2.818   7.865  0.2099 -0.0940  0.4129
 1215SOL    HW115281   0.561   2.839   7.904 -0.4717  0.8674 -1.5989
 1215SOL    HW215282   0.615   2.757   7.799  0.5498 -1.5960  1.6318
 1216SOL     OW15283   3.217   2.423   2.374  0.8781 -0.3475 -0.0832
 1216SOL    HW115284   3.186   2.353   2.431 -0.7460 -0.0240 -0.5474
 1216SOL    HW215285   3.307   2.428   2.405  1.2459 -0.6910 -1.0809
 1217SOL     OW15286   1.591   2.009   8.288 -0.8079  0.2140 -0.3450
 1217SOL    HW115287   1.599   1.927   8.335  0.8490  0.0258 -0.9685
 1217SOL    HW215288   1.564   1.991   8.198  1.6165 -0.3259 -0.9592
 1218SOL     OW15289   0.367   4.162   8.275  0.1580  0.5193 -0.3821
 1218SOL    HW115290   0.450   4.120   8.254 -0.5199 -0.6339 -0.7560
 1218SOL    HW215291   0.354   4.214   8.196  1.5166  2.7474  0.8405
 1219SOL     OW15292   2.451   2.759   5.430  0.2297  0.2366 -0.0836
 1219SOL    HW115293   2.538   2.793   5.411 -0.1128 -0.3094 -2.6196
 1219SOL    HW215294   2.401   2.840   5.443  0.9161  1.1215 -3.0609
 1220SOL     OW15295   2.886   3.256   2.242 -0.5020  0.0383  0.3726
 1220SOL    HW115296   2.904   3.285   2.152 -2.3285  0.2990  0.0769
 1220SOL    HW215297   2.951   3.186   2.239  0.2685  0.7046  1.4688
 1221SOL     OW15298   1.676   1.366   8.428 -0.2501 -0.8191  0.1466
 1221SOL    HW115299   1.623   1.288   8.438 -1.0352  0.0006  2.2287
 1221SOL    HW215300   1.616   1.438   8.413 -1.0996 -1.5443  0.0945
 1222SOL     OW15301   4.597   2.628  14.527  0.0094 -0.1671 -0.0250
 1222SOL    HW115302   4.512   2.608  14.568 -0.1519 -0.7722 -0.6637
 1222SOL    HW215303   4.583   2.604  14.436 -2.6190  0.1700  0.2649
 1223SOL     OW15304   0.734   0.692   6.028 -0.2477  0.8197 -0.2721
 1223SOL    HW115305   0.645   0.727   6.016 -0.3689  0.9875  1.1335
 1223SOL    HW215306   0.778   0.697   5.943 -0.4424 -2.8403 -0.6024
 1224SOL     OW15307   4.105   2.707  15.401  0.0512 -0.2894  0.3712
 1224SOL    HW115308   4.113   2.683  15.493 -3.6956  0.0537  0.7921
 1224SOL    HW215309   4.063   2.792  15.415  1.5464  0.5856 -0.4275
 1225SOL     OW15310   3.642   3.409   4.894  0.1305  0.5821 -0.3643
 1225SOL    HW115311   3.721   3.409   4.839  0.5559 -1.9240  0.2584
 1225SOL    HW215312   3.602   3.489   4.858  3.0952  2.6624  0.9899
 1226SOL     OW15313   3.661   3.984   1.255 -0.0132  0.3879  0.0458
 1226SOL    HW115314   3.733   3.921   1.252  0.4262  0.7312  2.6694
 1226SOL    HW215315   3.704   4.068   1.270  0.4185 -0.1540  1.8589
 1227SOL     OW15316   3.613   1.302   3.976  0.4574 -0.0553 -0.3170
 1227SOL    HW115317   3.569   1.342   4.052 -0.9733 -0.7682 -0.7613
 1227SOL    HW215318   3.562   1.321   3.897 -1.5305 -1.5397  0.6068
 1228SOL     OW15319   3.691   1.956   6.408 -0.3832  0.3117  0.1943
 1228SOL    HW115320   3.683   1.876   6.357 -1.3674  0.4623  0.1246
 1228SOL    HW215321   3.607   1.961   6.454 -1.0469  1.0115 -1.0983
 1229SOL     OW15322   1.996   0.734   4.559  0.0039  0.3163  0.4714
 1229SOL    HW115323   1.912   0.779   4.549 -0.5205 -0.8373 -0.3095
 1229SOL    HW215324   2.062   0.791   4.519  0.3153 -0.4544 -0.1091
 1230SOL     OW15325   0.484   3.154  17.342 -0.4051 -0.3836 -0.2879
 1230SOL    HW115326   0.499   3.236  17.295  0.6035 -0.2268  0.3129
 1230SOL    HW215327   0.434   3.112  17.271  0.4471 -1.2457 -0.3754
 1231SOL     OW15328   4.479   3.805   2.181  0.0198  0.1087  0.6157
 1231SOL    HW115329   4.425   3.725   2.182 -0.5383  0.4894  1.0766
 1231SOL    HW215330   4.412   3.874   2.181  0.8089  0.8716 -0.0883
 1232SOL     OW15331   0.273   0.308   8.203  0.2342 -0.1736  0.2380
 1232SOL    HW115332   0.299   0.327   8.293 -2.2504  0.6281  0.7665
 1232SOL    HW215333   0.178   0.309   8.214  0.2230  1.1203  0.0271
 1233SOL     OW15334   0.262   3.162  16.000  0.5129 -0.1264  0.4646
 1233SOL    HW115335   0.208   3.241  15.996 -0.6026 -0.8660  0.9457
 1233SOL    HW215336   0.268   3.138  15.908 -3.3113 -1.2346  0.4967
 1234SOL     OW15337   4.103   0.985  17.621  0.0732  0.6041 -0.6552
 1234SOL    HW115338   4.171   1.033  17.668  1.1957 -0.5398 -1.1003
 1234SOL    HW215339   4.131   0.895  17.640 -2.0177  0.5905  2.3561
 1235SOL     OW15340   0.879   0.757   8.746  0.6727  0.3488 -0.1739
 1235SOL    HW115341   0.906   0.670   8.720  0.5127  0.5391 -0.9808
 1235SOL    HW215342   0.793   0.735   8.782 -0.8054  1.8986 -2.7451
 1236SOL     OW15343   3.187   1.302   4.367 -0.9619 -0.6703 -0.1297
 1236SOL    HW115344   3.165   1.299   4.460 -0.2688 -0.1250  0.0518
 1236SOL    HW215345   3.273   1.262   4.381  0.1796  1.5093 -0.9548
 1237SOL     OW15346   1.302   2.001   2.956 -0.0580 -0.4002 -0.5328
 1237SOL    HW115347   1.260   1.983   2.872  0.3821  2.3815 -1.3470
 1237SOL    HW215348   1.296   2.097   2.953  3.1673 -0.1666 -0.4885
 1238SOL     OW15349   3.508   0.314   2.896  0.0986  0.6075  0.5729
 1238SOL    HW115350   3.574   0.253   2.862 -0.4870  0.7146 -0.7496
 1238SOL    HW215351   3.552   0.363   2.965  1.6717 -1.6325  1.1522
 1239SOL     OW15352   1.650   2.958  13.036 -0.5245 -0.3692 -0.5219
 1239SOL    HW115353   1.743   2.935  13.035  0.4064  3.4730 -1.6295
 1239SOL    HW215354   1.608   2.902  12.971  1.0465  1.4274 -3.0755
 1240SOL     OW15355   3.073   3.291   4.293 -0.2469 -0.1207  0.1018
 1240SOL    HW115356   3.139   3.329   4.352 -0.7544 -0.9411  1.2009
 1240SOL    HW215357   3.018   3.369   4.283 -0.2707 -0.5738 -3.2033
 1241SOL     OW15358   2.733   4.444   9.155  0.1392  0.5482 -0.0045
 1241SOL    HW115359   2.684   4.381   9.102  1.8728 -0.9872  0.2153
 1241SOL    HW215360   2.666   4.511   9.171  0.3606  0.5842  0.7798
 1242SOL     OW15361   0.108   1.391   7.017  0.1915 -0.0549 -0.0636
 1242SOL    HW115362   0.117   1.379   7.111 -1.4503  0.4237  0.1449
 1242SOL    HW215363   0.055   1.470   7.010  1.5204  0.8712  0.3999
 1243SOL     OW15364   1.310   4.513   5.175 -0.3861  0.4756  0.0080
 1243SOL    HW115365   1.312   4.440   5.238 -0.9015  0.2418 -0.2466
 1243SOL    HW215366   1.337   4.577   5.240 -0.3467  0.5441 -0.0768
 1244SOL     OW15367   1.680   3.800   8.008  0.1823  0.8576 -0.5165
 1244SOL    HW115368   1.670   3.711   8.042 -0.0822  1.8854  2.0791
 1244SOL    HW215369   1.637   3.804   7.923 -0.0174  2.0683 -0.3559
 1245SOL     OW15370   1.517   3.068   1.413  0.3376 -0.1436 -0.0271
 1245SOL    HW115371   1.484   2.979   1.398  1.4401 -0.5197 -0.1957
 1245SOL    HW215372   1.601   3.060   1.458 -0.1120 -1.7272  0.5518
 1246SOL     OW15373   2.363   1.145   8.858 -0.7491  0.0928 -0.0175
 1246SOL    HW115374   2.271   1.150   8.832 -0.5181  0.7988 -0.6912
 1246SOL    HW215375   2.360   1.231   8.902 -0.1025  0.2589 -0.3140
 1247SOL     OW15376   0.545   3.174   3.735  0.4946  0.4153  0.8684
 1247SOL    HW115377   0.582   3.262   3.748  0.6653  0.3715  0.6833
 1247SOL    HW215378   0.457   3.200   3.708  1.1852  0.8627 -1.0270
 1248SOL     OW15379   1.553   4.391   5.741 -0.0376 -0.1475  0.0549
 1248SOL    HW115380   1.467   4.433   5.744 -0.1726 -0.2823 -1.6256
 1248SOL    HW215381   1.608   4.468   5.758  0.1818 -0.1486 -0.6568
 1249SOL     OW15382   1.569   1.070  14.528  0.1808 -0.0915  0.2220
 1249SOL    HW115383   1.579   1.053  14.434  0.1254  0.9869  0.0259
 1249SOL    HW215384   1.530   0.988  14.560 -1.5119 -0.3839 -2.5369
 1250SOL     OW15385   3.437   3.840   1.306  0.2992  0.2841 -0.6662
 1250SOL    HW115386   3.474   3.777   1.367  0.2373  0.0915 -0.8269
 1250SOL    HW215387   3.510   3.902   1.304  1.1750 -0.8008 -2.1870
 1251SOL     OW15388   1.367   0.756   4.113  0.1092  0.4868  0.1245
 1251SOL    HW115389   1.368   0.724   4.023 -1.6503 -0.1134  0.3219
 1251SOL    HW215390   1.277   0.734   4.138 -0.8440  1.8097 -2.1480
 1252SOL     OW15391   1.081   0.929   2.932 -0.0554  0.3271  0.3519
 1252SOL    HW115392   1.072   1.024   2.925 -1.1413 -0.0348 -3.0933
 1252SOL    HW215393   1.155   0.908   2.875  0.5993 -1.0106  1.6972
 1253SOL     OW15394   0.945   1.889   4.380  0.3091 -0.5497  0.0348
 1253SOL    HW115395   0.897   1.828   4.436 -1.5748  1.2216  0.3870
 1253SOL    HW215396   0.933   1.856   4.291 -1.1326 -2.3241  0.8899
 1254SOL     OW15397   2.214   1.286   9.149 -0.0551  0.0534  0.2184
 1254SOL    HW115398   2.158   1.209   9.147 -1.5072  1.0593  1.5442
 1254SOL    HW215399   2.161   1.360   9.120 -0.4453  0.2700  1.4569
 1255SOL     OW15400   0.518   1.599   9.762 -0.0312  0.1020 -0.0615
 1255SOL    HW115401   0.472   1.680   9.787  2.0372  1.0947  0.5314
 1255SOL    HW215402   0.550   1.634   9.679 -1.7890  1.6924 -0.0985
 1256SOL     OW15403   3.225   1.809  16.693  0.1393  0.1043 -0.1199
 1256SOL    HW115404   3.256   1.729  16.736  2.0328  0.0011 -1.6788
 1256SOL    HW215405   3.136   1.811  16.727  0.7757  4.8329  1.1746
 1257SOL     OW15406   2.372   0.242   0.169  0.0534 -0.0752 -0.7189
 1257SOL    HW115407   2.464   0.233   0.193  0.1042 -1.4733 -1.4125
 1257SOL    HW215408   2.360   0.308   0.237  0.7092  0.8011 -1.4600
 1258SOL     OW15409   2.601   2.556   6.505 -0.0216 -0.1470 -0.1582
 1258SOL    HW115410   2.529   2.571   6.443  0.8807 -1.4503 -1.5411
 1258SOL    HW215411   2.567   2.594   6.585 -1.3536 -2.0987  0.2090
 1259SOL     OW15412   0.024   0.602   8.912  0.1185 -0.4072  0.8842
 1259SOL    HW115413   4.679   0.628   8.872 -1.6646 -2.8100  2.9527
 1259SOL    HW215414   0.027   0.507   8.896  1.7023  0.3697 -3.1892
 1260SOL     OW15415   1.717   4.078  10.524  0.0748 -0.1749 -0.0585
 1260SOL    HW115416   1.777   4.004  10.513  0.0144 -0.1679 -0.4379
 1260SOL    HW215417   1.694   4.071  10.616  2.6389  1.1612  0.7194
 1261SOL     OW15418   1.847   2.269   6.129 -0.2066  0.6038  0.5683
 1261SOL    HW115419   1.815   2.180   6.118 -0.6854  0.8501 -0.0242
 1261SOL    HW215420   1.805   2.290   6.212 -0.2325  0.5310  0.5730
 1262SOL     OW15421   1.376   0.349  13.219  0.1473 -0.4239  0.0616
 1262SOL    HW115422   1.357   0.434  13.260  0.5447 -0.0753 -0.4881
 1262SOL    HW215423   1.470   0.342  13.231  0.3125  0.7479 -0.5388
 1263SOL     OW15424   2.625   3.690   7.328 -0.0571 -0.1547 -0.1084
 1263SOL    HW115425   2.677   3.765   7.296  1.3589 -0.3101  1.7915
 1263SOL    HW215426   2.672   3.661   7.407 -0.7241 -0.9325  0.0023
 1264SOL     OW15427   3.403   2.737  14.605 -0.1715 -0.5179  0.4786
 1264SOL    HW115428   3.326   2.695  14.645 -0.0539 -0.8139  0.3944
 1264SOL    HW215429   3.458   2.762  14.680  0.8901 -0.7624 -0.2242
 1265SOL     OW15430   4.079   1.454   1.825  0.2442  0.1937  0.5689
 1265SOL    HW115431   4.043   1.459   1.914  0.4533  1.3528  0.5877
 1265SOL    HW215432   4.013   1.396   1.786 -2.0725  2.7251  0.7410
 1266SOL     OW15433   2.345   3.709   3.562 -0.0792  0.0366  0.1071
 1266SOL    HW115434   2.260   3.674   3.537 -0.5751  1.1128  0.2957
 1266SOL    HW215435   2.393   3.656   3.497 -2.1057 -1.4128 -0.2054
 1267SOL     OW15436   3.666   0.253   1.522  0.1901  0.0326 -0.1823
 1267SOL    HW115437   3.632   0.342   1.528 -1.0867 -0.3095 -2.5087
 1267SOL    HW215438   3.706   0.247   1.609  1.3862 -0.3112 -0.7634
 1268SOL     OW15439   3.543   3.915   7.129  0.4471  0.8456 -0.1350
 1268SOL    HW115440   3.559   3.828   7.092 -1.6618 -0.0827  1.1226
 1268SOL    HW215441   3.600   3.923   7.206  0.3053  1.6357 -0.1139
 1269SOL     OW15442   4.478   3.020  12.529 -0.0882  0.0728  0.1907
 1269SOL    HW115443   4.458   2.933  12.563  0.7703 -0.5399 -0.8642
 1269SOL    HW215444   4.557   3.007  12.476 -0.5981 -1.3317 -0.2092
 1270SOL     OW15445   1.863   0.737   5.974  0.1226  0.0416  0.3026
 1270SOL    HW115446   1.825   0.754   5.888  1.2699  1.7810  0.1404
 1270SOL    HW215447   1.949   0.698   5.955 -0.6695 -1.8938  0.7398
 1271SOL     OW15448   1.930   4.206   7.028  0.0339  0.5840  1.2053
 1271SOL    HW115449   1.927   4.174   6.938  1.2741  1.4856  0.8350
 1271SOL    HW215450   1.942   4.299   7.012 -1.0234  0.6272  0.7192
 1272SOL     OW15451   1.798   0.468  16.568  0.2570 -0.1364 -0.0426
 1272SOL    HW115452   1.746   0.548  16.579  1.0399  0.5074 -1.0137
 1272SOL    HW215453   1.741   0.399  16.537  1.9924 -2.1525  1.2557
 1273SOL     OW15454   2.547   2.574   4.168  0.0869  0.4983 -0.4248
 1273SOL    HW115455   2.512   2.636   4.233 -0.4926  1.5023 -1.6847
 1273SOL    HW215456   2.482   2.504   4.164 -0.1812  0.6644  1.0593
 1274SOL     OW15457   4.551   3.957   4.187 -0.1686  0.0288 -0.2330
 1274SOL    HW115458   4.462   3.928   4.169 -1.0637  1.4266  1.9768
 1274SOL    HW215459   4.526   4.033   4.239  1.2895  1.0410 -0.9948
 1275SOL     OW15460   1.757   0.506   1.965 -0.5144 -0.2445  0.5533
 1275SOL    HW115461   1.778   0.450   1.890  2.0582 -0.1330  1.1824
 1275SOL    HW215462   1.816   0.481   2.036  0.9258  0.1550 -0.5067
 1276SOL     OW15463   3.648   4.351  10.738  0.1483  0.0517 -0.7336
 1276SOL    HW115464   3.591   4.366  10.813  0.8658  1.5658 -0.4771
 1276SOL    HW215465   3.719   4.301  10.780 -1.3515 -0.0106  1.7172
 1277SOL     OW15466   3.610   3.679  16.444  0.2118  0.7529  0.1561
 1277SOL    HW115467   3.689   3.731  16.460  0.7193 -0.5480  1.8852
 1277SOL    HW215468   3.629   3.620  16.372  2.0272  2.9748 -1.1698
 1278SOL     OW15469   2.908   1.778   7.319 -0.1465  0.0697 -0.6489
 1278SOL    HW115470   2.871   1.692   7.304  0.2057 -0.3838  1.0650
 1278SOL    HW215471   2.954   1.769   7.402 -0.3444  0.9391 -0.4437
 1279SOL     OW15472   2.803   0.515   6.072 -0.0702 -0.3396  0.4719
 1279SOL    HW115473   2.849   0.557   6.144 -0.1384  1.5326 -0.5853
 1279SOL    HW215474   2.732   0.479   6.125 -0.7779 -0.3092 -0.4481
 1280SOL     OW15475   3.615   0.098  12.230 -0.3628 -0.0786  0.3273
 1280SOL    HW115476   3.689   0.116  12.171  0.1265  1.4655  1.4063
 1280SOL    HW215477   3.580   0.014  12.200 -0.1511  0.6103 -1.8865
 1281SOL     OW15478   2.575   2.881   9.559  0.0138  0.1008 -0.9063
 1281SOL    HW115479   2.548   2.973   9.559  1.6872  0.5902  0.8027
 1281SOL    HW215480   2.625   2.885   9.478 -1.2618  0.3814 -1.6953
 1282SOL     OW15481   2.195   4.316   4.543  0.5618 -0.0468 -0.5597
 1282SOL    HW115482   2.216   4.227   4.570  4.0099  0.7744 -0.5825
 1282SOL    HW215483   2.278   4.342   4.503  1.0893 -1.1933 -0.2077
 1283SOL     OW15484   3.360   4.616   8.100  0.2683  0.3776 -0.7359
 1283SOL    HW115485   3.267   4.614   8.122  0.7070  0.2265  1.0348
 1283SOL    HW215486   3.359   4.562   8.021 -1.5150  1.8367 -1.7274
 1284SOL     OW15487   1.500   3.777   1.080 -0.4746 -0.5543 -0.5167
 1284SOL    HW115488   1.473   3.758   1.170  1.1188  0.4621  0.1743
 1284SOL    HW215489   1.421   3.744   1.037 -1.6230  0.0405  1.1576
 1285SOL     OW15490   3.848   4.064   4.909 -0.0933 -1.0242  0.0376
 1285SOL    HW115491   3.927   4.118   4.896 -1.5949  1.0884 -0.2656
 1285SOL    HW215492   3.878   4.023   4.991  0.8099 -2.3618 -0.9594
 1286SOL     OW15493   3.428   2.523   0.016  0.2137 -0.4844  0.1511
 1286SOL    HW115494   3.376   2.566  17.696 -0.2054 -1.7684 -0.3533
 1286SOL    HW215495   3.441   2.601   0.070 -1.8201  0.3945 -0.6263
 1287SOL     OW15496   1.591   2.626   4.410 -0.2960  0.0892 -0.0464
 1287SOL    HW115497   1.565   2.536   4.388  0.2316  0.7441 -3.4301
 1287SOL    HW215498   1.503   2.663   4.422 -0.6334  0.0192 -2.2232
 1288SOL     OW15499   3.689   3.097   9.225  0.8731  0.4678  0.2817
 1288SOL    HW115500   3.617   3.125   9.281 -1.3066  0.9109 -2.7745
 1288SOL    HW215501   3.650   3.063   9.145 -0.7280 -0.5113  1.4851
 1289SOL     OW15502   3.819   4.309   0.635  0.4350 -0.7265 -0.3058
 1289SOL    HW115503   3.768   4.256   0.574 -0.6744  1.8075 -1.6042
 1289SOL    HW215504   3.891   4.247   0.642  2.1694  1.3217  0.0626
 1290SOL     OW15505   0.147   0.508   5.593 -0.0392 -0.7223  0.1691
 1290SOL    HW115506   0.196   0.585   5.564 -0.1005 -0.7852 -0.0971
 1290SOL    HW215507   0.211   0.443   5.562 -0.3812 -1.3789  0.8318
 1291SOL     OW15508   3.382   0.595   3.554 -0.1537 -0.0919 -0.0099
 1291SOL    HW115509   3.441   0.644   3.497  0.3637  0.4743  1.0096
 1291SOL    HW215510   3.393   0.503   3.531  1.6158  0.1058  0.0701
 1292SOL     OW15511   0.964   1.779   9.273 -0.1140  0.3599 -0.2018
 1292SOL    HW115512   0.912   1.710   9.314 -2.1657  1.2562 -1.3454
 1292SOL    HW215513   0.899   1.821   9.217  1.5482  1.8469 -1.0247
 1293SOL     OW15514   1.836   2.481   2.878  0.5199  0.6147 -0.0131
 1293SOL    HW115515   1.820   2.441   2.793 -0.7282 -0.0821  0.5412
 1293SOL    HW215516   1.891   2.553   2.847  0.6197  1.3741  1.8941
 1294SOL     OW15517   2.044   1.996   3.866  0.0925 -0.0119  0.1840
 1294SOL    HW115518   1.954   2.026   3.878 -0.6123 -0.9055 -2.8739
 1294SOL    HW215519   2.078   2.072   3.817  1.6727 -0.4782  0.5743
 1295SOL     OW15520   1.714   1.244   4.508 -0.0735  0.0229  0.4460
 1295SOL    HW115521   1.639   1.191   4.534  1.7564 -2.8989 -0.2447
 1295SOL    HW215522   1.788   1.204   4.552  0.3020 -0.0733 -0.2722
 1296SOL     OW15523   1.820   4.153   7.637  0.1840  0.0403 -0.0367
 1296SOL    HW115524   1.862   4.143   7.723  1.4382 -1.8005 -0.8628
 1296SOL    HW215525   1.827   4.248   7.625  1.4878 -0.1988 -1.2478
 1297SOL     OW15526   0.234   2.847   9.612  1.0524  0.2264 -0.9035
 1297SOL    HW115527   0.274   2.908   9.673  2.4351  0.9322 -2.5126
 1297SOL    HW215528   0.146   2.848   9.648  1.8512  2.4361  0.9625
 1298SOL     OW15529   0.426   3.826  15.875  0.2970 -0.0776  0.3119
 1298SOL    HW115530   0.416   3.919  15.855  1.8821 -0.3618 -1.7205
 1298SOL    HW215531   0.508   3.833  15.925  0.6377  1.0289 -0.3980
 1299SOL     OW15532   3.589   4.459   6.587  0.2894 -0.4373  0.4148
 1299SOL    HW115533   3.665   4.513   6.563 -1.9732  2.2555 -0.6934
 1299SOL    HW215534   3.623   4.373   6.562  0.8711  0.1683 -0.9071
 1300SOL     OW15535   1.194   0.772   5.651 -0.4506 -0.7002  0.2204
 1300SOL    HW115536   1.219   0.778   5.743  1.2003  0.9633 -0.3330
 1300SOL    HW215537   1.103   0.745   5.657 -0.4882 -0.3153  1.4298
 1301SOL     OW15538   2.049   1.872   8.827 -0.1026 -0.4559  0.6592
 1301SOL    HW115539   2.076   1.954   8.868  0.6506  0.7301 -2.2190
 1301SOL    HW215540   2.060   1.893   8.734 -0.6100 -0.3162  0.6260
 1302SOL     OW15541   4.342   2.409  15.202 -0.3991 -0.3317 -0.2834
 1302SOL    HW115542   4.372   2.487  15.249 -2.7414  0.1305  0.4562
 1302SOL    HW215543   4.343   2.351  15.278  1.5450 -2.9907 -2.3159
 1303SOL     OW15544   4.520   4.413   1.224 -0.3403 -0.8076 -0.3279
 1303SOL    HW115545   4.567   4.382   1.147 -1.2743 -0.4988 -1.0176
 1303SOL    HW215546   4.592   4.414   1.288 -0.1686  0.6915 -0.5382
 1304SOL     OW15547   4.279   0.600   3.124  0.0650  0.1833 -0.4229
 1304SOL    HW115548   4.192   0.568   3.100 -0.0405 -0.0455  0.2800
 1304SOL    HW215549   4.333   0.523   3.105  0.0959  0.3492 -1.0067
 1305SOL     OW15550   0.181   4.643  10.682 -0.2202  0.3410  0.4802
 1305SOL    HW115551   0.247   4.592  10.729 -0.6815  0.7964  1.6062
 1305SOL    HW215552   0.201   4.636  10.588  0.4568 -1.1365  0.7353
 1306SOL     OW15553   0.062   1.554   4.736 -0.0298 -0.0170 -0.2291
 1306SOL    HW115554   0.091   1.472   4.776  0.6183 -0.5709 -1.8316
 1306SOL    HW215555   0.062   1.541   4.641 -0.0532 -2.5147  0.1210
 1307SOL     OW15556   1.650   0.796   2.851 -0.0704  0.0867  0.9322
 1307SOL    HW115557   1.696   0.725   2.807 -0.6881 -0.0953  0.5761
 1307SOL    HW215558   1.719   0.839   2.902  0.4224  1.2444 -0.7057
 1308SOL     OW15559   1.731   4.187   4.640  0.0403  0.3113  0.3641
 1308SOL    HW115560   1.764   4.101   4.614  2.4518  1.5862 -0.8065
 1308SOL    HW215561   1.811   4.239   4.628 -1.1035  1.7965 -0.7552
 1309SOL     OW15562   0.961   0.651   8.180 -0.5541 -0.0828  0.4643
 1309SOL    HW115563   0.959   0.734   8.133  2.5624  0.4846  1.2975
 1309SOL    HW215564   0.894   0.593   8.145 -0.6745  0.1134  0.3739
 1310SOL     OW15565   1.675   4.369   3.280 -0.3729 -0.1525 -0.1921
 1310SOL    HW115566   1.735   4.395   3.350 -0.6391  0.4333 -0.1791
 1310SOL    HW215567   1.605   4.431   3.297  0.7765  1.2729 -0.6173
 1311SOL     OW15568   4.693   3.222  16.481  0.3554  0.4958 -0.6411
 1311SOL    HW115569   4.724   3.290  16.540  0.2898 -0.1894  0.1725
 1311SOL    HW215570   4.672   3.162  16.552 -2.3211  2.0478 -0.1071
 1312SOL     OW15571   2.704   2.205   3.102 -0.2540 -0.4030  0.1354
 1312SOL    HW115572   2.674   2.262   3.173  0.9707 -0.2805  0.5518
 1312SOL    HW215573   2.778   2.165   3.148  1.4903  0.4804 -1.9112
 1313SOL     OW15574   3.232   2.117  16.235  0.1621  0.6962  0.4900
 1313SOL    HW115575   3.227   2.108  16.330  0.3541 -0.3287  0.4107
 1313SOL    HW215576   3.316   2.074  16.217 -0.4378 -1.0646  1.8868
 1314SOL     OW15577   0.800   2.074   6.257  0.0418  0.0632 -0.1342
 1314SOL    HW115578   0.783   2.166   6.238  1.3674  0.7485  1.8819
 1314SOL    HW215579   0.721   2.040   6.215 -0.2265  0.5199  0.0089
 1315SOL     OW15580   4.116   4.378  16.755  0.3781  0.1574  0.1877
 1315SOL    HW115581   4.068   4.376  16.838 -0.0170 -0.1800 -0.0443
 1315SOL    HW215582   4.199   4.421  16.775 -0.5573  0.6505  2.8811
 1316SOL     OW15583   0.621   4.716   5.385  0.1767 -0.8721 -0.1317
 1316SOL    HW115584   0.608   4.735   5.292 -0.4802 -1.8519 -0.2360
 1316SOL    HW215585   0.531   4.705   5.416 -0.2075  1.1542 -0.5103
 1317SOL     OW15586   3.034   2.220   7.606  0.2534  0.1314  0.3888
 1317SOL    HW115587   3.081   2.182   7.532  1.2448  0.4807  0.8442
 1317SOL    HW215588   3.102   2.279   7.640 -0.1293  1.6180 -1.4059
 1318SOL     OW15589   3.334   2.390  17.046  0.4064 -0.3148  0.3472
 1318SOL    HW115590   3.362   2.334  17.118 -1.8924  0.1620  1.6195
 1318SOL    HW215591   3.357   2.476  17.082  3.0730 -1.3305  1.0757
 1319SOL     OW15592   1.431   3.924   7.370  0.3321 -0.8812  0.0352
 1319SOL    HW115593   1.479   3.902   7.291  0.9047 -2.2743  0.7905
 1319SOL    HW215594   1.478   3.872   7.435 -2.6736 -1.6613  1.5987
 1320SOL     OW15595   2.710   3.621   5.673 -0.2276  0.1633 -0.0972
 1320SOL    HW115596   2.724   3.671   5.754 -0.7035  0.1815 -0.0270
 1320SOL    HW215597   2.658   3.686   5.627  1.7639  2.0956  0.3673
 1321SOL     OW15598   2.949   4.504   8.946  0.4806 -0.1063 -0.2513
 1321SOL    HW115599   2.996   4.426   8.917  0.1927 -0.8212  1.2527
 1321SOL    HW215600   2.873   4.469   8.992  1.2813 -1.1845  0.2293
 1322SOL     OW15601   0.191   3.771   6.970 -0.0903  0.5078 -0.2674
 1322SOL    HW115602   0.195   3.756   7.064  1.2105 -2.3844 -0.8042
 1322SOL    HW215603   0.254   3.841   6.954  0.8801  0.5170  3.8035
 1323SOL     OW15604   3.301   3.325   1.813 -0.3824 -0.2155  0.2122
 1323SOL    HW115605   3.333   3.234   1.810 -4.0097 -1.5440  1.9029
 1323SOL    HW215606   3.235   3.320   1.744 -0.9111  2.3039  0.5416
 1324SOL     OW15607   2.900   4.116  15.551 -0.2469  0.2066  0.7279
 1324SOL    HW115608   2.868   4.207  15.551  2.1144  1.0479 -2.2964
 1324SOL    HW215609   2.888   4.094  15.643 -0.5301 -1.8490  0.1800
 1325SOL     OW15610   2.084   2.795   7.381 -0.2172  0.4504 -0.4486
 1325SOL    HW115611   2.058   2.875   7.428 -0.8852  0.2709 -0.5114
 1325SOL    HW215612   2.016   2.732   7.405  1.1723 -0.5318  0.9139
 1326SOL     OW15613   4.087   1.760   2.101  0.1367 -0.0086 -0.2460
 1326SOL    HW115614   4.041   1.688   2.143  0.9582 -0.4502 -0.1139
 1326SOL    HW215615   4.178   1.752   2.130 -0.3047  0.6019  1.2833
 1327SOL     OW15616   0.491   2.296   8.430 -0.5353 -0.1596 -0.2740
 1327SOL    HW115617   0.564   2.280   8.371  2.2175 -0.4086  3.1703
 1327SOL    HW215618   0.529   2.257   8.509 -3.1568 -1.0880  0.5107
 1328SOL     OW15619   2.330   3.525  16.944 -0.5430  0.3145 -0.2843
 1328SOL    HW115620   2.244   3.514  16.983 -0.2205  0.3203  0.4170
 1328SOL    HW215621   2.357   3.614  16.969  0.8585  0.6506 -2.9570
 1329SOL     OW15622   1.155   1.856   4.896 -0.5940 -0.0290 -0.7511
 1329SOL    HW115623   1.185   1.791   4.832 -0.1240 -0.3793 -0.1782
 1329SOL    HW215624   1.064   1.875   4.875 -0.1614  1.5618 -1.1640
 1330SOL     OW15625   0.121   3.909   2.381 -0.2948 -0.3426  0.0165
 1330SOL    HW115626   0.144   3.818   2.364 -0.5884 -0.5764  0.8888
 1330SOL    HW215627   0.030   3.888   2.403  0.2973  1.1037  3.8392
 1331SOL     OW15628   4.594   3.896   5.719 -0.2567  0.3130 -0.1484
 1331SOL    HW115629   4.530   3.944   5.772 -1.2675 -1.1021 -0.0896
 1331SOL    HW215630   4.641   3.964   5.671  1.5587 -1.8658 -1.4640
 1332SOL     OW15631   0.112   4.559   2.398 -0.0724 -0.1697 -0.2814
 1332SOL    HW115632   0.099   4.531   2.307  0.0644  0.4714 -0.4926
 1332SOL    HW215633   0.132   4.652   2.393 -1.1847 -0.0273 -1.9666
 1333SOL     OW15634   0.735   3.091  15.632  0.4174 -1.3298  0.0091
 1333SOL    HW115635   0.760   3.002  15.658  1.1737 -1.2145 -0.3260
 1333SOL    HW215636   0.821   3.128  15.614 -1.4937  2.5796 -1.0395
 1334SOL     OW15637   2.802   1.450   6.500  0.1122  0.2954 -0.1595
 1334SOL    HW115638   2.857   1.402   6.438  0.9708 -0.8458  1.5026
 1334SOL    HW215639   2.855   1.467   6.578  0.0143  0.9145 -0.2256
 1335SOL     OW15640   3.430   2.289   6.547 -0.5861 -0.1366 -0.3778
 1335SOL    HW115641   3.342   2.300   6.511 -1.5670 -0.8089  1.7536
 1335SOL    HW215642   3.427   2.348   6.623 -2.5398 -1.2290  0.4161
 1336SOL     OW15643   4.409   0.365   3.037 -0.0166 -0.0597 -0.1014
 1336SOL    HW115644   4.474   0.387   2.970  1.6155  0.9025  1.7816
 1336SOL    HW215645   4.364   0.286   3.007 -0.2720  0.1649 -0.3175
 1337SOL     OW15646   4.466   2.825   3.162  0.1118  0.1219 -0.5462
 1337SOL    HW115647   4.499   2.826   3.252 -0.9566  0.0971 -0.1560
 1337SOL    HW215648   4.397   2.760   3.166 -0.4311  0.6324 -1.8880
 1338SOL     OW15649   4.563   0.270  15.858  0.0039  0.4283  1.0307
 1338SOL    HW115650   4.507   0.242  15.786 -0.8897  1.5165  1.3006
 1338SOL    HW215651   4.530   0.359  15.859 -1.2850 -0.0516  0.4594
 1339SOL     OW15652   3.662   4.277   3.226 -0.6587 -0.5303  0.0702
 1339SOL    HW115653   3.634   4.328   3.303 -0.2320 -1.6843  0.9961
 1339SOL    HW215654   3.744   4.242   3.262 -1.0725  0.9605  2.4737
 1340SOL     OW15655   2.343   3.874   4.990  0.3870 -0.1593  0.1103
 1340SOL    HW115656   2.408   3.830   4.936 -0.9310  0.9624 -2.3963
 1340SOL    HW215657   2.348   3.842   5.080 -0.2064  1.3468  0.6798
 1341SOL     OW15658   2.527   2.402   6.054 -0.0268 -0.1517 -0.3517
 1341SOL    HW115659   2.476   2.483   6.060 -0.4755 -0.3961 -0.8605
 1341SOL    HW215660   2.556   2.396   5.963  0.7497 -3.1714  0.1096
 1342SOL     OW15661   1.036   4.001  13.234 -0.4455 -1.0308 -0.6153
 1342SOL    HW115662   1.007   4.089  13.207 -1.8742 -0.4267  2.8701
 1342SOL    HW215663   1.095   4.039  13.299 -1.6039  0.5373 -0.4607
 1343SOL     OW15664   3.109   2.474  17.242  1.0967 -0.1157  0.0039
 1343SOL    HW115665   3.139   2.437  17.325  1.1685 -0.3912 -0.1431
 1343SOL    HW215666   3.129   2.567  17.248  2.4299 -0.3393 -1.0030
 1344SOL     OW15667   3.529   3.492   5.389  0.1123  0.1815 -0.0588
 1344SOL    HW115668   3.494   3.562   5.444 -0.4109  0.2558 -0.4905
 1344SOL    HW215669   3.448   3.440   5.391  0.0654  0.2375 -0.4829
 1345SOL     OW15670   2.168   0.756   9.565 -0.0190 -0.3250 -0.6029
 1345SOL    HW115671   2.167   0.837   9.616  0.6839  0.0314 -1.1611
 1345SOL    HW215672   2.209   0.692   9.622 -0.4169 -0.0447 -0.0009
 1346SOL     OW15673   3.566   2.886  14.231  0.4154 -0.0522 -0.0214
 1346SOL    HW115674   3.579   2.981  14.239 -0.5460 -0.0167  1.0835
 1346SOL    HW215675   3.637   2.869  14.168 -1.1663  0.8816 -2.0358
 1347SOL     OW15676   3.874   1.324   8.211  0.2300 -0.0875 -0.4608
 1347SOL    HW115677   3.866   1.288   8.123 -0.7416 -1.2902  0.1010
 1347SOL    HW215678   3.814   1.398   8.215 -1.3488 -1.3762 -0.0480
 1348SOL     OW15679   1.245   3.614   6.188  0.6513  0.0230  0.0656
 1348SOL    HW115680   1.218   3.525   6.166  2.7883 -0.6290  0.0859
 1348SOL    HW215681   1.311   3.603   6.256 -0.5596 -1.0589  1.0516
 1349SOL     OW15682   3.720   3.434   4.203  0.5581  0.2262 -0.1275
 1349SOL    HW115683   3.766   3.518   4.211  0.7205  0.1302 -0.0668
 1349SOL    HW215684   3.630   3.462   4.185  0.4800 -0.9341 -1.4892
 1350SOL     OW15685   2.368   3.712  17.310 -0.0440 -0.0320 -0.6627
 1350SOL    HW115686   2.378   3.630  17.358 -1.8306  0.0606 -0.1414
 1350SOL    HW215687   2.431   3.699  17.238 -0.0329 -1.8919 -0.3173
 1351SOL     OW15688   2.681   3.053   9.883 -0.4456 -0.0499  0.6899
 1351SOL    HW115689   2.642   3.099   9.957 -2.3543 -0.7557  0.1176
 1351SOL    HW215690   2.601   3.020   9.841  0.3087  0.6007 -1.2272
 1352SOL     OW15691   1.388   1.751   2.001  0.2599 -0.0534 -0.1821
 1352SOL    HW115692   1.449   1.784   1.935  0.3869 -1.2778 -0.6888
 1352SOL    HW215693   1.344   1.677   1.959  0.5787  0.1156 -0.8191
 1353SOL     OW15694   2.146   1.314  14.071 -0.1876  0.8708  0.0628
 1353SOL    HW115695   2.131   1.252  14.142  0.7086  0.8198  0.2120
 1353SOL    HW215696   2.104   1.263  14.002 -0.3768  0.7598  0.2575
 1354SOL     OW15697   1.817   0.529   9.864 -0.2260  0.4169 -0.0533
 1354SOL    HW115698   1.869   0.544   9.943 -0.8788 -1.1188  0.6716
 1354SOL    HW215699   1.883   0.494   9.805  0.5046  0.6358  0.6301
 1355SOL     OW15700   1.670   1.038   6.947  0.3278  0.2903  0.0750
 1355SOL    HW115701   1.623   1.089   7.014 -1.1232 -0.3052 -0.4914
 1355SOL    HW215702   1.632   0.952   6.965 -0.8730  0.5379 -1.3284
 1356SOL     OW15703   0.125   4.677  13.863 -0.1041 -0.5417  0.0237
 1356SOL    HW115704   0.185   4.712  13.797  2.4067 -2.0417  1.5276
 1356SOL    HW215705   0.079   4.606  13.818 -1.8998  1.4014 -1.2035
 1357SOL     OW15706   1.738   0.235   6.180  0.1109  0.4076  0.2563
 1357SOL    HW115707   1.733   0.258   6.273 -0.9025  1.8828 -0.1707
 1357SOL    HW215708   1.698   0.314   6.143 -1.3561 -1.7505 -2.7024
 1358SOL     OW15709   2.945   1.433   5.082 -0.0100  0.5669  0.2400
 1358SOL    HW115710   2.923   1.386   5.162 -0.4326  0.0148 -0.1921
 1358SOL    HW215711   2.864   1.478   5.060 -0.4577  0.3998  1.5684
 1359SOL     OW15712   0.635   0.098   3.767  0.2309 -0.2528  1.0384
 1359SOL    HW115713   0.606   0.035   3.700  1.4505 -1.7440  1.9140
 1359SOL    HW215714   0.709   0.055   3.810  0.8730  1.0806  1.2517
 1360SOL     OW15715   3.584   0.694  13.741 -0.3627  0.3764 -0.0044
 1360SOL    HW115716   3.617   0.684  13.831  0.5251 -0.3896 -0.4174
 1360SOL    HW215717   3.595   0.784  13.711  0.0995 -0.1250 -1.3131
 1361SOL     OW15718   2.159   0.526   9.372 -0.3322  0.1522 -0.1738
 1361SOL    HW115719   2.128   0.614   9.393  1.8358  0.7250  0.6677
 1361SOL    HW215720   2.085   0.465   9.371 -1.0919  1.0428  1.3734
 1362SOL     OW15721   1.590   2.013   3.894  0.2266  0.3460 -0.2416
 1362SOL    HW115722   1.554   1.984   3.810  0.4506 -1.0962  0.1617
 1362SOL    HW215723   1.510   2.060   3.916  0.0118  0.3290 -0.9891
 1363SOL     OW15724   4.451   1.558   3.691  0.0856 -0.3945 -0.4123
 1363SOL    HW115725   4.469   1.569   3.598  1.5677  0.2406 -0.0405
 1363SOL    HW215726   4.415   1.644   3.711  1.0457  0.0457 -0.5836
 1364SOL     OW15727   4.012   3.890   8.441  0.1239  0.1527  0.3292
 1364SOL    HW115728   4.083   3.909   8.503  1.6123  2.8755 -2.1866
 1364SOL    HW215729   3.964   3.970   8.460 -0.3286 -0.2502  0.8557
 1365SOL     OW15730   1.752   3.140  13.492 -0.1574  0.2309 -0.0847
 1365SOL    HW115731   1.709   3.194  13.425  0.0244  1.3286  0.6778
 1365SOL    HW215732   1.837   3.185  13.495  0.7723 -1.6017  0.5386
 1366SOL     OW15733   4.248   1.230   6.613  0.3417 -0.1249  0.0504
 1366SOL    HW115734   4.306   1.247   6.688 -0.5046  1.5514  0.3211
 1366SOL    HW215735   4.299   1.267   6.541 -0.6708 -2.0440 -1.6226
 1367SOL     OW15736   2.031   0.553   8.559 -0.4457 -0.2473 -0.4404
 1367SOL    HW115737   2.049   0.603   8.639 -1.7459  1.5134 -1.2591
 1367SOL    HW215738   2.028   0.623   8.494 -3.0353  1.2675  1.3069
 1368SOL     OW15739   0.502   2.699   7.660 -0.1461 -0.2817 -0.0780
 1368SOL    HW115740   0.519   2.610   7.629  2.5930  0.6415 -1.2913
 1368SOL    HW215741   0.482   2.741   7.576 -0.0530  0.0244  0.0507
 1369SOL     OW15742   2.739   3.100  15.341  0.3271  1.2376  0.5454
 1369SOL    HW115743   2.751   3.012  15.306  1.1335  1.5463  0.0494
 1369SOL    HW215744   2.817   3.107  15.396 -0.2640  0.4053  1.4871
 1370SOL     OW15745   4.563   2.131   5.565  0.2478 -0.3956 -0.4470
 1370SOL    HW115746   4.522   2.212   5.535  0.9389  0.2999  0.4828
 1370SOL    HW215747   4.566   2.080   5.484  2.0604 -1.2225  0.1251
 1371SOL     OW15748   2.101   1.442   8.435 -0.5424 -0.1554 -0.1587
 1371SOL    HW115749   2.171   1.383   8.406  0.7367  1.5750 -0.6495
 1371SOL    HW215750   2.098   1.505   8.363 -1.1760 -0.7336 -0.6394
 1372SOL     OW15751   0.242   3.332   1.569  0.1522 -0.0042 -0.2108
 1372SOL    HW115752   0.216   3.271   1.638  0.4240 -0.4458 -0.4946
 1372SOL    HW215753   0.257   3.266   1.501  3.1942  0.6431 -0.1762
 1373SOL     OW15754   4.411   0.638   7.588  0.1135  0.7047 -0.1676
 1373SOL    HW115755   4.439   0.635   7.679  1.0719  0.8370 -0.4571
 1373SOL    HW215756   4.387   0.731   7.584 -2.4784 -0.0360 -1.7958
 1374SOL     OW15757   2.942   3.855  12.022  0.3404  0.3060 -0.9988
 1374SOL    HW115758   2.959   3.795  12.094 -2.3863  0.0465 -0.5658
 1374SOL    HW215759   3.005   3.838  11.952  1.4651 -2.5474  0.7463
 1375SOL     OW15760   2.680   2.134   4.168 -0.0565  0.0030 -0.0643
 1375SOL    HW115761   2.774   2.137   4.187 -0.3261  1.1809  1.1095
 1375SOL    HW215762   2.679   2.142   4.073  1.2683 -0.7640 -0.1453
 1376SOL     OW15763   1.561   3.978   6.952 -0.0549 -0.4838 -0.2068
 1376SOL    HW115764   1.643   3.933   6.972  0.3478  0.3138 -0.0365
 1376SOL    HW215765   1.562   4.065   6.993 -0.2195 -0.5119 -0.1447
 1377SOL     OW15766   3.060   3.818   2.614 -0.1358  0.2669 -0.1510
 1377SOL    HW115767   3.073   3.751   2.546 -1.7568  0.8208 -1.0003
 1377SOL    HW215768   2.967   3.808   2.636 -0.3731  0.6975 -0.9595
 1378SOL     OW15769   3.542   2.757   9.339  0.0369 -0.0049  0.3746
 1378SOL    HW115770   3.451   2.770   9.313  0.0090 -3.2459 -1.1835
 1378SOL    HW215771   3.579   2.754   9.250 -1.6042 -0.4738 -0.2852
 1379SOL     OW15772   3.862   1.178   4.776 -0.0719  0.1808 -0.2064
 1379SOL    HW115773   3.914   1.101   4.753 -0.1335 -0.3214  1.2796
 1379SOL    HW215774   3.908   1.203   4.857 -0.3361 -1.9957  0.6162
 1380SOL     OW15775   4.417   0.411   4.557  0.2174 -0.2292  0.1070
 1380SOL    HW115776   4.476   0.397   4.483 -0.8624 -2.9188 -0.2400
 1380SOL    HW215777   4.432   0.335   4.613  0.2682 -0.7854 -0.6667
 1381SOL     OW15778   0.840   4.428  17.738  0.1380 -0.3283 -0.1221
 1381SOL    HW115779   0.817   4.377   0.068  2.6622  2.8677  2.7053
 1381SOL    HW215780   0.901   4.491   0.029  1.0588 -1.3173  0.0210
 1382SOL     OW15781   4.540   3.433   5.153 -0.0688 -0.0937  0.1299
 1382SOL    HW115782   4.517   3.511   5.203 -0.2924  1.0753 -1.8298
 1382SOL    HW215783   4.545   3.364   5.219 -0.2709  0.8781  1.1530
 1383SOL     OW15784   0.873   0.835   0.122 -0.3987 -0.1728  0.4870
 1383SOL    HW115785   0.836   0.749   0.142  0.0050 -0.1642  1.2610
 1383SOL    HW215786   0.882   0.873   0.209  0.9656 -0.0684  0.3080
 1384SOL     OW15787   0.325   2.810  13.503 -0.0287  0.1100  0.8109
 1384SOL    HW115788   0.400   2.766  13.545 -0.5035 -1.3668  0.1279
 1384SOL    HW215789   0.259   2.781  13.566 -2.1851  1.0841 -1.0090
 1385SOL     OW15790   4.687   2.303  17.409  0.2787  0.1137  0.0155
 1385SOL    HW115791   4.612   2.295  17.350  0.5365 -0.6766 -0.2020
 1385SOL    HW215792   0.020   2.280  17.349  0.8472 -1.7404  1.3870
 1386SOL     OW15793   4.318   3.945   4.822  0.6070  0.1674  0.0792
 1386SOL    HW115794   4.329   3.951   4.917  0.0197  2.3697  0.0165
 1386SOL    HW215795   4.392   3.998   4.792  2.4317 -1.9439  0.8932
 1387SOL     OW15796   3.376   0.400   4.584 -0.1773 -0.0768  0.1024
 1387SOL    HW115797   3.362   0.411   4.678 -0.6812 -1.5491  0.2020
 1387SOL    HW215798   3.409   0.486   4.559 -2.9450  1.1387  0.6595
 1388SOL     OW15799   3.439   2.018   6.543  0.0261  0.0565  0.4180
 1388SOL    HW115800   3.419   2.112   6.543  0.7414  0.2134 -0.4236
 1388SOL    HW215801   3.389   1.985   6.617  1.6606 -0.3453  1.3440
 1389SOL     OW15802   2.174   0.218  13.705 -0.1452  0.9997  0.0137
 1389SOL    HW115803   2.098   0.231  13.760 -1.0766 -0.1608 -1.0062
 1389SOL    HW215804   2.237   0.275  13.749  0.1726  1.7988 -1.4754
 1390SOL     OW15805   2.915   0.627   5.365  0.1870  0.3511 -0.4407
 1390SOL    HW115806   2.917   0.633   5.461  3.1251 -3.6838 -0.2802
 1390SOL    HW215807   3.007   0.604   5.354  0.4293  0.4752  1.2861
 1391SOL     OW15808   0.228   4.041   0.918 -0.0737 -0.6407  0.4415
 1391SOL    HW115809   0.223   3.955   0.876 -1.5927 -0.6315  0.6212
 1391SOL    HW215810   0.195   4.026   1.007 -2.4298 -2.5906 -0.7536
 1392SOL     OW15811   0.703   1.269   9.732  0.0634  0.1552 -0.7806
 1392SOL    HW115812   0.737   1.207   9.797 -3.8549 -2.9315 -1.6288
 1392SOL    HW215813   0.762   1.344   9.734 -1.6891  1.5339 -0.8576
 1393SOL     OW15814   0.283   4.109   3.626 -0.4892 -0.5933 -0.4000
 1393SOL    HW115815   0.340   4.042   3.665 -1.4566 -1.1942 -0.0245
 1393SOL    HW215816   0.282   4.175   3.696 -0.5453  0.9683 -1.8946
 1394SOL     OW15817   0.234   2.300   6.784 -0.1402  0.1420  0.0542
 1394SOL    HW115818   0.239   2.304   6.689 -0.9376  3.6151  0.1785
 1394SOL    HW215819   0.328   2.308   6.802  0.2465 -1.2288 -1.2965
 1395SOL     OW15820   2.834   1.023   3.863 -0.1592 -0.4090  0.3034
 1395SOL    HW115821   2.785   1.085   3.916 -1.6679 -2.4823  1.3400
 1395SOL    HW215822   2.909   1.008   3.920  1.6253  1.0425 -1.6705
 1396SOL     OW15823   3.316   3.640   6.064  0.1123 -0.4666 -0.0457
 1396SOL    HW115824   3.285   3.724   6.099  1.4408 -1.1946  2.8241
 1396SOL    HW215825   3.253   3.619   5.995  0.1228  0.8443 -0.4608
 1397SOL     OW15826   0.209   3.906   6.192  0.3440  0.1192 -0.3314
 1397SOL    HW115827   0.275   3.854   6.237 -1.2209 -1.2953  0.3496
 1397SOL    HW215828   0.229   3.992   6.228  0.4106  0.2793 -0.7500
 1398SOL     OW15829   1.580   2.908   4.653  0.1028  0.3246 -0.5210
 1398SOL    HW115830   1.559   2.984   4.708 -1.3623 -1.0890  0.8975
 1398SOL    HW215831   1.564   2.936   4.563  0.7456 -2.2567 -1.4402
 1399SOL     OW15832   0.876   4.244  16.591  0.4515 -0.2782 -0.2003
 1399SOL    HW115833   0.828   4.207  16.665  0.9638 -0.1147  0.2100
 1399SOL    HW215834   0.860   4.179  16.522 -0.0260  0.6507 -0.9603
 1400SOL     OW15835   1.503   2.998  10.155  0.5609 -0.3513  0.2524
 1400SOL    HW115836   1.436   2.974  10.220  0.7845  0.6338  0.8424
 1400SOL    HW215837   1.555   2.920  10.171  0.6144 -0.2982  0.3353
 1401SOL     OW15838   2.596   0.325  12.112 -0.4028  0.7253 -0.3504
 1401SOL    HW115839   2.518   0.283  12.149  0.1276  0.2380  0.2092
 1401SOL    HW215840   2.561   0.415  12.112 -0.1990  0.8014  0.9183
 1402SOL     OW15841   4.325   3.229  12.528 -0.0230 -0.4958  0.2632
 1402SOL    HW115842   4.391   3.162  12.545  0.7069 -0.3014 -1.8103
 1402SOL    HW215843   4.242   3.205  12.568 -0.3156  0.1922  0.0797
 1403SOL     OW15844   0.861   2.582   7.573  0.1448 -0.3558 -0.0912
 1403SOL    HW115845   0.930   2.534   7.527  2.2183 -1.2764  3.9643
 1403SOL    HW215846   0.888   2.573   7.664  1.0823  2.1879 -0.1174
 1404SOL     OW15847   4.176   0.074  15.265 -0.0973 -0.1911  0.6052
 1404SOL    HW115848   4.150   0.010  15.331  1.8598 -0.6538  0.9456
 1404SOL    HW215849   4.205   0.010  15.201 -0.1543 -0.3435  0.7340
 1405SOL     OW15850   1.044   0.107   7.520  0.9028  0.1805 -0.2257
 1405SOL    HW115851   1.020   0.053   7.445 -0.9544 -0.3106  0.7002
 1405SOL    HW215852   0.982   0.079   7.588  0.5907  2.4095  0.3805
 1406SOL     OW15853   2.289   2.345  15.397  0.1398  0.2394 -0.2916
 1406SOL    HW115854   2.208   2.381  15.434  0.9744  2.6962 -0.8488
 1406SOL    HW215855   2.261   2.254  15.402 -0.2642  0.3752 -0.0420
 1407SOL     OW15856   1.421   1.166   7.631  0.6167  0.3936  0.0218
 1407SOL    HW115857   1.327   1.179   7.634  0.6669  0.7697 -0.0672
 1407SOL    HW215858   1.466   1.238   7.675 -1.8015  1.1429  1.2404
 1408SOL     OW15859   0.534   1.771   4.387 -0.2274  0.0538  0.3729
 1408SOL    HW115860   0.609   1.715   4.367 -0.9702  0.0348 -2.2912
 1408SOL    HW215861   0.465   1.749   4.324  0.3157 -1.3406  0.2587
 1409SOL     OW15862   2.903   0.833   8.652  0.0011 -0.0368 -0.1207
 1409SOL    HW115863   2.852   0.764   8.693 -0.8747 -0.0571 -1.2389
 1409SOL    HW215864   2.897   0.912   8.705 -1.6082 -0.9317  1.0180
 1410SOL     OW15865   4.346   1.345   3.334  0.3693  0.5276 -0.0128
 1410SOL    HW115866   4.395   1.423   3.360 -0.6892  1.3945 -0.6023
 1410SOL    HW215867   4.376   1.278   3.395 -3.1280 -0.6919  0.3955
 1411SOL     OW15868   4.191   3.692   6.187  0.4714  0.1860 -0.1288
 1411SOL    HW115869   4.103   3.658   6.174  0.7033 -0.3550 -0.2746
 1411SOL    HW215870   4.219   3.639   6.262  3.2395  1.8000 -0.0301
 1412SOL     OW15871   4.180   3.053  10.620  0.0379 -0.1079 -0.0274
 1412SOL    HW115872   4.227   3.032  10.540 -0.0220  2.6570 -0.8098
 1412SOL    HW215873   4.241   3.120  10.650 -3.2336  2.7087  0.4390
 1413SOL     OW15874   2.345   2.080   1.736 -0.2743  0.1868 -0.3930
 1413SOL    HW115875   2.329   1.986   1.737  0.8353  0.0046  0.3888
 1413SOL    HW215876   2.298   2.113   1.813  1.2255 -1.2496  1.1198
 1414SOL     OW15877   1.722   1.092   7.299 -0.5286 -0.0429  0.0991
 1414SOL    HW115878   1.629   1.087   7.319 -0.4816  1.3249  0.6580
 1414SOL    HW215879   1.739   1.185   7.310  1.0320 -0.3848  0.6069
 1415SOL     OW15880   0.442   4.496   0.066 -0.1011  0.5344  0.1279
 1415SOL    HW115881   0.364   4.460   0.109  1.3917  2.4500  4.4229
 1415SOL    HW215882   0.417   4.477  17.724 -0.8148 -1.6219  0.7654
 1416SOL     OW15883   1.910   3.318   6.923  0.0860 -0.2127 -0.1045
 1416SOL    HW115884   1.866   3.247   6.969  1.4831 -0.8746  0.1996
 1416SOL    HW215885   1.878   3.310   6.833 -0.1346 -1.5906  0.1010
 1417SOL     OW15886   4.066   3.495   0.222  0.1515  0.2411 -0.4829
 1417SOL    HW115887   4.014   3.526   0.296  0.2003 -0.5640 -0.1074
 1417SOL    HW215888   4.045   3.556   0.152 -0.3961 -0.0786 -0.5998
 1418SOL     OW15889   3.100   0.651   5.063 -0.1660 -0.2548 -0.5404
 1418SOL    HW115890   3.146   0.652   5.148 -2.3149 -1.3751  0.6431
 1418SOL    HW215891   3.131   0.735   5.029 -1.5603  0.0639 -1.0142
 1419SOL     OW15892   3.747   0.346   7.980 -0.1490  0.3278  0.3069
 1419SOL    HW115893   3.745   0.309   7.892 -0.9919  1.7459 -0.2530
 1419SOL    HW215894   3.711   0.432   7.961 -0.9617 -0.0341  0.1860
 1420SOL     OW15895   3.161   2.849  13.440 -0.6445 -0.0621  0.2268
 1420SOL    HW115896   3.162   2.833  13.346  0.6975  1.6763 -0.0452
 1420SOL    HW215897   3.106   2.776  13.467  2.0917 -1.8054  1.0578
 1421SOL     OW15898   1.361   2.230   3.849  0.3419  0.3916 -0.7799
 1421SOL    HW115899   1.371   2.215   3.755  0.2654  1.1792 -0.9183
 1421SOL    HW215900   1.320   2.316   3.836  2.7984  1.6879 -0.0622
 1422SOL     OW15901   0.759   2.926   4.415  0.5397 -0.2509 -0.6850
 1422SOL    HW115902   0.742   2.970   4.498  0.9592 -0.6208 -0.4035
 1422SOL    HW215903   0.699   2.852   4.422 -0.8976  0.8876 -0.8785
 1423SOL     OW15904   0.648   2.886   8.321 -0.1185 -0.0505  0.5920
 1423SOL    HW115905   0.648   2.884   8.417 -0.0871  1.7875  0.6272
 1423SOL    HW215906   0.664   2.980   8.316 -1.9869  0.3151  1.5315
 1424SOL     OW15907   1.345   1.415  10.803  0.2664  0.0083  0.0561
 1424SOL    HW115908   1.372   1.397  10.893  0.7531 -0.5314 -0.2008
 1424SOL    HW215909   1.300   1.499  10.814  0.7971  0.3385 -0.3425
 1425SOL     OW15910   1.129   4.522   3.701  0.7654 -0.0851 -0.4134
 1425SOL    HW115911   1.042   4.509   3.663  0.5470 -0.5865  0.2562
 1425SOL    HW215912   1.126   4.602   3.754 -0.9453 -0.4101 -0.0263
 1426SOL     OW15913   3.509   3.050   7.569 -0.8838 -0.2046  0.1376
 1426SOL    HW115914   3.566   3.047   7.645  0.5016  0.4441 -0.8760
 1426SOL    HW215915   3.420   3.052   7.603 -2.2523 -0.2488 -3.3983
 1427SOL     OW15916   2.908   0.530   3.653  0.1993  0.5449  0.8029
 1427SOL    HW115917   2.884   0.440   3.675  0.2070  0.3671  0.0950
 1427SOL    HW215918   2.961   0.555   3.728  0.0679 -0.3694  1.1928
 1428SOL     OW15919   2.370   2.446   9.171  0.1995  0.1087  0.1838
 1428SOL    HW115920   2.431   2.393   9.119  0.8522 -0.6979  1.7835
 1428SOL    HW215921   2.329   2.497   9.102  1.1773  1.5548  0.6775
 1429SOL     OW15922   1.872   2.858   2.238 -0.4427  0.3700 -0.7401
 1429SOL    HW115923   1.823   2.894   2.163 -0.8989 -1.4730 -1.3207
 1429SOL    HW215924   1.795   2.834   2.289 -0.1896 -0.0304 -0.5538
 1430SOL     OW15925   2.280   2.018   0.752  0.4968 -0.1309  0.0903
 1430SOL    HW115926   2.349   2.034   0.688 -0.3493 -3.6671 -1.6752
 1430SOL    HW215927   2.308   2.083   0.817 -2.8346 -0.4045  1.8053
 1431SOL     OW15928   2.421   3.406  13.144 -0.5597  0.3379 -0.3159
 1431SOL    HW115929   2.431   3.437  13.234 -4.5304  3.2235 -0.8421
 1431SOL    HW215930   2.419   3.312  13.157 -2.7650  0.2083 -1.5374
 1432SOL     OW15931   2.595   4.100   2.309  0.2299 -0.2543 -0.1041
 1432SOL    HW115932   2.546   4.026   2.271  0.4940 -0.9268  0.8845
 1432SOL    HW215933   2.567   4.181   2.266  0.0766 -0.6456 -0.7588
 1433SOL     OW15934   3.249   2.982   4.753  0.8791  0.0724 -0.1454
 1433SOL    HW115935   3.297   3.063   4.770 -0.3364  0.5182  1.1895
 1433SOL    HW215936   3.252   2.971   4.658  1.0244 -0.0470 -0.1261
 1434SOL     OW15937   1.068   1.868   3.107 -0.2354  0.3791 -0.0408
 1434SOL    HW115938   1.007   1.905   3.171 -1.2216 -2.3510  0.5783
 1434SOL    HW215939   1.123   1.944   3.089  0.9562 -0.4218  0.2087
 1435SOL     OW15940   3.734   1.760   8.874  0.4723  0.9302 -0.2435
 1435SOL    HW115941   3.676   1.810   8.931  1.1779  0.4129  0.9235
 1435SOL    HW215942   3.813   1.761   8.928  1.1284 -0.4601 -1.1645
 1436SOL     OW15943   1.968   1.262   3.823  0.2896  0.2472  0.3060
 1436SOL    HW115944   1.902   1.250   3.754  1.1263  1.8716 -0.7807
 1436SOL    HW215945   2.020   1.182   3.815  0.1586  0.2375 -0.4403
 1437SOL     OW15946   2.998   4.439  14.767  0.5073  0.3863 -0.0070
 1437SOL    HW115947   2.948   4.444  14.686 -1.1160 -0.0102  0.9652
 1437SOL    HW215948   3.082   4.409  14.733  0.5213  0.0082  0.3569
 1438SOL     OW15949   4.600   3.890   0.881 -0.3944  0.2271 -0.2683
 1438SOL    HW115950   4.572   3.883   0.790  1.7707 -1.2443 -0.8095
 1438SOL    HW215951   4.648   3.809   0.900 -0.8117  0.7686  3.1640
 1439SOL     OW15952   1.608   2.719   9.704  0.2539  0.2944  0.0912
 1439SOL    HW115953   1.569   2.714   9.616 -1.2667  0.7952  0.7363
 1439SOL    HW215954   1.702   2.728   9.693  0.2924 -0.2303  0.0060
 1440SOL     OW15955   2.004   3.889   4.697 -0.0197 -0.2741 -0.4595
 1440SOL    HW115956   1.918   3.881   4.738  0.9136  0.0486  1.5389
 1440SOL    HW215957   2.061   3.952   4.741 -0.2795 -0.0887 -0.3856
 1441SOL     OW15958   4.432   3.057   8.487 -0.0834 -0.1063 -0.2133
 1441SOL    HW115959   4.399   3.049   8.577 -0.2680 -1.3409 -0.3902
 1441SOL    HW215960   4.436   3.152   8.479  0.6468 -0.1295 -0.1120
 1442SOL     OW15961   3.897   2.185  12.534 -0.3887 -0.0131 -0.6645
 1442SOL    HW115962   3.888   2.156  12.625 -2.0940 -2.3185 -1.5473
 1442SOL    HW215963   3.955   2.260  12.542 -0.7250  0.4548 -2.4216
 1443SOL     OW15964   4.248   0.370   9.988  0.0595  0.4207 -0.0373
 1443SOL    HW115965   4.270   0.288   9.944 -0.7535 -0.0870  0.4858
 1443SOL    HW215966   4.280   0.346  10.075  0.1164  0.5856 -0.0140
 1444SOL     OW15967   2.704   3.676   7.990  0.5655  0.1270 -0.3207
 1444SOL    HW115968   2.753   3.739   8.042 -0.5079  1.0435 -0.4338
 1444SOL    HW215969   2.763   3.651   7.918 -0.1792 -1.5710 -0.3332
 1445SOL     OW15970   3.066   4.400  10.886 -0.4530 -0.3056  0.8130
 1445SOL    HW115971   2.973   4.381  10.878 -0.5642  0.6051  0.0145
 1445SOL    HW215972   3.082   4.461  10.814  1.4410 -2.4032 -0.5225
 1446SOL     OW15973   0.369   3.351  15.769  0.5201 -0.0019 -0.3508
 1446SOL    HW115974   0.320   3.372  15.849  0.3111 -2.8741  0.2745
 1446SOL    HW215975   0.350   3.421  15.706 -0.1351 -0.9462 -1.2007
 1447SOL     OW15976   2.906   2.864   6.455 -0.5323  0.2140  0.4080
 1447SOL    HW115977   2.975   2.808   6.421  0.4867  1.4247  0.4944
 1447SOL    HW215978   2.854   2.868   6.374  1.4260 -2.8084 -1.0031
 1448SOL     OW15979   2.407   2.798  12.667 -0.6218 -0.3414  0.4244
 1448SOL    HW115980   2.322   2.832  12.638 -0.2855  1.2811  1.3002
 1448SOL    HW215981   2.404   2.812  12.762 -0.3670  0.7961  0.2726
 1449SOL     OW15982   3.917   3.081   7.937  0.1269  0.1891  0.0428
 1449SOL    HW115983   3.927   3.176   7.928 -1.4770  0.2800 -0.6775
 1449SOL    HW215984   4.007   3.057   7.958 -0.0149 -0.5635 -0.1979
 1450SOL     OW15985   2.139   1.844   5.878 -0.0676 -0.0984 -0.1609
 1450SOL    HW115986   2.171   1.933   5.863  2.7337 -0.6587  2.4874
 1450SOL    HW215987   2.215   1.818   5.930  0.4106 -0.9527 -1.2889
 1451SOL     OW15988   1.250   4.614   5.963 -0.4773  0.2039  0.5662
 1451SOL    HW115989   1.257   4.522   5.990  0.1374 -0.2809 -1.2635
 1451SOL    HW215990   1.168   4.639   6.005 -1.5166 -1.8561 -0.2540
 1452SOL     OW15991   0.442   1.870   9.692 -0.3093 -0.1588  0.5754
 1452SOL    HW115992   0.364   1.924   9.675 -0.5614 -1.2056 -1.5524
 1452SOL    HW215993   0.508   1.934   9.719  1.0954 -1.1764 -0.5278
 1453SOL     OW15994   3.123   4.130   6.967 -0.6249  0.0012 -0.2624
 1453SOL    HW115995   3.178   4.054   6.950 -0.8259 -0.5845  1.6444
 1453SOL    HW215996   3.069   4.092   7.036  2.4469 -1.0921  1.5424
 1454SOL     OW15997   0.753   1.356   1.035  0.4234 -0.2276  0.5979
 1454SOL    HW115998   0.737   1.446   1.064  3.4453  0.7672 -0.8353
 1454SOL    HW215999   0.795   1.367   0.950  1.9763 -0.0638  1.3823
 1455SOL     OW16000   2.058   2.473   5.391  0.0136  0.5390  0.0814
 1455SOL    HW116001   2.067   2.544   5.327 -1.1070  0.2755 -0.3652
 1455SOL    HW216002   2.074   2.516   5.476 -0.0796 -0.9290  0.8356
 1456SOL     OW16003   1.676   4.163  11.739 -0.1674  0.7729  0.4636
 1456SOL    HW116004   1.626   4.244  11.725  0.3635  0.9930 -0.2216
 1456SOL    HW216005   1.713   4.163  11.650  1.6018  0.0534  1.2116
 1457SOL     OW16006   3.247   1.662   3.459 -0.6799  0.0091  0.0696
 1457SOL    HW116007   3.244   1.757   3.445  1.1420  0.0267 -0.2500
 1457SOL    HW216008   3.210   1.626   3.379 -0.5861 -0.9348  0.4501
 1458SOL     OW16009   2.048   3.856  16.903 -0.3459  0.2244  0.0679
 1458SOL    HW116010   2.041   3.777  16.957  0.8005 -2.2150 -3.3194
 1458SOL    HW216011   2.120   3.898  16.948  0.2516  0.3506 -1.0047
 1459SOL     OW16012   2.129   1.942   5.087 -0.0084  0.0515  0.6008
 1459SOL    HW116013   2.189   2.006   5.049 -0.9543 -0.9598 -2.5510
 1459SOL    HW216014   2.120   1.977   5.176  0.6803 -2.0431  1.4835
 1460SOL     OW16015   4.732   0.457   9.894  0.6812  0.0227  0.5562
 1460SOL    HW116016   4.672   0.531   9.883  1.1920  0.2755 -0.5064
 1460SOL    HW216017   0.069   0.507   9.926 -0.5766  2.1371  0.2643
 1461SOL     OW16018   0.997   1.259   0.244  0.3160 -0.9520 -0.3066
 1461SOL    HW116019   0.921   1.239   0.189 -0.5304  1.4287 -0.0162
 1461SOL    HW216020   0.956   1.293   0.323  0.8489 -0.2243 -0.3381
 1462SOL     OW16021   4.222   1.300   4.607  0.4706  0.4237 -0.4678
 1462SOL    HW116022   4.242   1.370   4.544 -0.2936  1.4352  0.4214
 1462SOL    HW216023   4.206   1.358   4.682 -3.0184 -1.8897  0.5474
 1463SOL     OW16024   4.256   3.939   8.562 -0.1149 -0.3023 -0.1921
 1463SOL    HW116025   4.271   3.954   8.656  3.4031  0.8763 -0.9230
 1463SOL    HW216026   4.296   4.014   8.518  1.1708 -0.3805  0.8390
 1464SOL     OW16027   0.784   1.431   4.706  0.3661 -0.1257  0.1064
 1464SOL    HW116028   0.758   1.394   4.791  0.5053  0.4632  0.4005
 1464SOL    HW216029   0.755   1.366   4.641  0.7562 -0.1839 -0.0113
 1465SOL     OW16030   3.138   4.236  13.544 -0.6572 -0.4586  0.4273
 1465SOL    HW116031   3.147   4.140  13.547 -0.9494 -0.5387 -1.0857
 1465SOL    HW216032   3.192   4.253  13.621  1.5458  3.6127 -2.0170
 1466SOL     OW16033   2.309   1.854   3.967  0.1476 -0.3190 -0.3714
 1466SOL    HW116034   2.296   1.772   3.919 -0.8908  0.5919 -1.6383
 1466SOL    HW216035   2.229   1.903   3.948 -0.3687 -0.6117  1.0404
 1467SOL     OW16036   3.067   1.348   3.840 -0.0047  0.5443 -0.0632
 1467SOL    HW116037   3.075   1.375   3.748 -1.6277  1.6051  0.1136
 1467SOL    HW216038   2.972   1.353   3.848  0.0509  2.7118 -0.8133
 1468SOL     OW16039   1.319   0.153   8.499 -0.3361  0.5483 -0.4350
 1468SOL    HW116040   1.384   0.215   8.464  0.0481  2.7818  4.1606
 1468SOL    HW216041   1.264   0.142   8.421 -1.6863 -1.5368  0.8202
 1469SOL     OW16042   3.983   1.273   2.384  0.0508 -0.3382 -0.0924
 1469SOL    HW116043   3.887   1.270   2.386  0.1437 -2.3688  1.0400
 1469SOL    HW216044   3.991   1.225   2.302 -0.0242  0.2841 -0.4670
 1470SOL     OW16045   1.612   3.603   4.002  0.3780  0.1365 -0.2603
 1470SOL    HW116046   1.685   3.552   4.037  0.3937  0.9117  0.8273
 1470SOL    HW216047   1.569   3.616   4.086 -0.1618  0.0730 -0.5228
 1471SOL     OW16048   3.414   1.206   4.469 -0.3400  0.5979  0.2583
 1471SOL    HW116049   3.390   1.151   4.544  0.2423 -0.7146 -0.5183
 1471SOL    HW216050   3.509   1.200   4.462 -0.3799  0.0858  0.1641
 1472SOL     OW16051   2.988   3.084  13.805  0.2433  0.0073 -0.1798
 1472SOL    HW116052   3.031   3.000  13.821  0.9769  0.2950 -0.6902
 1472SOL    HW216053   2.997   3.091  13.710 -0.9832  3.6092 -0.0093
 1473SOL     OW16054   0.945   3.194   8.880  0.1289  0.4624  0.4272
 1473SOL    HW116055   1.023   3.140   8.892  1.0820  1.1593 -2.5243
 1473SOL    HW216056   0.966   3.268   8.938  0.0716  1.5383 -0.9057
 1474SOL     OW16057   4.070   0.525  11.792 -0.3711  0.4740  0.4438
 1474SOL    HW116058   4.039   0.434  11.796 -0.0474  0.3516  0.2182
 1474SOL    HW216059   4.097   0.534  11.884  0.9231  1.3417 -0.0290
 1475SOL     OW16060   0.709   1.060   4.120  0.2462 -0.5148 -0.1428
 1475SOL    HW116061   0.687   1.060   4.027  1.3113  2.1903 -0.4268
 1475SOL    HW216062   0.731   0.968   4.135 -1.2869 -0.7159  0.8791
 1476SOL     OW16063   2.701   2.732   2.780 -0.5918 -0.1450  0.7616
 1476SOL    HW116064   2.796   2.726   2.772 -0.7244  1.6882 -2.2670
 1476SOL    HW216065   2.689   2.825   2.800 -0.0174  0.5810 -2.2358
 1477SOL     OW16066   0.870   1.133  11.116  0.1824  0.3058  0.3524
 1477SOL    HW116067   0.789   1.175  11.146  0.5561  1.0359  0.3357
 1477SOL    HW216068   0.838   1.115  11.028  1.4266  1.6175 -0.3641
 1478SOL     OW16069   1.149   0.581   2.956  0.4968  0.1258  0.1038
 1478SOL    HW116070   1.092   0.593   2.880 -1.8209 -1.2716  1.6346
 1478SOL    HW216071   1.082   0.572   3.023  1.0617  1.8827  0.8972
 1479SOL     OW16072   3.414   0.696   5.028 -0.0886  0.3963 -0.3925
 1479SOL    HW116073   3.358   0.741   4.965 -0.9582  1.1032  0.8825
 1479SOL    HW216074   3.497   0.742   5.016  1.0549 -1.6214 -0.2828
 1480SOL     OW16075   1.453   2.272  10.580  0.2158  0.3360 -0.0290
 1480SOL    HW116076   1.546   2.251  10.569  0.5698  1.6608  0.4461
 1480SOL    HW216077   1.436   2.192  10.630  0.3228  1.4193  1.7494
 1481SOL     OW16078   1.097   2.995   4.546 -0.5012  0.1779 -0.4797
 1481SOL    HW116079   1.105   2.938   4.623 -1.1929  0.5370 -0.1423
 1481SOL    HW216080   1.055   2.935   4.485  0.5640 -0.4575 -0.5787
 1482SOL     OW16081   0.513   2.244   1.114 -0.1713  0.6658  0.6872
 1482SOL    HW116082   0.506   2.338   1.095  0.6439  0.4815 -0.5593
 1482SOL    HW216083   0.429   2.226   1.155 -1.3095  0.9307 -1.5033
 1483SOL     OW16084   1.836   2.531  17.145 -0.2132 -0.4038  0.3893
 1483SOL    HW116085   1.808   2.474  17.217 -1.0619 -0.7813 -0.2351
 1483SOL    HW216086   1.760   2.590  17.144 -1.9045 -2.5935  2.0428
 1484SOL     OW16087   1.894   2.359   8.774  0.4828 -0.1366 -0.4595
 1484SOL    HW116088   1.874   2.452   8.787  0.8759 -0.0883 -0.1887
 1484SOL    HW216089   1.836   2.316   8.837  0.4574 -1.4783 -1.3978
 1485SOL     OW16090   1.957   1.701   0.599 -0.1349  0.5064 -0.1792
 1485SOL    HW116091   1.921   1.739   0.679  0.6125  1.4981 -0.2996
 1485SOL    HW216092   2.011   1.628   0.629  0.2532 -0.1648 -2.5112
 1486SOL     OW16093   1.720   1.814   2.198 -0.1196  0.1076 -0.2543
 1486SOL    HW116094   1.799   1.786   2.243 -1.6257  0.2571  2.5188
 1486SOL    HW216095   1.676   1.731   2.181  2.4818 -0.6482 -3.2640
 1487SOL     OW16096   3.939   2.287  13.359  0.5594 -0.5670 -0.6520
 1487SOL    HW116097   4.029   2.307  13.387  0.3617 -2.4798  1.4301
 1487SOL    HW216098   3.917   2.358  13.299  1.9403 -1.4055 -2.1330
 1488SOL     OW16099   0.100   2.669  17.395 -0.0826  0.3213 -0.6497
 1488SOL    HW116100   0.148   2.587  17.401 -1.1853 -0.5517 -3.4549
 1488SOL    HW216101   0.026   2.634  17.344  1.4914 -2.5590 -0.9459
 1489SOL     OW16102   2.596   4.540   3.666 -0.1104 -0.2001 -0.5067
 1489SOL    HW116103   2.632   4.521   3.753  0.9805 -0.7601 -1.0827
 1489SOL    HW216104   2.509   4.510   3.691  0.4360 -0.5676  0.9665
 1490SOL     OW16105   2.496   2.956   5.194 -0.1311  0.4331  0.2234
 1490SOL    HW116106   2.412   2.942   5.151  0.1413  1.5940 -0.7099
 1490SOL    HW216107   2.556   2.923   5.127 -1.2822  0.9266 -1.0394
 1491SOL     OW16108   3.421   0.956   7.921  0.4546  0.4205 -0.2128
 1491SOL    HW116109   3.353   1.020   7.940 -1.2344 -1.2563 -0.5536
 1491SOL    HW216110   3.393   0.882   7.975  0.8851 -1.8669 -3.1151
 1492SOL     OW16111   4.259   4.433  16.382 -0.1933  0.4998 -0.3888
 1492SOL    HW116112   4.344   4.467  16.409  0.2563  0.2960 -1.5842
 1492SOL    HW216113   4.273   4.416  16.289 -2.4153 -2.1309 -0.2559
 1493SOL     OW16114   0.655   2.556  10.788 -0.0193  0.3471  0.2682
 1493SOL    HW116115   0.623   2.644  10.806 -0.7167  0.4490 -1.4198
 1493SOL    HW216116   0.750   2.561  10.803  0.5782  0.8759 -3.5262
 1494SOL     OW16117   2.302   2.866   5.006 -0.3564  0.4655  0.5857
 1494SOL    HW116118   2.310   2.772   4.989  1.0327  0.6265  0.3376
 1494SOL    HW216119   2.207   2.876   4.997 -0.4877 -0.0819  1.3852
 1495SOL     OW16120   2.740   1.998   9.343 -0.1087 -0.4809 -0.4123
 1495SOL    HW116121   2.820   1.971   9.297  1.8907  0.8990  2.2810
 1495SOL    HW216122   2.696   1.914   9.351 -0.3788 -0.2144  0.8721
 1496SOL     OW16123   2.061   4.203   6.550 -0.3666  0.5664  0.1200
 1496SOL    HW116124   2.071   4.143   6.476 -1.3508  0.5736 -0.0230
 1496SOL    HW216125   2.118   4.276   6.526  0.0887  0.5082  0.9998
 1497SOL     OW16126   0.047   2.743   4.995 -0.5533  0.1956  0.6277
 1497SOL    HW116127   0.009   2.682   5.058 -1.2302 -0.2312 -0.1885
 1497SOL    HW216128   4.735   2.825   5.000  0.1448  0.6915 -0.5343
 1498SOL     OW16129   4.135   2.689  12.557  0.0226 -0.4729  0.4452
 1498SOL    HW116130   4.086   2.763  12.592  2.2206  0.4715  1.5642
 1498SOL    HW216131   4.224   2.726  12.551 -0.0124 -0.1172  2.0215
 1499SOL     OW16132   4.287   1.100   8.392 -0.0453 -0.6221  0.3872
 1499SOL    HW116133   4.382   1.096   8.383 -0.2915 -0.2925 -2.3694
 1499SOL    HW216134   4.258   1.091   8.482  3.9821  0.5490  1.7825
 1500SOL     OW16135   2.374   0.146  12.522 -0.3522 -0.0472 -0.1451
 1500SOL    HW116136   2.434   0.220  12.535 -0.8226  0.0436  1.5200
 1500SOL    HW216137   2.303   0.171  12.581 -0.9544 -2.4845  0.1533
 1501SOL     OW16138   4.294   1.008   2.077  0.0622 -0.1792  0.0227
 1501SOL    HW116139   4.210   0.976   2.112  0.6453 -2.4155 -0.5849
 1501SOL    HW216140   4.281   1.102   2.089  1.1309 -0.3081  2.1522
 1502SOL     OW16141   4.067   0.592  14.805 -0.6326 -0.1946 -0.2812
 1502SOL    HW116142   4.047   0.528  14.873 -1.4871  0.9337  0.5310
 1502SOL    HW216143   4.092   0.539  14.730 -2.7076  0.3771 -1.3771
 1503SOL     OW16144   4.343   0.577   6.842  0.3794 -0.3595 -0.0934
 1503SOL    HW116145   4.327   0.576   6.748  1.5279 -0.6761 -0.2952
 1503SOL    HW216146   4.267   0.625   6.873 -0.5272 -1.9331  0.1285
 1504SOL     OW16147   3.062   0.239   3.158  0.6478 -0.3115 -1.0309
 1504SOL    HW116148   3.107   0.210   3.079 -0.5501 -1.2014 -1.3831
 1504SOL    HW216149   2.988   0.180   3.173 -0.5609  1.5773  0.6226
 1505SOL     OW16150   4.118   0.148   7.197  0.3940  0.2375 -0.4780
 1505SOL    HW116151   4.109   0.058   7.227 -2.4677  0.9998  0.9905
 1505SOL    HW216152   4.034   0.180   7.232 -0.0189  2.0477 -3.1414
 1506SOL     OW16153   3.001   3.483   3.581  0.0645  0.5679 -0.7054
 1506SOL    HW116154   3.049   3.421   3.637 -2.7967 -0.2494  0.8117
 1506SOL    HW216155   3.044   3.565   3.606 -2.0649  1.9075 -1.5035
 1507SOL     OW16156   4.437   1.164   3.527  0.5421  0.1224  0.1526
 1507SOL    HW116157   4.421   1.070   3.536  1.2965 -0.0423 -0.1510
 1507SOL    HW216158   4.437   1.207   3.612  0.6498 -0.8718  0.6623
 1508SOL     OW16159   3.026   2.841   3.569  0.0463  0.3181 -0.1604
 1508SOL    HW116160   3.051   2.855   3.660 -0.3045  1.4325 -0.2421
 1508SOL    HW216161   2.934   2.819   3.582  0.1463 -1.0343 -1.6459
 1509SOL     OW16162   0.459   0.808   2.384  0.6379 -0.0648  0.2329
 1509SOL    HW116163   0.419   0.852   2.459 -0.5605  1.0987 -1.0911
 1509SOL    HW216164   0.458   0.720   2.420  2.3886  0.1496  0.8124
 1510SOL     OW16165   4.092   0.234   4.026 -0.3092  0.3708  0.5502
 1510SOL    HW116166   4.000   0.235   4.000 -0.7190  0.4287  1.9955
 1510SOL    HW216167   4.089   0.316   4.075 -0.9751 -0.5022  1.9826
 1511SOL     OW16168   1.532   0.650   8.114 -0.1360  0.0721 -0.4874
 1511SOL    HW116169   1.522   0.606   8.198 -1.5923  1.4242  0.0556
 1511SOL    HW216170   1.484   0.732   8.128 -0.7325 -0.9920  3.5122
 1512SOL     OW16171   0.173   3.433  10.319  0.6651  0.5305 -0.1349
 1512SOL    HW116172   0.178   3.416  10.413 -2.7853 -0.2371 -0.0950
 1512SOL    HW216173   0.091   3.482  10.316 -1.3108 -2.5590  2.9839
 1513SOL     OW16174   3.487   2.676  14.369  0.7374 -0.3782  0.0589
 1513SOL    HW116175   3.447   2.686  14.456  1.3138 -2.6097  0.5879
 1513SOL    HW216176   3.505   2.767  14.346  1.8876 -0.3349  1.1296
 1514SOL     OW16177   1.440   0.714   9.041  0.4019 -0.8857  0.4142
 1514SOL    HW116178   1.383   0.754   9.106 -0.4903 -0.6871 -0.4810
 1514SOL    HW216179   1.407   0.624   9.039 -2.0396  0.0140 -1.0307
 1515SOL     OW16180   3.808   3.101  11.781  0.0262  0.4511  0.2453
 1515SOL    HW116181   3.749   3.027  11.795 -2.0057  2.0954  0.2666
 1515SOL    HW216182   3.824   3.093  11.686 -0.5359 -0.6759  0.2426
 1516SOL     OW16183   3.115   0.822   8.439  0.1410  0.2886 -0.2221
 1516SOL    HW116184   3.053   0.799   8.507 -0.6661  0.5687 -0.8590
 1516SOL    HW216185   3.107   0.750   8.376 -0.8831 -0.4051  0.7050
 1517SOL     OW16186   1.836   0.947   4.815 -0.2331 -0.2464  0.5928
 1517SOL    HW116187   1.788   1.029   4.813 -0.6961 -0.5263  0.1889
 1517SOL    HW216188   1.777   0.881   4.852 -0.9413  0.6986  1.1469
 1518SOL     OW16189   2.084   0.260  10.937  0.4221  0.4754 -0.0747
 1518SOL    HW116190   2.164   0.213  10.912 -0.0105 -0.4567  0.2638
 1518SOL    HW216191   2.098   0.342  10.890 -2.3179  0.8525 -0.2496
 1519SOL     OW16192   1.994   3.817   2.525 -0.3783  0.3288  0.3116
 1519SOL    HW116193   2.052   3.869   2.469 -1.0655 -0.3495 -1.0295
 1519SOL    HW216194   2.055   3.805   2.598 -0.8020 -0.5977  0.5234
 1520SOL     OW16195   0.742   3.802   5.641 -0.3660 -0.0044  0.3827
 1520SOL    HW116196   0.825   3.821   5.684 -0.9600 -0.3708  1.7086
 1520SOL    HW216197   0.741   3.708   5.621 -0.5769 -0.1366  0.9903
 1521SOL     OW16198   2.038   3.760  12.664 -0.3699 -0.1174  0.1591
 1521SOL    HW116199   2.060   3.807  12.583 -0.7005 -0.7636 -0.2988
 1521SOL    HW216200   2.122   3.714  12.669  0.4657  1.2497 -1.2493
 1522SOL     OW16201   0.395   0.406   5.471  0.1250  0.2252  0.1978
 1522SOL    HW116202   0.485   0.422   5.502  0.5125  1.7467 -1.7608
 1522SOL    HW216203   0.412   0.389   5.378 -0.4754  0.5129  0.0358
 1523SOL     OW16204   1.639   1.248  16.486  0.6311  0.5351  0.1936
 1523SOL    HW116205   1.616   1.167  16.441  0.4019  1.7717 -1.8968
 1523SOL    HW216206   1.551   1.282  16.502 -0.1548 -0.3734 -2.2420
 1524SOL     OW16207   0.214   3.535   3.917  0.2316  0.3090 -0.4732
 1524SOL    HW116208   0.293   3.577   3.885  0.3979 -1.6906 -2.7391
 1524SOL    HW216209   0.244   3.504   4.002 -0.3712  3.1811  0.7768
 1525SOL     OW16210   1.951   2.241  13.900  0.4689 -0.1558 -0.4610
 1525SOL    HW116211   1.897   2.164  13.878 -0.8172  0.7577 -0.4822
 1525SOL    HW216212   2.034   2.195  13.915  0.7919  0.4150 -0.4994
 1526SOL     OW16213   1.746   1.451   6.354 -0.0735  0.3312 -0.4842
 1526SOL    HW116214   1.698   1.471   6.274 -1.4252  2.3152  0.8199
 1526SOL    HW216215   1.692   1.384   6.396 -0.6890 -0.2853 -2.2842
 1527SOL     OW16216   0.333   2.050   7.837 -0.2841 -0.2415 -0.7902
 1527SOL    HW116217   0.423   2.082   7.841 -0.8675  1.2122  0.4671
 1527SOL    HW216218   0.312   2.064   7.744 -1.1072 -1.0969 -0.7328
 1528SOL     OW16219   2.857   4.345   2.476  0.5470  0.6712 -0.1009
 1528SOL    HW116220   2.897   4.291   2.408 -2.3999  1.8437 -2.7444
 1528SOL    HW216221   2.931   4.364   2.534  2.2658 -0.6260 -1.8841
 1529SOL     OW16222   2.759   0.253  11.916 -0.1769 -0.4815 -0.7682
 1529SOL    HW116223   2.786   0.171  11.957 -0.7420  0.1222  0.7931
 1529SOL    HW216224   2.708   0.287  11.989 -1.7821 -0.4804 -1.9025
 1530SOL     OW16225   1.813   1.729   7.097 -0.4841  0.6070  0.0219
 1530SOL    HW116226   1.825   1.777   7.179  0.7025  0.6238 -0.1596
 1530SOL    HW216227   1.853   1.643   7.110  0.2543  0.8021 -0.9683
 1531SOL     OW16228   0.758   1.038   9.877  0.3725  0.1693 -0.2897
 1531SOL    HW116229   0.815   1.060   9.950  2.8493 -1.3972 -1.7602
 1531SOL    HW216230   0.780   0.948   9.853 -0.4507 -0.0245 -0.3330
 1532SOL     OW16231   0.135   3.511  14.164  0.3973 -0.3237  0.4979
 1532SOL    HW116232   0.092   3.430  14.192 -1.7734  0.5331 -0.3553
 1532SOL    HW216233   0.172   3.493  14.077 -0.6605 -1.3532  0.2676
 1533SOL     OW16234   0.502   4.289   2.041  0.3855  0.0248 -0.3316
 1533SOL    HW116235   0.415   4.254   2.061  0.1926 -0.1599 -1.4797
 1533SOL    HW216236   0.506   4.297   1.945 -0.0197  0.8502 -0.2727
 1534SOL     OW16237   3.474   2.628   8.360 -0.1493 -0.0265  0.0317
 1534SOL    HW116238   3.503   2.662   8.275 -0.5714 -0.6613 -0.3714
 1534SOL    HW216239   3.524   2.547   8.370  1.4985  1.0192  0.2124
 1535SOL     OW16240   1.183   0.676   6.023  0.7599  0.3170 -0.2682
 1535SOL    HW116241   1.121   0.604   6.035 -0.2875  1.9779  4.3368
 1535SOL    HW216242   1.177   0.714   6.111  0.7610 -1.3538  0.4571
 1536SOL     OW16243   4.271   1.835   7.268 -0.2071  0.0653 -0.0056
 1536SOL    HW116244   4.202   1.857   7.205 -0.7529 -2.1855 -0.1975
 1536SOL    HW216245   4.257   1.902   7.335 -0.3680  1.0204 -0.9927
 1537SOL     OW16246   1.772   2.536   3.438  0.2864  0.8155  0.0879
 1537SOL    HW116247   1.767   2.594   3.361  2.9803  2.0137  0.8233
 1537SOL    HW216248   1.857   2.553   3.479  0.9803 -1.2894 -0.4888
 1538SOL     OW16249   1.079   2.529   4.763 -0.0767  0.2626  0.0343
 1538SOL    HW116250   1.086   2.465   4.692  0.2216 -0.3979  0.6682
 1538SOL    HW216251   0.991   2.562   4.748  1.4786  3.8268 -1.4228
 1539SOL     OW16252   0.763   4.410  15.766 -0.0989  0.5117  0.0790
 1539SOL    HW116253   0.797   4.350  15.700  0.3722  0.0871  0.7006
 1539SOL    HW216254   0.837   4.471  15.778  1.5039 -1.0798 -1.7398
 1540SOL     OW16255   1.183   1.302  16.085  0.0077 -0.2740  0.2106
 1540SOL    HW116256   1.128   1.273  16.012 -1.1570  0.4530  0.7814
 1540SOL    HW216257   1.236   1.374  16.052 -0.3382  0.4467  1.2243
 1541SOL     OW16258   1.659   3.226   4.028  0.1252 -0.6656 -0.5410
 1541SOL    HW116259   1.658   3.310   4.074 -3.9215 -0.9997 -0.0906
 1541SOL    HW216260   1.613   3.169   4.089 -0.9270  2.6261  1.7439
 1542SOL     OW16261   0.602   2.415   9.200  0.1157 -0.2852  0.3528
 1542SOL    HW116262   0.562   2.371   9.275 -0.6799 -1.2702 -0.6371
 1542SOL    HW216263   0.629   2.349   9.137 -1.1020 -0.5163  0.0599
 1543SOL     OW16264   1.943   1.314   3.147 -0.0393 -0.7340 -0.3277
 1543SOL    HW116265   1.937   1.395   3.096 -1.1595 -0.4916  0.1970
 1543SOL    HW216266   1.853   1.283   3.145 -0.1147 -0.2433 -3.6479
 1544SOL     OW16267   4.734   1.104  10.747  0.3910  0.3573 -0.1848
 1544SOL    HW116268   4.685   1.037  10.795 -1.2257  1.0569 -0.8419
 1544SOL    HW216269   0.038   1.145  10.822  3.1772 -0.5144 -1.2486
 1545SOL     OW16270   0.514   4.475   5.837  0.1734  0.2606  0.4735
 1545SOL    HW116271   0.518   4.558   5.788 -1.2609 -0.0127 -0.1116
 1545SOL    HW216272   0.423   4.449   5.823 -0.8721  3.4793  1.0949
 1546SOL     OW16273   2.283   1.735   0.737  0.2321 -0.6074 -0.1014
 1546SOL    HW116274   2.377   1.751   0.731 -0.1265  1.7534  0.5165
 1546SOL    HW216275   2.261   1.828   0.747  1.8119 -0.0445 -1.8311
 1547SOL     OW16276   3.160   2.389  16.415  0.4414  0.2485  0.3429
 1547SOL    HW116277   3.221   2.369  16.343 -0.5392  0.7497 -0.6305
 1547SOL    HW216278   3.187   2.337  16.490 -0.0394  0.9046  0.9599
 1548SOL     OW16279   1.802   1.915   1.694 -0.0879 -0.7353  0.2625
 1548SOL    HW116280   1.774   1.825   1.677 -1.9102 -0.1308  0.0531
 1548SOL    HW216281   1.723   1.964   1.671 -0.8340 -1.4693  1.3076
 1549SOL     OW16282   2.308   2.141   3.849 -0.2447 -0.3245 -0.7055
 1549SOL    HW116283   2.296   2.218   3.793  0.3413 -0.5994 -1.2075
 1549SOL    HW216284   2.288   2.178   3.935 -0.7922 -0.7676 -0.6435
 1550SOL     OW16285   4.265   1.646   9.347  0.0150 -0.7662 -0.7120
 1550SOL    HW116286   4.354   1.622   9.321  0.0121  0.2415 -1.6590
 1550SOL    HW216287   4.262   1.625   9.440  1.4287  0.8155 -0.3207
 1551SOL     OW16288   0.579   4.338   3.925  0.0514 -0.3558 -0.3623
 1551SOL    HW116289   0.613   4.332   3.836 -0.8073  0.1393 -0.7190
 1551SOL    HW216290   0.501   4.283   3.926 -0.2117  0.0541  1.3363
 1552SOL     OW16291   2.107   0.046   8.963  0.3120  0.6548  0.3108
 1552SOL    HW116292   2.016   0.028   8.939 -0.0713  0.2736  2.0834
 1552SOL    HW216293   2.117   0.136   8.931  3.5279  0.2679  0.2384
 1553SOL     OW16294   3.702   0.721   4.786 -0.6704 -0.1604  0.0781
 1553SOL    HW116295   3.704   0.712   4.882  0.1184  0.5767  0.1306
 1553SOL    HW216296   3.795   0.708   4.765 -0.7263  0.6375 -0.6585
 1554SOL     OW16297   0.902   1.549  13.527 -0.5786 -0.3492  0.6530
 1554SOL    HW116298   0.812   1.542  13.497 -1.2371 -0.1735  2.5453
 1554SOL    HW216299   0.934   1.461  13.505 -0.2514 -0.1732  0.4340
 1555SOL     OW16300   3.731   1.245  10.975  0.2276 -0.1026 -0.4274
 1555SOL    HW116301   3.769   1.157  10.970 -0.5911 -0.3669 -1.9060
 1555SOL    HW216302   3.698   1.263  10.887 -0.2294 -0.3514 -0.3076
 1556SOL     OW16303   0.884   0.645   2.001 -0.2830  0.0315  0.2993
 1556SOL    HW116304   0.962   0.628   2.054 -0.2401 -0.7999 -0.0337
 1556SOL    HW216305   0.926   0.668   1.918 -1.2646  1.2024  0.1352
 1557SOL     OW16306   3.518   2.164  13.249 -0.5418 -0.0037 -0.2101
 1557SOL    HW116307   3.503   2.095  13.184  1.6319  0.1641 -0.8906
 1557SOL    HW216308   3.495   2.244  13.201 -3.2743 -1.0313 -0.5825
 1558SOL     OW16309   0.765   0.847  13.842  0.3308  0.5608 -0.1308
 1558SOL    HW116310   0.751   0.753  13.851 -0.1117  0.5821 -0.5817
 1558SOL    HW216311   0.756   0.869  13.749 -0.0002 -1.2974 -0.5385
 1559SOL     OW16312   2.026   3.504  12.446 -0.3617 -0.0560  0.2922
 1559SOL    HW116313   2.055   3.583  12.400  0.3611 -1.1294 -1.0982
 1559SOL    HW216314   2.109   3.469  12.476  0.9202  0.3102 -2.8270
 1560SOL     OW16315   1.225   2.886   6.188 -0.0751 -0.1723  0.4743
 1560SOL    HW116316   1.146   2.895   6.241  0.0733  0.1838  0.6372
 1560SOL    HW216317   1.223   2.976   6.156  1.5684  0.1350  1.2344
 1561SOL     OW16318   1.646   0.937   7.801 -0.4551 -0.1218  0.7322
 1561SOL    HW116319   1.658   0.843   7.799  0.2766 -0.0153  0.4827
 1561SOL    HW216320   1.728   0.972   7.767 -0.4522  0.3800  1.2365
 1562SOL     OW16321   4.237   0.963   7.410  0.7760  0.4131  0.2588
 1562SOL    HW116322   4.153   0.980   7.366  0.4411 -1.7117  0.0933
 1562SOL    HW216323   4.275   0.902   7.347 -0.8635 -0.1664 -0.1655
 1563SOL     OW16324   1.947   1.828   7.751 -0.3134 -0.1466 -0.0598
 1563SOL    HW116325   1.882   1.777   7.798 -0.1322 -1.3485 -1.1140
 1563SOL    HW216326   1.988   1.861   7.831 -0.7800  0.4265 -0.0566
 1564SOL     OW16327   0.874   1.238   7.369  0.3257  0.4815 -0.0414
 1564SOL    HW116328   0.907   1.245   7.459  1.1350  2.2260 -0.4863
 1564SOL    HW216329   0.780   1.254   7.377  0.4318  0.8862  0.3696
 1565SOL     OW16330   2.965   1.653   5.672 -0.2773 -0.5697 -0.3284
 1565SOL    HW116331   3.003   1.711   5.606  0.8752 -0.7423  0.1872
 1565SOL    HW216332   2.873   1.678   5.682  0.6566  1.5628  2.9398
 1566SOL     OW16333   0.342   0.846   6.430  0.7083  0.4886  0.0285
 1566SOL    HW116334   0.358   0.811   6.343 -0.2213 -1.9578  0.8385
 1566SOL    HW216335   0.307   0.764   6.466  0.7214  0.0219 -1.0453
 1567SOL     OW16336   0.034   1.224   7.985  0.0729  0.9027  0.2647
 1567SOL    HW116337   0.063   1.217   8.076  0.6060 -1.6316 -0.0918
 1567SOL    HW216338   0.117   1.239   7.939  0.5099  1.0767  1.1066
 1568SOL     OW16339   3.799   2.467   8.537 -0.0569  0.3297  0.1533
 1568SOL    HW116340   3.732   2.534   8.551  1.5581  1.4250  2.4100
 1568SOL    HW216341   3.822   2.483   8.445 -1.5560  0.0140 -0.2857
 1569SOL     OW16342   1.468   4.009   5.297 -0.0362 -0.1485 -0.6276
 1569SOL    HW116343   1.517   3.926   5.295 -1.1810 -0.7766 -2.1657
 1569SOL    HW216344   1.424   4.011   5.382 -2.4711  2.8432 -1.9718
 1570SOL     OW16345   4.268   1.092   5.015  0.2472 -0.1173  0.0947
 1570SOL    HW116346   4.300   1.178   4.989  1.9000 -0.7137  0.1754
 1570SOL    HW216347   4.315   1.084   5.098  1.7842  2.6030 -0.5164
 1571SOL     OW16348   1.526   3.240   6.873  0.7837  0.2386 -0.0321
 1571SOL    HW116349   1.478   3.158   6.885  1.4299 -0.2306 -0.6428
 1571SOL    HW216350   1.605   3.217   6.921  1.6210  2.2679 -0.4300
 1572SOL     OW16351   0.540   0.089  13.783  0.2889 -0.1883 -0.8105
 1572SOL    HW116352   0.564   0.058  13.871  1.5830 -1.1382 -1.4853
 1572SOL    HW216353   0.618   0.070  13.730  1.3496  1.2173  0.2649
 1573SOL     OW16354   3.967   3.081  14.652  0.1023 -0.1806  0.4877
 1573SOL    HW116355   4.054   3.071  14.613 -1.5740 -1.2614 -2.9734
 1573SOL    HW216356   3.916   3.034  14.586  0.8997  1.0835 -1.0544
 1574SOL     OW16357   4.179   2.361   8.540  0.2318  0.4293 -0.1890
 1574SOL    HW116358   4.111   2.371   8.474  0.7111 -1.8361 -1.0244
 1574SOL    HW216359   4.257   2.398   8.498  1.5913 -0.9623  1.1138
 1575SOL     OW16360   1.264   2.969   5.156  0.8238 -0.6311  0.2338
 1575SOL    HW116361   1.289   2.882   5.125  1.1326 -0.2664 -0.5439
 1575SOL    HW216362   1.332   3.023   5.116  1.3384 -0.2150  1.6924
 1576SOL     OW16363   0.830   3.487   3.850  0.2365 -0.4741 -0.6462
 1576SOL    HW116364   0.848   3.401   3.890 -3.5409  0.2096  2.4740
 1576SOL    HW216365   0.758   3.466   3.791  1.4509  0.0695 -2.3356
 1577SOL     OW16366   1.916   3.286   5.171 -0.1050 -0.3007  0.0795
 1577SOL    HW116367   1.953   3.335   5.098 -0.9344 -1.0404 -0.8417
 1577SOL    HW216368   1.842   3.343   5.192  0.9054  1.5590 -1.4730
 1578SOL     OW16369   3.552   2.317  16.313  0.2971 -0.9826 -0.0032
 1578SOL    HW116370   3.478   2.377  16.319  0.0726 -1.3280  0.6279
 1578SOL    HW216371   3.620   2.374  16.275 -1.9357  2.3276  0.9328
 1579SOL     OW16372   1.429   0.822   6.012 -0.2428  0.5780 -0.3188
 1579SOL    HW116373   1.336   0.798   6.011 -0.1521  0.2272 -0.1620
 1579SOL    HW216374   1.442   0.860   5.925 -0.1655  0.9447 -0.1454
 1580SOL     OW16375   2.060   4.302  15.350  0.2239 -0.0862  0.7201
 1580SOL    HW116376   2.100   4.388  15.339  1.5177 -0.7469  0.2431
 1580SOL    HW216377   2.117   4.255  15.410 -0.5949 -0.9555  0.8297
 1581SOL     OW16378   3.993   4.582   7.759 -0.6855 -0.3820  0.1168
 1581SOL    HW116379   3.952   4.644   7.698  1.7788  1.1165 -0.0596
 1581SOL    HW216380   4.049   4.539   7.694 -1.3270 -0.6941 -0.2318
 1582SOL     OW16381   2.027   2.239  17.127  0.0821  0.6253  0.6344
 1582SOL    HW116382   2.080   2.318  17.138  2.3224 -1.0734  2.0600
 1582SOL    HW216383   2.043   2.220  17.035 -5.3593  0.1036 -0.2077
 1583SOL     OW16384   4.306   4.582   6.727 -0.0353  0.5117 -0.3222
 1583SOL    HW116385   4.311   4.612   6.818 -1.6066  0.0745 -0.1045
 1583SOL    HW216386   4.379   4.637   6.696 -0.5992  1.7899  0.6076
 1584SOL     OW16387   2.833   3.690   3.972 -0.0073  0.0498  0.1205
 1584SOL    HW116388   2.790   3.708   3.889 -0.7051 -1.8265  0.0754
 1584SOL    HW216389   2.901   3.757   3.980  0.5876 -0.5119 -0.2858
 1585SOL     OW16390   4.371   3.889   6.473  0.3045 -0.0917 -0.3156
 1585SOL    HW116391   4.410   3.808   6.506  0.1371 -0.5082 -1.1416
 1585SOL    HW216392   4.282   3.895   6.506  0.2622  0.0342 -0.4548
 1586SOL     OW16393   4.427   3.347   6.352 -0.0597  0.0388 -0.2814
 1586SOL    HW116394   4.518   3.375   6.340  0.0130 -1.1059 -2.3613
 1586SOL    HW216395   4.427   3.328   6.446  0.3500  2.3298  0.1941
 1587SOL     OW16396   3.483   2.006  13.011  0.0475  0.8290 -0.7360
 1587SOL    HW116397   3.548   2.013  12.941  1.0043  2.5934  0.3588
 1587SOL    HW216398   3.485   1.910  13.012 -1.6096  0.7924 -0.2005
 1588SOL     OW16399   3.042   3.692   4.717  0.0142  0.3764  0.5947
 1588SOL    HW116400   3.019   3.635   4.790  0.0833 -1.6385 -0.9432
 1588SOL    HW216401   3.040   3.776   4.763 -1.1364  0.4456  0.4145
 1589SOL     OW16402   3.947   0.316   5.867 -0.3194  0.2171 -0.1279
 1589SOL    HW116403   4.015   0.340   5.805 -0.0205 -0.6008 -0.1238
 1589SOL    HW216404   3.995   0.352   5.942 -4.7143 -0.7916  3.2364
 1590SOL     OW16405   2.125   1.510   0.716  0.0609 -0.2224  0.1969
 1590SOL    HW116406   2.186   1.443   0.746  0.2665  0.0691  0.4160
 1590SOL    HW216407   2.183   1.582   0.693 -1.6567  0.6887 -1.2547
 1591SOL     OW16408   3.515   4.716   6.413 -0.7042  0.8664 -0.3264
 1591SOL    HW116409   3.560   4.632   6.420  0.3227  1.6391  2.1872
 1591SOL    HW216410   3.554   0.021   6.489 -0.9831 -2.0965  1.4604
 1592SOL     OW16411   3.397   2.031   2.668 -0.1118  0.2821  0.2672
 1592SOL    HW116412   3.358   1.984   2.741  1.9905  0.7180  1.6772
 1592SOL    HW216413   3.342   2.001   2.596  2.4576 -0.1512 -1.5061
 1593SOL     OW16414   3.837   4.067  11.076 -0.8799  0.5075 -0.0613
 1593SOL    HW116415   3.823   3.999  11.141  0.3951  0.7382  0.4489
 1593SOL    HW216416   3.829   4.141  11.136  0.3301 -1.2233  2.2364
 1594SOL     OW16417   3.377   1.647   6.898 -0.7459 -0.1750 -0.0441
 1594SOL    HW116418   3.316   1.615   6.964 -1.2698  0.3041 -0.3011
 1594SOL    HW216419   3.363   1.741   6.908 -1.7354 -0.3838  0.5933
 1595SOL     OW16420   1.788   2.259   8.998  0.2025  0.2648 -0.5581
 1595SOL    HW116421   1.853   2.227   9.062 -1.3883 -2.0612 -0.1075
 1595SOL    HW216422   1.717   2.261   9.063  1.1407  2.7150  0.3918
 1596SOL     OW16423   0.383   3.290   3.286 -0.4132 -0.4887 -0.1146
 1596SOL    HW116424   0.436   3.213   3.307 -1.7165 -1.0762  0.9816
 1596SOL    HW216425   0.328   3.246   3.222  1.5823 -1.1120 -1.4164
 1597SOL     OW16426   1.149   4.041  12.531 -0.5383  0.4668  0.2776
 1597SOL    HW116427   1.212   3.972  12.555 -0.1775  0.2280 -1.3916
 1597SOL    HW216428   1.101   3.993  12.464  1.1073 -1.7834  0.7228
 1598SOL     OW16429   1.743   3.496   7.419  0.0771 -0.0334  0.2435
 1598SOL    HW116430   1.718   3.411   7.454 -1.1651  0.2944  0.1427
 1598SOL    HW216431   1.760   3.488   7.325 -0.8313  1.4979 -0.0528
 1599SOL     OW16432   1.042   3.481   3.482  0.2348  0.0670  0.1950
 1599SOL    HW116433   1.047   3.566   3.526  0.5593  0.8991 -1.4353
 1599SOL    HW216434   0.951   3.488   3.453 -0.0149  1.3634  1.3011
 1600SOL     OW16435   0.587   4.455   6.346 -0.3312  0.2200 -0.2093
 1600SOL    HW116436   0.513   4.428   6.292  1.2248 -2.6480 -0.8913
 1600SOL    HW216437   0.627   4.524   6.292  1.2813 -0.4261  0.1364
 1601SOL     OW16438   2.590   0.119   6.068 -0.2451 -0.0053 -0.7120
 1601SOL    HW116439   2.521   0.147   6.128  1.3159 -0.1264  1.1375
 1601SOL    HW216440   2.553   0.031   6.076 -0.1714  0.0092 -0.1757
 1602SOL     OW16441   4.684   3.917   6.954  0.3030  0.5293 -0.3629
 1602SOL    HW116442   0.012   3.847   6.951 -0.3329 -0.1105  0.5199
 1602SOL    HW216443   4.606   3.861   6.954 -0.1926  1.2170  1.2535
 1603SOL     OW16444   3.668   3.290   9.947  0.2337  0.3442  0.7879
 1603SOL    HW116445   3.607   3.220   9.969  0.4765 -0.9368 -2.5749
 1603SOL    HW216446   3.680   3.326  10.035 -1.2788  1.8780  0.3512
 1604SOL     OW16447   3.081   2.941   6.196 -0.1937  0.0652  0.3156
 1604SOL    HW116448   3.007   2.991   6.160  0.3063  0.2189 -0.5008
 1604SOL    HW216449   3.146   2.954   6.127  0.9372 -0.0937  1.3480
 1605SOL     OW16450   4.393   2.290   8.990 -0.3742  0.7211  0.1470
 1605SOL    HW116451   4.329   2.268   8.923  0.0561 -1.1742  0.3496
 1605SOL    HW216452   4.350   2.272   9.074 -0.5090  0.1933 -0.0344
 1606SOL     OW16453   0.889   1.252   6.042 -0.5782 -0.4767 -0.0684
 1606SOL    HW116454   0.980   1.249   6.069 -0.8360 -0.5195  0.7780
 1606SOL    HW216455   0.896   1.269   5.948  3.1045 -1.1193  0.1075
 1607SOL     OW16456   3.500   1.601   2.370  0.5956 -0.3011  0.0829
 1607SOL    HW116457   3.453   1.636   2.295 -1.5466 -1.2636  0.9685
 1607SOL    HW216458   3.433   1.590   2.438 -0.7083  1.1213 -0.9953
 1608SOL     OW16459   0.094   2.172   3.240  0.3844 -0.5628  0.0523
 1608SOL    HW116460   0.169   2.146   3.294  0.0201 -1.8972 -0.0776
 1608SOL    HW216461   0.029   2.192   3.308 -1.0435 -1.2777 -1.1303
 1609SOL     OW16462   0.874   2.897   9.932 -0.4058  0.2179 -0.3179
 1609SOL    HW116463   0.810   2.944   9.878  2.3637  3.5936 -0.7074
 1609SOL    HW216464   0.944   2.962   9.932  0.8193 -1.0960 -2.5473
 1610SOL     OW16465   2.464   2.471   8.725  0.3195 -0.2958 -0.3884
 1610SOL    HW116466   2.380   2.457   8.681 -0.4456  0.4803  0.8249
 1610SOL    HW216467   2.435   2.510   8.808 -0.0396  0.1874 -0.7388
 1611SOL     OW16468   1.673   4.418  16.517 -0.0046 -0.5369  0.0876
 1611SOL    HW116469   1.583   4.388  16.504 -0.7509  0.3828  3.1468
 1611SOL    HW216470   1.649   4.489  16.577 -0.7963 -0.6405 -0.1054
 1612SOL     OW16471   4.497   0.647   3.320  0.0302 -0.2696  0.0963
 1612SOL    HW116472   4.443   0.662   3.398 -1.1240 -1.3034 -0.5104
 1612SOL    HW216473   4.430   0.657   3.252 -1.5780 -0.2083  1.7009
 1613SOL     OW16474   0.709   4.398   8.734 -0.3019  0.0186  0.2391
 1613SOL    HW116475   0.795   4.365   8.764 -0.2834  0.1657  0.3450
 1613SOL    HW216476   0.737   4.461   8.668 -1.1097  0.2106  0.0815
 1614SOL     OW16477   1.964   3.288   7.935 -0.1198  0.4806 -0.3360
 1614SOL    HW116478   1.967   3.382   7.920 -0.0321  0.4493 -0.5174
 1614SOL    HW216479   2.000   3.287   8.024  1.3858 -1.3637 -0.9704
 1615SOL     OW16480   3.374   1.956   7.236  0.2285  0.1076  0.0058
 1615SOL    HW116481   3.429   1.999   7.170 -1.0284 -1.0200 -1.7935
 1615SOL    HW216482   3.354   1.876   7.188  0.9812 -1.5334  2.4352
 1616SOL     OW16483   2.542   2.704   2.355 -0.2892 -0.1941  0.0542
 1616SOL    HW116484   2.599   2.780   2.344 -2.2352  1.5692  2.0299
 1616SOL    HW216485   2.606   2.644   2.392 -0.2315  0.1119  0.4496
 1617SOL     OW16486   3.622   4.432   4.755  0.2291 -0.1774 -0.6400
 1617SOL    HW116487   3.539   4.471   4.783  0.6508  0.0855  0.2679
 1617SOL    HW216488   3.679   4.462   4.827 -0.1002 -0.6480 -0.1795
 1618SOL     OW16489   3.758   2.484  16.222 -0.3647  0.0141 -0.1779
 1618SOL    HW116490   3.825   2.486  16.154  0.2283 -0.4944  0.3924
 1618SOL    HW216491   3.726   2.574  16.215  0.6254  0.4487  0.7675
 1619SOL     OW16492   1.494   0.627   1.819  0.2621 -0.1743  0.1449
 1619SOL    HW116493   1.554   0.626   1.744  1.1539  0.4328  0.8619
 1619SOL    HW216494   1.501   0.715   1.856  0.8375  0.5296 -1.6395
 1620SOL     OW16495   0.011   2.100   0.812 -0.5487  0.0313  0.4844
 1620SOL    HW116496   4.660   2.136   0.811 -0.9950 -1.2473 -3.7627
 1620SOL    HW216497   4.736   2.024   0.757  1.2682  0.4158 -0.4550
 1621SOL     OW16498   3.152   0.979   3.504 -0.4686 -0.0496  0.1747
 1621SOL    HW116499   3.176   0.953   3.415 -0.2223 -2.8318  1.0563
 1621SOL    HW216500   3.070   0.934   3.521  0.1119 -0.7195  1.1789
 1622SOL     OW16501   4.255   3.723   3.920  0.0849  0.4791 -0.4184
 1622SOL    HW116502   4.339   3.702   3.880 -0.7211 -3.6242  0.0590
 1622SOL    HW216503   4.287   3.753   4.005 -0.8846  0.0145  0.1105
 1623SOL     OW16504   0.029   0.212   9.966  0.2588 -0.1123  0.5721
 1623SOL    HW116505   0.028   0.302   9.935  0.4553  0.1927  1.4556
 1623SOL    HW216506   4.714   0.174   9.895  1.9961  0.4169 -0.9742
 1624SOL     OW16507   3.479   1.989   4.565  0.3831  0.2662  0.0759
 1624SOL    HW116508   3.457   2.061   4.624  1.9322  0.3426  0.5531
 1624SOL    HW216509   3.493   1.909   4.614  3.0988  1.0138  0.5279
 1625SOL     OW16510   0.416   0.456  15.615  0.1117  0.0369 -0.3080
 1625SOL    HW116511   0.471   0.385  15.583 -0.2784 -0.6780  0.6168
 1625SOL    HW216512   0.467   0.534  15.591  0.2228 -0.3149 -1.2071
 1626SOL     OW16513   3.750   1.996   3.985  0.8683  0.0490 -0.2731
 1626SOL    HW116514   3.690   1.963   3.918  1.9765 -0.0548 -1.2170
 1626SOL    HW216515   3.755   1.927   4.051 -2.1251 -0.3950 -0.5037
 1627SOL     OW16516   4.696   0.465   9.179 -0.2928  0.4236 -0.1363
 1627SOL    HW116517   4.735   0.405   9.242  1.7786  1.8073 -0.0967
 1627SOL    HW216518   4.625   0.423   9.131 -0.6465  1.3340 -0.4144
 1628SOL     OW16519   1.106   2.570  14.302  0.0234 -0.1553 -0.2151
 1628SOL    HW116520   1.019   2.606  14.286  0.3438 -0.2625 -2.1724
 1628SOL    HW216521   1.110   2.499  14.238  1.6865  0.7162 -1.0667
 1629SOL     OW16522   2.868   1.801  12.142  0.1931  0.7853  0.5151
 1629SOL    HW116523   2.869   1.888  12.102  0.8335  0.8587  0.6980
 1629SOL    HW216524   2.818   1.746  12.081  1.8793 -1.5393  1.2434
 1630SOL     OW16525   1.271   0.854   7.333  0.1413 -0.1584  0.4173
 1630SOL    HW116526   1.211   0.779   7.341  0.9764 -0.6646  1.9465
 1630SOL    HW216527   1.318   0.844   7.416  1.5286 -0.8726 -0.4602
 1631SOL     OW16528   0.325   4.130   5.064  0.1925 -0.0424 -0.7611
 1631SOL    HW116529   0.404   4.102   5.018  1.2287  2.7210 -0.6452
 1631SOL    HW216530   0.288   4.048   5.097  3.2452 -0.7467  0.9921
 1632SOL     OW16531   4.640   4.154   0.801  0.3599 -0.3060 -0.0654
 1632SOL    HW116532   4.660   4.068   0.837  0.4910  0.0907  0.8295
 1632SOL    HW216533   4.605   4.134   0.714  0.2991  4.2235 -1.1302
 1633SOL     OW16534   2.063   3.695   3.295  0.5754 -0.7894  0.2505
 1633SOL    HW116535   2.156   3.694   3.273 -0.0172  0.0148 -2.3259
 1633SOL    HW216536   2.056   3.599   3.303  0.9770 -0.7122  1.5555
 1634SOL     OW16537   1.891   3.223   2.807  0.4385  0.1148 -0.1200
 1634SOL    HW116538   1.852   3.135   2.806 -0.5796  0.5695 -0.5603
 1634SOL    HW216539   1.925   3.227   2.718  2.3080 -3.4418  0.4694
 1635SOL     OW16540   1.451   0.544  13.371 -0.6893  0.2588 -0.6440
 1635SOL    HW116541   1.402   0.534  13.453 -0.9652 -1.1862 -0.9850
 1635SOL    HW216542   1.528   0.500  13.407 -1.5616  0.7432  1.8690
 1636SOL     OW16543   1.336   1.013   2.056  0.3677  0.1316 -0.3573
 1636SOL    HW116544   1.278   1.010   1.980  0.7426  0.0611 -0.6440
 1636SOL    HW216545   1.271   1.018   2.125  0.6991  1.6876 -0.1485
 1637SOL     OW16546   0.425   4.204   1.734  0.0689 -0.0081  0.2423
 1637SOL    HW116547   0.488   4.137   1.707  0.3243  1.4927 -2.8396
 1637SOL    HW216548   0.351   4.148   1.753 -0.1708  0.3022  0.2187
 1638SOL     OW16549   0.702   3.259   2.760 -0.2694  0.2772  0.2785
 1638SOL    HW116550   0.638   3.312   2.713  1.2150  0.2642 -1.7853
 1638SOL    HW216551   0.683   3.280   2.852 -2.9280  0.9156 -0.4331
 1639SOL     OW16552   3.170   3.243   7.133 -0.3976 -0.1262  0.0327
 1639SOL    HW116553   3.214   3.233   7.217  0.8342 -0.5371 -0.6715
 1639SOL    HW216554   3.204   3.328   7.105  0.2897 -1.1336 -2.1435
 1640SOL     OW16555   2.172   1.957   6.269  0.2107  0.2581  0.3504
 1640SOL    HW116556   2.123   1.961   6.350  1.4583 -2.3772  1.2133
 1640SOL    HW216557   2.156   2.044   6.233 -0.3134 -0.0134 -0.0694
 1641SOL     OW16558   1.497   1.774   5.293 -0.4032  0.0013  0.0778
 1641SOL    HW116559   1.436   1.782   5.219 -2.7542  0.4199  2.0329
 1641SOL    HW216560   1.447   1.834   5.348  0.1004  0.1128  0.4049
 1642SOL     OW16561   1.794   4.065   5.177  0.1663 -0.1803 -0.4650
 1642SOL    HW116562   1.706   4.100   5.167  0.0177 -0.9285 -1.8139
 1642SOL    HW216563   1.813   4.050   5.085 -1.4524 -1.0720 -0.6528
 1643SOL     OW16564   2.038   4.111   0.997  0.0621  0.0408  0.0411
 1643SOL    HW116565   2.070   4.048   1.062 -0.9664  0.1476  0.6636
 1643SOL    HW216566   2.001   4.176   1.058  0.4221  0.3848 -0.1096
 1644SOL     OW16567   0.133   2.309   8.408  0.1529  0.3304 -0.3443
 1644SOL    HW116568   0.055   2.256   8.425 -0.9215  2.9615  3.1196
 1644SOL    HW216569   0.204   2.264   8.454  1.4767  0.4998 -2.2242
 1645SOL     OW16570   1.276   0.825   6.724  0.3384  0.6429  0.2979
 1645SOL    HW116571   1.239   0.910   6.700  0.2099  0.7140  0.7421
 1645SOL    HW216572   1.224   0.814   6.804 -0.1389 -0.6528 -0.1846
 1646SOL     OW16573   4.564   1.726   4.033 -0.0512 -0.3324  0.0159
 1646SOL    HW116574   4.497   1.661   4.010  0.5290 -0.6181 -0.8557
 1646SOL    HW216575   4.622   1.708   3.960 -2.3855  0.8466 -2.1093
 1647SOL     OW16576   1.951   3.092  14.331 -0.0743  0.0564 -0.0264
 1647SOL    HW116577   1.982   3.063  14.245  0.5690  1.5752 -0.2974
 1647SOL    HW216578   1.937   3.185  14.316 -0.3551 -0.0727 -0.5712
 1648SOL     OW16579   4.654   4.587   3.869  0.2665  0.0586  0.6657
 1648SOL    HW116580   4.726   4.650   3.882  1.0884 -0.9192  0.8443
 1648SOL    HW216581   4.636   4.597   3.775  0.7209 -0.2476  0.5465
 1649SOL     OW16582   2.365   4.255  16.709 -0.0282  0.7437  0.1512
 1649SOL    HW116583   2.416   4.255  16.628  0.4991  2.9033  0.4938
 1649SOL    HW216584   2.383   4.339  16.749 -0.4947  1.5462 -1.3213
 1650SOL     OW16585   0.205   4.304  10.146  0.2909 -0.3939 -0.1053
 1650SOL    HW116586   0.219   4.307  10.241  0.0833  0.7750 -0.1159
 1650SOL    HW216587   0.296   4.298  10.117  0.6385  1.3871  0.6479
 1651SOL     OW16588   3.308   2.642   4.257  0.4389 -0.4235 -0.0979
 1651SOL    HW116589   3.354   2.618   4.338 -0.1412  0.6452  0.5477
 1651SOL    HW216590   3.368   2.591   4.202  1.7166  1.0808 -0.1145
 1652SOL     OW16591   0.121   2.308  12.256 -0.5294 -0.6214  0.0003
 1652SOL    HW116592   0.188   2.351  12.202 -3.6617 -0.8039 -3.9565
 1652SOL    HW216593   0.175   2.291  12.334  1.4215  1.0771 -0.9602
 1653SOL     OW16594   4.473   0.077  15.117 -0.7846 -0.2097  0.1639
 1653SOL    HW116595   4.398   0.018  15.131 -0.3601 -0.5673  0.9541
 1653SOL    HW216596   4.442   0.105  15.031  0.9308  1.0470 -0.0341
 1654SOL     OW16597   0.454   2.256   4.887 -0.2399  0.1162  0.1632
 1654SOL    HW116598   0.421   2.232   4.801 -1.6637 -1.5309  1.1517
 1654SOL    HW216599   0.518   2.322   4.863 -0.2306 -0.5996 -1.7368
 1655SOL     OW16600   3.125   2.212   8.617  0.4091 -0.7939 -0.6121
 1655SOL    HW116601   3.041   2.190   8.577  1.1215  0.4284 -2.7966
 1655SOL    HW216602   3.180   2.206   8.539 -0.0553  1.3005 -1.1035
 1656SOL     OW16603   0.434   4.575  12.569 -0.7415  0.4552  0.0445
 1656SOL    HW116604   0.466   4.665  12.575 -0.4690  0.3893 -0.3946
 1656SOL    HW216605   0.517   4.529  12.581  0.7025  2.4633 -2.2389
 1657SOL     OW16606   1.858   4.436   3.473 -0.2903 -0.8923  0.2239
 1657SOL    HW116607   1.916   4.387   3.414  1.9350  0.0001  1.6675
 1657SOL    HW216608   1.845   4.372   3.543 -1.3773  0.2892  1.0762
 1658SOL     OW16609   1.711   2.340   4.092  0.1625  0.5687 -0.1691
 1658SOL    HW116610   1.617   2.355   4.081  0.7251  1.4238 -3.8803
 1658SOL    HW216611   1.737   2.342   4.000 -4.0258  0.6481 -1.3924
 1659SOL     OW16612   4.488   4.374  12.526  0.3680 -0.2781 -0.1555
 1659SOL    HW116613   4.460   4.345  12.613  0.3874  0.8353  0.2206
 1659SOL    HW216614   4.398   4.375  12.494  0.4266  0.0672 -0.3081
 1660SOL     OW16615   0.059   0.186  13.935 -0.3612  0.3282  0.3042
 1660SOL    HW116616   0.061   0.213  13.843  0.2735 -0.5847  0.0464
 1660SOL    HW216617   0.086   0.094  13.926 -2.8080 -0.3775  0.0477
 1661SOL     OW16618   2.166   3.363  13.511  0.1857 -0.4822  0.3371
 1661SOL    HW116619   2.122   3.278  13.516  0.1449 -0.4512  0.5122
 1661SOL    HW216620   2.088   3.412  13.485  0.1199 -0.1623  1.1338
 1662SOL     OW16621   4.733   4.343   3.172  0.3316  0.3616 -0.0083
 1662SOL    HW116622   4.724   4.355   3.267 -1.3342 -0.5251 -0.0507
 1662SOL    HW216623   0.077   4.390   3.155  0.0385  1.2168  0.9625
 1663SOL     OW16624   4.035   0.465   4.136 -0.1205  0.4241  0.1543
 1663SOL    HW116625   4.110   0.503   4.183 -0.1050  1.2658 -0.5426
 1663SOL    HW216626   4.029   0.519   4.056 -0.3805 -0.4019 -0.3793
 1664SOL     OW16627   3.125   3.842   8.281  0.2254  0.2421 -0.3827
 1664SOL    HW116628   3.167   3.779   8.340 -0.3217  1.0244  0.8388
 1664SOL    HW216629   3.200   3.883   8.236  1.8710 -0.5950  1.5982
 1665SOL     OW16630   0.273   4.007   0.444 -0.2508 -0.0730  0.3209
 1665SOL    HW116631   0.261   3.997   0.350 -3.7937 -1.6471  0.9446
 1665SOL    HW216632   0.310   3.923   0.470  1.1034  0.5235  0.3332
 1666SOL     OW16633   0.684   4.114   0.699 -0.2959  0.0279  0.3310
 1666SOL    HW116634   0.674   4.019   0.698  1.8899 -0.1776 -1.3009
 1666SOL    HW216635   0.597   4.129   0.661 -0.5420  1.4482  1.4646
 1667SOL     OW16636   0.198   4.569  16.403 -0.1492 -0.1163  0.0837
 1667SOL    HW116637   0.280   4.574  16.451 -0.0058 -1.7648 -0.0021
 1667SOL    HW216638   0.155   4.491  16.437  1.1006 -0.9243 -0.2017
 1668SOL     OW16639   0.137   4.317   1.787 -0.5519 -0.5691  0.4392
 1668SOL    HW116640   0.179   4.374   1.722 -2.0738  0.9640  0.7990
 1668SOL    HW216641   0.196   4.242   1.798  0.9611  0.6344  0.5409
 1669SOL     OW16642   3.241   2.558  15.963  0.2413  0.1138  0.1827
 1669SOL    HW116643   3.306   2.497  15.928  1.3147  1.4462 -0.1308
 1669SOL    HW216644   3.195   2.501  16.025 -1.5375  1.9530  0.5563
 1670SOL     OW16645   4.703   4.655   3.027  0.0047  0.1109  0.4049
 1670SOL    HW116646   0.045   4.601   3.028 -0.3221 -0.3752  0.0984
 1670SOL    HW216647   4.737   4.732   3.072 -0.2497  0.1609  0.5103
 1671SOL     OW16648   2.427   2.149   8.932  0.6636 -0.1418  0.4255
 1671SOL    HW116649   2.476   2.215   8.982  0.9233  0.5048 -0.6816
 1671SOL    HW216650   2.472   2.069   8.960  1.5617  0.5581  0.9989
 1672SOL     OW16651   2.568   2.689  12.334  0.0238  0.0521 -0.0865
 1672SOL    HW116652   2.576   2.658  12.244  0.4581 -1.1458  0.3552
 1672SOL    HW216653   2.497   2.638  12.373 -0.2077  1.4640  1.3050
 1673SOL     OW16654   4.203   2.740   3.358  0.2296 -0.3956 -0.0318
 1673SOL    HW116655   4.264   2.711   3.426 -4.1282 -2.6680  2.9043
 1673SOL    HW216656   4.175   2.825   3.393  2.2282  0.1069  0.3170
 1674SOL     OW16657   4.705   1.609   8.424  0.7808  0.0505 -0.0722
 1674SOL    HW116658   4.733   1.650   8.341  0.1629  0.2374 -0.1858
 1674SOL    HW216659   4.660   1.684   8.461  0.8628 -0.6490  1.4131
 1675SOL     OW16660   2.808   2.096   5.439 -0.3062 -0.0084 -0.1253
 1675SOL    HW116661   2.840   2.119   5.352  0.0620  1.2460  0.3457
 1675SOL    HW216662   2.716   2.118   5.429 -0.2642  0.3504  0.2709
 1676SOL     OW16663   3.697   3.812  14.849 -0.6638 -0.0499 -0.3998
 1676SOL    HW116664   3.773   3.783  14.799 -0.8180 -1.5725  0.2667
 1676SOL    HW216665   3.734   3.888  14.895 -0.0250  0.0164 -1.0238
 1677SOL     OW16666   2.493   3.197  12.684  0.5212 -0.0958 -0.2930
 1677SOL    HW116667   2.523   3.163  12.600  0.1514 -0.5572 -0.2369
 1677SOL    HW216668   2.403   3.229  12.673  0.6969  0.4987  0.0076
 1678SOL     OW16669   2.166   1.684   8.998 -0.2272  0.0520  0.4677
 1678SOL    HW116670   2.128   1.743   8.932 -2.3638  0.6467  2.2176
 1678SOL    HW216671   2.202   1.750   9.057  2.1890  2.1201 -3.3057
 1679SOL     OW16672   1.310   2.058   6.865 -0.5420  0.6166  0.0099
 1679SOL    HW116673   1.281   2.084   6.778  2.1241 -1.0243 -1.3485
 1679SOL    HW216674   1.241   2.095   6.921 -0.7914 -0.6340  0.5350
 1680SOL     OW16675   1.674   3.619   4.303 -0.6765  0.0934 -0.1327
 1680SOL    HW116676   1.735   3.552   4.272 -0.5616  0.9239 -1.6890
 1680SOL    HW216677   1.707   3.618   4.393  0.0498 -0.2209 -0.4012
 1681SOL     OW16678   3.697   0.619   0.267  0.0526 -0.9295 -0.4442
 1681SOL    HW116679   3.647   0.606   0.348  0.0755  1.7419 -0.0259
 1681SOL    HW216680   3.631   0.668   0.219  0.3695 -0.2377 -0.1746
 1682SOL     OW16681   2.808   1.716   6.768 -0.0351  0.2174 -0.2592
 1682SOL    HW116682   2.867   1.641   6.768 -1.0261 -0.5547  1.0606
 1682SOL    HW216683   2.835   1.770   6.694 -0.7840 -0.0275 -0.7182
 1683SOL     OW16684   0.121   2.835  14.693  0.0805 -0.2284  0.0660
 1683SOL    HW116685   0.158   2.776  14.627 -0.7277 -0.1331 -0.4733
 1683SOL    HW216686   0.127   2.782  14.772  1.9294 -0.1500 -0.0103
 1684SOL     OW16687   1.942   1.316   5.268  0.0648 -0.5970  0.0649
 1684SOL    HW116688   1.942   1.305   5.363 -0.1110  0.9934  0.2574
 1684SOL    HW216689   1.971   1.406   5.250 -0.4158 -0.6257 -0.8551
 1685SOL     OW16690   3.254   1.707   8.608 -0.6524  0.0347  0.1997
 1685SOL    HW116691   3.297   1.777   8.558 -2.6325 -1.3675 -3.3965
 1685SOL    HW216692   3.268   1.627   8.557  1.9021  0.8061 -0.3127
 1686SOL     OW16693   3.805   3.011  12.205 -0.3120  0.3246 -0.0733
 1686SOL    HW116694   3.859   2.968  12.138 -0.3453 -0.0032  0.1091
 1686SOL    HW216695   3.746   3.072  12.161  1.4804  0.9447 -1.6092
 1687SOL     OW16696   2.186   0.322   5.971  0.0934  0.0063 -0.1862
 1687SOL    HW116697   2.166   0.248   5.913  0.2503  0.8361 -1.2984
 1687SOL    HW216698   2.129   0.303   6.045  0.0866 -0.5734 -0.3368
 1688SOL     OW16699   2.308   4.356   5.754 -0.3305 -0.0703 -0.2610
 1688SOL    HW116700   2.263   4.385   5.833 -0.3379  0.8167 -0.5883
 1688SOL    HW216701   2.393   4.400   5.761 -0.0368 -1.0272  1.8365
 1689SOL     OW16702   2.768   4.726  14.102  0.6866 -0.0382  0.0465
 1689SOL    HW116703   2.813   4.689  14.026 -0.9727 -0.8399 -0.5358
 1689SOL    HW216704   2.678   4.694  14.102  1.0039 -0.9192  1.8971
 1690SOL     OW16705   1.198   1.241   9.129  0.3013 -0.6528  0.1252
 1690SOL    HW116706   1.261   1.191   9.181  1.0072 -0.1689 -0.2643
 1690SOL    HW216707   1.231   1.231   9.040 -0.9240  2.3438 -0.6678
 1691SOL     OW16708   3.678   2.709   4.106  0.5705 -0.1325  0.1884
 1691SOL    HW116709   3.699   2.791   4.150 -0.7365  0.2767  0.0667
 1691SOL    HW216710   3.714   2.716   4.018 -1.6720  1.1716 -0.6399
 1692SOL     OW16711   4.157   3.648  17.165  0.0525 -0.3908 -0.5193
 1692SOL    HW116712   4.181   3.649  17.258 -1.7394 -1.5698 -0.0481
 1692SOL    HW216713   4.091   3.718  17.164  1.0925  0.5951 -1.3890
 1693SOL     OW16714   3.289   2.888   5.556 -0.2117  0.4491 -0.1122
 1693SOL    HW116715   3.261   2.966   5.509 -1.6240  0.5006  0.8388
 1693SOL    HW216716   3.374   2.919   5.587  0.7853  0.1281 -2.4692
 1694SOL     OW16717   2.244   1.156  16.404  0.2120 -0.2522  0.5428
 1694SOL    HW116718   2.155   1.150  16.369  0.3086 -2.0868  0.6142
 1694SOL    HW216719   2.298   1.153  16.326 -1.2350 -0.4631 -0.4381
 1695SOL     OW16720   2.877   2.043  12.461 -0.4484 -0.1687  0.0235
 1695SOL    HW116721   2.834   1.960  12.478 -2.0695  0.6566 -0.1127
 1695SOL    HW216722   2.887   2.087  12.546 -0.5836 -2.2015  1.0876
 1696SOL     OW16723   1.234   2.178  10.412  0.3718  0.9472  0.0103
 1696SOL    HW116724   1.280   2.255  10.445  0.5277  0.3110  1.2604
 1696SOL    HW216725   1.258   2.102  10.464  1.7971 -0.0360 -2.0741
 1697SOL     OW16726   0.279   0.723   8.362  0.3988  0.1364 -0.0444
 1697SOL    HW116727   0.201   0.697   8.411 -0.4510  3.1945  0.2012
 1697SOL    HW216728   0.352   0.719   8.424 -0.8167 -0.7968  1.3156
 1698SOL     OW16729   0.716   0.423   6.784 -0.2313  0.4631  0.1649
 1698SOL    HW116730   0.794   0.422   6.839 -0.2695 -0.3682  0.2106
 1698SOL    HW216731   0.645   0.410   6.847 -0.0561 -0.5736  0.1423
 1699SOL     OW16732   2.827   3.395  13.380 -0.6135  0.4550  0.0898
 1699SOL    HW116733   2.822   3.301  13.365  0.5587  0.5655 -1.0688
 1699SOL    HW216734   2.923   3.399  13.390 -0.7011  0.5822  0.8742
 1700SOL     OW16735   3.446   3.660   3.672  0.2950  0.1232 -0.2985
 1700SOL    HW116736   3.433   3.584   3.729 -0.6843  1.3455  1.1309
 1700SOL    HW216737   3.524   3.701   3.709  0.3031 -0.2014  0.0456
 1701SOL     OW16738   1.266   3.370   4.933 -0.3423 -0.1213  0.5385
 1701SOL    HW116739   1.342   3.368   4.875 -0.2877  0.8765  0.5746
 1701SOL    HW216740   1.285   3.444   4.991  2.8252  1.1049 -2.0152
 1702SOL     OW16741   3.020   4.075   0.871  0.2860  0.4949 -0.1341
 1702SOL    HW116742   2.987   4.031   0.949  1.2679  2.2752  1.2851
 1702SOL    HW216743   3.029   4.165   0.901 -0.9963  1.3516 -2.2983
 1703SOL     OW16744   2.131   4.626   5.732  0.2379 -0.1924  0.5153
 1703SOL    HW116745   2.192   4.604   5.662  1.1356  0.1580  1.1937
 1703SOL    HW216746   2.113   4.542   5.773 -1.4576 -0.0451  0.1038
 1704SOL     OW16747   3.182   3.636   6.373 -0.1088 -0.6260 -0.1148
 1704SOL    HW116748   3.129   3.685   6.436  1.2929 -0.9315  1.2837
 1704SOL    HW216749   3.129   3.627   6.294  0.7765 -1.5011 -0.6173
 1705SOL     OW16750   4.408   1.299   3.781 -0.0584  0.3493 -0.3108
 1705SOL    HW116751   4.446   1.308   3.868 -0.1172  3.0700 -0.5581
 1705SOL    HW216752   4.411   1.391   3.753 -0.6261  0.3530 -0.3506
 1706SOL     OW16753   0.277   0.709   5.876 -0.0958  0.0096  0.9543
 1706SOL    HW116754   0.233   0.652   5.939 -0.8047  1.2316  1.5655
 1706SOL    HW216755   0.237   0.790   5.908 -1.4094 -0.5384  0.6953
 1707SOL     OW16756   1.890   1.381  16.517  0.1182 -0.7783 -0.0040
 1707SOL    HW116757   1.850   1.462  16.484 -0.3371 -1.7704 -1.9315
 1707SOL    HW216758   1.818   1.319  16.503 -1.2732  1.6426 -3.6450
 1708SOL     OW16759   2.831   2.626  12.816 -0.2479  0.1593 -0.3673
 1708SOL    HW116760   2.809   2.684  12.743 -1.1981  1.0752  0.6367
 1708SOL    HW216761   2.785   2.677  12.883  2.3495  1.3664  0.5009
 1709SOL     OW16762   0.254   2.171  13.739 -0.1387  0.2632 -0.1745
 1709SOL    HW116763   0.320   2.196  13.674 -1.7408  1.0793 -1.4779
 1709SOL    HW216764   0.288   2.090  13.777 -0.9200  0.9877  2.0477
 1710SOL     OW16765   3.713   3.476  16.291  0.1041 -0.3296 -0.0910
 1710SOL    HW116766   3.653   3.402  16.297  0.3907 -0.5407  0.1586
 1710SOL    HW216767   3.761   3.463  16.372  2.1634 -1.4769 -1.5176
 1711SOL     OW16768   4.587   3.452   1.167 -0.1086  0.2228 -0.3456
 1711SOL    HW116769   4.614   3.370   1.127 -0.3807 -1.1293  2.1847
 1711SOL    HW216770   4.497   3.467   1.138 -0.1069  0.4815 -0.2180
 1712SOL     OW16771   0.021   3.562   6.926 -0.0617  0.0818 -0.5164
 1712SOL    HW116772   0.094   3.622   6.938 -0.0460  0.5464 -3.0464
 1712SOL    HW216773   0.062   3.479   6.953 -0.5748 -0.2311 -0.6916
 1713SOL     OW16774   1.417   4.248   6.741 -0.1580  0.8852 -0.1182
 1713SOL    HW116775   1.501   4.211   6.713 -1.0656 -0.5202 -0.9800
 1713SOL    HW216776   1.391   4.196   6.818 -0.8145 -1.9096 -2.2308
 1714SOL     OW16777   2.045   3.172   4.222  0.3968  0.3216  0.2545
 1714SOL    HW116778   2.042   3.256   4.269 -0.0584  0.2200  0.4025
 1714SOL    HW216779   2.069   3.111   4.292  0.6602 -1.2597 -1.2323
 1715SOL     OW16780   3.552   0.016  17.707 -0.6926  0.0017  0.1513
 1715SOL    HW116781   3.571   4.694  17.634 -0.4011  0.0548  0.1816
 1715SOL    HW216782   3.627   0.074  17.698 -2.1073  1.6252 -1.0672
 1716SOL     OW16783   1.904   1.484   2.723  0.6474  0.0068 -1.1228
 1716SOL    HW116784   1.973   1.539   2.686  0.7755  0.0875 -0.7558
 1716SOL    HW216785   1.930   1.448   2.808 -2.5196 -1.2360 -0.6538
 1717SOL     OW16786   1.029   2.669  15.540  0.7967 -0.8898  0.1182
 1717SOL    HW116787   1.009   2.575  15.539 -1.2146 -0.4670  0.1339
 1717SOL    HW216788   1.123   2.675  15.551  0.8707  0.3723 -1.1927
 1718SOL     OW16789   1.068   1.278  13.214  0.0367  0.4415  0.2467
 1718SOL    HW116790   1.016   1.276  13.294 -0.6904 -1.7795 -0.2884
 1718SOL    HW216791   1.137   1.339  13.239 -0.5798  0.8060  1.0428
 1719SOL     OW16792   1.022   2.551   5.930  0.4156  0.1256 -0.2497
 1719SOL    HW116793   1.079   2.625   5.911  0.0627  0.6394  0.6641
 1719SOL    HW216794   1.083   2.479   5.945 -1.4010 -1.1618  0.9765
 1720SOL     OW16795   3.627   2.282  16.027 -0.1311 -0.8130 -0.3077
 1720SOL    HW116796   3.625   2.295  16.122 -0.2948  0.1102 -0.4331
 1720SOL    HW216797   3.676   2.358  15.996 -1.3188  0.3174  0.5653
 1721SOL     OW16798   3.196   1.036  13.804  0.8280 -0.0868 -0.5781
 1721SOL    HW116799   3.285   1.015  13.831 -0.3947 -0.3628  3.2560
 1721SOL    HW216800   3.142   0.995  13.872 -1.0484 -0.0769 -2.0732
 1722SOL     OW16801   3.247   3.256   6.114  0.1473  0.7249 -0.0595
 1722SOL    HW116802   3.305   3.304   6.172  0.9602 -2.1635  1.4790
 1722SOL    HW216803   3.303   3.210   6.052 -1.0498 -0.2086 -0.4647
 1723SOL     OW16804   4.644   0.514   4.066 -0.4805 -0.2929  0.0079
 1723SOL    HW116805   4.559   0.477   4.091  0.5860 -1.0270  2.5731
 1723SOL    HW216806   4.661   0.578   4.135  1.6674 -0.2482 -0.5626
 1724SOL     OW16807   0.983   0.889  10.144  0.0946 -0.1909 -0.0709
 1724SOL    HW116808   0.950   0.978  10.131  1.5930  0.4032  0.2105
 1724SOL    HW216809   0.903   0.848  10.112  0.9619  1.2187 -4.0904
 1725SOL     OW16810   4.545   0.102   7.088  0.2323 -0.1173  0.4304
 1725SOL    HW116811   4.620   0.102   7.149 -1.4201 -0.5813  2.4619
 1725SOL    HW216812   4.477   0.128   7.150 -1.3888  1.1818 -1.8794
 1726SOL     OW16813   2.488   4.463   1.742 -0.7157 -0.6052 -0.1825
 1726SOL    HW116814   2.473   4.538   1.684  3.0020 -0.1357 -0.5899
 1726SOL    HW216815   2.512   4.499   1.828  1.2246 -0.4040 -0.7997
 1727SOL     OW16816   4.655   0.016   5.415 -0.4865 -0.3294 -1.1520
 1727SOL    HW116817   4.600   0.053   5.483  2.0395  0.4586  0.4741
 1727SOL    HW216818   4.729   4.721   5.468 -0.8188  1.2451  0.2629
 1728SOL     OW16819   0.537   1.141   7.134 -0.1877 -0.3514 -0.2604
 1728SOL    HW116820   0.443   1.128   7.123 -0.0655  0.0569 -1.7869
 1728SOL    HW216821   0.549   1.227   7.094  1.1121 -0.0413  0.7766
 1729SOL     OW16822   0.076   2.199   8.051 -0.0713  0.3202  0.1039
 1729SOL    HW116823   0.168   2.174   8.065 -0.8791 -2.8861 -0.3800
 1729SOL    HW216824   0.029   2.116   8.048  2.4903 -1.1569  0.5322
 1730SOL     OW16825   1.026   3.785   5.603  0.4001  0.4300  0.2500
 1730SOL    HW116826   1.100   3.755   5.656  0.7703 -1.2088 -1.1659
 1730SOL    HW216827   1.018   3.711   5.543  0.5968 -0.3850  1.2247
 1731SOL     OW16828   3.719   2.758   1.122  0.2244 -0.1291 -0.2418
 1731SOL    HW116829   3.635   2.804   1.124  1.7040  2.5960 -1.2944
 1731SOL    HW216830   3.768   2.812   1.184  0.3399 -0.2376 -0.2375
 1732SOL     OW16831   3.624   0.502   2.607  0.5541  0.5707 -0.3361
 1732SOL    HW116832   3.567   0.541   2.674  1.2336 -0.7581  0.9937
 1732SOL    HW216833   3.587   0.415   2.593 -0.8785  0.6985  2.6866
 1733SOL     OW16834   1.325   4.261   9.185 -0.1359  0.1256 -0.4736
 1733SOL    HW116835   1.324   4.166   9.193 -0.0988  0.0864 -0.9603
 1733SOL    HW216836   1.340   4.276   9.092 -1.3756 -1.3879 -0.9095
 1734SOL     OW16837   2.752   2.247   7.578 -0.5647 -0.4484  0.0888
 1734SOL    HW116838   2.748   2.215   7.669 -1.4605 -2.3777 -0.6181
 1734SOL    HW216839   2.845   2.265   7.568 -0.5540 -0.0920  0.7802
 1735SOL     OW16840   1.052   1.595   1.067  0.4875  0.0324  0.1665
 1735SOL    HW116841   0.982   1.550   1.020  0.1433 -1.4252  2.0843
 1735SOL    HW216842   1.132   1.569   1.022  0.5582 -1.4749  1.1656
 1736SOL     OW16843   1.491   4.058   5.049 -0.4665  0.3990  0.0732
 1736SOL    HW116844   1.468   4.023   5.135  1.4901  1.9601  1.2306
 1736SOL    HW216845   1.448   3.987   5.003  2.0241  0.7107 -2.7445
 1737SOL     OW16846   2.916   0.244  16.881  0.1549 -0.0042 -1.0811
 1737SOL    HW116847   2.943   0.223  16.970 -0.2444  2.4617 -0.3827
 1737SOL    HW216848   2.821   0.255  16.883  0.1729 -0.0399 -0.0969
 1738SOL     OW16849   3.220   0.359   5.899  0.3453  0.1988 -0.0463
 1738SOL    HW116850   3.210   0.423   5.969  1.8084 -0.2056  0.5194
 1738SOL    HW216851   3.176   0.283   5.937 -1.6509  0.3334 -2.0581
 1739SOL     OW16852   2.575   3.801   5.517  0.5388  0.2685 -0.2128
 1739SOL    HW116853   2.503   3.741   5.537  0.7645 -0.9363 -2.9847
 1739SOL    HW216854   2.537   3.836   5.436  1.0726 -0.5575 -0.8256
 1740SOL     OW16855   0.830   4.689   9.485 -0.3396  0.6538 -0.3214
 1740SOL    HW116856   0.851   4.661   9.396  1.4201  0.5087  0.1288
 1740SOL    HW216857   0.735   4.696   9.488 -0.1741  1.8504  2.4523
 1741SOL     OW16858   2.144   3.330   3.226 -0.2248 -0.2541  0.5951
 1741SOL    HW116859   2.093   3.251   3.213  1.3218 -0.7516 -2.4656
 1741SOL    HW216860   2.091   3.394   3.179  0.7392  0.5325  0.5790
 1742SOL     OW16861   1.002   1.769   5.263 -0.6420  1.0306 -0.5200
 1742SOL    HW116862   0.983   1.862   5.252  0.1248  1.1611 -0.7289
 1742SOL    HW216863   0.920   1.727   5.236  0.7636 -0.9920 -1.6257
 1743SOL     OW16864   4.198   0.344  17.573 -0.2699 -0.0867 -0.7676
 1743SOL    HW116865   4.140   0.273  17.545  0.6312 -1.6300  1.3184
 1743SOL    HW216866   4.135   0.404  17.614 -1.5171  0.2320 -3.1445
 1744SOL     OW16867   1.610   0.826   5.491  0.3898 -0.4614  0.3699
 1744SOL    HW116868   1.517   0.811   5.477  0.7192 -0.3958 -1.9184
 1744SOL    HW216869   1.623   0.819   5.586  1.2532 -1.4631  0.1754
 1745SOL     OW16870   0.017   4.669  12.147  0.2696 -0.1251 -0.3461
 1745SOL    HW116871   0.036   4.620  12.227 -1.6671 -1.2011 -0.5265
 1745SOL    HW216872   0.104   4.687  12.112  0.6824  0.0871  0.7936
 1746SOL     OW16873   1.385   4.375   3.606  0.1159 -0.0280  0.5455
 1746SOL    HW116874   1.362   4.360   3.514 -0.9559  3.5260  0.2007
 1746SOL    HW216875   1.298   4.386   3.645 -0.0267  2.5824 -0.4719
 1747SOL     OW16876   4.585   1.231   4.238  0.0535  0.3350 -0.6404
 1747SOL    HW116877   4.628   1.183   4.168 -1.4874 -1.8250 -0.1299
 1747SOL    HW216878   4.518   1.275   4.185 -0.5724 -0.6988 -0.7084
 1748SOL     OW16879   3.170   2.750   9.717  0.1830  0.0282  0.0754
 1748SOL    HW116880   3.148   2.708   9.634 -1.7199  1.0214  0.0880
 1748SOL    HW216881   3.195   2.680   9.777  0.0834 -3.5298 -3.9914
 1749SOL     OW16882   1.964   2.917   1.700 -0.3786  0.4084 -0.6929
 1749SOL    HW116883   1.992   2.932   1.790  1.2761 -0.3180 -1.0791
 1749SOL    HW216884   1.978   2.825   1.678  1.8045  0.8680 -1.2384
 1750SOL     OW16885   3.275   4.297   1.720 -0.4160 -0.4381  0.3401
 1750SOL    HW116886   3.326   4.363   1.767 -0.8106 -0.0207  0.1829
 1750SOL    HW216887   3.207   4.272   1.782  0.2786 -1.8275  0.5374
 1751SOL     OW16888   0.702   1.225   2.517 -0.2936 -0.1758 -0.3470
 1751SOL    HW116889   0.713   1.158   2.585  0.5216  1.5423  1.2240
 1751SOL    HW216890   0.762   1.204   2.445 -1.8223  0.3999 -1.7857
 1752SOL     OW16891   1.205   4.271  15.317  0.3007 -0.1761 -0.2767
 1752SOL    HW116892   1.282   4.328  15.312  1.2618 -1.3199  1.5028
 1752SOL    HW216893   1.190   4.254  15.224  0.0459  1.2603 -0.4831
 1753SOL     OW16894   2.299   2.809   2.168 -0.1185 -0.1885  0.2142
 1753SOL    HW116895   2.364   2.799   2.237 -1.2742 -1.9534  1.0136
 1753SOL    HW216896   2.245   2.874   2.214 -2.3471 -0.3564 -2.1592
 1754SOL     OW16897   2.363   1.767   2.640  0.5235 -0.3814 -0.8065
 1754SOL    HW116898   2.291   1.830   2.636  0.1793 -0.6441  1.5710
 1754SOL    HW216899   2.326   1.700   2.582 -0.7432  1.9749 -2.7784
 1755SOL     OW16900   0.301   3.747  17.719 -0.1102 -0.7413 -0.0371
 1755SOL    HW116901   0.317   3.789  17.635 -0.0838  0.9122  0.7742
 1755SOL    HW216902   0.367   3.679  17.706 -2.0315 -2.0402 -2.9505
 1756SOL     OW16903   1.973   0.345  15.786 -0.0118 -0.5300 -0.1536
 1756SOL    HW116904   1.878   0.359  15.783  0.1748  0.5091 -1.5277
 1756SOL    HW216905   1.977   0.255  15.756  3.0133 -0.3123 -0.4212
 1757SOL     OW16906   3.674   4.196   4.472 -0.3217  0.2116 -0.2449
 1757SOL    HW116907   3.609   4.178   4.404 -0.1708  0.0046 -0.3335
 1757SOL    HW216908   3.611   4.248   4.521 -0.3248 -1.7877  1.8557
 1758SOL     OW16909   3.416   2.411   2.776 -0.3737 -0.0150 -0.0220
 1758SOL    HW116910   3.422   2.409   2.872 -1.4325 -4.1835 -0.0242
 1758SOL    HW216911   3.485   2.350   2.752 -1.1634 -1.2589  0.8483
 1759SOL     OW16912   0.909   3.315   6.261  0.4193 -0.6398 -0.0020
 1759SOL    HW116913   0.897   3.377   6.334  0.8890  0.3787 -0.7864
 1759SOL    HW216914   0.854   3.246   6.296  1.0747 -0.8468  0.6142
 1760SOL     OW16915   2.726   2.515   5.573  0.7369  0.2942 -0.5979
 1760SOL    HW116916   2.763   2.427   5.567 -0.9961 -0.3722 -1.4487
 1760SOL    HW216917   2.797   2.550   5.627 -1.1276  0.6504  1.6447
 1761SOL     OW16918   2.083   1.270   6.563 -0.3522 -0.0351  0.5917
 1761SOL    HW116919   2.129   1.192   6.592 -1.8263 -1.6522 -1.4322
 1761SOL    HW216920   2.153   1.290   6.501  0.2276  0.1452  1.3151
 1762SOL     OW16921   1.335   0.518   2.130  0.2517  0.1307  0.2638
 1762SOL    HW116922   1.335   0.428   2.161  0.4053 -0.6735 -2.0341
 1762SOL    HW216923   1.401   0.519   2.060  0.3109 -0.2356  0.3120
 1763SOL     OW16924   3.827   0.960   2.290  0.1911  0.8490 -0.0930
 1763SOL    HW116925   3.802   0.890   2.229 -0.1259  0.9909 -0.1257
 1763SOL    HW216926   3.852   1.030   2.230  3.0706 -0.1937 -0.1418
 1764SOL     OW16927   0.995   2.293   6.069  0.7253 -0.2402  0.1303
 1764SOL    HW116928   1.034   2.273   6.155  1.1302  2.9359  0.6754
 1764SOL    HW216929   1.074   2.301   6.015  0.7113 -0.3033  0.1009
 1765SOL     OW16930   2.860   0.112  14.685 -0.2805 -0.0388 -0.7237
 1765SOL    HW116931   2.941   0.086  14.640  0.0564  1.4393 -0.9958
 1765SOL    HW216932   2.871   0.069  14.770 -2.1797 -0.7335 -0.8511
 1766SOL     OW16933   2.679   1.921   6.345  0.5466 -0.1213 -0.3716
 1766SOL    HW116934   2.619   1.944   6.273  2.9466  3.2715 -1.2875
 1766SOL    HW216935   2.643   1.838   6.377  0.9207 -0.2758 -0.3617
 1767SOL     OW16936   2.974   0.740  17.635  0.1902  0.5502  0.2787
 1767SOL    HW116937   2.939   0.794  17.705 -0.4863  0.0851  0.3004
 1767SOL    HW216938   3.067   0.760  17.629  0.6768 -1.6461  0.3871
 1768SOL     OW16939   3.055   3.217   6.634  0.5106 -0.0030  0.1500
 1768SOL    HW116940   3.005   3.199   6.713  0.3830 -0.2677  0.0113
 1768SOL    HW216941   2.994   3.274   6.589 -0.2605 -1.3443 -0.5054
 1769SOL     OW16942   4.255   3.583   2.139 -0.3481  0.3690 -0.4184
 1769SOL    HW116943   4.175   3.561   2.186  0.5231 -0.8995  0.4674
 1769SOL    HW216944   4.221   3.579   2.050 -1.8966 -2.6146  0.3042
 1770SOL     OW16945   3.317   2.239  15.612 -0.2496 -0.1091 -0.4974
 1770SOL    HW116946   3.370   2.317  15.595 -1.3920  0.8334  0.2477
 1770SOL    HW216947   3.338   2.223  15.704  0.8190 -0.0225 -0.7211
 1771SOL     OW16948   1.230   1.996   0.782 -0.7279 -1.0553  0.1959
 1771SOL    HW116949   1.314   1.981   0.739 -0.5112  2.6880 -0.6881
 1771SOL    HW216950   1.242   2.089   0.804  0.4186 -0.4685 -2.8961
 1772SOL     OW16951   1.492   0.665  12.807 -0.3695  0.5235 -0.1986
 1772SOL    HW116952   1.456   0.602  12.870  0.9466  0.5768  0.6108
 1772SOL    HW216953   1.419   0.683  12.748 -2.4715 -0.4268  2.1161
 1773SOL     OW16954   2.351   2.474   5.179  0.2786 -0.3364  0.3317
 1773SOL    HW116955   2.416   2.497   5.245  0.7201 -0.6566  0.0114
 1773SOL    HW216956   2.356   2.378   5.183  2.2094 -0.1262  2.7006
 1774SOL     OW16957   1.342   3.048   9.644 -0.0494  0.7010 -0.3258
 1774SOL    HW116958   1.348   3.044   9.739 -1.6161  0.2594 -0.2479
 1774SOL    HW216959   1.422   3.093   9.615  1.4701 -0.7421  1.5880
 1775SOL     OW16960   0.588   3.764   3.221  0.0702  0.1983  0.5625
 1775SOL    HW116961   0.495   3.757   3.244  0.0020  0.2045  0.2979
 1775SOL    HW216962   0.578   3.735   3.130  2.2605 -0.2211  0.4616
 1776SOL     OW16963   3.565   1.595   8.741  0.0230 -0.4164 -0.3062
 1776SOL    HW116964   3.649   1.613   8.782  0.2214 -1.3210 -0.3223
 1776SOL    HW216965   3.531   1.685   8.747  0.6548 -0.1702 -0.5030
 1777SOL     OW16966   1.710   1.198   4.793 -0.4201 -0.7161  0.9014
 1777SOL    HW116967   1.628   1.237   4.823 -0.9242 -0.1628 -1.1411
 1777SOL    HW216968   1.777   1.249   4.839  0.8971 -1.0415 -0.6397
 1778SOL     OW16969   3.882   3.567   5.533 -0.0278 -0.1019  0.0641
 1778SOL    HW116970   3.854   3.487   5.578  2.0626  1.3298  3.8177
 1778SOL    HW216971   3.840   3.631   5.589  0.0590 -2.2927  2.6425
 1779SOL     OW16972   2.771   1.803   8.663 -0.1648  0.5979 -0.1630
 1779SOL    HW116973   2.828   1.738   8.622 -0.4982 -0.3235  0.8227
 1779SOL    HW216974   2.725   1.744   8.723 -1.2040  0.3207 -1.2316
 1780SOL     OW16975   1.391   2.357  13.613 -0.1120  0.1173 -0.7719
 1780SOL    HW116976   1.383   2.448  13.643 -1.9235 -1.1772  2.6888
 1780SOL    HW216977   1.325   2.358  13.544 -0.8854 -1.6494 -0.0515
 1781SOL     OW16978   4.017   4.520   9.409 -0.6036  0.2866  0.5932
 1781SOL    HW116979   3.999   4.427   9.396  1.6985 -0.1951  0.7674
 1781SOL    HW216980   3.935   4.541   9.454 -0.5390  0.9228  0.4224
 1782SOL     OW16981   1.441   0.868   7.555  0.1930 -0.3649 -0.2617
 1782SOL    HW116982   1.444   0.959   7.586  2.8458 -0.7690  0.6518
 1782SOL    HW216983   1.529   0.860   7.520  0.5734 -0.7732  0.7926
 1783SOL     OW16984   4.028   2.011  14.154 -0.2847 -0.5733 -0.3710
 1783SOL    HW116985   4.017   2.013  14.059 -0.9901  0.9420 -0.2533
 1783SOL    HW216986   3.971   2.083  14.182  0.8601  0.3612 -0.4154
 1784SOL     OW16987   1.388   4.349  13.080 -0.2835  0.2860  0.0112
 1784SOL    HW116988   1.450   4.397  13.135  1.5270 -2.6467  0.5343
 1784SOL    HW216989   1.444   4.272  13.070  1.0019  1.1716  0.3857
 1785SOL     OW16990   2.339   2.263   6.202 -0.2957 -0.0459 -0.3155
 1785SOL    HW116991   2.253   2.301   6.185  0.6935  0.8207 -3.2916
 1785SOL    HW216992   2.392   2.316   6.142 -1.4946  1.2528 -0.2450
 1786SOL     OW16993   0.106   0.499   2.361  0.4415 -0.8919 -0.0328
 1786SOL    HW116994   0.013   0.479   2.351  0.7884 -2.0918 -0.8665
 1786SOL    HW216995   0.120   0.592   2.342 -0.8478 -0.5730  0.5768
 1787SOL     OW16996   4.342   1.743   4.295 -0.2038 -0.9214 -0.6109
 1787SOL    HW116997   4.360   1.731   4.202  0.3766 -0.0480 -0.6184
 1787SOL    HW216998   4.291   1.824   4.302 -0.8702 -1.3540 -0.5245
 1788SOL     OW16999   2.654   0.544   3.260  0.1083 -0.0917  0.4813
 1788SOL    HW117000   2.573   0.526   3.212 -0.1932 -0.0744  0.9830
 1788SOL    HW217001   2.629   0.512   3.347  0.4954  1.0720  1.0193
 1789SOL     OW17002   4.623   2.064   3.053 -0.1108 -0.0911  0.0432
 1789SOL    HW117003   4.692   2.111   3.101  0.5476  0.6592 -1.6256
 1789SOL    HW217004   4.561   2.135   3.035 -0.6693 -0.5235  0.2618
 1790SOL     OW17005   4.305   4.457   5.139  0.3385  0.3971 -0.1433
 1790SOL    HW117006   4.351   4.385   5.182 -1.0080 -1.4887 -1.9290
 1790SOL    HW217007   4.288   4.514   5.215  1.3876 -2.7120  2.4342
 1791SOL     OW17008   0.123   2.296  15.812 -0.4178 -0.4462  0.1403
 1791SOL    HW117009   0.184   2.277  15.883 -0.1600 -0.1657 -0.0068
 1791SOL    HW217010   0.163   2.245  15.741 -1.2546  1.3201 -1.6048
 1792SOL     OW17011   1.799   0.310  10.081 -0.0713  0.2413  0.0336
 1792SOL    HW117012   1.736   0.378  10.055 -1.6439 -1.3764 -0.3884
 1792SOL    HW217013   1.876   0.354  10.044  1.0959 -0.2148  1.9186
 1793SOL     OW17014   2.671   1.660   7.884 -0.2723  0.2091  1.0472
 1793SOL    HW117015   2.597   1.706   7.843 -1.4540  0.4002  3.3329
 1793SOL    HW217016   2.702   1.726   7.946 -2.4211 -0.4461  2.8428
 1794SOL     OW17017   0.679   2.141   6.557 -0.6428 -0.5232 -0.2975
 1794SOL    HW117018   0.617   2.187   6.502 -0.5968 -2.5835 -2.0584
 1794SOL    HW217019   0.621   2.091   6.614 -0.4635  0.4838  0.7871
 1795SOL     OW17020   4.498   3.934  10.855 -1.2237 -0.0158  0.2187
 1795SOL    HW117021   4.427   3.874  10.833 -1.4493 -0.4555  2.0954
 1795SOL    HW217022   4.475   4.004  10.794  0.2095 -0.4383 -0.7954
 1796SOL     OW17023   1.919   2.688  10.440 -0.2146  0.0199  0.2150
 1796SOL    HW117024   1.849   2.685  10.505 -0.8349  0.9859 -0.4339
 1796SOL    HW217025   1.967   2.766  10.467  0.5758 -0.7506  1.0521
 1797SOL     OW17026   4.466   3.936   6.231  0.0928  0.2330 -0.3514
 1797SOL    HW117027   4.423   3.916   6.315 -1.3170  0.3971 -1.0261
 1797SOL    HW217028   4.416   3.878   6.173  0.1536 -1.1619  0.9907
 1798SOL     OW17029   3.679   3.068   7.794 -0.3709  0.7366  0.0882
 1798SOL    HW117030   3.774   3.069   7.790 -0.3266  0.5834  1.0897
 1798SOL    HW217031   3.661   3.059   7.888 -3.1867 -0.4124 -0.5596
 1799SOL     OW17032   1.805   2.134   3.824 -0.3168  0.0998  0.1224
 1799SOL    HW117033   1.717   2.097   3.832 -1.5522  2.7633 -1.3988
 1799SOL    HW217034   1.786   2.227   3.812  0.6245  0.5060  1.7486
 1800SOL     OW17035   4.564   3.479  13.978  0.2293 -0.5360  0.2532
 1800SOL    HW117036   4.649   3.435  13.971  0.5563 -0.1597  1.9281
 1800SOL    HW217037   4.530   3.462  13.890  0.3513  2.2916 -0.3213
 1801SOL     OW17038   4.555   0.393   3.411  0.1335  0.2955  0.2361
 1801SOL    HW117039   4.465   0.397   3.381  0.7573 -2.4005 -2.0619
 1801SOL    HW217040   4.592   0.472   3.371  0.2445  0.2368  0.2214
 1802SOL     OW17041   4.719   3.110   5.402 -0.2066 -0.4623 -0.3827
 1802SOL    HW117042   0.010   3.082   5.489  2.0833  2.3663 -0.2174
 1802SOL    HW217043   0.071   3.120   5.369  1.0958 -1.0501  2.9473
 1803SOL     OW17044   3.530   1.933   4.192  0.3807  0.0760  0.1666
 1803SOL    HW117045   3.609   1.945   4.245 -0.6676  0.5750  1.6349
 1803SOL    HW217046   3.475   1.877   4.248 -1.3984  0.6860 -0.9753
 1804SOL     OW17047   2.747   3.632   4.545 -0.4126 -0.7077  0.2611
 1804SOL    HW117048   2.759   3.583   4.464  1.5389 -0.5382  0.4420
 1804SOL    HW217049   2.819   3.591   4.592 -0.4006 -0.4970  0.4300
 1805SOL     OW17050   0.127   2.006   1.319  0.2368  0.5610  0.5809
 1805SOL    HW117051   0.059   1.993   1.253  0.6596  0.0379  0.2482
 1805SOL    HW217052   0.069   2.027   1.392  0.0600  0.9058  0.3408
 1806SOL     OW17053   3.780   0.389   1.999  0.1660 -0.5021  0.1993
 1806SOL    HW117054   3.830   0.432   2.068  0.3538 -0.7647  0.2297
 1806SOL    HW217055   3.708   0.351   2.048 -0.7582  1.8462  0.6696
 1807SOL     OW17056   1.442   4.581   7.508 -0.4096  0.5443 -0.2375
 1807SOL    HW117057   1.481   4.530   7.437  0.0042 -0.7717  0.9415
 1807SOL    HW217058   1.479   4.669   7.499  1.4990 -0.4378 -1.9434
 1808SOL     OW17059   1.425   1.368  11.367 -0.0625 -0.3526  0.0423
 1808SOL    HW117060   1.414   1.440  11.429 -0.1737 -0.7309  0.4618
 1808SOL    HW217061   1.478   1.303  11.412  1.6132  0.9087 -0.0902
 1809SOL     OW17062   0.623   0.448  12.322  0.5915 -0.1138  0.2941
 1809SOL    HW117063   0.692   0.515  12.324  0.5207 -0.0016 -1.1563
 1809SOL    HW217064   0.544   0.496  12.346  0.9244  0.1371  0.8837
 1810SOL     OW17065   2.310   4.710   3.582 -0.0935 -0.0006 -0.4451
 1810SOL    HW117066   2.234   0.030   3.593  0.5760  0.6496  0.6794
 1810SOL    HW217067   2.367   4.734   3.655  0.4696 -0.6857 -0.6582
 1811SOL     OW17068   1.833   1.087   6.480 -0.4171 -0.1665  0.1461
 1811SOL    HW117069   1.804   1.101   6.570  0.8986  1.1788  0.3445
 1811SOL    HW217070   1.920   1.126   6.489 -1.5182  1.9915  1.3218
 1812SOL     OW17071   1.747   3.295   3.390  0.3409 -0.4432 -0.0963
 1812SOL    HW117072   1.784   3.383   3.384  1.5203 -0.8135  1.6191
 1812SOL    HW217073   1.655   3.311   3.370  0.4626 -1.3288 -1.3871
 1813SOL     OW17074   1.479   2.984   9.212  0.8462 -0.5076 -0.4447
 1813SOL    HW117075   1.407   2.937   9.255  0.2448  0.7386 -0.0740
 1813SOL    HW217076   1.429   3.051   9.166 -1.7459  0.7750  4.1852
 1814SOL     OW17077   4.515   2.660   7.413 -0.3908 -0.1252  0.2098
 1814SOL    HW117078   4.489   2.725   7.347  1.3835 -1.2462 -1.6234
 1814SOL    HW217079   4.565   2.715   7.473 -1.5216  1.3567 -0.2120
 1815SOL     OW17080   1.835   0.698   7.142 -0.2570  0.7483  0.3249
 1815SOL    HW117081   1.911   0.673   7.088  0.3869 -1.0522  2.1163
 1815SOL    HW217082   1.767   0.724   7.080  0.2292  1.6547  0.1646
 1816SOL     OW17083   1.163   0.936   4.638 -0.2170 -0.0426 -0.3710
 1816SOL    HW117084   1.170   0.841   4.645  0.7532 -0.0944 -2.2275
 1816SOL    HW217085   1.208   0.955   4.721 -0.7121  1.6746 -0.4802
 1817SOL     OW17086   1.643   3.500   6.796 -0.2956 -0.2332  0.4314
 1817SOL    HW117087   1.591   3.420   6.794 -0.1304 -0.3332  0.0090
 1817SOL    HW217088   1.609   3.543   6.874 -1.4026 -0.2272 -0.0550
 1818SOL     OW17089   4.046   4.691   5.762 -0.0671  0.5141  0.2475
 1818SOL    HW117090   4.129   0.000   5.773  0.0356  0.5696 -0.7702
 1818SOL    HW217091   3.988   0.021   5.725  0.0975  1.2647  1.3815
 1819SOL     OW17092   3.295   2.963   4.018  0.1599 -0.0300 -0.1945
 1819SOL    HW117093   3.298   2.919   4.103 -0.2970  1.4739  0.5982
 1819SOL    HW217094   3.358   3.035   4.023  0.3337 -0.3048  1.5408
 1820SOL     OW17095   0.078   0.283  14.203  0.6321 -0.1993 -0.3797
 1820SOL    HW117096   0.050   0.256  14.116  0.0241 -1.9701  0.3702
 1820SOL    HW217097   0.094   0.206  14.258  0.2677 -1.0641 -1.5033
 1821SOL     OW17098   3.261   0.701   4.789  0.1311 -0.2891  0.1815
 1821SOL    HW117099   3.269   0.606   4.781  0.8929 -0.4388  2.8141
 1821SOL    HW217100   3.275   0.719   4.696  2.3426 -0.3140  0.5200
 1822SOL     OW17101   0.696   4.188  15.940 -0.3358 -0.4240 -0.0958
 1822SOL    HW117102   0.711   4.262  15.881  0.3423 -0.7341 -0.3051
 1822SOL    HW217103   0.604   4.206  15.962 -0.3187  0.9975 -1.1158
 1823SOL     OW17104   1.076   2.206  10.187 -0.3095 -0.1948  0.1746
 1823SOL    HW117105   1.136   2.209  10.262 -0.3247  0.3353  0.1654
 1823SOL    HW217106   1.080   2.299  10.162  2.4835 -0.5840 -0.7856
 1824SOL     OW17107   1.262   1.331   4.552 -0.3896 -0.1595  0.4570
 1824SOL    HW117108   1.335   1.279   4.517 -0.0967 -0.8011  2.0386
 1824SOL    HW217109   1.192   1.290   4.501  1.5373 -1.2811 -1.3026
 1825SOL     OW17110   4.213   2.104   7.345 -0.1323 -1.0032  0.2473
 1825SOL    HW117111   4.142   2.166   7.364 -0.7769 -2.2700  1.9444
 1825SOL    HW217112   4.271   2.155   7.289 -1.4652  0.7374  0.4461
 1826SOL     OW17113   2.862   2.723  13.929 -0.7050 -0.3612 -0.0131
 1826SOL    HW117114   2.769   2.744  13.932 -0.7521 -0.2953 -1.6473
 1826SOL    HW217115   2.880   2.672  14.008  4.0605  1.0715 -0.1129
 1827SOL     OW17116   1.104   1.736   3.872 -0.0799 -0.2929  0.3627
 1827SOL    HW117117   1.169   1.700   3.812 -0.2519  1.5467 -0.9140
 1827SOL    HW217118   1.147   1.821   3.869 -0.0287 -0.3290  0.1015
 1828SOL     OW17119   3.388   1.612  17.653 -0.3422 -0.4740  0.0580
 1828SOL    HW117120   3.374   1.532  17.704 -0.1343 -0.8290 -0.4367
 1828SOL    HW217121   3.474   1.633  17.689  0.4785  1.5967 -3.0576
 1829SOL     OW17122   0.047   1.215   8.351 -0.3518 -0.0189 -0.0244
 1829SOL    HW117123   0.102   1.276   8.302 -1.3555  0.1189 -0.9786
 1829SOL    HW217124   0.065   1.233   8.443  2.0594 -2.4551 -0.0259
 1830SOL     OW17125   2.579   3.321  15.358  0.5968  0.4249 -0.1775
 1830SOL    HW117126   2.596   3.383  15.287 -0.2095  1.5249  0.5885
 1830SOL    HW217127   2.645   3.254  15.344  0.8433  0.5650  0.3055
 1831SOL     OW17128   1.080   0.712   4.057 -0.4286 -0.3215  0.1146
 1831SOL    HW117129   1.069   0.652   3.983  1.2473 -0.7986  0.2621
 1831SOL    HW217130   0.987   0.734   4.063 -0.4051 -1.2666  3.8992
 1832SOL     OW17131   2.620   0.505  10.691  0.0105  0.0417 -0.3973
 1832SOL    HW117132   2.553   0.439  10.705 -0.5403  0.5432 -0.6715
 1832SOL    HW217133   2.598   0.550  10.610 -0.1193  1.1021  0.2281
 1833SOL     OW17134   2.478   3.985   3.129  0.1315  0.4453 -0.2294
 1833SOL    HW117135   2.418   4.045   3.174  1.2919  0.4619  1.2825
 1833SOL    HW217136   2.455   3.898   3.162 -2.0008  1.2812  0.4756
 1834SOL     OW17137   0.706   1.438   8.961  0.4164  0.7732 -0.3871
 1834SOL    HW117138   0.779   1.385   8.993 -1.1170  0.2575  2.1792
 1834SOL    HW217139   0.736   1.528   8.977 -3.1451  1.8414  0.2734
 1835SOL     OW17140   1.858   4.616   7.353  0.0110 -0.1633  0.1033
 1835SOL    HW117141   1.931   4.633   7.293 -1.5568 -1.3301 -2.1501
 1835SOL    HW217142   1.780   4.618   7.297  1.4878 -0.3556 -1.9623
 1836SOL     OW17143   3.503   2.125   2.986  0.2358  0.3268  0.2687
 1836SOL    HW117144   3.531   2.063   3.054  0.3255  0.7290  0.5981
 1836SOL    HW217145   3.574   2.121   2.922  0.5982 -0.9319  0.7537
 1837SOL     OW17146   1.681   0.613   2.326  0.2497 -0.1017  0.2752
 1837SOL    HW117147   1.738   0.631   2.401 -0.8234  2.1463  0.5708
 1837SOL    HW217148   1.704   0.524   2.301  0.9145  0.0906  0.1992
 1838SOL     OW17149   0.646   2.962   9.695  0.0358  0.0147 -0.0737
 1838SOL    HW117150   0.631   2.894   9.629 -0.5183 -0.9418  1.0387
 1838SOL    HW217151   0.643   3.035   9.633  0.0128 -0.5261 -0.7159
 1839SOL     OW17152   0.051   4.353   4.393 -0.0628  0.1469  0.0495
 1839SOL    HW117153   0.055   4.428   4.334 -0.4254 -0.4806 -0.7790
 1839SOL    HW217154   4.732   4.394   4.458 -0.7131  1.1008 -1.1196
 1840SOL     OW17155   0.411   2.971   6.059  0.6943  0.4398  0.4008
 1840SOL    HW117156   0.416   3.020   5.977 -0.8117 -1.1177 -0.6342
 1840SOL    HW217157   0.448   2.884   6.041 -0.9507 -0.1574 -0.1350
 1841SOL     OW17158   3.707   2.425   2.338 -0.1633 -0.1480 -0.2171
 1841SOL    HW117159   3.752   2.480   2.403 -0.5761  0.6475 -0.6174
 1841SOL    HW217160   3.757   2.344   2.353  2.0077  0.7523 -2.5789
 1842SOL     OW17161   1.986   3.895   5.259 -0.1230 -0.2605 -0.1031
 1842SOL    HW117162   2.052   3.965   5.261 -0.9610  0.5498 -0.9736
 1842SOL    HW217163   1.909   3.949   5.240 -0.8818 -1.6428 -0.9022
 1843SOL     OW17164   0.510   4.374   6.868 -0.1196 -0.3116 -0.0072
 1843SOL    HW117165   0.514   4.401   6.776  0.0842  0.8667  0.3409
 1843SOL    HW217166   0.491   4.458   6.909 -1.1840  0.4976 -2.1549
 1844SOL     OW17167   0.609   1.418  16.591  0.1062  0.0462  0.6882
 1844SOL    HW117168   0.628   1.368  16.511  1.1013  1.4070  0.0649
 1844SOL    HW217169   0.697   1.445  16.618  0.6732 -0.6056 -0.5249
 1845SOL     OW17170   0.319   1.168   9.801 -0.0014  0.0093  0.7952
 1845SOL    HW117171   0.389   1.106   9.822 -0.1117 -0.0980  0.8475
 1845SOL    HW217172   0.338   1.250   9.848 -0.5530  1.2554 -1.1776
 1846SOL     OW17173   0.234   1.253   7.811 -0.1152 -0.4210 -0.1087
 1846SOL    HW117174   0.271   1.198   7.741 -0.2311  1.4438 -1.6315
 1846SOL    HW217175   0.282   1.210   7.881  1.3268  2.6670  0.7835
 1847SOL     OW17176   2.018   2.945   1.974  0.3955 -0.2298  0.0735
 1847SOL    HW117177   2.006   2.873   2.036 -0.8319  1.3153  1.6323
 1847SOL    HW217178   2.113   2.957   1.972  0.4050 -0.1950  0.5620
 1848SOL     OW17179   3.010   3.153   3.262  0.1491  0.0444  0.3782
 1848SOL    HW117180   3.011   3.105   3.179  4.2272 -0.9859  1.0284
 1848SOL    HW217181   2.943   3.107   3.313 -1.1072  1.6316  0.1405
 1849SOL     OW17182   2.871   2.501   3.031 -0.1808 -0.3357 -0.4248
 1849SOL    HW117183   2.907   2.590   3.028 -0.5029 -0.1685  0.6521
 1849SOL    HW217184   2.907   2.457   2.954 -1.2066  0.1254 -1.1657
 1850SOL     OW17185   1.383   2.577   2.917 -0.0469  0.0351 -0.3467
 1850SOL    HW117186   1.461   2.569   2.971 -0.7494 -2.0996  0.3261
 1850SOL    HW217187   1.410   2.533   2.836 -0.8391 -0.5638 -0.2839
 1851SOL     OW17188   0.949   3.476  11.905  0.3248  0.1990  0.2944
 1851SOL    HW117189   0.985   3.434  11.827  0.2755  0.8676 -0.0797
 1851SOL    HW217190   1.010   3.468  11.978  0.4105  0.8564  0.2947
 1852SOL     OW17191   0.550   1.965   6.286 -0.3589  0.3290  0.1653
 1852SOL    HW117192   0.506   1.922   6.360 -1.0885  2.0893  0.7531
 1852SOL    HW217193   0.479   2.017   6.249 -0.4664 -0.5660 -0.8870
 1853SOL     OW17194   3.839   4.573   0.065  0.6754  1.0091 -0.1323
 1853SOL    HW117195   3.744   4.568   0.068  0.6979  1.1438  1.0592
 1853SOL    HW217196   3.851   4.640   0.133 -0.1704  1.3982 -0.3661
 1854SOL     OW17197   0.925   1.391   7.142 -0.3358  0.1786  0.4829
 1854SOL    HW117198   0.904   1.339   7.220 -1.1784  1.4060  1.0887
 1854SOL    HW217199   0.902   1.478   7.174  0.4582 -0.2112  2.1266
 1855SOL     OW17200   0.765   4.052   6.548 -0.1685  0.1647  0.1658
 1855SOL    HW117201   0.830   4.103   6.500 -1.5277  1.0949 -0.6730
 1855SOL    HW217202   0.773   4.103   6.629 -1.5562  0.8723 -0.1342
 1856SOL     OW17203   2.561   0.725   3.997  0.2961  0.0806  0.2986
 1856SOL    HW117204   2.525   0.781   4.066 -0.6059 -2.3374  1.7800
 1856SOL    HW217205   2.543   0.783   3.923 -1.8237  0.1455  0.8521
 1857SOL     OW17206   0.966   2.332  14.119  0.1996  0.1189 -0.2251
 1857SOL    HW117207   1.051   2.353  14.081  0.8818 -0.8596  0.7715
 1857SOL    HW217208   0.994   2.284  14.197  1.9531  2.3484  0.5032
 1858SOL     OW17209   4.686   4.485  13.582 -0.3433  0.5206  0.6478
 1858SOL    HW117210   4.691   4.465  13.675  1.1601 -3.8451 -0.3856
 1858SOL    HW217211   4.632   4.412  13.548  0.1523 -0.0002  0.9884
 1859SOL     OW17212   0.207   0.237   5.294 -0.3072  0.0116  0.5375
 1859SOL    HW117213   0.199   0.179   5.218 -1.5851 -0.5166  1.0694
 1859SOL    HW217214   0.232   0.318   5.251  0.8304 -0.6074  0.0526
 1860SOL     OW17215   4.513   0.117   5.201 -0.2832  0.2542  0.5334
 1860SOL    HW117216   4.587   0.092   5.256 -0.1277 -0.8342 -0.1683
 1860SOL    HW217217   4.563   0.114   5.120 -1.8255 -0.8433 -0.3753
 1861SOL     OW17218   2.820   1.319   7.605  0.0337  0.1055 -0.3345
 1861SOL    HW117219   2.810   1.225   7.622  1.5947 -0.6032 -3.4533
 1861SOL    HW217220   2.867   1.344   7.685  0.0452  0.0150 -0.3130
 1862SOL     OW17221   1.605   2.256  17.168 -0.2810 -0.4122  0.0829
 1862SOL    HW117222   1.612   2.314  17.243  1.6472 -1.8210  1.0211
 1862SOL    HW217223   1.553   2.318  17.118  0.2217 -0.2713 -0.2743
 1863SOL     OW17224   3.096   2.975  12.310 -0.1268 -0.1019  0.6414
 1863SOL    HW117225   3.042   2.925  12.371 -0.8560 -0.7532 -0.5396
 1863SOL    HW217226   3.132   2.913  12.247 -0.4803  0.2850  0.0470
 1864SOL     OW17227   2.028   2.251   8.041 -0.0279  0.1135  0.3956
 1864SOL    HW117228   1.947   2.228   8.087 -0.9695 -0.1117 -1.3864
 1864SOL    HW217229   2.003   2.335   8.003  0.3727 -0.2950 -0.7555
 1865SOL     OW17230   2.409   0.313  13.987  0.4067 -0.0009 -0.0496
 1865SOL    HW117231   2.391   0.230  13.942 -2.5408 -0.1086  1.3581
 1865SOL    HW217232   2.415   0.378  13.917 -0.9057  0.2777  0.1049
 1866SOL     OW17233   1.534   4.605   9.130  0.5506 -0.3227  0.8662
 1866SOL    HW117234   1.621   4.616   9.090  0.4990 -2.3272  0.1978
 1866SOL    HW217235   1.472   4.631   9.062  0.1672 -0.7531  1.0533
 1867SOL     OW17236   1.255   1.257   8.465  0.5867  0.7068 -0.1700
 1867SOL    HW117237   1.239   1.270   8.371 -0.7419 -1.3884 -0.2191
 1867SOL    HW217238   1.219   1.338   8.501 -1.5105  0.0345 -0.7493
 1868SOL     OW17239   2.158   2.003   4.263  0.6725 -0.1927  0.1366
 1868SOL    HW117240   2.189   1.913   4.260 -1.2626 -0.7950 -1.3838
 1868SOL    HW217241   2.075   2.004   4.217  0.8779  3.1017 -0.1811
 1869SOL     OW17242   3.675   2.724   8.187 -0.3650  0.0002  0.4535
 1869SOL    HW117243   3.710   2.811   8.203 -1.5270  0.5525 -0.0261
 1869SOL    HW217244   3.602   2.737   8.126 -1.4298 -1.4914  1.4106
 1870SOL     OW17245   3.606   0.682   5.911 -0.2851 -0.7870  0.0524
 1870SOL    HW117246   3.698   0.680   5.886 -0.5714 -0.2399 -1.0415
 1870SOL    HW217247   3.568   0.640   5.834 -1.9616  2.8060 -1.0607
 1871SOL     OW17248   2.686   3.651  13.380  0.1789 -0.4679  0.0983
 1871SOL    HW117249   2.745   3.579  13.359 -1.0314 -1.4344  0.0064
 1871SOL    HW217250   2.716   3.715  13.315  2.3634  0.0172  1.6043
 1872SOL     OW17251   2.977   0.668  10.732  0.0131  0.3003 -0.2342
 1872SOL    HW117252   2.909   0.735  10.729  0.3128  0.6861  1.4277
 1872SOL    HW217253   3.041   0.715  10.785 -1.9620  1.4173  1.1653
 1873SOL     OW17254   4.708   3.519   3.800 -0.5563 -0.2263 -0.2078
 1873SOL    HW117255   4.732   3.426   3.806  0.0867 -0.1902 -2.3863
 1873SOL    HW217256   0.045   3.547   3.854  0.7735 -2.0278 -1.0908
 1874SOL     OW17257   2.152   2.362   6.990 -0.5703  0.8440 -0.1435
 1874SOL    HW117258   2.157   2.399   6.902 -2.8321  1.4472 -0.0164
 1874SOL    HW217259   2.222   2.411   7.033  0.0641  0.4039 -0.6820
 1875SOL     OW17260   4.372   2.379   5.725  0.1545  0.1887  0.3311
 1875SOL    HW117261   4.288   2.424   5.720 -0.5666 -1.0098  1.7015
 1875SOL    HW217262   4.366   2.333   5.641  0.5620  0.2840  0.2506
 1876SOL     OW17263   4.249   0.927  10.386 -0.1097  0.5984 -0.3506
 1876SOL    HW117264   4.173   0.969  10.346  0.0006  0.1962 -0.9794
 1876SOL    HW217265   4.303   0.996  10.424  1.3604  0.4566 -2.1411
 1877SOL     OW17266   3.223   0.658   8.877 -0.0126 -0.0412 -0.2899
 1877SOL    HW117267   3.184   0.743   8.897  0.1149  0.1151 -0.6987
 1877SOL    HW217268   3.314   0.683   8.891 -0.5283  0.6066  1.8149
 1878SOL     OW17269   3.496   0.950  12.759  0.3602 -0.0442  0.2829
 1878SOL    HW117270   3.424   0.903  12.717  0.1356  0.0253  0.5967
 1878SOL    HW217271   3.530   0.880  12.815  0.8437 -0.2224 -0.2238
 1879SOL     OW17272   3.401   1.044  14.629  0.3673 -0.5501 -1.0363
 1879SOL    HW117273   3.456   1.001  14.694 -1.5402 -1.9619 -0.3365
 1879SOL    HW217274   3.343   1.102  14.680  1.9824 -0.3807  0.5973
 1880SOL     OW17275   3.875   1.861   4.324 -0.4817  0.4715 -0.0555
 1880SOL    HW117276   3.821   1.799   4.373  0.3283 -1.3791 -1.4771
 1880SOL    HW217277   3.849   1.817   4.243  2.0699 -0.5764 -0.3235
 1881SOL     OW17278   4.295   2.146  12.423  0.0543  0.8140  0.2959
 1881SOL    HW117279   4.266   2.236  12.405 -2.5327  0.1987  1.2793
 1881SOL    HW217280   4.210   2.101  12.430  1.5600 -2.0868 -0.3696
 1882SOL     OW17281   0.540   1.282   9.513  0.4344  0.1700 -0.3123
 1882SOL    HW117282   0.604   1.311   9.579 -0.3248  1.0004  0.0633
 1882SOL    HW217283   0.538   1.189   9.535  0.3763  0.5680  1.3913
 1883SOL     OW17284   2.691   0.108   4.889 -0.0147 -0.4797 -0.3367
 1883SOL    HW117285   2.619   0.169   4.877  0.7541  0.3345 -0.7995
 1883SOL    HW217286   2.762   0.156   4.846  0.9655  0.4919  2.3327
 1884SOL     OW17287   0.858   0.315   4.617  0.4827 -0.2978  0.2928
 1884SOL    HW117288   0.920   0.242   4.623 -0.8120 -1.5463 -1.4963
 1884SOL    HW217289   0.877   0.372   4.691  0.9819 -0.8010  0.5508
 1885SOL     OW17290   3.660   1.120   3.051  0.0400  0.0240  0.1751
 1885SOL    HW117291   3.729   1.097   3.114  0.5655 -1.7593 -1.0462
 1885SOL    HW217292   3.651   1.215   3.054 -2.1250 -0.2143  1.6311
 1886SOL     OW17293   3.139   1.666   3.216 -0.5370 -0.2684 -0.6055
 1886SOL    HW117294   3.162   1.579   3.183 -0.9696 -0.3112 -0.8033
 1886SOL    HW217295   3.106   1.716   3.141 -1.7010  0.6822  0.5412
 1887SOL     OW17296   4.143   2.045   5.343  0.4779 -0.3554 -0.2963
 1887SOL    HW117297   4.098   2.097   5.276  2.1881  2.2787  0.6388
 1887SOL    HW217298   4.079   2.053   5.414  1.0549 -0.2530  0.2029
 1888SOL     OW17299   2.140   4.544   3.359  0.2598 -0.0955  0.0654
 1888SOL    HW117300   2.157   4.533   3.452 -0.5587 -2.1739 -0.0130
 1888SOL    HW217301   2.167   4.461   3.319  0.5406 -0.4567  1.0061
 1889SOL     OW17302   3.725   4.252   1.311 -0.1392 -0.4856 -0.6910
 1889SOL    HW117303   3.688   4.323   1.362 -3.5412 -1.2308 -2.1714
 1889SOL    HW217304   3.783   4.307   1.257  1.7175 -0.4145  1.3606
 1890SOL     OW17305   1.942   1.738   8.513 -0.2401  0.3632 -0.1471
 1890SOL    HW117306   1.947   1.727   8.418 -0.0966 -1.6634  0.0958
 1890SOL    HW217307   1.980   1.825   8.525  3.7626 -1.4946  0.9286
 1891SOL     OW17308   1.225   4.093   2.775  0.3372 -0.2186  0.1794
 1891SOL    HW117309   1.251   4.121   2.687 -0.8850 -2.4117 -0.8912
 1891SOL    HW217310   1.245   4.000   2.768  0.0602 -0.4871  2.9625
 1892SOL     OW17311   1.886   0.903   9.752  0.2291 -0.0796  0.3171
 1892SOL    HW117312   1.827   0.910   9.677  0.2272 -1.4159  0.1868
 1892SOL    HW217313   1.869   0.810   9.771 -1.2422  0.2983  0.8599
 1893SOL     OW17314   2.123   0.507   4.346  0.3058  0.1764  0.5292
 1893SOL    HW117315   2.156   0.591   4.378 -1.7115  1.3515 -0.4858
 1893SOL    HW217316   2.039   0.497   4.391 -0.0937 -0.3384 -0.3316
 1894SOL     OW17317   0.877   3.358   9.340 -0.0437 -0.4664  0.0365
 1894SOL    HW117318   0.962   3.354   9.296  0.5914 -0.3568  1.2524
 1894SOL    HW217319   0.887   3.282   9.398 -0.2026 -1.1618 -0.8437
 1895SOL     OW17320   3.205   0.061   8.627  0.1794  0.4827  0.2254
 1895SOL    HW117321   3.132   0.009   8.661 -1.6429  2.9099  0.0106
 1895SOL    HW217322   3.279   0.022   8.674  1.9629  2.4114 -0.9570
 1896SOL     OW17323   3.519   3.502   8.385 -0.3567 -0.2433 -0.4824
 1896SOL    HW117324   3.549   3.428   8.437  1.3991  0.6969 -0.1635
 1896SOL    HW217325   3.596   3.556   8.405  1.3857 -1.5801 -3.5644
 1897SOL     OW17326   0.795   0.286   7.488 -0.1321  0.0545 -0.4168
 1897SOL    HW117327   0.803   0.359   7.549 -0.1565  0.4275 -0.8621
 1897SOL    HW217328   0.829   0.212   7.538 -2.2308 -0.5721  0.0725
 1898SOL     OW17329   4.735   4.583   7.270  0.8041  0.0766 -0.5188
 1898SOL    HW117330   0.041   4.668   7.267  1.4917 -0.2777 -0.5048
 1898SOL    HW217331   4.686   4.598   7.351  0.9951 -0.4201 -0.3142
 1899SOL     OW17332   1.673   4.715   8.066  0.3298  0.2176 -0.1267
 1899SOL    HW117333   1.644   4.655   7.998 -0.2429  0.6602 -0.2710
 1899SOL    HW217334   1.742   0.023   8.018  0.4195 -0.7115 -0.8803
 1900SOL     OW17335   1.346   0.877   8.072 -0.2203 -0.4295 -0.1827
 1900SOL    HW117336   1.291   0.932   8.127 -0.4594  0.4960 -1.3355
 1900SOL    HW217337   1.285   0.844   8.005  1.0637 -1.4766 -0.8379
 1901SOL     OW17338   0.203   1.165   5.388 -0.3622  0.1621 -0.2256
 1901SOL    HW117339   0.288   1.150   5.347 -0.6564  1.2046 -1.2295
 1901SOL    HW217340   0.209   1.100   5.458 -0.8942  1.4609  1.0176
 1902SOL     OW17341   1.409   1.150   4.373 -0.1209 -0.4706 -0.4059
 1902SOL    HW117342   1.453   1.230   4.345 -0.3187 -0.2048  0.0453
 1902SOL    HW217343   1.414   1.102   4.290  0.7720 -0.8636 -0.1178
 1903SOL     OW17344   1.764   1.835   8.836  0.3252 -0.1571 -0.4552
 1903SOL    HW117345   1.859   1.846   8.831  0.0393  1.8042 -1.9142
 1903SOL    HW217346   1.733   1.771   8.773 -3.6829  1.5363 -0.1782
 1904SOL     OW17347   0.940   1.693   2.934 -0.2620 -0.4748  0.2709
 1904SOL    HW117348   0.960   1.767   2.991  1.1960 -1.9120  1.6373
 1904SOL    HW217349   1.018   1.667   2.885  0.5818  1.6606  0.4549
 1905SOL     OW17350   4.367   0.538   2.066  0.7839  0.4648  0.4170
 1905SOL    HW117351   4.351   0.464   2.124 -0.3156  0.5141  0.1821
 1905SOL    HW217352   4.439   0.576   2.117  1.3894 -0.5141  0.2958
 1906SOL     OW17353   3.329   1.274  12.467 -0.4508  0.5054  0.4798
 1906SOL    HW117354   3.322   1.179  12.481 -2.3885  0.8312  1.5915
 1906SOL    HW217355   3.402   1.265  12.405  1.0314 -3.0494  2.7530
 1907SOL     OW17356   2.034   2.755   9.818  0.1598 -0.5688  0.0452
 1907SOL    HW117357   2.008   2.834   9.866 -0.7399 -0.8830  0.0655
 1907SOL    HW217358   1.970   2.756   9.747  0.5743 -1.0544 -0.3367
 1908SOL     OW17359   3.617   3.922   1.569 -0.1620 -0.2868  0.0103
 1908SOL    HW117360   3.708   3.933   1.542 -0.0440  0.9313  0.8937
 1908SOL    HW217361   3.583   3.997   1.522  1.2546 -0.7133 -1.6810
 1909SOL     OW17362   1.333   3.365   0.383 -0.2961 -0.1592 -0.1523
 1909SOL    HW117363   1.290   3.286   0.414  0.0711  0.4416  1.8759
 1909SOL    HW217364   1.384   3.396   0.457  0.0338  0.0105 -0.4514
 1910SOL     OW17365   1.506   2.079   4.883  0.1921  0.2313 -0.6478
 1910SOL    HW117366   1.485   2.065   4.975 -1.4442 -0.8509 -1.1876
 1910SOL    HW217367   1.423   2.114   4.852 -0.1299 -0.1339 -0.1861
 1911SOL     OW17368   3.842   2.905   8.461 -0.6326 -0.3642  0.2967
 1911SOL    HW117369   3.788   2.955   8.399 -1.8650 -0.0690  1.5882
 1911SOL    HW217370   3.836   2.959   8.540 -0.7463 -0.8300  0.6068
 1912SOL     OW17371   2.395   2.536   1.877 -0.1575 -0.1154 -0.0604
 1912SOL    HW117372   2.316   2.565   1.922 -0.3120 -0.3944 -0.1549
 1912SOL    HW217373   2.464   2.580   1.927  0.4392 -0.9173 -0.1685
 1913SOL     OW17374   2.004   1.636   1.748 -0.2739  0.2293 -0.0666
 1913SOL    HW117375   1.988   1.645   1.842  3.4127  1.0776  0.4834
 1913SOL    HW217376   1.913   1.635   1.717 -0.8558 -0.3492  1.6807
 1914SOL     OW17377   1.721   1.067   2.110 -0.5459 -0.3008 -0.5145
 1914SOL    HW117378   1.700   1.004   2.041  0.1576 -0.6301 -0.4304
 1914SOL    HW217379   1.725   1.019   2.193 -0.2869  0.9684  0.1959
 1915SOL     OW17380   3.165   0.154  16.553 -0.5757  0.0255 -0.3758
 1915SOL    HW117381   3.218   0.075  16.559 -1.1239 -0.1977  1.5434
 1915SOL    HW217382   3.225   0.227  16.539  0.8282 -0.8385  1.1013
 1916SOL     OW17383   3.293   3.772   9.029  0.2325  0.2888  0.0412
 1916SOL    HW117384   3.341   3.736   9.103  1.3005 -0.6419 -1.1083
 1916SOL    HW217385   3.232   3.698   9.032  3.3696 -2.1745  3.3464
 1917SOL     OW17386   3.697   2.407   6.472  0.0750  0.0958  0.9816
 1917SOL    HW117387   3.759   2.334   6.467 -0.2959 -0.1230 -0.4712
 1917SOL    HW217388   3.616   2.357   6.463  1.0693 -1.2998 -0.2795
 1918SOL     OW17389   0.563   3.817   2.535 -0.1999 -0.3341  0.0492
 1918SOL    HW117390   0.481   3.770   2.553  1.4902 -2.5430  1.8644
 1918SOL    HW217391   0.591   3.789   2.448 -0.8369  1.1371 -0.6289
 1919SOL     OW17392   1.225   2.366   2.265  0.1799  0.2473  0.0332
 1919SOL    HW117393   1.182   2.340   2.183 -0.6021  2.4123 -0.2458
 1919SOL    HW217394   1.212   2.284   2.311  0.2446  1.2301  1.7937
 1920SOL     OW17395   2.668   3.759  14.918  0.4333 -0.0040 -0.3805
 1920SOL    HW117396   2.755   3.722  14.905  0.6749  0.2990  0.4172
 1920SOL    HW217397   2.668   3.784  15.010 -3.3032  3.0686 -1.1832
 1921SOL     OW17398   3.140   0.383  14.665  0.1635 -0.3780  0.0747
 1921SOL    HW117399   3.049   0.376  14.693 -0.3564 -1.5281 -1.8856
 1921SOL    HW217400   3.175   0.406  14.751  1.7082 -1.4376 -0.2580
 1922SOL     OW17401   0.225   1.667  10.770  0.5338  0.0495  0.0538
 1922SOL    HW117402   0.177   1.724  10.711  1.2573  1.2194  0.5902
 1922SOL    HW217403   0.161   1.641  10.837 -0.0359 -0.3354 -0.6358
 1923SOL     OW17404   4.153   4.435   0.358 -0.6033 -0.2847  0.0327
 1923SOL    HW117405   4.135   4.502   0.292  0.7559 -1.5610 -1.6389
 1923SOL    HW217406   4.130   4.490   0.433  1.5772 -0.8329  1.1009
 1924SOL     OW17407   1.291   2.805   3.883 -0.9449 -0.2042 -0.1268
 1924SOL    HW117408   1.326   2.870   3.945  1.2329 -0.9682 -0.5364
 1924SOL    HW217409   1.265   2.734   3.942  1.8585 -0.0440  1.3205
 1925SOL     OW17410   2.079   0.099   7.666 -0.8383 -0.2064  0.3730
 1925SOL    HW117411   2.032   0.161   7.611  0.7834  0.0961 -0.6892
 1925SOL    HW217412   2.159   0.148   7.688 -0.5623 -0.2760 -0.4537
 1926SOL     OW17413   3.567   0.299   2.170  0.0719  0.5214  0.2944
 1926SOL    HW117414   3.484   0.252   2.179  1.1196 -0.8967  2.7330
 1926SOL    HW217415   3.550   0.384   2.210 -0.3685  1.5286 -2.0597
 1927SOL     OW17416   0.081   0.043  14.344  0.3225 -0.2513 -0.9343
 1927SOL    HW117417   4.729   0.072  14.328  0.1837  0.5225  1.2484
 1927SOL    HW217418   0.077   4.688  14.319 -1.5110 -0.4090 -0.1232
 1928SOL     OW17419   0.267   3.952   0.156 -0.2189  0.0387 -0.0139
 1928SOL    HW117420   0.184   3.991   0.129  0.1025  1.8402  1.5951
 1928SOL    HW217421   0.258   3.869   0.109  1.0250  0.0032 -0.1726
 1929SOL     OW17422   3.326   3.553   5.009  0.0690 -0.2021 -0.4028
 1929SOL    HW117423   3.335   3.619   4.940  2.9775  0.1728  0.3402
 1929SOL    HW217424   3.417   3.532   5.030 -0.2904 -0.6369  0.7274
 1930SOL     OW17425   4.714   3.563   3.495 -0.1105  0.1784  0.2807
 1930SOL    HW117426   4.635   3.509   3.496  0.4653 -0.6753 -0.0254
 1930SOL    HW217427   4.715   3.587   3.588  0.9486 -0.8094  0.5257
 1931SOL     OW17428   3.594   1.534   8.417  0.3654 -0.3667  0.3578
 1931SOL    HW117429   3.597   1.501   8.506 -0.7798 -0.9486  0.1849
 1931SOL    HW217430   3.498   1.531   8.412  0.4267 -0.7156 -0.5831
 1932SOL     OW17431   4.580   1.004   8.620  0.0584 -0.2876  0.5822
 1932SOL    HW117432   4.595   1.098   8.628 -1.4521 -0.0663  0.7659
 1932SOL    HW217433   4.557   1.009   8.527  1.1687 -3.0152  0.1264
 1933SOL     OW17434   3.616   0.277  16.589 -0.1869 -0.0072 -0.1415
 1933SOL    HW117435   3.651   0.235  16.668 -0.2983  0.2854  0.0660
 1933SOL    HW217436   3.669   0.245  16.516  0.3753 -1.0703  0.7402
 1934SOL     OW17437   3.540   0.145   5.971 -0.4109  0.0909 -0.3909
 1934SOL    HW117438   3.507   0.222   5.925 -3.3931  0.2693  2.0560
 1934SOL    HW217439   3.537   0.079   5.901  1.9694  0.8673 -1.2340
 1935SOL     OW17440   1.552   1.834   4.618  0.4511  0.2158 -0.1651
 1935SOL    HW117441   1.579   1.793   4.536 -0.8290  2.2460 -1.5834
 1935SOL    HW217442   1.475   1.780   4.639  0.1339  0.3108 -1.1150
 1936SOL     OW17443   0.056   1.882   8.252 -0.1444  0.0949 -0.3075
 1936SOL    HW117444   4.719   1.941   8.262  0.2312  0.5099  0.0422
 1936SOL    HW217445   0.070   1.885   8.158  1.1283 -1.6777 -0.1803
 1937SOL     OW17446   4.383   3.685   7.473 -0.0762 -0.1562 -0.1384
 1937SOL    HW117447   4.375   3.777   7.447  1.5292 -0.6985 -2.5010
 1937SOL    HW217448   4.387   3.689   7.569 -1.2710 -2.6244  0.0208
 1938SOL     OW17449   0.485   0.135  15.814 -0.7448 -0.7636  0.4095
 1938SOL    HW117450   0.513   0.203  15.875  0.5754 -0.8860 -0.0427
 1938SOL    HW217451   0.396   0.114  15.841 -1.8680  0.3072 -2.4686
 1939SOL     OW17452   1.644   0.201   9.070  0.5324  0.0644  0.0946
 1939SOL    HW117453   1.687   0.287   9.076 -0.9813  0.9860 -2.0985
 1939SOL    HW217454   1.644   0.176   9.162 -2.2291  2.7099  0.7915
 1940SOL     OW17455   1.670   2.314   0.828 -0.0271 -0.6654 -0.1815
 1940SOL    HW117456   1.625   2.265   0.897 -1.4321 -0.6834 -1.1179
 1940SOL    HW217457   1.598   2.319   0.765  0.1147 -1.3114 -0.3971
 1941SOL     OW17458   0.464   4.490   6.599 -0.2969 -0.3772  0.0941
 1941SOL    HW117459   0.536   4.488   6.536 -0.7531 -1.8898 -0.3819
 1941SOL    HW217460   0.405   4.561   6.571  2.4403  1.6902 -0.4377
 1942SOL     OW17461   3.014   4.644   6.425 -0.2297 -0.3610 -0.4371
 1942SOL    HW117462   2.946   4.633   6.358  0.4535 -2.4334 -0.7936
 1942SOL    HW217463   2.996   4.733   6.456 -0.2315 -0.7367  0.6158
 1943SOL     OW17464   3.924   0.887   5.834  0.8068 -0.3864  0.1560
 1943SOL    HW117465   3.862   0.957   5.852  0.2130  0.4215 -4.8800
 1943SOL    HW217466   3.986   0.890   5.906 -1.6754  1.1257  2.2002
 1944SOL     OW17467   0.570   4.715  17.739  0.6399  0.2316  0.8531
 1944SOL    HW117468   0.572   4.688  17.647  1.1424  1.8065  0.3906
 1944SOL    HW217469   0.513   4.646   0.025 -1.3129  1.3416 -0.1839
 1945SOL     OW17470   3.729   1.056   5.153  0.3105  0.0114  0.4224
 1945SOL    HW117471   3.820   1.056   5.124 -0.4150  1.9755 -1.8360
 1945SOL    HW217472   3.736   1.070   5.248 -0.5017  0.6854  0.3784
 1946SOL     OW17473   1.160   2.597  17.144  0.1435 -0.2277 -0.5558
 1946SOL    HW117474   1.146   2.592  17.050 -2.8851 -1.4625 -0.0476
 1946SOL    HW217475   1.070   2.617  17.170  0.3804  0.1238  0.0123
 1947SOL     OW17476   2.259   3.356  12.636  0.4120 -0.1329  0.1392
 1947SOL    HW117477   2.287   3.399  12.717  0.6214 -1.3446  0.7217
 1947SOL    HW217478   2.275   3.416  12.564  1.0786  1.0097  1.2317
 1948SOL     OW17479   2.770   2.127   6.853 -0.2430 -0.6066  0.0690
 1948SOL    HW117480   2.726   2.046   6.879  0.1163 -0.9108 -0.2730
 1948SOL    HW217481   2.749   2.177   6.931 -2.6567 -1.7939  0.1866
 1949SOL     OW17482   0.803   4.385   7.791  0.4406  0.1158  0.3639
 1949SOL    HW117483   0.758   4.301   7.793  0.6735 -0.0354 -0.9206
 1949SOL    HW217484   0.740   4.435   7.740  1.1531 -1.0083 -1.6032
 1950SOL     OW17485   0.217   1.401   4.904 -0.2349  0.6465  0.3101
 1950SOL    HW117486   0.287   1.342   4.930 -1.2237  0.3794  2.2980
 1950SOL    HW217487   0.175   1.426   4.986  2.7993  0.6013  1.8842
 1951SOL     OW17488   2.903   2.171   5.918 -0.1950  0.2562  0.2208
 1951SOL    HW117489   2.958   2.095   5.938  0.9714  1.0049 -0.2035
 1951SOL    HW217490   2.826   2.149   5.972 -0.1867 -0.5546 -0.0890
 1952SOL     OW17491   2.358   0.309   3.627  0.1273  0.2418 -0.1172
 1952SOL    HW117492   2.369   0.221   3.664  0.1595  1.1706  2.0541
 1952SOL    HW217493   2.274   0.336   3.664 -0.1585  0.4786 -0.9452
 1953SOL     OW17494   3.806   1.138   5.462  0.0306  0.9820 -0.2752
 1953SOL    HW117495   3.844   1.056   5.492 -2.5970  0.1778  0.8444
 1953SOL    HW217496   3.886   1.185   5.438 -1.5324  3.0740 -1.3888
 1954SOL     OW17497   3.894   4.025   3.590 -0.1750 -0.1202 -0.2154
 1954SOL    HW117498   3.939   3.941   3.601 -1.0584 -0.6645 -0.6741
 1954SOL    HW217499   3.955   4.075   3.644 -1.0634 -0.0783  0.7580
 1955SOL     OW17500   2.126   2.486   9.948 -0.2421 -0.0799  0.2770
 1955SOL    HW117501   2.100   2.576   9.927  1.4688  1.0880  3.2566
 1955SOL    HW217502   2.044   2.439   9.933 -0.1449  0.6468 -2.5423
 1956SOL     OW17503   3.044   3.610  12.587  0.0586 -0.0518 -0.1259
 1956SOL    HW117504   3.132   3.636  12.615  0.4973 -2.2760  0.5634
 1956SOL    HW217505   3.057   3.547  12.516 -0.5451 -0.9431  0.5558
 1957SOL     OW17506   2.895   4.601   1.912  0.4379 -0.1323 -0.1292
 1957SOL    HW117507   2.925   4.679   1.866  0.0151  0.7253  1.0723
 1957SOL    HW217508   2.972   4.601   1.968  0.5612  1.4690 -0.3045
 1958SOL     OW17509   1.415   1.139   0.467 -0.3715  0.1337  0.0501
 1958SOL    HW117510   1.376   1.130   0.380  0.4197  0.1268 -0.2991
 1958SOL    HW217511   1.337   1.121   0.520  0.9167  0.9423  2.2082
 1959SOL     OW17512   3.654   0.453  16.814  0.5620  0.6850 -0.3607
 1959SOL    HW117513   3.652   0.359  16.802  0.2860  0.5523  0.7210
 1959SOL    HW217514   3.718   0.465  16.744  1.5756 -2.9548 -0.0094
 1960SOL     OW17515   2.053   3.252   2.218 -0.0247 -0.4658 -0.1584
 1960SOL    HW117516   2.116   3.294   2.277  0.1781  0.0302 -0.7278
 1960SOL    HW217517   2.091   3.280   2.135 -1.1648  2.7796  0.4216
 1961SOL     OW17518   4.546   4.284   8.029  0.0411 -0.5905  0.3701
 1961SOL    HW117519   4.457   4.252   8.048 -0.2572 -0.8538 -1.4555
 1961SOL    HW217520   4.553   4.270   7.934  1.4325 -3.0740  0.8347
 1962SOL     OW17521   2.556   4.564   5.126 -0.2486  0.1621 -0.1935
 1962SOL    HW117522   2.520   4.640   5.080  1.0505  0.4921 -0.6803
 1962SOL    HW217523   2.478   4.510   5.131 -1.8625  2.2025 -3.2686
 1963SOL     OW17524   2.495   2.175   9.345  0.1231 -0.4563  0.2908
 1963SOL    HW117525   2.576   2.126   9.363  0.2084 -0.5874 -0.4710
 1963SOL    HW217526   2.510   2.265   9.372 -1.8446 -0.2603  0.7212
 1964SOL     OW17527   3.445   4.409   9.392  0.0410  0.1619 -0.3814
 1964SOL    HW117528   3.350   4.402   9.383 -0.1420  1.8337  0.2371
 1964SOL    HW217529   3.452   4.468   9.468 -2.2526  0.7353 -0.6162
 1965SOL     OW17530   1.868   0.432   3.635  0.2928  0.3935 -0.2092
 1965SOL    HW117531   1.831   0.448   3.548 -0.4668 -1.6833 -0.2832
 1965SOL    HW217532   1.805   0.391   3.695  0.3568  0.4058 -0.1333
 1966SOL     OW17533   4.452   2.766   5.520 -0.2438  0.4780 -0.8694
 1966SOL    HW117534   4.542   2.796   5.525  0.1991 -0.6943 -1.6804
 1966SOL    HW217535   4.468   2.684   5.472 -1.2722 -0.9478  1.2087
 1967SOL     OW17536   2.839   1.565  12.388  0.1002 -0.5802  0.2107
 1967SOL    HW117537   2.843   1.594  12.297  1.4512  0.9122  0.7425
 1967SOL    HW217538   2.799   1.635  12.440  3.2499  0.0909  1.7016
 1968SOL     OW17539   0.468   0.983   7.368 -0.1179 -0.3649 -0.6754
 1968SOL    HW117540   0.475   0.922   7.295 -0.4849  0.0119 -1.0263
 1968SOL    HW217541   0.491   1.061   7.318  1.0051  0.3873  0.9911
 1969SOL     OW17542   2.712   2.917   4.714  0.1559 -0.0285  0.5568
 1969SOL    HW117543   2.719   2.844   4.652 -2.6960 -0.9537  1.3276
 1969SOL    HW217544   2.656   2.981   4.670  1.4459  0.2475 -0.7110
 1970SOL     OW17545   0.922   1.966  13.819 -0.0336 -0.6504  0.0810
 1970SOL    HW117546   0.874   1.887  13.844 -1.6019  0.6839  1.3521
 1970SOL    HW217547   1.010   1.946  13.851 -0.1873 -0.4943  0.6149
 1971SOL     OW17548   3.620   2.833  11.271  1.1976  0.3074  0.2414
 1971SOL    HW117549   3.644   2.757  11.323 -0.2367 -0.1588  0.2122
 1971SOL    HW217550   3.534   2.808  11.239  0.1028  1.7460  2.0825
 1972SOL     OW17551   2.952   2.769  11.980  0.2561 -0.3351 -0.4806
 1972SOL    HW117552   3.017   2.735  12.041  0.9255  0.9294 -0.4943
 1972SOL    HW217553   2.895   2.692  11.982 -0.0118 -0.1099  0.9357
 1973SOL     OW17554   0.366   2.207   4.643  0.5669  0.0308 -0.2242
 1973SOL    HW117555   0.401   2.121   4.622 -1.2814 -0.7242 -0.2720
 1973SOL    HW217556   0.322   2.233   4.562 -0.8121  0.2004  0.5753
 1974SOL     OW17557   2.216   3.277  15.185  0.1448 -0.3059 -0.1288
 1974SOL    HW117558   2.275   3.206  15.160  1.2828  0.3896  0.5931
 1974SOL    HW217559   2.132   3.251  15.147  0.7644  1.0518 -2.4680
 1975SOL     OW17560   2.450   1.200   7.628  0.0857  0.3621  0.1378
 1975SOL    HW117561   2.403   1.135   7.576 -0.1785  1.3024 -0.8194
 1975SOL    HW217562   2.460   1.159   7.713  1.9805 -0.6855 -0.5816
 1976SOL     OW17563   3.832   0.657   5.724  0.1468 -0.0275  0.6557
 1976SOL    HW117564   3.893   0.724   5.755  0.2335  0.9600 -1.6199
 1976SOL    HW217565   3.890   0.584   5.700 -1.3870 -0.3773 -1.9658
 1977SOL     OW17566   0.606   3.037   1.121 -0.2232  0.3087 -0.0788
 1977SOL    HW117567   0.684   2.980   1.121 -0.5603 -0.1611  0.9473
 1977SOL    HW217568   0.643   3.111   1.169  0.1729 -1.5279  2.4777
 1978SOL     OW17569   2.108   3.200   5.536  0.2179 -0.1392  0.2865
 1978SOL    HW117570   2.078   3.170   5.450  0.4043  1.5565 -0.3589
 1978SOL    HW217571   2.047   3.272   5.549  0.8396  0.1353  1.6965
 1979SOL     OW17572   4.231   2.347  10.476 -0.9421 -0.1084  0.1546
 1979SOL    HW117573   4.158   2.297  10.513 -0.1494 -0.4606  1.2184
 1979SOL    HW217574   4.190   2.383  10.397 -2.3320 -2.3053 -0.1250
 1980SOL     OW17575   2.024   0.397  13.882 -0.6047  0.4201  0.3248
 1980SOL    HW117576   1.937   0.369  13.911 -1.0926  0.8647 -0.7252
 1980SOL    HW217577   2.085   0.365  13.948  2.1051  0.2285 -2.2594
 1981SOL     OW17578   2.492   3.620   9.566 -0.3338 -0.0607  0.0318
 1981SOL    HW117579   2.532   3.619   9.479 -1.4045 -0.1514 -0.4508
 1981SOL    HW217580   2.444   3.537   9.567  1.3384 -1.0282 -0.2682
 1982SOL     OW17581   1.982   3.342   1.659 -0.5090 -0.1416  0.2259
 1982SOL    HW117582   2.056   3.308   1.608 -0.8204 -1.7309  0.8197
 1982SOL    HW217583   1.986   3.293   1.741 -1.4514  1.1260  1.0154
 1983SOL     OW17584   3.215   3.894   6.250 -0.1676  0.1634 -0.0224
 1983SOL    HW117585   3.158   3.944   6.308  0.1583  1.1448 -0.5419
 1983SOL    HW217586   3.203   3.808   6.290 -1.4378  0.7937  0.9313
 1984SOL     OW17587   0.358   0.272  14.177 -0.5478 -0.3027  0.1510
 1984SOL    HW117588   0.401   0.328  14.242 -1.0029 -1.1084  1.1341
 1984SOL    HW217589   0.264   0.281  14.192 -0.8634 -4.0593  0.3035
 1985SOL     OW17590   3.453   1.925  12.459  0.0254 -0.6538  0.0512
 1985SOL    HW117591   3.408   1.966  12.533 -0.5225 -1.2862  0.0645
 1985SOL    HW217592   3.542   1.903  12.487  0.4249  0.4015 -0.3703
 1986SOL     OW17593   2.832   4.365  15.640 -0.0914  0.2085 -0.0964
 1986SOL    HW117594   2.853   4.439  15.584  0.1797  0.0326 -0.2267
 1986SOL    HW217595   2.777   4.408  15.706 -1.7428 -0.4000 -1.0674
 1987SOL     OW17596   3.601   4.648   8.156  0.0000 -0.1622  0.0155
 1987SOL    HW117597   3.513   4.609   8.158  0.3170 -0.7679  2.0644
 1987SOL    HW217598   3.624   4.655   8.249 -3.1726  0.0272  0.8110
 1988SOL     OW17599   4.074   4.030   8.763  0.2303 -0.6276  0.0768
 1988SOL    HW117600   4.144   4.005   8.824 -0.3913 -0.9575  0.6582
 1988SOL    HW217601   4.037   4.102   8.815  0.5950 -0.1219 -0.3707
 1989SOL     OW17602   1.469   0.197   5.212 -0.1343  0.2885 -0.5041
 1989SOL    HW117603   1.556   0.156   5.208  0.3230  1.2538 -0.4100
 1989SOL    HW217604   1.418   0.122   5.242 -1.0197  0.8272 -0.6529
 1990SOL     OW17605   3.941   3.326   2.168  0.7808 -0.1945  0.2396
 1990SOL    HW117606   3.894   3.305   2.087  1.7117 -1.5482  0.0677
 1990SOL    HW217607   3.864   3.345   2.222  0.4450 -1.6241  0.2629
 1991SOL     OW17608   2.824   3.981   2.385 -0.4243 -0.0222 -0.3712
 1991SOL    HW117609   2.739   4.018   2.362 -0.5305 -1.5608 -2.4576
 1991SOL    HW217610   2.812   3.984   2.480 -1.6128  2.0360 -0.5833
 1992SOL     OW17611   0.198   3.650   4.548  0.0556 -0.8551 -0.5062
 1992SOL    HW117612   0.139   3.702   4.493  0.0419 -1.8955 -1.4806
 1992SOL    HW217613   0.191   3.697   4.632 -0.0087  0.4575 -1.2425
 1993SOL     OW17614   0.644   3.345   7.683 -0.0773 -0.0173 -0.3930
 1993SOL    HW117615   0.707   3.286   7.643  1.5753  0.6726  1.2031
 1993SOL    HW217616   0.678   3.420   7.635 -0.5752  0.3995 -0.1018
 1994SOL     OW17617   2.687   3.708  14.041  0.0820  0.1447  0.2500
 1994SOL    HW117618   2.631   3.768  14.089  0.7789  1.0076 -0.0228
 1994SOL    HW217619   2.626   3.687  13.970 -1.3713 -1.6606  2.0232
 1995SOL     OW17620   3.717   0.648   7.411 -0.1716 -0.2898 -0.1496
 1995SOL    HW117621   3.772   0.584   7.366  1.2078  1.2997 -0.7567
 1995SOL    HW217622   3.665   0.592   7.468 -2.1875 -1.9605 -3.6326
 1996SOL     OW17623   4.583   4.155   2.845 -0.5001 -0.1498 -0.4315
 1996SOL    HW117624   4.606   4.105   2.766  1.4855  1.9019 -1.1220
 1996SOL    HW217625   4.616   4.240   2.818  1.0991 -0.8596 -0.7158
 1997SOL     OW17626   2.188   0.707  12.292  0.5183  0.5180  0.1753
 1997SOL    HW117627   2.227   0.747  12.370  0.8111 -0.7038  0.6632
 1997SOL    HW217628   2.254   0.638  12.290 -1.2813 -1.1365 -2.1628
 1998SOL     OW17629   4.156   2.776   7.344  1.0439 -0.9343  0.4121
 1998SOL    HW117630   4.251   2.780   7.353  0.5715  1.7196  4.1512
 1998SOL    HW217631   4.124   2.832   7.414  1.4912 -0.4218  0.2105
 1999SOL     OW17632   2.370   1.594   4.895  0.1075  0.2438  0.7327
 1999SOL    HW117633   2.297   1.586   4.833  0.4754 -1.3030  0.5127
 1999SOL    HW217634   2.328   1.638   4.969  0.2461 -0.9577  1.5141
 2000SOL     OW17635   4.274   1.268   7.653  0.2659  0.0798  0.0418
 2000SOL    HW117636   4.201   1.223   7.694  0.1408  1.6304  1.4829
 2000SOL    HW217637   4.252   1.247   7.562 -2.2170  1.6622  0.3033
 2001SOL     OW17638   2.547   2.022   3.791 -0.2093 -0.5436  0.0403
 2001SOL    HW117639   2.483   2.089   3.813  0.5184 -0.0375  0.6117
 2001SOL    HW217640   2.509   1.945   3.834  5.2772 -1.5539  3.1993
 2002SOL     OW17641   4.487   0.001   6.545 -0.4189  0.6489  0.4975
 2002SOL    HW117642   4.561   4.715   6.601 -1.7009 -0.3039  1.7777
 2002SOL    HW217643   4.510   4.689   6.466  2.1910  0.9206  1.0730
 2003SOL     OW17644   4.074   0.107  17.535  0.1393 -0.4525 -0.4372
 2003SOL    HW117645   4.146   0.048  17.558 -0.3553 -0.6785  0.5555
 2003SOL    HW217646   4.000   0.070  17.583  0.0375  0.4676  0.1146
 2004SOL     OW17647   2.071   4.698   6.951  0.1145 -0.1542 -0.2909
 2004SOL    HW117648   2.038   0.050   6.944 -2.0185 -0.9694 -0.6474
 2004SOL    HW217649   2.066   4.681   7.045  2.0290 -2.0812 -0.5365
 2005SOL     OW17650   2.030   3.530  16.738  0.5459  0.4446  0.0280
 2005SOL    HW117651   2.080   3.544  16.818 -0.0177 -0.1491  0.4854
 2005SOL    HW217652   2.081   3.584  16.678 -0.5420  0.1039 -1.2098
 2006SOL     OW17653   0.334   3.001  16.723 -0.1483 -0.1336  0.3834
 2006SOL    HW117654   0.399   3.064  16.693 -0.6715  1.0644  1.7336
 2006SOL    HW217655   0.252   3.042  16.696 -0.5807  0.1121  2.0284
 2007SOL     OW17656   4.478   1.801   0.547 -0.4297  0.1262 -0.1651
 2007SOL    HW117657   4.514   1.871   0.602 -0.9903  0.2571  0.0404
 2007SOL    HW217658   4.384   1.817   0.539 -0.1328  1.4962 -0.9877
 2008SOL     OW17659   0.087   4.357  14.631  0.5450  0.5351  0.1522
 2008SOL    HW117660   4.737   4.385  14.607  1.1431 -0.1593 -2.8934
 2008SOL    HW217661   0.077   4.262  14.639 -1.2740  0.6786 -0.5655
 2009SOL     OW17662   3.975   1.334   5.377 -1.1067 -0.0469  1.1679
 2009SOL    HW117663   4.019   1.411   5.415 -0.9863  0.5581 -0.1749
 2009SOL    HW217664   3.896   1.367   5.334 -1.0552 -1.7178 -0.1913
 2010SOL     OW17665   2.957   3.074  17.630  0.1003  0.3758 -0.3097
 2010SOL    HW117666   2.893   3.080  17.559 -0.2147 -1.2857 -0.1676
 2010SOL    HW217667   2.900   3.076  17.707 -0.1608 -1.7810 -0.4421
 2011SOL     OW17668   0.561   4.672  12.123 -0.1002  0.4652  0.4272
 2011SOL    HW117669   0.591   4.708  12.206  2.0294 -0.1121 -0.0991
 2011SOL    HW217670   0.643   4.699  12.082  0.9526 -0.1317  2.1659
 2012SOL     OW17671   1.689   1.364   9.244 -0.5289 -0.3206  0.1646
 2012SOL    HW117672   1.709   1.458   9.236  1.3281 -0.8173 -0.9369
 2012SOL    HW217673   1.654   1.341   9.158 -3.2123 -0.6766  1.3598
 2013SOL     OW17674   2.575   2.764   8.041  0.5011 -0.0246 -0.6023
 2013SOL    HW117675   2.592   2.853   8.011  0.1546 -1.1506 -4.1408
 2013SOL    HW217676   2.557   2.785   8.133 -3.2167 -2.9547 -0.6318
 2014SOL     OW17677   0.720   3.706   1.817  0.5463  0.2413 -0.5856
 2014SOL    HW117678   0.742   3.653   1.893  1.3224 -1.1172 -1.7625
 2014SOL    HW217679   0.729   3.796   1.847  1.9609 -0.5373  1.2897
 2015SOL     OW17680   3.014   3.270  10.137  0.0806 -0.1665  0.2902
 2015SOL    HW117681   3.050   3.237  10.219  0.3619 -1.7463 -0.4793
 2015SOL    HW217682   2.921   3.250  10.143  0.4445 -1.6172  0.9364
 2016SOL     OW17683   2.821   4.434   2.187 -0.2345 -0.2331  0.3455
 2016SOL    HW117684   2.764   4.510   2.185  0.8419  0.5112 -2.3966
 2016SOL    HW217685   2.858   4.435   2.275  1.2380  1.6854 -0.2891
 2017SOL     OW17686   1.392   1.506  11.653  0.4904 -0.2082  0.3237
 2017SOL    HW117687   1.412   1.413  11.661 -0.0908 -0.3577  0.0582
 2017SOL    HW217688   1.309   1.513  11.701  2.1286  1.0194  2.9417
 2018SOL     OW17689   1.769   4.404  11.561 -0.2747 -0.6750 -0.1655
 2018SOL    HW117690   1.742   4.493  11.538  0.6512 -0.1302  0.8488
 2018SOL    HW217691   1.834   4.419  11.629  0.1830  1.4613 -1.0689
 2019SOL     OW17692   2.495   0.749   1.776  0.7507  0.0194  0.1145
 2019SOL    HW117693   2.475   0.838   1.803 -0.4285 -0.1144 -0.2947
 2019SOL    HW217694   2.423   0.741   1.712  1.8411 -1.4009 -0.9544
 2020SOL     OW17695   2.298   1.481  10.048 -0.1890 -0.3407  0.0946
 2020SOL    HW117696   2.322   1.561  10.096  1.9321 -1.8252  1.5056
 2020SOL    HW217697   2.363   1.493   9.979 -1.2257  1.0776 -0.6310
 2021SOL     OW17698   2.859   2.233   8.953  0.8626 -0.5013  0.0714
 2021SOL    HW117699   2.940   2.226   9.002  2.2536 -1.7361 -2.3833
 2021SOL    HW217700   2.845   2.160   8.893  0.5411 -0.2309 -0.1827
 2022SOL     OW17701   2.106   1.550   0.267  0.4508  0.1496  0.0368
 2022SOL    HW117702   2.055   1.609   0.323  0.5991 -0.9542  1.3201
 2022SOL    HW217703   2.109   1.476   0.327  0.4636 -0.1539 -0.3341
 2023SOL     OW17704   0.177   2.676  14.883 -0.3458  0.6406  0.0667
 2023SOL    HW117705   0.251   2.690  14.943 -0.1289 -1.9359  0.3915
 2023SOL    HW217706   0.147   2.586  14.895 -0.5810  0.6838 -0.2137
 2024SOL     OW17707   2.096   1.189  10.471 -0.2158  0.6509  0.4500
 2024SOL    HW117708   2.182   1.211  10.507  1.1639 -1.9077 -1.3064
 2024SOL    HW217709   2.093   1.249  10.396 -2.5240  0.7960  0.6630
 2025SOL     OW17710   3.222   4.498   6.466  0.1797 -0.4448  0.1873
 2025SOL    HW117711   3.142   4.551   6.458  0.4243  0.2993  2.6094
 2025SOL    HW217712   3.257   4.535   6.547  0.0068 -2.2135  1.0745
 2026SOL     OW17713   4.103   4.733   8.931  0.0726 -0.0576  0.1473
 2026SOL    HW117714   4.017   0.037   8.937 -0.3461 -0.8309 -0.6099
 2026SOL    HW217715   4.092   4.661   8.994  1.6394 -0.2015  0.2562
 2027SOL     OW17716   4.008   0.777   3.684 -0.2476 -0.5954 -0.2523
 2027SOL    HW117717   4.009   0.865   3.722 -0.1393 -1.0117  0.7038
 2027SOL    HW217718   4.100   0.756   3.669  0.0790  1.0032 -0.4608
 2028SOL     OW17719   4.537   3.552   8.432 -0.1979  0.0429 -0.4550
 2028SOL    HW117720   4.577   3.542   8.346 -0.1170  1.4129 -0.5756
 2028SOL    HW217721   4.477   3.623   8.410 -1.9500 -1.3450 -0.1926
 2029SOL     OW17722   2.171   3.136   5.203 -0.1973 -0.0078 -0.1761
 2029SOL    HW117723   2.220   3.218   5.203  0.9781 -0.7110 -0.0382
 2029SOL    HW217724   2.089   3.171   5.169 -0.8513 -0.5571  0.8226
 2030SOL     OW17725   3.624   3.903   5.268 -0.1645  0.4119  0.0676
 2030SOL    HW117726   3.537   3.863   5.278  0.0316 -0.2063 -0.6865
 2030SOL    HW217727   3.650   3.929   5.356  1.3606 -0.6687 -0.0696
 2031SOL     OW17728   2.234   3.152   7.795 -0.0939 -0.5513 -0.0124
 2031SOL    HW117729   2.285   3.071   7.792 -0.2648 -0.6523 -0.1954
 2031SOL    HW217730   2.173   3.135   7.723  2.0511  1.2614 -2.2411
 2032SOL     OW17731   1.140   4.161   8.552 -0.0448  0.1611  0.4121
 2032SOL    HW117732   1.121   4.091   8.615 -0.6640  0.7034  0.8419
 2032SOL    HW217733   1.150   4.233   8.614  2.4154 -0.1845  0.3893
 2033SOL     OW17734   4.378   4.299  12.751  0.1899  0.2041  0.2098
 2033SOL    HW117735   4.307   4.344  12.796  0.9832  2.5050 -0.8342
 2033SOL    HW217736   4.439   4.316  12.822  2.6024 -2.4709 -1.2365
 2034SOL     OW17737   0.343   0.405   6.689  0.0942  0.0034 -0.4295
 2034SOL    HW117738   0.395   0.396   6.769 -1.6589 -0.6753  0.6340
 2034SOL    HW217739   0.300   0.320   6.696 -3.2698  1.5564 -2.2923
 2035SOL     OW17740   3.631   2.038   7.700  0.3659  0.1684  0.5409
 2035SOL    HW117741   3.716   1.995   7.706  0.3805  0.3079  1.2401
 2035SOL    HW217742   3.644   2.085   7.618  0.9013  1.9409  1.6575
 2036SOL     OW17743   0.916   0.073   9.707 -0.6307 -0.6851 -0.0671
 2036SOL    HW117744   0.890   0.049   9.618  1.0270 -0.1078 -0.7064
 2036SOL    HW217745   0.840   0.116   9.746 -0.0924 -0.1985  0.4568
 2037SOL     OW17746   0.470   4.227  15.388 -0.5457 -0.7037  0.0025
 2037SOL    HW117747   0.422   4.221  15.305  0.0037  0.2289 -0.3838
 2037SOL    HW217748   0.560   4.247  15.363 -1.4739  2.3396 -0.8346
 2038SOL     OW17749   3.962   3.072   9.170  0.3196  0.0915  0.3239
 2038SOL    HW117750   3.995   3.154   9.207 -1.8014  1.0008  0.2052
 2038SOL    HW217751   3.872   3.067   9.201 -0.3807 -0.0601 -1.6953
 2039SOL     OW17752   1.492   2.545  14.047 -0.7987  0.0357 -0.3356
 2039SOL    HW117753   1.526   2.520  14.133  2.1663  0.7777 -1.3227
 2039SOL    HW217754   1.440   2.624  14.065 -2.0982 -0.9142  0.1000
 2040SOL     OW17755   1.361   0.512   3.338 -0.0361 -0.2272  0.1902
 2040SOL    HW117756   1.351   0.418   3.351  2.5519 -0.4678  0.2685
 2040SOL    HW217757   1.446   0.515   3.294  0.2072 -1.4525  0.5821
 2041SOL     OW17758   3.127   0.824   3.287 -0.2971 -0.6300 -0.1650
 2041SOL    HW117759   3.045   0.775   3.279  0.0052 -1.2765  0.6911
 2041SOL    HW217760   3.155   0.796   3.200  1.5376 -0.0302  0.2363
 2042SOL     OW17761   2.173   1.897  13.972  0.3564 -0.2796  0.2253
 2042SOL    HW117762   2.211   1.814  14.001  3.2439  0.3277 -1.8729
 2042SOL    HW217763   2.122   1.925  14.048  0.6117  0.5137  0.1041
 2043SOL     OW17764   2.365   0.497  12.348  0.2919  0.2514 -0.2934
 2043SOL    HW117765   2.453   0.536  12.343  0.3551  0.1074 -0.3202
 2043SOL    HW217766   2.380   0.431  12.415 -0.8937 -0.5518 -0.8324
 2044SOL     OW17767   1.143   1.918  11.182  0.1719 -0.1360  0.7216
 2044SOL    HW117768   1.063   1.868  11.166  0.1540  0.3023 -0.5662
 2044SOL    HW217769   1.107   2.007  11.176 -1.5635 -0.9094 -0.2699
 2045SOL     OW17770   0.344   2.778   7.433  0.0471 -0.4330  0.8796
 2045SOL    HW117771   0.271   2.773   7.372  1.7882 -1.5203 -1.0976
 2045SOL    HW217772   0.300   2.756   7.515  1.3762 -0.4383  1.5835
 2046SOL     OW17773   3.824   0.684   2.155  0.5062 -0.2031 -0.5648
 2046SOL    HW117774   3.895   0.646   2.103 -0.0688 -0.7639 -0.9363
 2046SOL    HW217775   3.805   0.756   2.095  0.6809  0.2933 -0.0248
 2047SOL     OW17776   4.401   2.946   2.769 -0.4862 -0.4233 -0.0781
 2047SOL    HW117777   4.430   2.855   2.769 -1.0029 -0.5865 -0.5034
 2047SOL    HW217778   4.320   2.937   2.720 -0.8681  2.2483  0.0538
 2048SOL     OW17779   4.335   2.362   7.682  0.0636  0.1933  0.2008
 2048SOL    HW117780   4.323   2.269   7.664 -0.9893  0.6079 -1.2515
 2048SOL    HW217781   4.372   2.386   7.597 -0.1090  2.8958  0.8867
 2049SOL     OW17782   3.855   0.325   3.930 -0.3856  0.3333  0.6053
 2049SOL    HW117783   3.891   0.339   3.842 -0.7671 -0.6224  0.2973
 2049SOL    HW217784   3.778   0.380   3.932  1.6031  3.0282  2.2660
 2050SOL     OW17785   4.076   0.365   6.163  0.1024 -1.0194 -0.0319
 2050SOL    HW117786   4.035   0.283   6.137  0.8564 -0.7309 -2.1129
 2050SOL    HW217787   3.995   0.407   6.192  1.6030  1.5165  0.5093
 2051SOL     OW17788   1.542   2.104   6.445 -0.2883  0.4351  0.2495
 2051SOL    HW117789   1.560   2.050   6.522  0.8077  0.1274 -0.2205
 2051SOL    HW217790   1.577   2.058   6.369  2.0305  0.6557  1.1848
 2052SOL     OW17791   1.193   1.642   9.922 -0.0525 -0.3936 -0.6718
 2052SOL    HW117792   1.156   1.718   9.877 -0.8074 -1.7106 -2.2586
 2052SOL    HW217793   1.211   1.590   9.843 -0.0455 -1.9993  0.3870
 2053SOL     OW17794   2.914   1.838   8.935 -0.4669  0.1357  0.3550
 2053SOL    HW117795   2.958   1.753   8.939  0.0777  0.2363 -3.6287
 2053SOL    HW217796   2.926   1.866   8.845  0.3172 -1.4015 -0.0297
 2054SOL     OW17797   3.224   4.030   7.240  0.0033 -0.2326 -0.2178
 2054SOL    HW117798   3.131   4.056   7.241 -0.3542 -1.4581 -1.5312
 2054SOL    HW217799   3.219   3.938   7.213  0.8692 -0.5605  0.7405
 2055SOL     OW17800   3.148   2.903   1.934 -0.0266  0.5269 -0.0596
 2055SOL    HW117801   3.143   2.815   1.898  1.0757 -0.0924  1.2904
 2055SOL    HW217802   3.064   2.940   1.907 -0.1504 -0.1705 -0.6398
 2056SOL     OW17803   2.978   0.205   6.807 -0.2714  0.0742  0.4778
 2056SOL    HW117804   2.950   0.294   6.788 -2.6700 -0.5574  1.0823
 2056SOL    HW217805   3.009   0.210   6.897  0.1951  0.0535  0.3232
 2057SOL     OW17806   3.704   4.479   6.289 -0.1594 -0.5753  0.0551
 2057SOL    HW117807   3.650   4.475   6.210 -1.2473  1.6165  0.6733
 2057SOL    HW217808   3.734   4.568   6.271 -1.3537 -0.1001  0.4240
 2058SOL     OW17809   3.682   4.001   6.588 -0.0873 -0.9877 -0.2669
 2058SOL    HW117810   3.704   4.093   6.577  0.4075 -1.3189 -2.0324
 2058SOL    HW217811   3.645   3.968   6.506 -1.1740  1.1126 -0.6244
 2059SOL     OW17812   1.793   4.021   5.663  0.1262 -0.2910  0.1939
 2059SOL    HW117813   1.875   4.008   5.614  1.5225  1.6721  1.9963
 2059SOL    HW217814   1.803   4.110   5.698  0.1981 -1.8510  4.0294
 2060SOL     OW17815   3.413   0.717   1.336  0.3883  0.0418  0.1671
 2060SOL    HW117816   3.393   0.756   1.421  0.2240 -0.8812  0.5522
 2060SOL    HW217817   3.430   0.796   1.283  0.5330  1.0930  1.7943
 2061SOL     OW17818   1.368   3.300   8.585 -0.6594 -0.2036 -0.1213
 2061SOL    HW117819   1.275   3.287   8.566 -0.3479 -2.0011 -0.4691
 2061SOL    HW217820   1.409   3.315   8.499 -0.6810  1.9642  0.2611
 2062SOL     OW17821   2.565   3.870   1.298 -0.3246 -0.0459 -0.2660
 2062SOL    HW117822   2.645   3.911   1.332 -0.6947  2.2699 -2.1061
 2062SOL    HW217823   2.509   3.948   1.290  0.4360  0.5661  0.3475
 2063SOL     OW17824   4.636   1.094   2.669  0.3065 -0.8130  0.2727
 2063SOL    HW117825   4.625   1.144   2.750  1.0037  0.1190 -0.2124
 2063SOL    HW217826   4.728   1.073   2.683  0.5129 -1.4044 -1.9425
 2064SOL     OW17827   4.310   3.597   1.709  0.5752  0.1192 -0.5292
 2064SOL    HW117828   4.239   3.571   1.768 -0.8543 -0.4781 -2.4852
 2064SOL    HW217829   4.368   3.643   1.769  0.7605 -1.6124  0.5935
 2065SOL     OW17830   3.233   4.209   8.322  0.2510 -0.6475 -0.0100
 2065SOL    HW117831   3.146   4.248   8.317 -0.0753 -1.3884 -0.1839
 2065SOL    HW217832   3.230   4.142   8.390  2.4148 -0.5852  0.1509
 2066SOL     OW17833   3.523   2.315  14.495  0.2984  0.1520 -0.4698
 2066SOL    HW117834   3.507   2.333  14.403 -2.0646  1.7521  0.2320
 2066SOL    HW217835   3.437   2.349  14.523  0.3969  1.4491 -1.7647
 2067SOL     OW17836   0.425   3.361  12.477  0.1426 -0.4353 -0.1110
 2067SOL    HW117837   0.471   3.333  12.398  0.8491 -0.4814  0.3199
 2067SOL    HW217838   0.382   3.438  12.438  2.7596  0.6230 -0.9206
 2068SOL     OW17839   2.445   3.892   6.042  0.3108 -0.0727  0.5536
 2068SOL    HW117840   2.445   3.907   6.136 -1.0098 -0.4457  0.6174
 2068SOL    HW217841   2.476   3.803   6.023  0.5258  0.1339 -0.0525
 2069SOL     OW17842   3.874   1.479   9.388 -0.0145 -0.3432 -0.0901
 2069SOL    HW117843   3.931   1.402   9.381 -0.2243 -0.5355  0.3158
 2069SOL    HW217844   3.787   1.440   9.403  0.4094 -0.9111  0.9419
 2070SOL     OW17845   2.285   3.610   9.780  0.3608 -0.2619  0.0018
 2070SOL    HW117846   2.213   3.643   9.832  2.2545  1.1765  1.7154
 2070SOL    HW217847   2.245   3.598   9.694  3.0636 -0.4900 -1.2176
 2071SOL     OW17848   1.868   2.074   4.419  0.3191  0.0976  0.1627
 2071SOL    HW117849   1.838   2.132   4.350 -1.1183 -0.0550  0.6494
 2071SOL    HW217850   1.950   2.112   4.450  1.3781 -1.9358 -0.0940
 2072SOL     OW17851   1.160   0.165  16.098  0.0711  0.3961  0.0700
 2072SOL    HW117852   1.253   0.170  16.074  0.1472  2.3863  0.7733
 2072SOL    HW217853   1.127   0.250  16.067  0.0258  0.1798 -0.4666
 2073SOL     OW17854   4.380   0.366  16.734  0.2524 -0.0803 -0.3048
 2073SOL    HW117855   4.353   0.369  16.642 -0.7302 -0.6375 -0.0372
 2073SOL    HW217856   4.423   0.452  16.732  2.5393 -1.2439 -2.1493
 2074SOL     OW17857   1.065   4.253   1.133  0.0858 -0.3903 -0.7035
 2074SOL    HW117858   1.096   4.233   1.221 -1.8337 -0.0134  0.0588
 2074SOL    HW217859   0.982   4.207   1.142  0.4010 -0.0338  3.9708
 2075SOL     OW17860   2.048   3.782  15.182  0.0477 -0.3755 -0.8470
 2075SOL    HW117861   2.106   3.716  15.221  2.3548  1.2433 -1.5811
 2075SOL    HW217862   2.029   3.827  15.265 -0.8704 -0.4290 -1.0235
 2076SOL     OW17863   3.980   4.033   4.066  0.1514 -0.4043  0.1234
 2076SOL    HW117864   4.031   4.073   4.137  0.6730 -0.3773 -0.2609
 2076SOL    HW217865   3.916   4.101   4.045 -0.9351 -1.4605  0.0114
 2077SOL     OW17866   1.032   0.454   9.062  0.1884  0.7557  0.2157
 2077SOL    HW117867   1.121   0.477   9.035  0.4859 -0.5231  0.1090
 2077SOL    HW217868   0.990   0.469   8.977 -1.3029  0.9269  0.9750
 2078SOL     OW17869   0.007   1.564  12.984 -0.0985 -0.1891  0.5652
 2078SOL    HW117870   4.678   1.625  12.951 -0.2125  0.3120  1.6941
 2078SOL    HW217871   0.021   1.601  13.071  1.1918 -1.0379  0.7064
 2079SOL     OW17872   4.127   0.121   8.261  0.1440  0.4773 -0.2191
 2079SOL    HW117873   4.191   0.099   8.192 -0.3513  0.6098 -0.7193
 2079SOL    HW217874   4.156   0.059   8.329  2.1330  0.8026 -0.7645
 2080SOL     OW17875   3.229   2.083   8.217  0.7508  0.0365  0.1518
 2080SOL    HW117876   3.242   2.124   8.132  0.5596  0.9461  0.5572
 2080SOL    HW217877   3.212   2.162   8.269  1.8359  0.6079 -0.3678
 2081SOL     OW17878   1.952   3.589   7.938  0.2675  0.4421 -0.2464
 2081SOL    HW117879   1.910   3.573   8.023 -0.1458 -0.2127 -0.5655
 2081SOL    HW217880   2.039   3.607   7.971  0.2304  0.5438 -0.2043
 2082SOL     OW17881   0.307   1.025   4.028  0.6324  0.2968  0.1853
 2082SOL    HW117882   0.348   1.110   4.045 -1.9406  1.3484  1.2807
 2082SOL    HW217883   0.253   1.038   3.950 -1.3775 -0.1124  1.4986
 2083SOL     OW17884   4.025   2.901  13.907  0.4301  0.6391  0.1124
 2083SOL    HW117885   4.068   2.986  13.908  0.7889  0.4804 -2.3500
 2083SOL    HW217886   4.040   2.878  13.816  1.2687  0.6695  0.2432
 2084SOL     OW17887   2.362   0.512   4.730  0.1198 -0.0011  0.7324
 2084SOL    HW117888   2.305   0.584   4.758 -1.0904 -0.9910  0.8009
 2084SOL    HW217889   2.440   0.564   4.710 -0.8408  0.9496 -0.4967
 2085SOL     OW17890   4.394   2.539   0.913 -0.0907  0.2236  0.4494
 2085SOL    HW117891   4.433   2.453   0.930 -0.0864 -0.0422 -0.9183
 2085SOL    HW217892   4.331   2.534   0.985 -0.3202  1.6458  0.3519
 2086SOL     OW17893   3.461   4.548   5.121  0.5142 -0.2723  0.5103
 2086SOL    HW117894   3.439   4.576   5.032 -1.2232  1.5142  1.5089
 2086SOL    HW217895   3.543   4.597   5.128 -0.9265  2.1792  0.0661
 2087SOL     OW17896   4.551   0.477   7.012  0.3975 -0.3481 -0.1141
 2087SOL    HW117897   4.492   0.492   6.938 -0.9008  2.9577  1.5655
 2087SOL    HW217898   4.614   0.548   6.999  1.6800 -1.7753 -1.6989
 2088SOL     OW17899   2.028   1.631   2.014  0.0630 -0.0504  0.0756
 2088SOL    HW117900   1.950   1.592   2.052  0.5244  0.1771  1.2828
 2088SOL    HW217901   2.022   1.726   2.022 -0.1496  0.0104 -0.8113
 2089SOL     OW17902   2.220   3.039  10.331  0.4763 -0.1347 -0.3058
 2089SOL    HW117903   2.282   2.973  10.360 -1.0786 -1.4165  0.1154
 2089SOL    HW217904   2.143   3.025  10.386  1.1775 -1.1616  0.4073
 2090SOL     OW17905   3.258   1.810   4.735  0.2545 -0.1514  0.5150
 2090SOL    HW117906   3.211   1.870   4.792 -0.0086 -0.7546  0.9312
 2090SOL    HW217907   3.283   1.758   4.811  1.6731  2.2068  1.6434
 2091SOL     OW17908   4.715   2.402   0.968 -0.5194  0.1833 -1.0226
 2091SOL    HW117909   4.620   2.415   0.968 -0.3573  1.3447  2.1382
 2091SOL    HW217910   0.006   2.483   1.011 -1.8593  0.6313 -0.9685
 2092SOL     OW17911   2.213   0.373   4.118 -0.1210 -0.5606  0.2344
 2092SOL    HW117912   2.305   0.375   4.143  0.3361 -0.0942 -1.4863
 2092SOL    HW217913   2.178   0.430   4.186 -2.1904  1.0919 -2.2102
 2093SOL     OW17914   2.046   2.844   4.900  0.0390 -0.1831 -0.2833
 2093SOL    HW117915   2.078   2.756   4.917  3.1845  0.8678 -0.8524
 2093SOL    HW217916   2.012   2.822   4.813  1.2064 -0.9363 -0.5351
 2094SOL     OW17917   1.819   3.534   9.515 -0.0491  0.4523  0.2481
 2094SOL    HW117918   1.896   3.574   9.475  0.2505  0.2836  0.6590
 2094SOL    HW217919   1.749   3.567   9.459  0.1319  0.3204 -0.0515
 2095SOL     OW17920   1.098   3.964   4.184 -0.2026 -0.0061 -0.1491
 2095SOL    HW117921   1.135   3.960   4.096  0.3436  0.8376  0.0433
 2095SOL    HW217922   1.141   3.890   4.227 -0.1891  0.3585  0.4624
 2096SOL     OW17923   2.378   2.323  14.705  0.8487 -0.2312  0.4352
 2096SOL    HW117924   2.296   2.292  14.744  0.4588  0.0120 -0.1824
 2096SOL    HW217925   2.355   2.410  14.672  1.5329  0.2046  1.1213
 2097SOL     OW17926   4.663   4.331   5.027  0.6216  0.4778  0.3730
 2097SOL    HW117927   4.720   4.283   5.086  2.4178  0.7098 -1.1963
 2097SOL    HW217928   4.656   4.415   5.073 -1.0308  0.0677  0.8887
 2098SOL     OW17929   2.751   0.547   7.316 -0.1355 -0.1518  0.0955
 2098SOL    HW117930   2.791   0.564   7.401  1.4551  1.4263 -0.9714
 2098SOL    HW217931   2.818   0.562   7.249 -0.5797  0.5640 -0.1922
 2099SOL     OW17932   4.420   0.706   8.429  0.3575  0.3927 -0.1182
 2099SOL    HW117933   4.325   0.704   8.420  0.4304  0.8279 -1.0516
 2099SOL    HW217934   4.436   0.634   8.489 -0.6446  1.2483  1.1644
 2100SOL     OW17935   2.120   2.610   7.671 -0.2059  0.2642  0.4720
 2100SOL    HW117936   2.172   2.613   7.751 -1.2905 -0.3877  1.2009
 2100SOL    HW217937   2.069   2.690   7.686 -0.0215  0.6528 -0.9815
 2101SOL     OW17938   0.122   0.767   2.347 -0.0592  0.0558  0.3017
 2101SOL    HW117939   0.045   0.820   2.324 -0.3712 -0.7880 -0.5562
 2101SOL    HW217940   0.168   0.836   2.396  0.1193  0.1664 -0.0246
 2102SOL     OW17941   0.102   0.974  10.523 -0.0202 -0.2684  0.7779
 2102SOL    HW117942   0.050   1.022  10.588 -1.2465 -0.5497  0.0198
 2102SOL    HW217943   0.134   0.905  10.582  1.0180  0.4645  1.0634
 2103SOL     OW17944   1.162   0.586   7.127  0.3321 -0.4067  0.1120
 2103SOL    HW117945   1.140   0.578   7.220 -0.3060 -3.0047 -0.2655
 2103SOL    HW217946   1.090   0.646   7.110 -0.1143 -1.6370 -2.3618
 2104SOL     OW17947   3.865   2.372   9.154  0.3379  0.2588  0.3526
 2104SOL    HW117948   3.959   2.374   9.137  0.4602  0.8623  1.0636
 2104SOL    HW217949   3.843   2.281   9.135 -0.9673  0.5282  0.5292
 2105SOL     OW17950   3.846   2.201   2.924 -0.5217  0.2176 -0.0555
 2105SOL    HW117951   3.810   2.125   2.879  0.1984  0.3581 -0.8782
 2105SOL    HW217952   3.938   2.196   2.896 -0.5703  4.6097 -0.9354
 2106SOL     OW17953   4.177   1.642  17.028 -0.4068 -0.2497  0.0645
 2106SOL    HW117954   4.244   1.574  17.017 -1.9947 -1.9827  1.0729
 2106SOL    HW217955   4.118   1.634  16.953  1.6969 -1.2423 -1.5183
 2107SOL     OW17956   4.476   4.613   5.002  0.1567 -0.2327 -0.8677
 2107SOL    HW117957   4.422   4.557   5.059 -0.6042  0.6941 -0.6790
 2107SOL    HW217958   4.556   4.626   5.053  0.0444 -3.3716  0.0818
 2108SOL     OW17959   1.136   4.213   5.816 -0.6862 -0.1512 -0.6852
 2108SOL    HW117960   1.226   4.225   5.786 -1.1969  1.2102 -1.6571
 2108SOL    HW217961   1.155   4.164   5.896 -2.9946 -1.0246 -0.6737
 2109SOL     OW17962   2.944   2.679  11.250  0.1419  0.2744 -0.9020
 2109SOL    HW117963   2.889   2.617  11.202 -2.2378  2.0597 -0.5066
 2109SOL    HW217964   2.886   2.714  11.318  1.4136 -0.2333  0.4532
 2110SOL     OW17965   0.394   3.699  12.882  0.3435 -0.5365 -0.1712
 2110SOL    HW117966   0.355   3.767  12.828  0.3908 -0.3213  0.0658
 2110SOL    HW217967   0.335   3.684  12.956  0.8499 -3.4840 -0.3493
 2111SOL     OW17968   0.566   1.699   3.772 -0.7618 -0.6355  0.3825
 2111SOL    HW117969   0.500   1.632   3.754 -0.6945 -1.4150  3.0573
 2111SOL    HW217970   0.611   1.651   3.841 -0.1767 -0.4751  0.1156
 2112SOL     OW17971   2.273   2.870   6.435  0.2401 -0.0009 -0.4697
 2112SOL    HW117972   2.179   2.878   6.425  0.4337  1.9866 -0.7898
 2112SOL    HW217973   2.310   2.936   6.377  1.1589  1.4325  1.7392
 2113SOL     OW17974   4.532   4.660   2.590 -0.5663 -0.3137 -0.4384
 2113SOL    HW117975   4.612   4.609   2.603  1.1139  1.7690 -2.6882
 2113SOL    HW217976   4.515   4.646   2.683  0.2219  3.1664  0.2185
 2114SOL     OW17977   4.052   3.976   2.246 -0.2904 -0.5465 -0.1415
 2114SOL    HW117978   4.080   3.887   2.270 -0.1268 -1.0124 -2.0699
 2114SOL    HW217979   3.964   3.980   2.285 -0.0213 -1.7860  0.5921
 2115SOL     OW17980   2.090   2.301   3.237  0.1935  0.1607  0.1529
 2115SOL    HW117981   2.120   2.210   3.228 -1.5517 -0.6910  2.9690
 2115SOL    HW217982   1.997   2.291   3.214 -0.3118  3.3207  0.8410
 2116SOL     OW17983   3.690   2.847  15.850 -0.2068 -0.3782  0.4064
 2116SOL    HW117984   3.782   2.824  15.851  0.1957  1.0511 -3.0619
 2116SOL    HW217985   3.668   2.906  15.921  1.9259 -1.7198  2.1551
 2117SOL     OW17986   2.546   4.662   9.064 -0.5480  0.1955 -0.2812
 2117SOL    HW117987   2.498   4.582   9.084  0.3453  0.3205  2.4131
 2117SOL    HW217988   2.590   4.646   8.980 -0.5507  0.4737 -0.3349
 2118SOL     OW17989   2.407   4.180   9.800 -0.2205 -0.1282 -0.3315
 2118SOL    HW117990   2.461   4.259   9.804 -0.7939  0.2697 -0.3221
 2118SOL    HW217991   2.475   4.118   9.775  0.1373  0.5778 -1.1409
 2119SOL     OW17992   2.910   1.857  11.516 -0.1172  0.2806  0.1351
 2119SOL    HW117993   3.003   1.835  11.508  0.0830  1.0067  0.5034
 2119SOL    HW217994   2.872   1.776  11.482  4.3166 -1.9667  0.5015
 2120SOL     OW17995   2.502   3.647   3.786  0.6967  0.1529  0.3916
 2120SOL    HW117996   2.582   3.675   3.743  0.9587  1.7617  1.9313
 2120SOL    HW217997   2.446   3.642   3.708  2.4030 -1.3618 -0.7209
 2121SOL     OW17998   2.704   3.272   7.610 -0.2769  0.3396 -0.1654
 2121SOL    HW117999   2.703   3.184   7.645  0.9012  0.3191 -0.1772
 2121SOL    HW218000   2.629   3.314   7.652  0.0907 -0.7375  1.5696
 2122SOL     OW18001   2.551   3.111  15.570 -0.9756  0.3335  0.2693
 2122SOL    HW118002   2.623   3.110  15.633 -1.6321 -0.1095  1.0255
 2122SOL    HW218003   2.580   3.161  15.494 -0.7409 -0.6275 -0.2691
 2123SOL     OW18004   0.645   2.267   5.619 -0.0338  0.5357  0.0765
 2123SOL    HW118005   0.672   2.326   5.548  1.1465 -1.3282 -1.0095
 2123SOL    HW218006   0.549   2.261   5.614 -0.1988  1.8188  1.6844
 2124SOL     OW18007   2.791   0.133   6.495  0.0270  0.3502 -0.3367
 2124SOL    HW118008   2.857   0.180   6.445  0.4681  0.6276  0.5229
 2124SOL    HW218009   2.713   0.168   6.452  0.4807 -0.2558 -1.6495
 2125SOL     OW18010   4.019   0.402   8.084 -0.5399  0.4085  0.3561
 2125SOL    HW118011   3.991   0.433   8.170  2.7607  0.4438  1.4067
 2125SOL    HW218012   3.931   0.392   8.045  0.0528 -2.7730 -0.1504
 2126SOL     OW18013   2.031   3.710   9.379 -0.7166  0.4644  0.4734
 2126SOL    HW118014   2.005   3.697   9.288  0.6645  0.3184  0.0872
 2126SOL    HW218015   2.045   3.805   9.375 -0.5550  0.5106  2.3157
 2127SOL     OW18016   1.785   1.484   7.532  0.5882  0.2173  0.4461
 2127SOL    HW118017   1.808   1.489   7.439  2.1534  2.7803  0.9604
 2127SOL    HW218018   1.805   1.394   7.560 -1.2365 -0.6696 -1.0961
 2128SOL     OW18019   3.694   3.449   9.130  0.5369  0.6496  0.3283
 2128SOL    HW118020   3.759   3.471   9.196 -0.4840  0.0933  1.5312
 2128SOL    HW218021   3.741   3.386   9.076  0.4792 -0.3137  1.3959
 2129SOL     OW18022   1.643   0.186  11.054  0.2026 -0.4368 -0.6519
 2129SOL    HW118023   1.659   0.235  11.135 -1.0557  0.0980 -0.7334
 2129SOL    HW218024   1.553   0.213  11.036  0.7106  0.5810 -1.6899
 2130SOL     OW18025   4.636   0.707   8.291  0.1115  0.3350 -0.2258
 2130SOL    HW118026   4.634   0.772   8.221 -1.2030  0.5951  0.0535
 2130SOL    HW218027   4.549   0.723   8.327  0.2059  1.9795 -0.7419
 2131SOL     OW18028   2.364   0.004   8.738  0.2810 -0.1524 -0.0151
 2131SOL    HW118029   2.435   0.062   8.712 -0.5859  1.0527  0.2942
 2131SOL    HW218030   2.289   0.047   8.697 -0.7097 -1.1662  0.7225
 2132SOL     OW18031   0.752   3.685   4.899 -0.4659 -0.3462  0.1275
 2132SOL    HW118032   0.791   3.763   4.938 -1.5342 -0.3329  1.1508
 2132SOL    HW218033   0.709   3.721   4.821 -0.9663 -0.5864  0.2938
 2133SOL     OW18034   0.919   1.373   9.913  0.2508 -0.5812  0.8542
 2133SOL    HW118035   0.946   1.413   9.830  0.1183 -3.8454 -0.7906
 2133SOL    HW218036   0.953   1.438   9.975  3.2875 -0.8509 -0.4895
 2134SOL     OW18037   2.101   4.490   8.450 -0.0147 -0.2368  0.3756
 2134SOL    HW118038   2.188   4.528   8.462 -0.2288  1.4568 -3.2623
 2134SOL    HW218039   2.077   4.518   8.361 -0.0474 -0.8068  0.2050
 2135SOL     OW18040   2.630   2.926  14.453 -0.2498  0.1039  0.1835
 2135SOL    HW118041   2.591   2.923  14.365 -2.0840  0.4791  1.0099
 2135SOL    HW218042   2.660   2.835  14.457  0.6850  0.3792 -0.3916
 2136SOL     OW18043   0.566   1.056   4.361 -0.6028 -0.5264  0.2162
 2136SOL    HW118044   0.589   1.054   4.268  0.0651 -3.3319  0.4298
 2136SOL    HW218045   0.483   1.009   4.359 -0.3870 -0.7809 -2.2156
 2137SOL     OW18046   0.824   2.324   8.003 -0.4939 -0.4987  0.6818
 2137SOL    HW118047   0.892   2.275   7.956 -1.4078 -2.3610  1.3068
 2137SOL    HW218048   0.860   2.323   8.092 -2.8456 -1.6808  1.5975
 2138SOL     OW18049   0.745   0.202   5.180 -0.6230 -0.1025 -0.1978
 2138SOL    HW118050   0.797   0.137   5.228 -0.1475 -0.2087 -0.8566
 2138SOL    HW218051   0.727   0.153   5.100 -0.8092 -1.2859  0.5696
 2139SOL     OW18052   0.465   1.871   8.579  0.2376 -0.2303 -0.4251
 2139SOL    HW118053   0.432   1.930   8.511 -1.4607  1.4522  1.8394
 2139SOL    HW218054   0.402   1.887   8.649  0.5547  2.1502 -0.6587
 2140SOL     OW18055   2.602   3.081   5.430  0.5982  0.6594 -0.1190
 2140SOL    HW118056   2.589   3.028   5.351  0.9199 -1.2319  1.0826
 2140SOL    HW218057   2.592   3.170   5.397 -0.2212  0.4227 -0.5113
 2141SOL     OW18058   3.087   3.432   9.915 -0.4134  0.3122  0.1351
 2141SOL    HW118059   3.060   3.520   9.940 -0.2909  0.6514 -0.9086
 2141SOL    HW218060   3.055   3.373   9.984 -1.2278  0.2138 -0.3242
 2142SOL     OW18061   3.097   3.137  11.152 -0.0654  0.6874 -0.2658
 2142SOL    HW118062   3.105   3.057  11.203  0.6408  0.0442 -1.3709
 2142SOL    HW218063   3.178   3.177  11.184 -0.2716  1.0225 -0.1630
 2143SOL     OW18064   0.081   4.009   3.423 -0.0164  0.0320  0.3057
 2143SOL    HW118065   0.106   4.100   3.404 -1.8775  0.8137  1.6041
 2143SOL    HW218066   0.166   3.965   3.423 -1.8512 -3.4675 -0.4455
 2144SOL     OW18067   0.297   1.805   3.491  0.5348  0.3170 -0.0579
 2144SOL    HW118068   0.301   1.828   3.399  0.0023  1.2953  0.1639
 2144SOL    HW218069   0.354   1.873   3.529 -0.2193  0.7100  0.3711
 2145SOL     OW18070   0.566   1.863   2.744 -0.2514  0.1513  0.4180
 2145SOL    HW118071   0.593   1.789   2.798  0.2123 -0.2495 -0.3594
 2145SOL    HW218072   0.617   1.932   2.786  1.7861 -0.4110 -1.1379
 2146SOL     OW18073   1.182   0.917  15.560 -0.7273 -0.1590 -0.5181
 2146SOL    HW118074   1.147   0.834  15.526  0.3692 -0.1322 -1.6982
 2146SOL    HW218075   1.196   0.897  15.652 -1.4714  0.3823 -0.2930
 2147SOL     OW18076   1.154   1.197   0.675  0.0367 -0.5488 -0.6817
 2147SOL    HW118077   1.139   1.268   0.613  2.7792 -1.0521 -1.9179
 2147SOL    HW218078   1.234   1.228   0.719 -0.8513 -2.0924  2.0277
 2148SOL     OW18079   3.095   0.971  12.308 -0.2675 -0.2440  0.2592
 2148SOL    HW118080   3.083   0.884  12.270  1.5796  0.5583 -2.1813
 2148SOL    HW218081   3.133   1.024  12.238  1.3823 -0.0666  1.2770
 2149SOL     OW18082   2.704   4.658   8.848 -0.4311  0.1867  0.0889
 2149SOL    HW118083   2.702   4.706   8.766  1.8951 -1.0264 -0.6773
 2149SOL    HW218084   2.797   4.636   8.861 -0.2820  1.3897  1.0448
 2150SOL     OW18085   1.081   1.141  13.585 -0.4886 -0.7175 -0.0242
 2150SOL    HW118086   1.055   1.063  13.633 -2.8555 -0.7626 -1.4111
 2150SOL    HW218087   1.161   1.096  13.555  0.5398 -0.7468  2.7451
 2151SOL     OW18088   4.533   4.525  17.655  0.3647  0.2878  0.2811
 2151SOL    HW118089   4.591   4.601  17.646  2.1411 -0.9181  1.5189
 2151SOL    HW218090   4.574   4.474  17.725 -0.6984 -1.3470 -0.2810
 2152SOL     OW18091   3.448   3.172  12.753  0.3907  0.1925  0.0532
 2152SOL    HW118092   3.399   3.174  12.835 -1.6174 -2.5605 -1.1062
 2152SOL    HW218093   3.383   3.129  12.699 -0.8566 -0.7246  2.2861
 2153SOL     OW18094   3.553   2.725   9.610  0.6369  0.2749 -0.2052
 2153SOL    HW118095   3.560   2.738   9.515  1.2511 -2.6550 -0.5618
 2153SOL    HW218096   3.574   2.818   9.625 -3.5214  1.1594  0.0280
 2154SOL     OW18097   1.637   1.755   4.132 -1.2814 -0.3166  0.3192
 2154SOL    HW118098   1.628   1.803   4.215 -0.2151  1.3986 -0.5558
 2154SOL    HW218099   1.732   1.762   4.128 -1.3134  0.0783  0.2581
 2155SOL     OW18100   1.188   2.557   9.630  0.1664  0.6863  0.0821
 2155SOL    HW118101   1.246   2.578   9.703 -0.8664  0.1596  1.0343
 2155SOL    HW218102   1.120   2.625   9.635  0.6592  1.1236  0.8587
 2156SOL     OW18103   0.835   3.633  13.974 -0.5251  0.6014  0.3466
 2156SOL    HW118104   0.882   3.696  14.029 -0.1874 -1.0011  1.8958
 2156SOL    HW218105   0.842   3.675  13.888 -0.9423  0.6733  0.3456
 2157SOL     OW18106   1.790   2.919   5.727 -0.3709  0.4230  0.3209
 2157SOL    HW118107   1.732   2.972   5.783 -0.0566  0.3341  0.7314
 2157SOL    HW218108   1.804   2.985   5.660 -0.4346  0.5894  0.4702
 2158SOL     OW18109   3.707   2.378   4.975  0.1453  0.2107  0.3810
 2158SOL    HW118110   3.649   2.452   4.956 -0.9499 -0.5501  0.8209
 2158SOL    HW218111   3.744   2.369   4.887 -1.5914  1.1654 -0.4389
 2159SOL     OW18112   2.453   2.004   0.282 -0.5357 -0.0271 -0.8594
 2159SOL    HW118113   2.445   1.981   0.189  0.3673  2.3619 -1.5235
 2159SOL    HW218114   2.542   2.038   0.276  0.0176 -1.4707 -1.0273
 2160SOL     OW18115   3.073   4.514  15.482  0.1705 -0.3465 -0.4322
 2160SOL    HW118116   3.077   4.421  15.502 -1.9472 -0.3984 -0.3150
 2160SOL    HW218117   3.167   4.529  15.495  0.6379 -2.0209 -2.0510
 2161SOL     OW18118   0.627   3.929   5.434  0.2506  0.2526 -0.4552
 2161SOL    HW118119   0.571   3.856   5.408 -0.8359  1.7024 -2.2129
 2161SOL    HW218120   0.668   3.900   5.516 -1.0068  3.6978  1.4224
 2162SOL     OW18121   1.947   0.185   2.935 -0.1819  0.4935 -0.6089
 2162SOL    HW118122   1.925   0.273   2.966  1.3111  0.8957 -0.6968
 2162SOL    HW218123   2.002   0.147   3.003  2.1037  4.7635 -0.0992
 2163SOL     OW18124   3.672   3.295  13.897  0.0067  0.0747 -0.4197
 2163SOL    HW118125   3.602   3.249  13.943 -0.4870  1.3907  0.1540
 2163SOL    HW218126   3.741   3.229  13.891 -0.8471 -0.8087 -0.5151
 2164SOL     OW18127   4.414   2.930   9.608 -0.4217 -0.5519  0.3060
 2164SOL    HW118128   4.346   2.883   9.561 -1.5906  2.3276 -0.9055
 2164SOL    HW218129   4.399   2.899   9.697  1.1374  0.3086  0.8731
 2165SOL     OW18130   3.273   0.801   3.865 -0.0571 -0.1910 -0.4072
 2165SOL    HW118131   3.303   0.833   3.950  0.5753  1.0919 -1.1013
 2165SOL    HW218132   3.260   0.885   3.821  2.9314 -0.0664 -1.0703
 2166SOL     OW18133   0.606   4.470  14.899  0.1059 -0.2707  0.2144
 2166SOL    HW118134   0.575   4.538  14.960 -3.1253 -0.6945 -0.9813
 2166SOL    HW218135   0.699   4.471  14.923  0.0196  1.8361  0.4628
 2167SOL     OW18136   3.462   4.100  16.761  0.0435  0.0830 -0.1146
 2167SOL    HW118137   3.450   4.036  16.690 -0.0993 -1.2881  1.1457
 2167SOL    HW218138   3.462   4.182  16.713 -0.7690  0.5189  0.6276
 2168SOL     OW18139   2.560   0.046   4.196  0.0874  0.0240 -0.2639
 2168SOL    HW118140   2.654   0.029   4.199  0.2198  0.8250  0.4860
 2168SOL    HW218141   2.544   0.009   4.283 -0.8473  1.0758  0.0149
 2169SOL     OW18142   3.996   1.346  11.012  0.5234  0.1877  0.3233
 2169SOL    HW118143   3.907   1.377  10.994  0.4579  0.1285  0.5458
 2169SOL    HW218144   3.985   1.293  11.091 -2.5472  0.9759  0.4126
 2170SOL     OW18145   0.150   1.869   6.300 -0.2432 -0.6257 -0.7856
 2170SOL    HW118146   0.149   1.933   6.229 -0.7889 -1.1980 -1.2983
 2170SOL    HW218147   0.189   1.803   6.242  1.5101 -1.0540  0.8971
 2171SOL     OW18148   3.989   2.692  16.226 -0.1824 -0.2531 -0.2569
 2171SOL    HW118149   3.946   2.668  16.308 -1.0797  1.0676 -0.3421
 2171SOL    HW218150   4.007   2.606  16.188 -1.3828 -0.5137 -0.2320
 2172SOL     OW18151   4.635   3.359   2.660 -0.1153  0.8131  0.0929
 2172SOL    HW118152   4.682   3.413   2.723  0.5115  1.0774 -0.6034
 2172SOL    HW218153   4.633   3.272   2.700 -1.5829  0.4133 -0.8343
 2173SOL     OW18154   2.008   4.578   6.528 -0.2435  0.2268  0.0430
 2173SOL    HW118155   1.932   4.542   6.574 -0.7755  1.7229  0.3155
 2173SOL    HW218156   2.015   4.661   6.574  2.8083  0.1253 -0.2447
 2174SOL     OW18157   0.994   1.182   6.805  0.0951  0.2661  0.1309
 2174SOL    HW118158   0.909   1.141   6.791 -0.7234  1.9117  0.2083
 2174SOL    HW218159   0.969   1.273   6.825 -1.3463  0.1300 -1.0056
 2175SOL     OW18160   4.482   3.894   1.518 -0.0734  0.1789  0.5107
 2175SOL    HW118161   4.487   3.989   1.525  1.8997  0.0686  0.5759
 2175SOL    HW218162   4.409   3.889   1.457 -0.3648 -1.0037  0.9406
 2176SOL     OW18163   3.470   2.880  15.701 -0.3938  0.0108  0.3185
 2176SOL    HW118164   3.478   2.816  15.631 -4.1144 -0.1039 -0.0119
 2176SOL    HW218165   3.555   2.863  15.742 -0.7065 -1.5949  0.2893
 2177SOL     OW18166   4.388   0.955  15.344 -0.0748 -0.3838 -0.3814
 2177SOL    HW118167   4.483   0.963  15.357 -0.4514  0.5554  1.7691
 2177SOL    HW218168   4.366   1.044  15.317  0.5228  0.3864  1.6390
 2178SOL     OW18169   2.359   4.390  13.952 -0.2509  0.3624  0.4540
 2178SOL    HW118170   2.298   4.332  13.905  0.5047 -0.7073  0.7882
 2178SOL    HW218171   2.439   4.381  13.901  1.3312  0.5904  2.9104
 2179SOL     OW18172   0.559   3.499   3.435  0.5142 -0.4042  0.1887
 2179SOL    HW118173   0.512   3.417   3.417 -1.6163  0.5336  1.3807
 2179SOL    HW218174   0.637   3.499   3.379 -0.6822  0.9937 -1.5100
 2180SOL     OW18175   3.880   2.017   7.335 -0.2234  0.7926  0.4215
 2180SOL    HW118176   3.839   1.931   7.328 -0.4910  1.1297 -2.2953
 2180SOL    HW218177   3.892   2.048   7.245  0.6530 -1.9329 -0.4237
 2181SOL     OW18178   2.790   1.329   3.810  0.7142 -0.2305 -0.0262
 2181SOL    HW118179   2.719   1.289   3.760 -0.4440 -1.9798  3.0025
 2181SOL    HW218180   2.742   1.398   3.855 -1.2450 -0.5242 -1.6585
 2182SOL     OW18181   3.874   3.036   3.847  0.6228 -0.3787 -0.7201
 2182SOL    HW118182   3.936   3.105   3.873 -0.0777  0.9158 -2.4908
 2182SOL    HW218183   3.786   3.074   3.849 -0.1123 -2.1891  1.7158
 2183SOL     OW18184   2.676   0.571   5.254  0.3464 -0.3961 -0.0311
 2183SOL    HW118185   2.761   0.591   5.294 -0.4122  1.1414  0.7950
 2183SOL    HW218186   2.672   0.480   5.225  0.9446 -1.5314  3.3564
 2184SOL     OW18187   4.210   1.546   4.783 -0.3737  0.4913 -0.5481
 2184SOL    HW118188   4.152   1.539   4.859  1.5724  3.9119  1.2352
 2184SOL    HW218189   4.161   1.608   4.730 -1.1903  1.4282  1.3201
 2185SOL     OW18190   1.003   2.697  10.133  0.3064 -0.1922  0.0854
 2185SOL    HW118191   0.955   2.730  10.058  2.0377 -0.9312 -1.3494
 2185SOL    HW218192   0.936   2.678  10.198 -0.2294 -0.0765 -0.4376
 2186SOL     OW18193   0.355   4.469  10.898  0.0243 -0.0986  0.3831
 2186SOL    HW118194   0.406   4.396  10.864 -0.9796 -1.0967  1.0114
 2186SOL    HW218195   0.429   4.526  10.919  0.2935  0.4774 -2.1176
 2187SOL     OW18196   2.467   3.827   9.803 -0.0990  0.3820 -0.2531
 2187SOL    HW118197   2.431   3.738   9.803  0.0829  0.3061  2.2270
 2187SOL    HW218198   2.491   3.842   9.712 -2.9519 -1.8286 -1.3731
 2188SOL     OW18199   4.542   2.540   4.449  0.6294 -0.5497 -0.3101
 2188SOL    HW118200   4.540   2.621   4.501  0.6285 -0.1708 -0.8924
 2188SOL    HW218201   4.608   2.488   4.495  1.3080  0.3364 -0.2720
 2189SOL     OW18202   1.771   0.757   9.183 -0.0131  0.1392 -0.2389
 2189SOL    HW118203   1.780   0.833   9.242  1.4939 -1.3620  1.4613
 2189SOL    HW218204   1.708   0.702   9.229  0.7531 -0.4696  0.0784
 2190SOL     OW18205   2.430   1.450  15.399  0.1283 -0.2250  0.3689
 2190SOL    HW118206   2.498   1.516  15.411 -2.1844  2.3807 -1.0312
 2190SOL    HW218207   2.364   1.508  15.361  1.0382  0.5142 -0.0838
 2191SOL     OW18208   3.792   0.065   7.327  0.0891 -0.5106  0.0772
 2191SOL    HW118209   3.703   0.098   7.314 -0.0766 -2.4127 -3.6118
 2191SOL    HW218210   3.800   0.006   7.252  0.2561 -0.9303  0.4257
 2192SOL     OW18211   4.325   0.676   6.542  0.4064 -0.4387 -0.1225
 2192SOL    HW118212   4.249   0.627   6.511 -0.2384  1.5518 -1.6796
 2192SOL    HW218213   4.394   0.610   6.534  2.0622  0.9504  2.8222
 2193SOL     OW18214   1.110   1.972  10.069 -0.4723 -0.2105 -0.0029
 2193SOL    HW118215   1.098   2.050  10.124 -2.4979 -1.1597  0.9171
 2193SOL    HW218216   1.196   1.982  10.029 -0.2814  0.2643  0.5247
 2194SOL     OW18217   1.579   0.020   8.319  0.4929 -0.0506  0.2563
 2194SOL    HW118218   1.605   0.018   8.227 -1.2924 -0.3672 -0.2466
 2194SOL    HW218219   1.547   0.109   8.333  1.2498  0.8480 -3.8584
 2195SOL     OW18220   3.619   1.502  13.426 -0.1730  0.1629 -0.0139
 2195SOL    HW118221   3.628   1.595  13.450  0.7734  0.0212  0.1681
 2195SOL    HW218222   3.535   1.495  13.381 -0.6169  1.1686  0.6691
 2196SOL     OW18223   4.647   0.184  11.529 -0.1933  0.3042  0.0851
 2196SOL    HW118224   4.619   0.275  11.532  0.7771  0.5718  1.1148
 2196SOL    HW218225   4.721   0.188  11.590  0.0219 -2.6024  0.0144
 2197SOL     OW18226   3.408   4.656   3.421  0.5424  0.3097 -0.4079
 2197SOL    HW118227   3.351   4.717   3.374  1.4821  0.6569 -1.0763
 2197SOL    HW218228   3.467   4.632   3.351 -0.8146  0.3140 -1.5490
 2198SOL     OW18229   0.123   0.799  10.725  0.0010  0.3569 -0.3540
 2198SOL    HW118230   0.096   0.837  10.808  1.1532 -0.4108  0.3711
 2198SOL    HW218231   0.156   0.713  10.752  0.8498  0.8229  0.0842
 2199SOL     OW18232   0.206   1.902   9.511 -0.2820 -0.0976 -0.2970
 2199SOL    HW118233   0.204   1.988   9.469 -0.9860 -0.3711 -0.8478
 2199SOL    HW218234   0.267   1.854   9.455  1.0697  0.0038  1.1138
 2200SOL     OW18235   4.299   4.578   4.533 -0.1235 -0.4917 -0.3665
 2200SOL    HW118236   4.218   4.607   4.576  1.2020 -0.3687  2.0292
 2200SOL    HW218237   4.370   4.618   4.582 -0.4679  0.4254 -0.6073
 2201SOL     OW18238   3.882   0.955  13.932  0.5839  0.0100  0.2764
 2201SOL    HW118239   3.790   0.980  13.932  0.7916  0.7267  1.4327
 2201SOL    HW218240   3.933   1.036  13.933 -1.4262  1.2906 -1.5942
 2202SOL     OW18241   4.564   1.070   8.355 -0.0846  0.2354  0.7352
 2202SOL    HW118242   4.582   1.028   8.270 -2.6902  0.0808  0.2644
 2202SOL    HW218243   4.642   1.125   8.363  2.0985 -3.1736  2.7811
 2203SOL     OW18244   3.341   0.532  17.373  0.6227 -0.3695 -0.4828
 2203SOL    HW118245   3.341   0.478  17.295 -1.1063 -1.0359  0.0004
 2203SOL    HW218246   3.414   0.491  17.420  1.1265  0.8417 -0.1780
 2204SOL     OW18247   2.477   2.275  12.107  0.3042 -0.1218  0.8590
 2204SOL    HW118248   2.537   2.283  12.033  0.1726 -2.5907  0.4925
 2204SOL    HW218249   2.527   2.246  12.183  0.2567  0.2836  1.0428
 2205SOL     OW18250   1.361   0.608   0.762 -0.3610 -0.1055  0.4436
 2205SOL    HW118251   1.315   0.538   0.716  0.1457  1.5377 -2.5380
 2205SOL    HW218252   1.378   0.673   0.694 -0.1795  0.1246  0.7078
 2206SOL     OW18253   1.026   3.306   4.441  0.0532  0.2244 -0.0499
 2206SOL    HW118254   1.025   3.253   4.361  3.6569  0.9609 -0.5546
 2206SOL    HW218255   1.046   3.238   4.505 -4.4494  0.3174  1.4907
 2207SOL     OW18256   0.731   1.273   4.922 -0.1464  0.1944 -0.4287
 2207SOL    HW118257   0.722   1.327   5.000 -1.5399  1.6594 -1.6149
 2207SOL    HW218258   0.700   1.195   4.968  1.0043  1.3750  2.3486
 2208SOL     OW18259   4.363   2.976   7.777  0.2575  0.0418 -0.1741
 2208SOL    HW118260   4.345   2.979   7.683  0.1446  1.2439 -0.1154
 2208SOL    HW218261   4.292   3.031   7.811  0.0396 -0.2833 -0.1088
 2209SOL     OW18262   3.162   0.361  10.712 -0.0549 -0.1968 -0.0520
 2209SOL    HW118263   3.212   0.435  10.746  0.8995 -0.0942 -1.6545
 2209SOL    HW218264   3.075   0.377  10.749 -0.0730  2.0345 -1.0647
 2210SOL     OW18265   1.887   2.729  10.122  0.1710  0.0360  0.3211
 2210SOL    HW118266   1.898   2.823  10.111 -0.4831 -0.1246 -1.7749
 2210SOL    HW218267   1.977   2.706  10.143  0.4033 -1.2836 -2.1033
 2211SOL     OW18268   1.635   2.743   1.916  0.0350  0.0831  0.5035
 2211SOL    HW118269   1.584   2.666   1.941 -0.5790  0.3109 -0.0372
 2211SOL    HW218270   1.649   2.788   1.999 -2.0316  1.7234 -0.0236
 2212SOL     OW18271   4.612   1.882   7.661  0.2910  0.7340 -0.2685
 2212SOL    HW118272   4.568   1.808   7.619 -3.0941  1.6009  1.7778
 2212SOL    HW218273   4.597   1.956   7.603 -2.2190  0.1382 -0.3901
 2213SOL     OW18274   4.649   3.155   1.813 -0.5301 -0.0496  0.2527
 2213SOL    HW118275   4.664   3.235   1.763  0.6085  0.3296  1.1924
 2213SOL    HW218276   4.681   3.087   1.754 -0.1059 -0.1937  0.6501
 2214SOL     OW18277   1.424   3.961   3.967 -0.3642  0.4973 -0.0551
 2214SOL    HW118278   1.502   4.011   3.942 -0.1216 -1.0636 -2.3284
 2214SOL    HW218279   1.456   3.906   4.039 -1.7812 -2.4299 -1.6849
 2215SOL     OW18280   4.325   2.556  14.505 -0.3953 -0.6287  0.2976
 2215SOL    HW118281   4.243   2.594  14.535 -0.5967  0.1162 -1.1788
 2215SOL    HW218282   4.333   2.600  14.420 -0.3391  1.0473  1.1744
 2216SOL     OW18283   0.321   0.958   4.283 -0.3567  1.1660 -0.7139
 2216SOL    HW118284   0.340   0.964   4.189  1.3579  1.9235 -0.3160
 2216SOL    HW218285   0.254   1.021   4.307 -1.4557 -0.3821  0.2876
 2217SOL     OW18286   2.800   4.664   3.536 -0.8037  0.0664 -0.0497
 2217SOL    HW118287   2.859   4.636   3.607  1.9145  1.6968 -1.6498
 2217SOL    HW218288   2.717   4.623   3.558 -0.4241 -0.3527  0.6036
 2218SOL     OW18289   2.729   3.001  14.725  0.2235  0.4801 -0.2217
 2218SOL    HW118290   2.695   2.982  14.637  0.2320  1.2326 -0.3906
 2218SOL    HW218291   2.823   3.007  14.708  0.0838 -0.9092 -1.4348
 2219SOL     OW18292   0.174   0.487   4.768  0.4721 -0.1177  0.8183
 2219SOL    HW118293   0.218   0.570   4.753 -2.1976  1.3793  1.4351
 2219SOL    HW218294   0.116   0.505   4.695  1.9961  0.6610 -0.1814
 2220SOL     OW18295   1.311   1.942   1.666 -0.0743 -0.1696  0.0575
 2220SOL    HW118296   1.308   2.002   1.591  2.1687  1.0513  0.9553
 2220SOL    HW218297   1.258   1.869   1.634 -0.4080 -0.4503  1.2784
 2221SOL     OW18298   4.267   2.220  14.332  0.0830  0.3131  0.0315
 2221SOL    HW118299   4.312   2.250  14.411 -0.1736 -0.3661  0.4353
 2221SOL    HW218300   4.208   2.292  14.310  2.2961  1.9919 -0.3124
 2222SOL     OW18301   1.864   1.141   1.726  0.1206 -0.0316  0.4408
 2222SOL    HW118302   1.958   1.145   1.714 -0.0632 -0.6825 -1.2126
 2222SOL    HW218303   1.844   1.047   1.720  1.8091 -0.3208 -0.5563
 2223SOL     OW18304   1.317   0.103   1.763  0.4874  0.4000  0.0660
 2223SOL    HW118305   1.363   0.180   1.794 -0.4188  0.4738  1.2154
 2223SOL    HW218306   1.390   0.052   1.727 -1.2222 -2.8251  1.1658
 2224SOL     OW18307   1.865   0.806   3.788  0.3270 -0.3374  0.4061
 2224SOL    HW118308   1.886   0.716   3.763 -2.1639 -1.1777  1.3025
 2224SOL    HW218309   1.875   0.805   3.883 -1.1040 -0.3419  0.5552
 2225SOL     OW18310   3.843   4.107  15.736  0.1423  0.2526  0.2387
 2225SOL    HW118311   3.871   4.030  15.786 -0.9100 -1.4125 -1.7272
 2225SOL    HW218312   3.755   4.124  15.769  0.7076  2.6359  0.5020
 2226SOL     OW18313   2.280   3.650   5.752 -0.0487 -0.0714  0.4759
 2226SOL    HW118314   2.307   3.570   5.797 -1.4583  0.3774  2.1098
 2226SOL    HW218315   2.188   3.653   5.778 -0.4482  0.9736 -1.0596
 2227SOL     OW18316   0.991   3.185   4.195  0.1616  0.2584 -0.3145
 2227SOL    HW118317   0.922   3.183   4.129  1.2362 -2.7191 -1.3836
 2227SOL    HW218318   1.037   3.106   4.164  0.1131  0.7058 -1.5301
 2228SOL     OW18319   0.936   2.376  12.934 -0.0591 -0.2873  0.1637
 2228SOL    HW118320   1.023   2.351  12.903  0.4625  1.1909  0.4088
 2228SOL    HW218321   0.896   2.289  12.936 -1.8869  0.5978  3.4454
 2229SOL     OW18322   0.914   2.468   3.662  0.4195  0.4145  0.5299
 2229SOL    HW118323   1.004   2.491   3.684  1.3133 -1.4426 -1.1518
 2229SOL    HW218324   0.876   2.458   3.749 -0.0896  1.6362  0.4411
 2230SOL     OW18325   0.148   0.073   3.485  0.3478 -0.2572  0.7582
 2230SOL    HW118326   0.154   0.163   3.452  0.1989 -0.3306  0.5271
 2230SOL    HW218327   0.054   0.066   3.501  0.1722 -2.1650 -1.0292
 2231SOL     OW18328   1.766   0.445  17.128  0.2034  0.0201  0.4484
 2231SOL    HW118329   1.706   0.516  17.150  1.7039  0.6613  2.5062
 2231SOL    HW218330   1.740   0.383  17.196 -0.5400  0.1891  0.3091
 2232SOL     OW18331   3.664   2.464   5.901 -0.5319  0.5049 -0.3494
 2232SOL    HW118332   3.606   2.470   5.825  0.3031 -1.3245 -1.1400
 2232SOL    HW218333   3.600   2.489   5.968 -0.6358  1.6084 -0.8715
 2233SOL     OW18334   4.349   3.516   4.977 -0.4428 -0.6140 -0.1480
 2233SOL    HW118335   4.393   3.439   5.013 -2.0191 -0.8193  1.3615
 2233SOL    HW218336   4.292   3.545   5.048 -0.5961  1.1610 -0.9938
 2234SOL     OW18337   0.637   3.790   2.264 -0.6974 -0.1462 -0.8968
 2234SOL    HW118338   0.602   3.783   2.175  0.1732 -2.2070 -1.0654
 2234SOL    HW218339   0.699   3.862   2.251 -0.7189 -0.2027 -1.3143
 2235SOL     OW18340   3.292   0.073  14.926 -0.4066  0.7310 -0.5726
 2235SOL    HW118341   3.367   0.039  14.975  1.3134  1.3448 -2.7882
 2235SOL    HW218342   3.320   0.043  14.840  0.0903 -0.0384 -0.1464
 2236SOL     OW18343   2.901   2.574  13.203 -0.6879  0.7993  0.5985
 2236SOL    HW118344   2.957   2.594  13.278  1.4968  1.7871 -1.3258
 2236SOL    HW218345   2.858   2.489  13.219 -0.0322  0.2426 -0.5802
 2237SOL     OW18346   1.262   0.225   3.217  0.0635  0.4730  0.1348
 2237SOL    HW118347   1.183   0.193   3.173  0.4010  1.0718 -0.9110
 2237SOL    HW218348   1.236   0.210   3.308 -1.0390  0.6753 -0.1406
 2238SOL     OW18349   1.220   3.126   1.636  0.4254 -0.3848 -0.1195
 2238SOL    HW118350   1.242   3.035   1.655 -0.3653 -0.4058  0.6673
 2238SOL    HW218351   1.140   3.136   1.688 -0.6816 -0.3390 -1.8513
 2239SOL     OW18352   0.614   0.909   8.409  0.1415 -0.2627 -0.0422
 2239SOL    HW118353   0.588   1.001   8.410 -0.3253 -0.4464  3.8817
 2239SOL    HW218354   0.609   0.882   8.318  1.2428 -2.8406  0.6608
 2240SOL     OW18355   2.229   1.751   7.328  0.0751 -0.2145 -0.1381
 2240SOL    HW118356   2.267   1.839   7.336  1.3676 -0.7263 -0.5373
 2240SOL    HW218357   2.219   1.733   7.422  1.5587 -0.1321  0.0358
 2241SOL     OW18358   2.336   2.195   0.921  0.3579 -0.5690  0.4391
 2241SOL    HW118359   2.423   2.229   0.899 -1.4348  2.5195 -1.9525
 2241SOL    HW218360   2.284   2.273   0.943  3.0678  0.5989  2.7799
 2242SOL     OW18361   4.084   1.742   4.604  0.5226 -0.0394 -0.4453
 2242SOL    HW118362   4.082   1.679   4.532  1.7149 -1.1050  0.4817
 2242SOL    HW218363   4.153   1.802   4.575  0.7423  0.4130  1.0180
 2243SOL     OW18364   3.547   0.803  15.911 -0.5057  0.0555 -0.2675
 2243SOL    HW118365   3.506   0.805  15.825  2.7229  1.8484 -1.7487
 2243SOL    HW218366   3.629   0.759  15.889 -1.7859 -1.8663 -1.2038
 2244SOL     OW18367   0.972   0.611   3.582 -0.3311 -0.1861 -0.0319
 2244SOL    HW118368   1.029   0.653   3.646 -1.8269  1.5733  0.1305
 2244SOL    HW218369   1.035   0.613   3.510 -0.3706 -1.4722 -0.0997
 2245SOL     OW18370   0.096   1.948   8.594 -0.6593 -0.0837  0.0731
 2245SOL    HW118371   0.012   1.993   8.592  0.0425  1.2255  0.9556
 2245SOL    HW218372   0.157   2.011   8.557 -0.2060 -0.0708  0.8503
 2246SOL     OW18373   1.364   4.116   7.743 -0.0984  0.2587 -0.0367
 2246SOL    HW118374   1.275   4.081   7.756 -0.2136  0.1564 -1.1352
 2246SOL    HW218375   1.389   4.141   7.832 -1.6466 -1.3953  0.8732
 2247SOL     OW18376   0.239   3.767   5.690 -0.3471 -0.0452  0.7554
 2247SOL    HW118377   0.248   3.772   5.595 -1.8797 -0.3678  0.5884
 2247SOL    HW218378   0.146   3.750   5.704  0.0462 -2.6640  0.2215
 2248SOL     OW18379   4.251   4.613  15.090 -0.8013 -0.2268  0.0582
 2248SOL    HW118380   4.292   4.605  15.004 -1.0093 -1.3598  0.0595
 2248SOL    HW218381   4.252   4.520  15.114 -0.6197 -0.0847  0.5977
 2249SOL     OW18382   4.235   2.766   7.029  0.2037  0.0214  0.1685
 2249SOL    HW118383   4.251   2.743   7.121  1.0374  2.1456  0.5656
 2249SOL    HW218384   4.141   2.752   7.033  0.2950 -0.0505  1.9669
 2250SOL     OW18385   1.224   0.391   7.916 -0.3043  0.2414  0.3422
 2250SOL    HW118386   1.274   0.318   7.950 -0.1602 -0.0760 -0.5561
 2250SOL    HW218387   1.141   0.369   7.959  0.7663 -1.6428  1.4536
 2251SOL     OW18388   3.814   0.014   9.239 -0.3676 -0.0323 -0.1092
 2251SOL    HW118389   3.773   4.665   9.246  1.5783 -0.8668  0.9663
 2251SOL    HW218390   3.899   4.726   9.275  0.3630 -0.7183 -2.3630
 2252SOL     OW18391   0.265   2.695   1.222  0.5133 -0.0550  0.4175
 2252SOL    HW118392   0.199   2.630   1.196  0.9351 -0.1565 -0.3805
 2252SOL    HW218393   0.339   2.635   1.228  0.6253  0.1251  0.8355
 2253SOL     OW18394   2.458   3.900   2.146 -0.2670  0.0941  0.2504
 2253SOL    HW118395   2.503   3.817   2.160 -0.0559  0.2490  0.4961
 2253SOL    HW218396   2.367   3.870   2.139 -0.0163 -0.3230 -1.0888
 2254SOL     OW18397   3.615   1.348  10.585 -0.1536 -0.1825 -0.1841
 2254SOL    HW118398   3.648   1.269  10.629 -1.7586 -0.5947  0.2823
 2254SOL    HW218399   3.631   1.412  10.654  0.7507  0.7237 -1.2381
 2255SOL     OW18400   4.278   2.467   3.339 -0.2390  0.1219  0.5939
 2255SOL    HW118401   4.208   2.531   3.344 -1.0062 -0.5251 -2.1231
 2255SOL    HW218402   4.339   2.483   3.267 -2.8220  0.0162 -1.6048
 2256SOL     OW18403   1.263   3.914  16.646  0.4664  0.0607 -0.2749
 2256SOL    HW118404   1.241   3.956  16.563 -0.0456 -1.0954 -0.7327
 2256SOL    HW218405   1.350   3.878  16.630  0.4750 -0.2007  0.3865
 2257SOL     OW18406   4.410   3.533   3.574 -0.3291  0.4406  0.4167
 2257SOL    HW118407   4.384   3.601   3.512 -0.8743 -1.1523 -1.1025
 2257SOL    HW218408   4.390   3.448   3.536 -3.4870  0.9846  0.8566
 2258SOL     OW18409   1.443   1.702   7.558 -0.2261  0.1932 -0.6841
 2258SOL    HW118410   1.527   1.655   7.560  0.6750  1.7954  0.1821
 2258SOL    HW218411   1.470   1.794   7.562 -1.6587  0.6554 -1.7991
 2259SOL     OW18412   3.658   0.811   9.241 -0.2673  0.4669  0.2540
 2259SOL    HW118413   3.688   0.781   9.327 -1.8242  2.4837  1.4927
 2259SOL    HW218414   3.712   0.765   9.177 -1.6557  0.5790 -1.0017
 2260SOL     OW18415   4.374   1.883  14.485  0.4504  0.2756 -0.3796
 2260SOL    HW118416   4.318   1.849  14.415  2.0827 -0.6579 -1.2330
 2260SOL    HW218417   4.421   1.802  14.503  1.7795  0.7207 -1.8136
 2261SOL     OW18418   4.011   3.302  11.887  0.3623 -0.5310  0.0484
 2261SOL    HW118419   3.965   3.220  11.872  2.6308 -1.7640 -0.2771
 2261SOL    HW218420   3.949   3.351  11.941 -0.5061 -0.6433 -0.8621
 2262SOL     OW18421   2.437   0.880  10.368  0.2878  0.2574 -0.2600
 2262SOL    HW118422   2.489   0.914  10.296  2.1812  0.3437  1.1436
 2262SOL    HW218423   2.352   0.908  10.333 -0.3670  0.6681  1.6197
 2263SOL     OW18424   3.895   0.164  10.071  0.0444  0.4653  0.3177
 2263SOL    HW118425   3.821   0.212  10.107 -0.4474  0.1359 -0.2408
 2263SOL    HW218426   3.851   0.100  10.013 -1.1670 -0.1374  1.8952
 2264SOL     OW18427   0.260   3.672   7.208 -0.5350  0.6369  0.4348
 2264SOL    HW118428   0.228   3.587   7.239  1.0302 -0.2644 -0.4200
 2264SOL    HW218429   0.354   3.658   7.217 -0.7050  0.2056  1.5115
 2265SOL     OW18430   2.878   0.696   2.488 -0.1206 -0.1794  0.3246
 2265SOL    HW118431   2.891   0.632   2.418 -2.1746  0.4326 -0.6115
 2265SOL    HW218432   2.966   0.735   2.482 -1.2722  2.5793  1.3196
 2266SOL     OW18433   4.564   4.141   8.872 -0.0961 -0.2987  0.3607
 2266SOL    HW118434   4.635   4.126   8.811 -0.5830 -0.1663 -0.2378
 2266SOL    HW218435   4.614   4.182   8.943  1.0616  2.0017 -1.8213
 2267SOL     OW18436   3.288   2.880  11.924 -0.4890 -0.4556 -0.3148
 2267SOL    HW118437   3.321   2.876  11.835  0.4942  1.4343 -0.0459
 2267SOL    HW218438   3.234   2.959  11.919  0.3103  0.0159 -1.6376
 2268SOL     OW18439   2.515   3.253   6.358 -0.1383  0.3302  0.2971
 2268SOL    HW118440   2.536   3.181   6.300 -1.1238 -0.7818  1.3081
 2268SOL    HW218441   2.599   3.299   6.362 -0.6509  1.1012  2.3761
 2269SOL     OW18442   1.123   4.073   6.699  0.8698  0.1426 -0.2622
 2269SOL    HW118443   1.192   4.087   6.765  0.1995 -0.7111  0.6210
 2269SOL    HW218444   1.162   4.108   6.620 -1.5595 -1.9360 -2.3748
 2270SOL     OW18445   1.539   4.353   1.892  0.4004  0.0351 -0.1223
 2270SOL    HW118446   1.600   4.294   1.850 -0.1059 -0.6387  0.0833
 2270SOL    HW218447   1.572   4.441   1.874  0.4958  0.5864  2.6139
 2271SOL     OW18448   2.494   1.327   6.190  0.0921  0.1310 -0.3522
 2271SOL    HW118449   2.576   1.281   6.173  0.1415  0.4478 -0.9629
 2271SOL    HW218450   2.430   1.260   6.212 -0.1806  0.5919  0.2388
 2272SOL     OW18451   3.150   3.137   8.214  0.2826 -0.1926  0.4313
 2272SOL    HW118452   3.231   3.104   8.177  0.2786 -0.1871  0.4178
 2272SOL    HW218453   3.175   3.219   8.256 -2.5490  0.3651  1.0351
 2273SOL     OW18454   1.232   3.839   7.549 -0.1735 -0.3061 -0.5741
 2273SOL    HW118455   1.198   3.916   7.595 -0.2708  0.0037 -1.1699
 2273SOL    HW218456   1.296   3.881   7.492  0.1792  0.2200  0.2162
 2274SOL     OW18457   2.376   1.656   4.505 -0.1743 -0.1510 -0.3537
 2274SOL    HW118458   2.401   1.568   4.534 -1.9405 -0.9805 -1.3538
 2274SOL    HW218459   2.411   1.711   4.575 -0.5551 -1.5066  0.9128
 2275SOL     OW18460   3.708   3.584  13.445  0.4886  0.0072  0.6951
 2275SOL    HW118461   3.792   3.571  13.488  1.1961 -2.6992 -1.5873
 2275SOL    HW218462   3.727   3.602  13.353  0.7600 -1.9722  0.3722
 2276SOL     OW18463   3.704   2.930   4.279 -0.1045 -0.4132 -0.4025
 2276SOL    HW118464   3.609   2.926   4.290 -0.1315 -0.1590 -0.5477
 2276SOL    HW218465   3.708   3.025   4.270 -0.5103 -0.1569  2.0616
 2277SOL     OW18466   2.990   1.508  14.652 -0.0953  0.0784  0.0331
 2277SOL    HW118467   2.928   1.439  14.674  1.8582 -0.6310  3.3052
 2277SOL    HW218468   3.004   1.539  14.741  2.0356 -1.0287  0.0818
 2278SOL     OW18469   4.405   3.317   7.637  0.0859 -0.1991  0.4312
 2278SOL    HW118470   4.467   3.344   7.705  1.2357  0.5864 -0.9394
 2278SOL    HW218471   4.352   3.274   7.704  1.7769 -1.0065  1.2399
 2279SOL     OW18472   0.645   3.545   8.143 -1.0151 -0.6602 -0.2341
 2279SOL    HW118473   0.643   3.640   8.131  1.0620 -0.8466 -2.0939
 2279SOL    HW218474   0.555   3.522   8.121 -1.3827  1.1911 -0.6939
 2280SOL     OW18475   1.314   3.094   4.667 -0.0029 -0.3236  1.0334
 2280SOL    HW118476   1.239   3.071   4.613 -1.4515  2.2119  1.9783
 2280SOL    HW218477   1.291   3.039   4.742 -0.8221  0.8775  1.6628
 2281SOL     OW18478   2.010   1.686   9.601 -0.3101 -0.8807  0.0495
 2281SOL    HW118479   2.085   1.663   9.656  0.1481 -4.5449 -2.1822
 2281SOL    HW218480   1.972   1.600   9.586  1.4123 -1.3968 -1.3009
 2282SOL     OW18481   0.706   1.169   4.625  0.0715 -0.3830 -0.0017
 2282SOL    HW118482   0.660   1.173   4.541  1.1927  1.8876 -0.5264
 2282SOL    HW218483   0.794   1.147   4.596  1.1986  0.6236  2.6324
 2283SOL     OW18484   3.900   4.654   2.406 -0.0259 -0.1223 -0.6364
 2283SOL    HW118485   3.982   4.647   2.357 -0.3595 -2.7896 -0.8370
 2283SOL    HW218486   3.854   4.716   2.350 -0.3567  0.2077 -0.0027
 2284SOL     OW18487   2.127   0.491   2.698  0.5459  0.0064  0.3083
 2284SOL    HW118488   2.163   0.448   2.776  1.0955  2.3734  1.3956
 2284SOL    HW218489   2.033   0.481   2.714  0.6702 -0.4010  0.8073
 2285SOL     OW18490   4.712   2.128   9.673 -0.1451  0.7979  0.5594
 2285SOL    HW118491   4.684   2.041   9.642 -0.0368  1.4146 -1.2913
 2285SOL    HW218492   4.623   2.161   9.688 -0.5732  0.7019 -1.7665
 2286SOL     OW18493   1.356   4.626   8.890  0.4153 -0.2847 -0.4953
 2286SOL    HW118494   1.327   4.630   8.799 -1.3524 -0.3610  0.0693
 2286SOL    HW218495   1.287   4.579   8.937 -0.1880  0.6527 -0.4450
 2287SOL     OW18496   0.326   1.698   2.769 -0.5447  0.1678  0.4562
 2287SOL    HW118497   0.344   1.708   2.863  1.5351 -0.2974  0.1076
 2287SOL    HW218498   0.414   1.724   2.742 -0.5469 -0.6797 -0.3684
 2288SOL     OW18499   4.710   4.653   1.714  0.4323 -0.2759 -0.1582
 2288SOL    HW118500   4.687   4.709   1.641 -0.7609  0.7808  1.0279
 2288SOL    HW218501   4.718   4.709   1.791 -0.3574  0.8153 -0.8833
 2289SOL     OW18502   4.232   0.810  15.525  0.2025  0.5157  0.2547
 2289SOL    HW118503   4.285   0.844  15.453 -3.0736  0.0014 -2.3950
 2289SOL    HW218504   4.183   0.890  15.545  0.1956 -0.1149  2.7386
 2290SOL     OW18505   2.507   1.851   4.178 -0.2980  0.3271  0.3538
 2290SOL    HW118506   2.504   1.947   4.187 -0.8061  0.2368  1.0881
 2290SOL    HW218507   2.431   1.843   4.121 -0.6558 -1.0525  1.0517
 2291SOL     OW18508   0.225   1.645   3.917  0.3202 -0.7216 -0.0353
 2291SOL    HW118509   0.284   1.603   3.855  0.4126 -0.0748 -0.3881
 2291SOL    HW218510   0.136   1.619   3.894 -0.0905  0.0734  0.6464
 2292SOL     OW18511   3.439   1.020   6.496  0.3426 -0.3933  0.2361
 2292SOL    HW118512   3.501   0.949   6.480  0.2578 -0.1307 -1.3364
 2292SOL    HW218513   3.381   0.982   6.561  2.0950  0.5399  2.3374
 2293SOL     OW18514   3.197   4.284   9.474  0.2680 -0.4686  0.1989
 2293SOL    HW118515   3.104   4.260   9.482 -0.2288  1.8350  1.2858
 2293SOL    HW218516   3.235   4.295   9.561 -1.7646  0.7808  0.9492
 2294SOL     OW18517   3.970   1.461  17.669  0.1660  0.4421 -0.2368
 2294SOL    HW118518   3.988   1.408  17.591  1.7596  0.3144  0.2251
 2294SOL    HW218519   3.989   1.393  17.733  1.5399  0.3627 -0.7184
 2295SOL     OW18520   4.264   2.670   8.075 -0.7715 -0.2404 -0.1945
 2295SOL    HW118521   4.306   2.588   8.048 -0.1231 -0.0744  0.3142
 2295SOL    HW218522   4.266   2.651   8.169 -3.3260 -0.5942 -0.2027
 2296SOL     OW18523   2.524   1.816  11.862  0.1864 -0.0240  0.0947
 2296SOL    HW118524   2.588   1.745  11.871 -0.3325 -0.4419  0.4770
 2296SOL    HW218525   2.482   1.824  11.948  1.7034  3.4020  0.5123
 2297SOL     OW18526   4.554   1.783  10.747  0.3989  0.3644  0.3848
 2297SOL    HW118527   4.612   1.711  10.772 -2.0965 -1.5204  0.7452
 2297SOL    HW218528   4.535   1.817  10.835  3.0497  1.9198  0.3578
 2298SOL     OW18529   2.259   2.113   9.485  0.4997  0.0687  0.3884
 2298SOL    HW118530   2.350   2.129   9.461  1.1193 -2.6937  0.9113
 2298SOL    HW218531   2.260   2.020   9.507  0.3975  0.0530  0.3293
 2299SOL     OW18532   4.118   4.601   0.572 -0.3555 -0.1436  0.4142
 2299SOL    HW118533   4.097   4.599   0.665  1.4981  1.4119  0.8676
 2299SOL    HW218534   4.162   4.686   0.563  0.6796 -0.9755 -2.3202
 2300SOL     OW18535   2.973   4.038   0.192 -0.0112 -0.0580 -0.3680
 2300SOL    HW118536   2.897   4.076   0.237  0.1712  0.5173 -0.5539
 2300SOL    HW218537   3.032   4.031   0.267 -1.9905  2.4719  1.4556
 2301SOL     OW18538   1.308   3.430   3.581 -0.2319 -0.4828  0.1833
 2301SOL    HW118539   1.214   3.433   3.561 -0.6175  0.3391  2.0514
 2301SOL    HW218540   1.310   3.478   3.664 -0.4639  0.5796 -0.4295
 2302SOL     OW18541   2.504   0.920  10.831  0.2896 -0.0765  0.2770
 2302SOL    HW118542   2.441   0.876  10.774 -0.0301 -1.3058  1.6052
 2302SOL    HW218543   2.454   0.963  10.900  2.4192  3.3386 -0.3197
 2303SOL     OW18544   4.603   2.635   0.725 -0.0256 -0.0189 -0.0232
 2303SOL    HW118545   4.517   2.653   0.763  0.8465  0.6624  1.6319
 2303SOL    HW218546   4.599   2.678   0.640 -0.5902  1.3567  0.6953
 2304SOL     OW18547   3.291   3.747   3.034 -0.4781 -0.5930 -0.0310
 2304SOL    HW118548   3.272   3.708   3.119 -0.8484 -0.1120  0.1049
 2304SOL    HW218549   3.387   3.747   3.033 -0.4462  0.7830  2.5460
 2305SOL     OW18550   3.646   2.266   4.058 -0.7623  0.6319 -0.8504
 2305SOL    HW118551   3.664   2.184   4.013 -1.2590  0.3652 -0.5559
 2305SOL    HW218552   3.588   2.241   4.130  1.9115  0.0150  1.1098
 2306SOL     OW18553   1.496   0.076   2.752  0.0614 -0.2378 -0.1652
 2306SOL    HW118554   1.554   0.038   2.818  0.5900  0.2912 -0.3327
 2306SOL    HW218555   1.470   4.731   2.710  2.0847 -0.7592 -0.4110
 2307SOL     OW18556   1.646   1.523   6.759  0.4311  0.4824  0.3504
 2307SOL    HW118557   1.582   1.479   6.703 -0.4763  3.0441 -0.6181
 2307SOL    HW218558   1.728   1.503   6.715 -1.3539  0.6961 -3.0911
 2308SOL     OW18559   3.000   1.099  14.548  0.7289 -0.3653  0.4319
 2308SOL    HW118560   2.911   1.133  14.534  0.8360  0.3634  1.5145
 2308SOL    HW218561   3.044   1.119  14.465  1.6394  1.5130  1.3733
 2309SOL     OW18562   2.859   4.448   0.282 -0.0278 -0.5290  0.3722
 2309SOL    HW118563   2.918   4.461   0.357 -1.1878 -0.7473  1.3184
 2309SOL    HW218564   2.789   4.512   0.288  1.9736  1.5789  1.1184
 2310SOL     OW18565   2.082   2.041   3.181 -0.1922  0.3597 -0.1554
 2310SOL    HW118566   2.108   1.975   3.245  0.1483  0.6076 -0.0372
 2310SOL    HW218567   2.047   1.978   3.117  0.7049 -1.1968  0.8678
 2311SOL     OW18568   0.861   0.980   8.554 -0.6500 -0.1161 -0.7701
 2311SOL    HW118569   0.851   0.926   8.632  2.7591 -0.2338 -0.4194
 2311SOL    HW218570   0.778   0.948   8.518 -1.5303  0.1061  1.0768
 2312SOL     OW18571   2.072   1.665   7.955 -0.5298 -0.5671 -0.4073
 2312SOL    HW118572   2.057   1.758   7.972 -1.8317 -0.5957 -1.3892
 2312SOL    HW218573   2.167   1.657   7.960 -0.5778  0.3044  2.2238
 2313SOL     OW18574   2.608   1.458   8.510  0.3411  0.1290 -0.2971
 2313SOL    HW118575   2.568   1.523   8.452  4.5156  3.4964  0.5157
 2313SOL    HW218576   2.613   1.504   8.594  1.0756  0.4205 -0.4921
 2314SOL     OW18577   0.892   1.613   7.283 -0.0123 -0.3613 -0.1967
 2314SOL    HW118578   0.986   1.626   7.297  0.1784 -0.2356 -1.6289
 2314SOL    HW218579   0.865   1.615   7.375 -0.7482 -4.0666 -0.3534
 2315SOL     OW18580   0.757   2.139   5.359  0.5138  0.0224  0.0858
 2315SOL    HW118581   0.737   2.087   5.281  2.5312  1.4493 -1.4150
 2315SOL    HW218582   0.686   2.203   5.352  1.5881  0.9184 -3.0121
 2316SOL     OW18583   2.917   2.511  16.387 -0.5108 -0.0544 -0.1397
 2316SOL    HW118584   2.947   2.602  16.392 -1.4883  0.2975 -0.8135
 2316SOL    HW218585   2.998   2.461  16.399  0.5725  2.1348  1.7581
 2317SOL     OW18586   1.746   0.272   9.592 -0.1071  0.4562 -0.4505
 2317SOL    HW118587   1.828   0.257   9.638 -0.2894  0.5757 -0.0808
 2317SOL    HW218588   1.688   0.282   9.668  2.9636  1.7300  1.7333
 2318SOL     OW18589   2.205   1.416   3.269  0.4368  0.2655 -0.6670
 2318SOL    HW118590   2.242   1.474   3.202  3.6454 -2.1938 -1.0575
 2318SOL    HW218591   2.118   1.388   3.241 -0.1892  1.4889  0.1029
 2319SOL     OW18592   3.092   4.637   4.966  0.6620 -0.0399 -0.1193
 2319SOL    HW118593   3.092   4.575   4.892 -1.6115  1.2013 -1.1622
 2319SOL    HW218594   3.000   4.630   4.991  0.0741  0.8673 -1.9662
 2320SOL     OW18595   3.872   1.630  17.390 -0.0995 -0.3389 -0.3388
 2320SOL    HW118596   3.806   1.563  17.404  2.4127 -2.5394  1.0220
 2320SOL    HW218597   3.837   1.698  17.448 -0.0343 -2.1851  1.8463
 2321SOL     OW18598   0.536   2.057  11.421  0.3061  0.0702  0.2141
 2321SOL    HW118599   0.576   2.091  11.341  0.7318 -0.8794  0.0269
 2321SOL    HW218600   0.491   2.139  11.439 -2.4448 -1.3773 -0.0766
 2322SOL     OW18601   1.669   2.318   6.339  0.4146 -0.2481 -0.3596
 2322SOL    HW118602   1.676   2.386   6.406 -1.9966 -0.6858  0.3291
 2322SOL    HW218603   1.608   2.265   6.391  1.0642 -0.2453  0.3944
 2323SOL     OW18604   3.977   0.753   3.988  0.0487 -0.1279 -0.4254
 2323SOL    HW118605   3.919   0.783   3.919  1.6364  3.7471 -0.0972
 2323SOL    HW218606   3.941   0.805   4.060 -0.7954 -0.0961 -0.8757
 2324SOL     OW18607   1.315   4.049   3.203 -0.3271 -0.2256 -0.0136
 2324SOL    HW118608   1.376   3.975   3.194  1.4780  1.5637 -2.3505
 2324SOL    HW218609   1.322   4.113   3.133 -2.4265 -0.8736 -0.7967
 2325SOL     OW18610   2.782   1.132  16.433 -0.1809 -0.6282  0.1258
 2325SOL    HW118611   2.869   1.093  16.446  0.6757  0.8956 -0.9946
 2325SOL    HW218612   2.736   1.101  16.510 -0.3617 -0.7163 -0.0173
 2326SOL     OW18613   2.185   2.598   2.035  1.3052  0.0070  0.0757
 2326SOL    HW118614   2.091   2.605   2.016  0.9548 -1.2193  1.3807
 2326SOL    HW218615   2.212   2.683   2.070  1.2864  0.9136 -2.0856
 2327SOL     OW18616   3.413   3.086   3.639 -0.0489  0.5416 -0.5774
 2327SOL    HW118617   3.460   3.059   3.560 -2.5820 -0.2165 -1.8321
 2327SOL    HW218618   3.322   3.096   3.610  0.4162  1.4546 -1.6814
 2328SOL     OW18619   2.975   1.909   4.571 -0.1530  0.0993 -0.0625
 2328SOL    HW118620   3.029   1.938   4.498 -2.6672  0.2513 -1.8732
 2328SOL    HW218621   2.952   1.822   4.538  0.9493 -0.1878 -0.0790
 2329SOL     OW18622   2.260   1.489   8.840  0.4962 -0.2838 -0.5190
 2329SOL    HW118623   2.227   1.525   8.758 -1.3290 -0.2470  0.2333
 2329SOL    HW218624   2.219   1.544   8.907  1.2686  1.0613 -1.1392
 2330SOL     OW18625   2.474   2.102   5.454 -0.2327  0.2744  0.3689
 2330SOL    HW118626   2.390   2.148   5.460 -0.9110 -0.8866 -0.2157
 2330SOL    HW218627   2.456   2.021   5.501 -0.9675  0.2382  0.0266
 2331SOL     OW18628   0.632   4.530   4.328 -0.3804 -0.0135 -0.0341
 2331SOL    HW118629   0.722   4.501   4.338 -0.3279 -0.1684 -0.9765
 2331SOL    HW218630   0.639   4.563   4.238  1.5203 -0.4438 -0.0428
 2332SOL     OW18631   2.894   1.561   8.118 -0.5101 -0.4983  0.6525
 2332SOL    HW118632   2.810   1.598   8.147 -0.2945 -0.9553  1.8536
 2332SOL    HW218633   2.952   1.638   8.120 -1.7185  0.4420 -0.5008
 2333SOL     OW18634   0.840   2.042   7.295 -0.2163  0.1731 -0.3031
 2333SOL    HW118635   0.785   2.029   7.217 -1.5525  2.4040  0.2675
 2333SOL    HW218636   0.764   2.048   7.352  1.3360 -0.5313  1.8240
 2334SOL     OW18637   0.430   3.503  16.544 -0.3749  0.1259  0.1975
 2334SOL    HW118638   0.424   3.456  16.461  1.0052  0.4312 -0.0707
 2334SOL    HW218639   0.341   3.490  16.578 -1.4745  1.3866 -2.1752
 2335SOL     OW18640   4.240   4.109  17.216 -0.2276 -0.0665  0.0595
 2335SOL    HW118641   4.202   4.182  17.265 -1.1745 -0.5123 -0.0013
 2335SOL    HW218642   4.334   4.105  17.233 -0.3871 -0.3725  0.9047
 2336SOL     OW18643   3.062   1.869  12.342  0.1737  0.1290  0.5237
 2336SOL    HW118644   2.991   1.853  12.279 -0.3990 -0.5700  1.3469
 2336SOL    HW218645   3.032   1.951  12.382  1.0382  0.9222 -0.4743
 2337SOL     OW18646   2.508   0.484  14.307 -0.0172  0.0871  0.0019
 2337SOL    HW118647   2.449   0.559  14.298 -1.9600 -1.4637 -0.0223
 2337SOL    HW218648   2.576   0.498  14.241  1.2440 -0.3731  1.2184
 2338SOL     OW18649   0.666   3.299  17.659  0.4672  0.2377 -0.3920
 2338SOL    HW118650   0.622   3.378  17.628  1.3812  0.7134 -0.5051
 2338SOL    HW218651   0.692   3.336  17.744  0.4661 -0.2304 -0.1851
 2339SOL     OW18652   1.790   2.469   7.256 -0.2880 -0.2113 -0.0344
 2339SOL    HW118653   1.800   2.466   7.161  3.8370  1.6971  0.3307
 2339SOL    HW218654   1.702   2.433   7.260 -0.0429 -1.0112 -1.9655
 2340SOL     OW18655   2.503   3.778   8.551 -0.0058 -0.1545  0.0597
 2340SOL    HW118656   2.517   3.793   8.457 -0.8783  1.1644  0.1401
 2340SOL    HW218657   2.576   3.724   8.581  1.1792  1.9522  0.9402
 2341SOL     OW18658   2.456   0.332   5.904 -0.2977 -0.3516  0.3042
 2341SOL    HW118659   2.514   0.272   5.950  1.5844  1.3095  0.1204
 2341SOL    HW218660   2.373   0.315   5.947 -0.0317  0.2469  1.0611
 2342SOL     OW18661   3.219   4.092   3.089 -0.3777 -0.1887 -0.1990
 2342SOL    HW118662   3.195   4.060   3.002  0.8414 -0.3788 -0.4622
 2342SOL    HW218663   3.187   4.023   3.146 -0.4399 -0.7648 -0.9322
 2343SOL     OW18664   2.634   2.890   4.989 -0.3290 -0.4203  0.1933
 2343SOL    HW118665   2.623   2.803   4.953 -0.1547  0.3833 -1.8079
 2343SOL    HW218666   2.662   2.931   4.907 -2.1903  0.9201  0.2321
 2344SOL     OW18667   0.091   3.902   7.334  0.2294  0.7025 -1.0093
 2344SOL    HW118668   0.075   3.812   7.363 -3.3152  1.4958 -0.5785
 2344SOL    HW218669   0.185   3.910   7.318  0.3200  1.1416 -0.2486
 2345SOL     OW18670   1.914   4.075   4.925 -0.1264 -0.3936  0.4933
 2345SOL    HW118671   2.006   4.056   4.946  0.1800  0.8810  0.3004
 2345SOL    HW218672   1.921   4.169   4.909  0.4068 -0.4969  0.1096
 2346SOL     OW18673   3.821   1.493   3.229 -0.0121  0.0350  0.0029
 2346SOL    HW118674   3.818   1.449   3.314 -0.7241 -1.0097 -0.5666
 2346SOL    HW218675   3.896   1.553   3.238 -1.0558  0.8085  3.5451
 2347SOL     OW18676   4.667   3.573   4.409 -0.0631 -0.0761  0.0523
 2347SOL    HW118677   0.006   3.516   4.399 -1.3060 -1.7886  0.1688
 2347SOL    HW218678   4.631   3.541   4.492  0.4192  1.4792  0.8527
 2348SOL     OW18679   4.469   3.853   0.657 -0.5299  0.0005 -0.2781
 2348SOL    HW118680   4.459   3.795   0.582 -1.4540  1.5171 -1.3543
 2348SOL    HW218681   4.386   3.898   0.678 -1.1483 -1.4551  0.3854
 2349SOL     OW18682   0.577   3.713   7.490  0.2603 -0.1142 -0.1632
 2349SOL    HW118683   0.637   3.739   7.559 -1.4401 -1.3558  1.7767
 2349SOL    HW218684   0.529   3.639   7.528  0.6863  0.1601  0.8904
 2350SOL     OW18685   4.462   4.695   2.083  0.3732  0.0441  0.2095
 2350SOL    HW118686   4.398   0.023   2.109 -0.0220  0.0290 -0.7486
 2350SOL    HW218687   4.466   4.639   2.161  1.2285  2.5280  1.9347
 2351SOL     OW18688   3.251   2.040  12.642  0.3687  0.0145 -0.3003
 2351SOL    HW118689   3.222   2.092  12.566  0.6000  0.4367 -0.1015
 2351SOL    HW218690   3.235   2.096  12.718  1.9585 -1.2985  0.9670
 2352SOL     OW18691   3.198   2.133   5.803  0.4194  0.2050 -0.9004
 2352SOL    HW118692   3.172   2.053   5.849  1.3161  0.5659  0.2189
 2352SOL    HW218693   3.135   2.200   5.831  2.1777  0.9757  1.1000
 2353SOL     OW18694   3.119   1.377   3.548 -0.0487  0.3132  0.5671
 2353SOL    HW118695   3.164   1.411   3.471  0.5559 -0.2966  0.6611
 2353SOL    HW218696   3.028   1.404   3.531 -0.0292 -0.4360 -0.7162
 2354SOL     OW18697   3.882   4.380   4.505  0.0833  0.1213  0.0208
 2354SOL    HW118698   3.797   4.336   4.498  0.2963 -0.1766 -0.7065
 2354SOL    HW218699   3.854   4.459   4.551  0.5041 -0.0956  0.6423
 2355SOL     OW18700   0.349   0.106   4.598 -0.3640  0.0831 -0.5277
 2355SOL    HW118701   0.445   0.102   4.595 -0.3014  1.7908 -0.9503
 2355SOL    HW218702   0.326   0.109   4.505  1.8789 -0.0587 -1.0934
 2356SOL     OW18703   2.448   0.856   4.766  0.0606  0.6774 -0.2415
 2356SOL    HW118704   2.527   0.831   4.815 -1.5060  1.6908  2.8125
 2356SOL    HW218705   2.383   0.813   4.822  1.4278 -0.2917  0.6177
 2357SOL     OW18706   1.470   0.809   3.130  0.0452 -0.1999 -0.1046
 2357SOL    HW118707   1.386   0.799   3.174 -1.2822  1.3879 -2.2753
 2357SOL    HW218708   1.446   0.882   3.074  3.3311  1.0835  0.1326
 2358SOL     OW18709   4.125   0.216   1.192 -0.4859  0.7528  0.2943
 2358SOL    HW118710   4.182   0.236   1.266  0.3928 -0.5663 -0.0165
 2358SOL    HW218711   4.048   0.192   1.243 -0.7247 -0.1129 -0.4770
 2359SOL     OW18712   0.797   4.644  11.986  0.0149 -0.2437  0.1926
 2359SOL    HW118713   0.834   4.560  12.013 -0.6574 -0.6496 -0.1295
 2359SOL    HW218714   0.749   4.620  11.907  2.4548 -3.1463 -0.4360
 2360SOL     OW18715   2.145   2.970   8.325  0.3134  0.0649 -0.2947
 2360SOL    HW118716   2.167   2.878   8.313  0.6828  0.0012  0.8712
 2360SOL    HW218717   2.102   3.003   8.246 -1.9779  0.2832  1.0460
 2361SOL     OW18718   0.292   4.161   8.912 -0.3196 -0.2525  0.0874
 2361SOL    HW118719   0.282   4.077   8.955 -1.3857  0.0442  0.4096
 2361SOL    HW218720   0.385   4.180   8.899  0.0200 -1.8223  0.3078
 2362SOL     OW18721   2.226   0.019  16.362 -0.0509 -0.5396  0.0479
 2362SOL    HW118722   2.265   0.015  16.274  2.5580  0.5536  1.1426
 2362SOL    HW218723   2.221   4.665  16.388  2.4742 -0.5988  0.3744
 2363SOL     OW18724   3.571   1.327  12.939  0.3053  0.5371  0.1275
 2363SOL    HW118725   3.634   1.364  12.877  0.1559  1.5124  0.5733
 2363SOL    HW218726   3.502   1.298  12.879  1.0765  1.0318 -1.0009
 2364SOL     OW18727   1.247   2.883   9.322  0.3848  0.2935 -0.4033
 2364SOL    HW118728   1.206   2.962   9.287 -1.2077 -1.4808 -2.4819
 2364SOL    HW218729   1.176   2.820   9.313  0.7480 -0.5940  2.7579
 2365SOL     OW18730   3.745   1.759   8.445 -0.2984 -0.1031 -0.1168
 2365SOL    HW118731   3.689   1.681   8.443 -1.0168  0.4417 -1.5053
 2365SOL    HW218732   3.710   1.796   8.526 -0.1249 -0.2940  0.0459
 2366SOL     OW18733   1.127   3.550   2.639  0.0803 -0.6304  0.1411
 2366SOL    HW118734   1.179   3.550   2.559 -0.0472  1.7492  0.0530
 2366SOL    HW218735   1.148   3.465   2.676  2.2718 -0.6710 -1.2029
 2367SOL     OW18736   2.153   3.234  16.688  0.5304 -0.5656 -0.2488
 2367SOL    HW118737   2.062   3.226  16.714 -0.0930  2.4937 -1.4886
 2367SOL    HW218738   2.145   3.319  16.644  0.7376  0.1160  1.0400
 2368SOL     OW18739   1.637   0.372   8.098 -0.0363 -1.0633 -0.0887
 2368SOL    HW118740   1.643   0.310   8.025  0.2225  0.4778 -1.3796
 2368SOL    HW218741   1.586   0.442   8.058 -2.5460 -3.1450 -0.5331
 2369SOL     OW18742   1.195   1.811   2.239  0.1303  0.0486  0.4941
 2369SOL    HW118743   1.232   1.806   2.152 -1.3160  0.0414 -0.1229
 2369SOL    HW218744   1.122   1.748   2.241  0.5757 -0.4901 -0.8372
 2370SOL     OW18745   2.437   3.527   7.580  0.2973 -0.1234 -0.3792
 2370SOL    HW118746   2.424   3.573   7.663  1.1044 -0.0818 -0.2751
 2370SOL    HW218747   2.453   3.598   7.518  0.2536 -0.9575 -1.3459
 2371SOL     OW18748   1.417   2.195   3.572 -0.8669 -0.4742 -0.3750
 2371SOL    HW118749   1.411   2.152   3.487  1.7209 -2.9118  0.6967
 2371SOL    HW218750   1.453   2.283   3.555 -1.0549 -0.3193  0.0138
 2372SOL     OW18751   4.392   3.591   2.866 -0.0470 -0.2094 -0.2957
 2372SOL    HW118752   4.340   3.510   2.865  1.0391 -0.9051  0.3082
 2372SOL    HW218753   4.410   3.602   2.959 -0.5184 -0.9802 -0.1101
 2373SOL     OW18754   2.784   0.506  17.541 -0.2782  0.2603 -0.5364
 2373SOL    HW118755   2.831   0.472  17.465  1.0434  3.2063 -1.0279
 2373SOL    HW218756   2.839   0.584  17.552  1.2651 -0.6754 -1.6670
 2374SOL     OW18757   4.371   3.070   7.492  0.6289  0.0183 -0.0498
 2374SOL    HW118758   4.388   3.154   7.536 -1.3349 -1.3353  3.2994
 2374SOL    HW218759   4.452   3.063   7.441  2.4027  0.5262  2.7032
 2375SOL     OW18760   2.505   4.549   8.183 -0.1754  0.6269 -0.3131
 2375SOL    HW118761   2.589   4.519   8.148  0.0342  0.7833  0.0609
 2375SOL    HW218762   2.522   4.554   8.277  1.4693  0.6039 -0.6028
 2376SOL     OW18763   3.727   2.338   3.314  0.2583 -0.2395 -0.1079
 2376SOL    HW118764   3.662   2.384   3.262 -0.4206 -1.5954 -0.4551
 2376SOL    HW218765   3.797   2.402   3.299  0.3894 -0.0499  1.3400
 2377SOL     OW18766   4.309   3.385   0.332  0.0638  0.1505 -0.4619
 2377SOL    HW118767   4.321   3.458   0.393  0.5894 -0.2701 -0.0571
 2377SOL    HW218768   4.222   3.405   0.296  0.2893 -0.6908 -1.4780
 2378SOL     OW18769   3.547   0.688  16.907 -0.2649 -0.8211  0.1254
 2378SOL    HW118770   3.605   0.732  16.845  0.2884 -1.2341  0.3494
 2378SOL    HW218771   3.571   0.599  16.881  2.9747 -0.4738  1.8993
 2379SOL     OW18772   2.742   3.257   8.551  0.4578 -0.3972 -0.0128
 2379SOL    HW118773   2.693   3.177   8.570  1.2208 -0.7881  0.2927
 2379SOL    HW218774   2.823   3.217   8.519 -0.8055 -0.6609 -2.8347
 2380SOL     OW18775   0.881   1.759   3.374  0.2744  0.0281 -0.1912
 2380SOL    HW118776   0.944   1.717   3.434 -0.5910  1.3858  1.6566
 2380SOL    HW218777   0.853   1.834   3.426  1.0010 -0.7635  1.3402
 2381SOL     OW18778   4.356   3.633   6.639 -0.1693  1.0402  0.1801
 2381SOL    HW118779   4.434   3.610   6.689 -0.6078  0.6361  0.6802
 2381SOL    HW218780   4.291   3.587   6.693  0.4130  1.3295  1.1222
 2382SOL     OW18781   3.007   1.910   2.161  0.0852 -0.2964 -0.1753
 2382SOL    HW118782   2.983   1.960   2.083  2.6737  0.2055 -0.6348
 2382SOL    HW218783   2.964   1.970   2.222 -1.0509 -1.9100  0.6317
 2383SOL     OW18784   3.042   4.662   6.957 -0.0727 -0.0376 -0.2724
 2383SOL    HW118785   2.977   4.662   6.888 -0.3398 -0.3504 -0.0207
 2383SOL    HW218786   3.071   4.571   6.953  1.7515  0.5585 -0.6901
 2384SOL     OW18787   2.931   3.597   7.325 -0.2930 -0.4784 -0.1695
 2384SOL    HW118788   2.896   3.528   7.269 -1.6162  2.6920 -3.2395
 2384SOL    HW218789   2.958   3.537   7.395  1.0428  0.4224  0.0893
 2385SOL     OW18790   1.862   4.201   3.611  0.1088  0.1267 -0.0745
 2385SOL    HW118791   1.925   4.129   3.612 -0.3846 -0.3235 -1.2141
 2385SOL    HW218792   1.891   4.235   3.696 -0.0504 -3.7100  1.4906
 2386SOL     OW18793   3.352   2.683   7.307  0.7498  0.6844  0.4609
 2386SOL    HW118794   3.395   2.655   7.226 -1.8448 -2.8929  0.3122
 2386SOL    HW218795   3.426   2.731   7.344  0.6279  1.5428 -0.4026
 2387SOL     OW18796   1.189   2.443   9.119 -0.1707  0.4347  0.0719
 2387SOL    HW118797   1.245   2.476   9.049  0.3849  0.7817  0.6798
 2387SOL    HW218798   1.186   2.506   9.191  2.9925  2.8012 -1.9053
 2388SOL     OW18799   2.317   1.285   3.730 -0.2693 -0.1219 -0.1469
 2388SOL    HW118800   2.267   1.209   3.761 -0.5664 -0.0653 -0.4918
 2388SOL    HW218801   2.250   1.341   3.692  0.6670  0.7660 -0.4894
 2389SOL     OW18802   3.960   2.717  10.954 -0.2958  0.1320 -0.6073
 2389SOL    HW118803   3.989   2.751  10.870  0.1240 -1.9711 -1.3071
 2389SOL    HW218804   4.022   2.764  11.011  0.9414  0.6168 -2.3544
 2390SOL     OW18805   3.637   4.327   8.502  0.1832  0.5540 -0.1142
 2390SOL    HW118806   3.595   4.348   8.585 -0.7868 -1.6142 -0.0349
 2390SOL    HW218807   3.579   4.376   8.444 -0.4201  0.0105  0.0241
 2391SOL     OW18808   1.725   0.079   3.918  0.3267  0.0211  0.8844
 2391SOL    HW118809   1.700   0.022   3.991  1.4774 -2.4027 -0.6001
 2391SOL    HW218810   1.820   0.082   3.923  0.3691  0.7882 -0.3770
 2392SOL     OW18811   1.710   1.575  16.420  0.2896 -0.4150  0.2754
 2392SOL    HW118812   1.683   1.628  16.495 -1.2720 -0.0009 -0.5780
 2392SOL    HW218813   1.711   1.644  16.354 -1.7911 -0.3679  0.2861
 2393SOL     OW18814   1.143   3.964   2.442 -0.3009 -0.1075  1.0988
 2393SOL    HW118815   1.235   3.947   2.422  0.0731 -0.6767  3.2865
 2393SOL    HW218816   1.108   3.875   2.444 -0.2527 -0.1828 -1.7387
 2394SOL     OW18817   3.284   3.186   9.568 -0.3523  0.5095 -0.3736
 2394SOL    HW118818   3.332   3.243   9.628  0.6729 -1.2253  0.4517
 2394SOL    HW218819   3.224   3.132   9.618 -0.3348  1.6966  0.9174
 2395SOL     OW18820   1.747   2.755  12.114 -0.0400 -0.5863  0.2040
 2395SOL    HW118821   1.693   2.695  12.064 -2.0207  1.7561 -0.5066
 2395SOL    HW218822   1.800   2.808  12.055  0.0037  0.4801  1.1912
 2396SOL     OW18823   2.863   4.275   1.292 -0.3445  0.2818  0.1712
 2396SOL    HW118824   2.945   4.289   1.244 -0.6159  1.0372 -0.0675
 2396SOL    HW218825   2.887   4.330   1.366  0.4462  0.8786 -0.5347
 2397SOL     OW18826   1.531   0.886   1.882 -0.3063 -0.0617  0.1808
 2397SOL    HW118827   1.484   0.941   1.819  0.0081 -0.0015 -0.0032
 2397SOL    HW218828   1.493   0.915   1.965 -0.5130  1.4329 -0.4312
 2398SOL     OW18829   0.823   3.443   4.587 -0.0794 -0.7316  0.1137
 2398SOL    HW118830   0.867   3.402   4.513  1.5586  1.0970  0.0795
 2398SOL    HW218831   0.890   3.445   4.656  0.3655 -1.4998 -0.3054
 2399SOL     OW18832   2.141   2.517  12.673  0.2355  0.1341  0.0733
 2399SOL    HW118833   2.146   2.555  12.585 -1.0441  1.4807  0.5962
 2399SOL    HW218834   2.118   2.426  12.652 -0.3250  0.2780  0.0803
 2400SOL     OW18835   1.119   1.815   9.725  0.1587 -0.5203 -0.5796
 2400SOL    HW118836   1.044   1.875   9.723  1.7750  1.5683  0.7316
 2400SOL    HW218837   1.131   1.792   9.633 -2.0490  0.1218 -1.0227
 2401SOL     OW18838   0.961   1.063   7.912  0.4581 -0.4249 -0.1444
 2401SOL    HW118839   0.907   1.140   7.892  1.5652  0.1754 -0.7755
 2401SOL    HW218840   1.048   1.089   7.884 -0.3626  2.2790 -0.2291
 2402SOL     OW18841   1.022   0.623   5.435  0.1700 -1.0646  0.3715
 2402SOL    HW118842   1.016   0.709   5.395  1.9969 -1.4253 -0.6822
 2402SOL    HW218843   1.090   0.598   5.372 -1.4200  1.0078 -2.1330
 2403SOL     OW18844   2.709   1.071   7.280 -0.7280 -0.7728  0.1289
 2403SOL    HW118845   2.651   1.139   7.312  0.0335  0.6508 -1.5367
 2403SOL    HW218846   2.743   1.026   7.358  0.3935  0.1138  0.1436
 2404SOL     OW18847   1.774   4.144  12.003 -1.1419  0.0791  0.3423
 2404SOL    HW118848   1.820   4.220  12.039  1.1259 -0.9317 -0.4374
 2404SOL    HW218849   1.738   4.182  11.922  1.8908 -2.4831 -2.2035
 2405SOL     OW18850   3.092   3.650   5.132 -0.5866 -0.4445 -0.3744
 2405SOL    HW118851   3.170   3.635   5.078 -1.1876  1.7667 -1.8835
 2405SOL    HW218852   3.024   3.605   5.082  0.2045 -0.7419 -1.1688
 2406SOL     OW18853   4.471   0.836  12.313 -0.0131  0.0184  0.0529
 2406SOL    HW118854   4.532   0.787  12.257  1.3728  1.0944  0.6341
 2406SOL    HW218855   4.531   0.888  12.366  0.0184 -0.6064  0.6291
 2407SOL     OW18856   2.320   0.386   8.150  0.0926  0.0766 -0.3835
 2407SOL    HW118857   2.339   0.465   8.201  0.4340 -1.2033  1.4785
 2407SOL    HW218858   2.385   0.330   8.194 -0.6888 -1.3123 -0.9922
 2408SOL     OW18859   3.169   2.936  10.503 -0.6188 -0.4150 -0.1868
 2408SOL    HW118860   3.114   2.897  10.571 -0.6384  0.3415  0.2195
 2408SOL    HW218861   3.233   2.988  10.550  1.2357 -4.7310  2.0739
 2409SOL     OW18862   0.097   3.079  12.556 -0.1880 -0.2906 -0.2010
 2409SOL    HW118863   0.187   3.106  12.575  0.1960 -1.2890 -0.5643
 2409SOL    HW218864   0.061   3.149  12.502  1.1435  1.1315  0.7562
 2410SOL     OW18865   1.737   0.647  12.653  0.4154  0.3040  0.0045
 2410SOL    HW118866   1.648   0.638  12.688  0.1388  0.4819 -0.6703
 2410SOL    HW218867   1.762   0.737  12.674  1.3366  0.1796 -0.5596
 2411SOL     OW18868   3.678   0.594   9.567 -0.2226 -0.6332  0.0871
 2411SOL    HW118869   3.599   0.540   9.570 -0.7098 -0.0909 -3.2828
 2411SOL    HW218870   3.710   0.590   9.657 -0.6868 -1.1040  0.2273
 2412SOL     OW18871   0.012   1.732  13.559  0.2004 -0.1124 -0.1104
 2412SOL    HW118872   4.675   1.672  13.557  0.4250 -0.3030 -2.3679
 2412SOL    HW218873   4.702   1.791  13.501  0.8833 -1.7437 -2.3062
 2413SOL     OW18874   4.578   1.352   5.216 -0.0200 -0.1915 -0.6228
 2413SOL    HW118875   4.567   1.396   5.300  0.4919 -1.9191  0.3457
 2413SOL    HW218876   4.516   1.414   5.177 -1.3337 -0.3920  1.1668
 2414SOL     OW18877   4.195   1.235   5.973 -0.1407 -0.0991 -0.6430
 2414SOL    HW118878   4.143   1.156   5.983 -0.0932 -0.0120  0.3672
 2414SOL    HW218879   4.217   1.250   6.066 -2.5647  1.5529 -0.3328
 2415SOL     OW18880   3.884   2.141   8.915 -0.4661  0.0576 -0.2391
 2415SOL    HW118881   3.793   2.136   8.943 -0.2457  2.5896  0.8998
 2415SOL    HW218882   3.933   2.112   8.992 -0.7661 -0.4914 -0.2587
 2416SOL     OW18883   1.580   1.429   3.889 -0.2803 -0.1826  0.4977
 2416SOL    HW118884   1.618   1.347   3.919 -2.6619 -1.5650 -0.1949
 2416SOL    HW218885   1.545   1.473   3.967  0.6795  1.0977  0.2141
 2417SOL     OW18886   2.690   3.822  17.666 -0.2700 -0.3111 -0.1890
 2417SOL    HW118887   2.694   3.918  17.668  2.5389 -0.3994 -0.7508
 2417SOL    HW218888   2.780   3.803  17.639 -0.6090 -2.2682  0.0863
 2418SOL     OW18889   4.554   0.804   5.121 -0.4418 -0.5485  0.1775
 2418SOL    HW118890   4.605   0.823   5.042  0.1341  1.3317  0.9857
 2418SOL    HW218891   4.512   0.887   5.143  0.9723  0.1579  0.2577
 2419SOL     OW18892   0.688   3.282  13.524  0.4884 -0.1037 -0.4582
 2419SOL    HW118893   0.756   3.219  13.547 -2.5407 -2.4693  1.8843
 2419SOL    HW218894   0.661   3.307  13.612  2.8957  0.9591  0.0044
 2420SOL     OW18895   2.757   2.969   9.372  0.0147  0.7891  0.0011
 2420SOL    HW118896   2.826   3.005   9.428 -0.6407  2.4125 -0.2109
 2420SOL    HW218897   2.753   3.048   9.317 -1.4003  1.3910  0.9556
 2421SOL     OW18898   3.557   1.628   5.145 -0.0664  0.1254 -0.0963
 2421SOL    HW118899   3.514   1.684   5.210  1.7325  1.5321 -0.1300
 2421SOL    HW218900   3.614   1.574   5.201 -0.1607 -2.1324 -2.1721
 2422SOL     OW18901   4.526   3.709   6.062  0.4147  0.5439  0.4981
 2422SOL    HW118902   4.541   3.669   6.148 -0.4511  1.4561  1.0680
 2422SOL    HW218903   4.591   3.779   6.060  0.0621  0.8987  1.5654
 2423SOL     OW18904   2.845   4.721   7.815 -0.3168  0.4491  0.3399
 2423SOL    HW118905   2.889   0.063   7.786 -1.5143  1.3395  0.9655
 2423SOL    HW218906   2.920   4.676   7.854 -1.6130  0.4862  2.8930
 2424SOL     OW18907   1.604   1.290   5.684 -0.1764  0.0913 -0.2372
 2424SOL    HW118908   1.621   1.221   5.619  0.6612  0.2195 -0.1492
 2424SOL    HW218909   1.585   1.361   5.623  0.5918  0.3058 -0.2257
 2425SOL     OW18910   3.579   0.474   4.777  0.0947 -0.2791 -0.5576
 2425SOL    HW118911   3.502   0.486   4.832  0.3842  0.8299 -0.3902
 2425SOL    HW218912   3.617   0.562   4.772  0.6872 -0.4277  1.5063
 2426SOL     OW18913   1.434   3.575   8.642 -0.1982 -0.1625  0.6479
 2426SOL    HW118914   1.481   3.570   8.725  0.3871  0.2000  0.3397
 2426SOL    HW218915   1.399   3.487   8.627 -0.7858 -0.3222  2.9868
 2427SOL     OW18916   0.472   0.994   9.595  0.3481  1.1095 -0.3051
 2427SOL    HW118917   0.546   0.935   9.583 -0.9174 -0.6676  0.4883
 2427SOL    HW218918   0.421   0.948   9.662 -0.2240  1.5634 -0.4291
 2428SOL     OW18919   2.670   2.634   4.858  0.3665 -0.0793 -0.2053
 2428SOL    HW118920   2.591   2.585   4.878  2.1762 -1.8653  2.5874
 2428SOL    HW218921   2.721   2.566   4.814 -1.6889 -1.1724 -0.8814
 2429SOL     OW18922   3.725   3.784  17.412 -0.1101  0.2779 -0.5055
 2429SOL    HW118923   3.650   3.758  17.465 -1.7911  0.4553 -2.8150
 2429SOL    HW218924   3.792   3.729  17.453 -1.3504 -0.3342  0.6778
 2430SOL     OW18925   3.088   4.138   4.617 -0.3953 -0.7203  0.5285
 2430SOL    HW118926   3.134   4.194   4.679 -1.8883  1.7056 -0.5885
 2430SOL    HW218927   3.130   4.164   4.535 -4.0015  1.5750 -0.5953
 2431SOL     OW18928   0.304   1.329   1.648 -1.0690  0.1263 -0.0638
 2431SOL    HW118929   0.386   1.303   1.688 -1.1015  0.2863  0.1070
 2431SOL    HW218930   0.285   1.251   1.596  0.6711  0.3998 -1.1079
 2432SOL     OW18931   3.348   1.661   2.130 -0.4392 -0.4349  0.0222
 2432SOL    HW118932   3.281   1.638   2.066 -0.2896  1.4432 -0.8083
 2432SOL    HW218933   3.413   1.685   2.064 -2.0436  1.3496 -0.9030
 2433SOL     OW18934   2.519   3.034   3.523 -0.0688 -0.1483 -0.3370
 2433SOL    HW118935   2.559   2.948   3.540 -1.1840 -0.2330  1.8595
 2433SOL    HW218936   2.554   3.090   3.592  0.7115  0.2454 -1.0638
 2434SOL     OW18937   2.293   2.813   2.494  0.0122 -0.5078  0.1916
 2434SOL    HW118938   2.365   2.861   2.453  0.9556 -2.0277  0.0646
 2434SOL    HW218939   2.332   2.728   2.516 -1.7900 -1.3124  0.3011
 2435SOL     OW18940   4.040   0.896   7.805 -0.1837  0.2255 -0.3518
 2435SOL    HW118941   4.066   0.805   7.789 -0.3183 -0.0483  0.9850
 2435SOL    HW218942   4.011   0.891   7.896  1.0232 -1.6190 -0.0617
 2436SOL     OW18943   3.849   0.892   7.597  0.1281 -0.0738  0.1242
 2436SOL    HW118944   3.776   0.847   7.641  1.0326 -1.9571 -0.3001
 2436SOL    HW218945   3.912   0.905   7.668 -0.6722  0.6799  0.7024
 2437SOL     OW18946   2.607   2.920  13.997 -0.1457  0.4799  0.4860
 2437SOL    HW118947   2.605   2.827  14.017  0.2166  0.8516  2.2750
 2437SOL    HW218948   2.593   2.976  14.074 -1.1075  1.6146 -0.5225
 2438SOL     OW18949   1.272   0.306   7.414  0.1990  0.5176 -0.5794
 2438SOL    HW118950   1.320   0.368   7.469  1.2395 -1.1858  0.4451
 2438SOL    HW218951   1.199   0.268   7.462 -0.3904  3.7061  1.0596
 2439SOL     OW18952   3.174   3.066   3.510 -0.1026  0.3633  0.4373
 2439SOL    HW118953   3.129   2.983   3.522 -1.3940  1.2290  1.6170
 2439SOL    HW218954   3.149   3.088   3.421 -0.1151  0.6981  0.5234
 2440SOL     OW18955   2.997   2.706  13.700 -0.0210  0.6739  0.2371
 2440SOL    HW118956   2.937   2.708  13.774  0.6304  0.8683  0.7572
 2440SOL    HW218957   3.082   2.720  13.742  0.4259 -1.3034 -0.0062
 2441SOL     OW18958   0.665   1.696   0.074 -0.1798 -0.4377 -0.2733
 2441SOL    HW118959   0.660   1.784   0.037  1.2082  1.1467  3.3155
 2441SOL    HW218960   0.757   1.671   0.068 -0.2519 -0.6045 -0.6842
 2442SOL     OW18961   0.357   4.639   0.830 -0.0612 -0.7722  0.1782
 2442SOL    HW118962   0.296   4.686   0.887  0.3910  1.3460 -1.1018
 2442SOL    HW218963   0.398   4.713   0.787  2.0546 -2.4966 -0.7267
 2443SOL     OW18964   2.010   1.923   4.809  0.4774  0.4143  0.1476
 2443SOL    HW118965   1.919   1.900   4.828  0.8744 -0.2100  1.2609
 2443SOL    HW218966   2.048   1.913   4.896 -0.9254  2.0854  0.9613
 2444SOL     OW18967   1.279   1.823   3.398  0.3781 -0.6015 -0.0860
 2444SOL    HW118968   1.237   1.737   3.399  1.6001 -1.1745  0.9248
 2444SOL    HW218969   1.196   1.867   3.419  1.3963  2.1500 -1.8156
 2445SOL     OW18970   0.136   3.090  10.096 -0.3331 -0.2467 -0.1900
 2445SOL    HW118971   0.161   3.039  10.173  1.0414 -0.2783 -0.6682
 2445SOL    HW218972   0.092   3.023  10.045 -0.1839 -2.1388  2.1862
 2446SOL     OW18973   0.627   3.720   7.031  0.3373  0.0766  0.2255
 2446SOL    HW118974   0.641   3.645   6.973 -0.5486  1.1969 -1.3963
 2446SOL    HW218975   0.679   3.782   6.981 -1.1592  0.0346 -1.3864
 2447SOL     OW18976   4.637   3.254   2.087  0.0376  0.1545 -0.4185
 2447SOL    HW118977   4.646   3.230   1.995 -0.4758 -1.2137 -0.1064
 2447SOL    HW218978   4.546   3.283   2.083  0.1182  0.5225  0.4983
 2448SOL     OW18979   0.981   4.016  17.191  0.5105 -0.4244 -0.3546
 2448SOL    HW118980   0.943   4.042  17.276  2.1153  1.1778 -0.1160
 2448SOL    HW218981   1.060   3.977  17.229 -1.4443 -0.5515  3.6417
 2449SOL     OW18982   3.572   4.162   5.186  0.2068 -0.3651 -0.7862
 2449SOL    HW118983   3.632   4.195   5.119 -2.1736  2.7487 -1.3630
 2449SOL    HW218984   3.599   4.071   5.200  2.7462  0.5446  0.2822
 2450SOL     OW18985   1.449   1.287   8.131  0.2985 -0.2258  0.3424
 2450SOL    HW118986   1.487   1.209   8.092 -1.8441 -0.8162 -0.5480
 2450SOL    HW218987   1.527   1.339   8.149  1.8657 -2.2975 -0.5080
 2451SOL     OW18988   2.959   0.908   5.932 -0.9593 -0.4466 -0.3898
 2451SOL    HW118989   2.884   0.893   5.874 -1.8866  1.1447  0.3965
 2451SOL    HW218990   3.034   0.886   5.877 -1.1313 -1.9837 -0.0293
 2452SOL     OW18991   1.851   2.948   5.034 -0.0154 -0.2264  0.3090
 2452SOL    HW118992   1.920   2.913   4.977 -0.8438 -1.0033 -0.2280
 2452SOL    HW218993   1.898   2.976   5.112  0.5802  1.1968 -0.5499
 2453SOL     OW18994   4.215   1.995   4.264 -0.5157  0.1592 -0.1395
 2453SOL    HW118995   4.190   1.988   4.172 -0.2186 -2.3308 -0.0070
 2453SOL    HW218996   4.223   2.090   4.272  2.4888 -0.0972 -0.2206
 2454SOL     OW18997   0.376   2.637  10.981  0.5355  0.1670  0.0149
 2454SOL    HW118998   0.428   2.682  11.048 -1.7799  0.7794  1.4038
 2454SOL    HW218999   0.398   2.687  10.903  2.1052  0.9539  0.9485
 2455SOL     OW19000   1.730   1.233  15.642  0.2188  0.2365  0.4125
 2455SOL    HW119001   1.663   1.169  15.667 -0.2405  1.4826  2.2906
 2455SOL    HW219002   1.792   1.209  15.710  0.8033 -1.6533 -0.7699
 2456SOL     OW19003   4.389   2.786  16.797 -0.0285  0.1339 -0.2077
 2456SOL    HW119004   4.335   2.725  16.747  0.5541 -0.2082 -0.4226
 2456SOL    HW219005   4.369   2.863  16.744  1.8333  0.2282 -0.7648
 2457SOL     OW19006   4.076   4.501   1.950 -0.3579 -0.3761  0.4167
 2457SOL    HW119007   4.102   4.593   1.944 -1.4490 -0.0631  0.5166
 2457SOL    HW219008   4.156   4.462   1.913 -1.0122  0.6454 -2.0790
 2458SOL     OW19009   0.606   0.126   2.447 -0.0859 -0.3902 -0.1022
 2458SOL    HW119010   0.522   0.084   2.464  0.8124 -1.8131  0.7956
 2458SOL    HW219011   0.602   0.145   2.353  1.0247  0.7278  0.0746
 2459SOL     OW19012   0.891   2.131  15.341 -0.8004 -0.9258  0.7450
 2459SOL    HW119013   0.930   2.055  15.298  2.5398  0.1722  1.7914
 2459SOL    HW219014   0.878   2.099  15.431 -2.6093  0.9503  1.1340
 2460SOL     OW19015   2.220   0.094  11.308  0.2703 -0.2360 -0.2450
 2460SOL    HW119016   2.227   0.042  11.228 -1.8586  2.4260 -2.1772
 2460SOL    HW219017   2.213   0.019  11.368 -0.5587  1.8376  2.2577
 2461SOL     OW19018   0.471   4.593  10.440  0.0311  0.1462  0.1307
 2461SOL    HW119019   0.479   4.612  10.346 -0.9844 -1.5349 -0.3066
 2461SOL    HW219020   0.378   4.613  10.446 -0.5069 -2.4413  0.4745
 2462SOL     OW19021   2.259   2.298   3.633  0.8702  0.4979  0.3627
 2462SOL    HW119022   2.274   2.353   3.556 -0.9322  2.9794  1.7685
 2462SOL    HW219023   2.213   2.220   3.603  1.6534  0.6427 -1.2251
 2463SOL     OW19024   3.749   3.971   5.827  0.0829 -0.2517 -0.2363
 2463SOL    HW119025   3.711   4.033   5.888  1.2540 -0.0074  0.2338
 2463SOL    HW219026   3.706   3.997   5.746  0.6077  0.4502 -0.2862
 2464SOL     OW19027   2.995   0.973   0.265  0.5293 -0.4093  0.0573
 2464SOL    HW119028   3.027   1.047   0.213 -1.6801 -1.0608 -2.2643
 2464SOL    HW219029   2.946   0.932   0.193  1.6922 -0.5352 -0.6727
 2465SOL     OW19030   3.891   3.813  17.147  0.9177 -0.0524 -0.4140
 2465SOL    HW119031   3.839   3.781  17.221 -1.5375  0.0675 -2.0952
 2465SOL    HW219032   3.821   3.861  17.103  0.0394 -1.1511 -0.2061
 2466SOL     OW19033   0.851   1.266   7.703 -0.0292 -0.2146  0.3437
 2466SOL    HW119034   0.787   1.332   7.733 -1.1639 -1.0367 -0.2587
 2466SOL    HW219035   0.808   1.185   7.730 -1.2704 -0.0134 -1.0003
 2467SOL     OW19036   1.648   0.399   3.936 -0.2034 -0.0873  0.3014
 2467SOL    HW119037   1.712   0.329   3.943 -0.7674 -0.6994 -0.5751
 2467SOL    HW219038   1.573   0.368   3.985  1.3491 -1.1103  1.9940
 2468SOL     OW19039   2.961   1.403  14.374 -0.0411  0.5650 -0.0050
 2468SOL    HW119040   3.012   1.447  14.442 -2.2521  1.3001  1.1807
 2468SOL    HW219041   2.911   1.342  14.428  0.8026 -0.2885 -0.1750
 2469SOL     OW19042   2.561   2.882  16.789  0.2129 -0.2137 -0.1905
 2469SOL    HW119043   2.547   2.839  16.874 -1.7627 -0.2232 -0.5101
 2469SOL    HW219044   2.512   2.965  16.790  0.7555  0.0746  2.2159
 2470SOL     OW19045   2.065   4.315   4.857 -0.2945  0.5735  0.0798
 2470SOL    HW119046   2.005   4.377   4.897 -1.1212 -0.4905  0.4634
 2470SOL    HW219047   2.120   4.286   4.930  0.0156  2.0385  0.4393
 2471SOL     OW19048   0.353   2.123   3.358  0.2823 -0.0506 -0.2751
 2471SOL    HW119049   0.447   2.111   3.370  0.2286  0.3723  0.6593
 2471SOL    HW219050   0.336   2.169   3.441  1.4823  1.7602 -1.0259
 2472SOL     OW19051   3.063   2.788   4.579 -0.2887 -0.8071 -0.2100
 2472SOL    HW119052   3.014   2.805   4.660 -1.3242  2.0299 -1.4079
 2472SOL    HW219053   3.039   2.700   4.552 -1.8495 -0.4009 -0.1996
 2473SOL     OW19054   2.596   0.636   8.488 -0.2138  0.5847  0.2626
 2473SOL    HW119055   2.586   0.616   8.581 -1.8965  1.1799  0.2136
 2473SOL    HW219056   2.539   0.712   8.481 -0.3226  0.2383 -2.5584
 2474SOL     OW19057   4.230   3.363   2.934  0.5715  0.6046 -0.0413
 2474SOL    HW119058   4.154   3.420   2.929 -0.2329 -0.6864 -2.4401
 2474SOL    HW219059   4.213   3.292   2.873  0.2109 -1.3711  2.3534
 2475SOL     OW19060   2.843   2.506   2.087  0.3214  0.6821 -0.1761
 2475SOL    HW119061   2.935   2.498   2.062  0.9675  1.1788  2.0167
 2475SOL    HW219062   2.870   2.501   2.179  0.6436 -3.0482 -0.4827
 2476SOL     OW19063   0.961   0.301   5.000  0.8272 -0.3301  0.3558
 2476SOL    HW119064   0.874   0.274   4.970  0.9767 -0.2204 -0.1734
 2476SOL    HW219065   1.008   0.221   4.978 -0.4625 -0.4601 -1.9593
 2477SOL     OW19066   4.087   2.775   7.842 -0.1024 -0.9130  0.0503
 2477SOL    HW119067   4.126   2.687   7.838 -0.3865 -1.0325 -0.0958
 2477SOL    HW219068   4.149   2.824   7.896 -0.9373  0.4978 -0.2817
 2478SOL     OW19069   1.141   2.566   3.727 -0.1828 -0.5659 -0.0909
 2478SOL    HW119070   1.123   2.655   3.757  0.0463  0.2224 -2.3410
 2478SOL    HW219071   1.228   2.555   3.764 -0.2132 -0.2204  0.0873
 2479SOL     OW19072   3.966   4.055  11.994  0.4181 -0.5563 -0.4755
 2479SOL    HW119073   3.907   4.114  12.040  1.7145 -0.2141  0.7293
 2479SOL    HW219074   4.025   4.018  12.061  1.8431  0.3466 -1.2343
 2480SOL     OW19075   3.596   2.201   2.081  0.3602  1.0623  0.3952
 2480SOL    HW119076   3.556   2.263   2.142 -1.2324 -0.2890  0.7086
 2480SOL    HW219077   3.631   2.266   2.019  0.9919  0.9940  0.6874
 2481SOL     OW19078   0.833   0.181   5.976 -0.6145 -0.3675  0.4837
 2481SOL    HW119079   0.852   0.265   5.935 -1.1420 -0.1380  0.7071
 2481SOL    HW219080   0.883   0.123   5.918 -2.1969 -0.7660 -0.4991
 2482SOL     OW19081   1.019   0.107   8.688 -0.3023 -0.0346  0.1155
 2482SOL    HW119082   1.029   0.017   8.656 -0.2695  0.0323 -0.0654
 2482SOL    HW219083   1.071   0.103   8.768 -1.2362 -0.1344  0.7072
 2483SOL     OW19084   2.039   1.687   4.469  0.4111 -0.3413  0.0497
 2483SOL    HW119085   2.086   1.655   4.546  0.2928 -0.1024  0.2231
 2483SOL    HW219086   1.952   1.697   4.508  1.1717  0.1133  1.6444
 2484SOL     OW19087   0.603   4.144   8.815 -0.3375 -0.2093 -0.1932
 2484SOL    HW119088   0.635   4.228   8.781 -0.9089 -0.1266 -0.5125
 2484SOL    HW219089   0.606   4.175   8.906 -0.2827 -0.7431 -0.0144
 2485SOL     OW19090   3.900   3.946   1.640 -0.0946  0.0564 -0.3055
 2485SOL    HW119091   3.984   3.904   1.661 -0.9650 -1.6721 -0.2391
 2485SOL    HW219092   3.922   4.007   1.571  1.0306  0.3843  0.3491
 2486SOL     OW19093   3.729   0.633   4.163 -0.5877 -0.0416 -0.2764
 2486SOL    HW119094   3.781   0.707   4.196  0.3352 -1.2087  0.8637
 2486SOL    HW219095   3.708   0.669   4.077  2.2736 -1.0463 -1.4016
 2487SOL     OW19096   3.343   2.633   1.689  1.1948 -0.2661  0.3806
 2487SOL    HW119097   3.370   2.614   1.599 -1.2576  0.8852 -0.6021
 2487SOL    HW219098   3.404   2.700   1.720 -1.2273  1.5249  1.2527
 2488SOL     OW19099   3.850   3.910   6.151  0.2279  0.6337  0.0356
 2488SOL    HW119100   3.891   3.992   6.126 -0.5171  1.1346  0.4704
 2488SOL    HW219101   3.785   3.946   6.211  0.1019  0.1627  0.1870
 2489SOL     OW19102   1.494   1.538  16.909  0.2508 -0.0811 -1.0473
 2489SOL    HW119103   1.568   1.597  16.911  0.3081 -0.1760 -0.3070
 2489SOL    HW219104   1.524   1.460  16.862  0.2974 -0.6070 -0.1458
 2490SOL     OW19105   1.632   2.678  10.110  0.7161  0.1936 -0.3001
 2490SOL    HW119106   1.727   2.687  10.115  0.5926  1.0430  0.7621
 2490SOL    HW219107   1.600   2.660  10.199  2.2055 -1.9775 -0.2144
 2491SOL     OW19108   1.570   3.216   7.249  0.6777  0.8078  0.3703
 2491SOL    HW119109   1.536   3.127   7.235  1.3854  0.3016  1.9298
 2491SOL    HW219110   1.488   3.265   7.238 -0.7007 -1.4910  0.4640
 2492SOL     OW19111   0.622   3.196   6.932 -0.1456  0.2972  0.2349
 2492SOL    HW119112   0.537   3.153   6.920  0.4159 -0.3632 -1.3124
 2492SOL    HW219113   0.651   3.132   6.997 -0.3949  1.0881  1.1402
 2493SOL     OW19114   0.177   3.983  11.553  0.2929 -0.1336  0.3672
 2493SOL    HW119115   0.185   4.075  11.578  1.3847 -0.4834  1.3457
 2493SOL    HW219116   0.206   3.981  11.462  0.6870 -2.5444  0.5266
 2494SOL     OW19117   2.386   3.474  12.857  0.4904 -0.3806 -0.1903
 2494SOL    HW119118   2.371   3.439  12.945 -2.4828  1.4970  0.0128
 2494SOL    HW219119   2.471   3.433  12.837  0.5387 -0.0073 -0.7474
 2495SOL     OW19120   3.851   3.197   4.150 -0.2342  0.0271 -0.0665
 2495SOL    HW119121   3.892   3.214   4.066  0.7757  0.1880  0.4634
 2495SOL    HW219122   3.812   3.282   4.170  0.9719  0.7229 -0.6796
 2496SOL     OW19123   0.704   4.334  14.465 -0.2462  0.5821 -0.2638
 2496SOL    HW119124   0.623   4.322  14.416  0.9040  0.4022 -2.1002
 2496SOL    HW219125   0.756   4.389  14.408 -0.6915  0.5476 -0.7082
 2497SOL     OW19126   1.601   0.501   5.800  0.4839  0.2116 -0.5538
 2497SOL    HW119127   1.508   0.522   5.801  0.5548  0.6513 -3.2039
 2497SOL    HW219128   1.598   0.420   5.850 -1.0904  0.1364 -0.7674
 2498SOL     OW19129   0.510   3.997   9.330 -0.4576 -0.0579 -0.3794
 2498SOL    HW119130   0.495   3.919   9.384  0.0996 -0.9739 -1.5576
 2498SOL    HW219131   0.435   4.007   9.272 -1.1657 -4.2526 -0.1796
 2499SOL     OW19132   1.931   0.354   9.382  0.0942  0.1540  0.2158
 2499SOL    HW119133   1.880   0.374   9.461 -1.4975  1.0097 -1.0217
 2499SOL    HW219134   1.922   0.259   9.374  0.2794  0.1131  0.4910
 2500SOL     OW19135   1.552   0.558   4.907  0.2457 -0.2872  0.1983
 2500SOL    HW119136   1.503   0.483   4.872 -0.0962 -0.2756  0.6458
 2500SOL    HW219137   1.521   0.616   4.838 -0.2174 -1.1332 -0.3128
 2501SOL     OW19138   2.132   4.572  15.290  0.0002 -0.2541  0.7008
 2501SOL    HW119139   2.143   4.604  15.201 -1.4843 -0.8111  0.3080
 2501SOL    HW219140   2.192   4.634  15.331 -1.7284  0.5182  2.0594
 2502SOL     OW19141   3.899   1.573  13.241 -0.5416  0.3293  0.7177
 2502SOL    HW119142   3.856   1.651  13.206  1.0075  0.7288 -0.3162
 2502SOL    HW219143   3.819   1.521  13.237  0.3673 -0.8261 -2.3558
 2503SOL     OW19144   2.902   4.119   9.402 -0.0984  0.4654  0.0633
 2503SOL    HW119145   2.893   4.173   9.481  1.0650 -0.0523  0.5506
 2503SOL    HW219146   2.918   4.042   9.457  0.6964  3.1028  3.5408
 2504SOL     OW19147   3.761   4.601   9.516  0.2756 -0.2647 -0.0614
 2504SOL    HW119148   3.709   4.681   9.512 -0.6346 -0.8802 -0.4002
 2504SOL    HW219149   3.776   4.607   9.611  1.3984  3.3428 -0.4687
 2505SOL     OW19150   4.608   0.168   9.753 -0.3050 -0.1516  0.4334
 2505SOL    HW119151   4.544   0.211   9.696  1.3927 -0.8401 -2.0247
 2505SOL    HW219152   4.676   0.160   9.686 -1.3051 -1.2967 -0.4317
 2506SOL     OW19153   0.657   3.469   6.377  0.2911  0.0559 -1.1733
 2506SOL    HW119154   0.738   3.520   6.375  0.3162 -0.0343 -2.6277
 2506SOL    HW219155   0.600   3.517   6.316 -2.3958  0.4576  1.6773
 2507SOL     OW19156   0.012   4.173   3.698  0.2680 -0.2506  0.4433
 2507SOL    HW119157   4.667   4.125   3.704  0.8952 -1.4912 -0.7305
 2507SOL    HW219158   0.063   4.119   3.637 -0.8009 -0.2941 -0.4101
 2508SOL     OW19159   0.583   0.476   5.788 -0.1832  0.5146 -0.2082
 2508SOL    HW119160   0.592   0.428   5.705  1.8151  0.9941 -0.2687
 2508SOL    HW219161   0.577   0.568   5.761  0.5261  0.6612  0.1359
 2509SOL     OW19162   1.215   1.088   6.690  0.0362 -0.8275 -0.3493
 2509SOL    HW119163   1.229   1.167   6.636  0.3981  0.1709  1.2044
 2509SOL    HW219164   1.146   1.123   6.746 -0.0630 -1.1091 -0.2958
 2510SOL     OW19165   1.412   1.713   0.991 -0.4545 -0.0334 -0.3532
 2510SOL    HW119166   1.495   1.734   0.949 -0.3414 -2.2209 -1.2285
 2510SOL    HW219167   1.379   1.801   1.008 -0.9050 -0.4309  0.8294
 2511SOL     OW19168   2.093   1.080   5.285  0.3808 -0.2039  0.2775
 2511SOL    HW119169   2.051   1.165   5.271 -0.1825 -0.3237  1.2322
 2511SOL    HW219170   2.033   1.058   5.356 -0.1892 -2.4312 -0.9118
 2512SOL     OW19171   2.659   4.365  13.855 -0.3033  0.0289  0.5658
 2512SOL    HW119172   2.668   4.270  13.866  1.7131  0.1468 -0.1888
 2512SOL    HW219173   2.738   4.390  13.903 -0.6426 -0.2236  1.2678
 2513SOL     OW19174   1.679   0.727  13.003  0.2194  0.4772 -0.2995
 2513SOL    HW119175   1.676   0.727  12.907 -0.4496  0.0770 -0.2799
 2513SOL    HW219176   1.590   0.699  13.023  0.2849 -0.8346 -1.8156
 2514SOL     OW19177   0.004   3.375   0.258 -0.3278 -0.0372 -0.5325
 2514SOL    HW119178   0.072   3.310   0.273  0.4103  0.5475 -1.3123
 2514SOL    HW219179   0.035   3.454   0.303 -1.7702 -0.4931  1.2751
 2515SOL     OW19180   1.277   2.541   8.139  0.2126 -0.5933 -0.3304
 2515SOL    HW119181   1.240   2.568   8.055 -2.1307  0.4433  1.0227
 2515SOL    HW219182   1.367   2.565   8.116 -0.1255  0.7593 -0.2217
 2516SOL     OW19183   3.569   4.182   7.340  0.3325 -0.1489 -0.1151
 2516SOL    HW119184   3.603   4.101   7.376  0.5149 -0.0404 -0.0402
 2516SOL    HW219185   3.614   4.188   7.256 -0.4239 -0.8438 -0.5695
 2517SOL     OW19186   0.516   3.462   8.881  0.3856 -0.6517  0.3047
 2517SOL    HW119187   0.559   3.477   8.965 -2.0623  0.4022  1.3700
 2517SOL    HW219188   0.505   3.369   8.864 -0.1586 -0.3033 -1.2108
 2518SOL     OW19189   1.039   0.808   2.334  0.2199  0.2027 -0.0561
 2518SOL    HW119190   0.994   0.783   2.414  0.1335 -1.3152 -0.5730
 2518SOL    HW219191   1.054   0.726   2.286 -2.1188  0.5057 -1.3177
 2519SOL     OW19192   4.429   0.255   6.819 -0.4198 -0.0635 -1.2857
 2519SOL    HW119193   4.401   0.314   6.889 -1.3563 -0.8857 -0.9843
 2519SOL    HW219194   4.470   0.185   6.871 -0.8169 -0.1247 -1.0557
 2520SOL     OW19195   4.018   3.309   6.909 -0.2757  0.1384  0.6859
 2520SOL    HW119196   3.931   3.320   6.871 -0.6955 -3.4502  0.6696
 2520SOL    HW219197   4.023   3.214   6.922  0.2216 -0.0488 -0.8730
 2521SOL     OW19198   0.916   4.210   3.755  0.0399 -0.6856  0.2346
 2521SOL    HW119199   0.876   4.273   3.694  0.8708  1.3572  1.7942
 2521SOL    HW219200   0.964   4.267   3.816 -1.0732 -1.0879  1.4689
 2522SOL     OW19201   3.615   2.153   3.681 -0.3243  0.1019 -0.7645
 2522SOL    HW119202   3.544   2.090   3.666 -0.2105 -0.0830 -0.5373
 2522SOL    HW219203   3.689   2.104   3.647  0.2234 -0.2571  0.9173
 2523SOL     OW19204   1.567   1.262   9.023 -0.1406 -0.1635 -0.5375
 2523SOL    HW119205   1.570   1.185   9.080  1.0802  0.7225  0.5988
 2523SOL    HW219206   1.486   1.245   8.976 -1.1542 -0.4396  1.3208
 2524SOL     OW19207   4.734   4.634   4.504  0.6620 -0.0803  0.2159
 2524SOL    HW119208   0.041   4.625   4.588 -0.7615 -2.4971  0.6951
 2524SOL    HW219209   4.648   4.669   4.529  0.6126  1.1772 -1.7111
 2525SOL     OW19210   0.464   1.490  13.430  0.8044  0.2391 -0.1763
 2525SOL    HW119211   0.530   1.542  13.385  1.4407 -0.4470 -0.0482
 2525SOL    HW219212   0.402   1.560  13.451  1.6381  0.8697  0.1714
 2526SOL     OW19213   2.094   2.688   5.230  0.0793  0.4113  0.6062
 2526SOL    HW119214   2.183   2.665   5.204 -0.2182  1.2369 -1.1269
 2526SOL    HW219215   2.100   2.771   5.276 -0.1349  0.8800 -0.2174
 2527SOL     OW19216   2.346   2.839   3.704  0.0826  0.1517 -0.3505
 2527SOL    HW119217   2.270   2.792   3.737  0.8296 -0.2261  0.8419
 2527SOL    HW219218   2.294   2.916   3.680 -2.6122 -1.9442 -1.2196
 2528SOL     OW19219   3.346   0.265   6.822 -0.7080 -0.3986 -0.4825
 2528SOL    HW119220   3.288   0.189   6.829 -1.5973  0.3029 -0.1960
 2528SOL    HW219221   3.284   0.337   6.809  1.1071  1.1109 -0.8836
 2529SOL     OW19222   2.952   3.057   3.008  0.1488 -0.3004  0.2438
 2529SOL    HW119223   3.036   3.078   2.968 -0.9708  0.5090 -1.6861
 2529SOL    HW219224   2.889   3.094   2.945 -1.4529 -3.1513  0.1503
 2530SOL     OW19225   3.253   4.464  15.081  0.2028 -0.4412  0.3682
 2530SOL    HW119226   3.186   4.400  15.058 -0.0655 -0.7490  2.0128
 2530SOL    HW219227   3.216   4.550  15.060  1.1944 -0.2898 -0.8019
 2531SOL     OW19228   0.222   4.369   0.146 -0.0980  0.1678 -0.1739
 2531SOL    HW119229   0.151   4.381   0.209  0.1339  2.3782 -0.3385
 2531SOL    HW219230   0.192   4.294   0.095 -0.5189 -0.2824  0.7350
 2532SOL     OW19231   2.631   4.247   8.974  0.2595 -0.2317 -0.1598
 2532SOL    HW119232   2.636   4.156   8.947  0.2866  0.1685 -1.4973
 2532SOL    HW219233   2.622   4.287   8.888 -0.2900 -1.1344 -0.5154
 2533SOL     OW19234   1.280   3.484  15.660 -0.7666  0.2846  0.6207
 2533SOL    HW119235   1.270   3.393  15.630  1.8734 -0.7178  2.7709
 2533SOL    HW219236   1.195   3.518  15.631 -1.1772 -0.9464  0.3511
 2534SOL     OW19237   3.789   1.858   9.272  0.2074 -0.5544 -0.1361
 2534SOL    HW119238   3.858   1.792   9.263  2.1979  1.5811 -0.9311
 2534SOL    HW219239   3.760   1.835   9.360 -1.2432 -0.6398 -0.6363
 2535SOL     OW19240   4.631   1.122  16.746 -0.3726 -0.2978 -0.5581
 2535SOL    HW119241   4.664   1.093  16.661 -0.5082  1.0906 -1.0877
 2535SOL    HW219242   4.634   1.040  16.795  0.1773  0.6917  1.0741
 2536SOL     OW19243   3.105   2.207  14.997 -0.1663 -0.5422  0.2893
 2536SOL    HW119244   3.013   2.187  14.977 -0.1681 -0.6049  0.3591
 2536SOL    HW219245   3.105   2.205  15.092  0.5673  0.5904  0.3010
 2537SOL     OW19246   1.473   3.380   9.853 -0.1070  0.7402 -0.0071
 2537SOL    HW119247   1.457   3.475   9.855 -0.3672  0.7491 -1.7227
 2537SOL    HW219248   1.533   3.386   9.778 -0.4513 -2.1113 -0.5159
 2538SOL     OW19249   2.300   3.173   1.696 -0.4326  0.3390  0.2617
 2538SOL    HW119250   2.229   3.155   1.635 -1.2446  0.4100  1.1979
 2538SOL    HW219251   2.356   3.224   1.637 -1.4220  0.2297 -0.7624
 2539SOL     OW19252   2.336   4.010  14.560  0.2292 -0.7540  0.3193
 2539SOL    HW119253   2.428   3.985  14.564 -0.1426 -2.1759  0.0205
 2539SOL    HW219254   2.284   3.930  14.576 -2.1185  0.9374  1.2169
 2540SOL     OW19255   1.342   0.175  14.778  0.3104  0.4716 -0.0983
 2540SOL    HW119256   1.375   0.110  14.840 -1.7112  0.1484  0.6399
 2540SOL    HW219257   1.304   0.237  14.841 -0.4704  1.5094 -1.5983
 2541SOL     OW19258   0.761   4.250   6.780  0.8431 -0.1990  0.6977
 2541SOL    HW119259   0.752   4.311   6.706  1.1749  2.0709  2.5079
 2541SOL    HW219260   0.672   4.245   6.814  1.0005  1.8173  1.4304
 2542SOL     OW19261   2.338   2.202   8.444 -0.1991  0.0126  1.0829
 2542SOL    HW119262   2.391   2.195   8.524  2.2467  0.5782 -0.5047
 2542SOL    HW219263   2.306   2.290   8.465 -1.0929 -0.2601  0.8245
 2543SOL     OW19264   2.558   1.760   1.857  0.2731  0.1986 -0.4512
 2543SOL    HW119265   2.533   1.825   1.923 -0.1985  2.4720 -2.8729
 2543SOL    HW219266   2.487   1.772   1.794 -1.0258 -0.2638  0.9426
 2544SOL     OW19267   1.283   4.721   3.506 -0.7018 -0.2427  0.4913
 2544SOL    HW119268   1.245   4.635   3.487 -2.3741  0.2745  1.5065
 2544SOL    HW219269   1.358   4.721   3.447 -1.1199  4.2908 -0.0464
 2545SOL     OW19270   4.046   1.230   3.477  0.0988 -0.7935  0.4101
 2545SOL    HW119271   4.101   1.308   3.470 -2.5835  1.0100 -0.6935
 2545SOL    HW219272   3.959   1.271   3.475 -0.4416 -1.9939 -1.0493
 2546SOL     OW19273   2.016   0.867   9.993  0.5047  0.6458 -0.4117
 2546SOL    HW119274   2.105   0.842   9.970  0.9048  1.9082 -0.2032
 2546SOL    HW219275   1.980   0.884   9.906 -0.7576  0.9346  0.1693
 2547SOL     OW19276   0.479   2.019  10.277  0.1415  0.5290  0.2102
 2547SOL    HW119277   0.521   2.062  10.351  0.0772 -0.2018  0.6714
 2547SOL    HW219278   0.431   1.947  10.318  1.1002 -1.6835 -2.4720
 2548SOL     OW19279   1.422   4.312  16.527 -0.0992  0.3115 -0.0384
 2548SOL    HW119280   1.348   4.254  16.546 -0.3280  0.1565 -1.4073
 2548SOL    HW219281   1.372   4.360  16.461 -0.7341 -1.8384 -1.1013
 2549SOL     OW19282   0.470   2.717   5.958  0.2959  0.7755 -0.1678
 2549SOL    HW119283   0.413   2.729   5.882  1.0943  0.5556 -0.7934
 2549SOL    HW219284   0.549   2.771   5.945  0.6053 -0.1890 -2.2647
 2550SOL     OW19285   3.791   0.285   8.494  0.5499  0.5153 -0.0515
 2550SOL    HW119286   3.816   0.197   8.466  0.2388  0.9415 -1.6983
 2550SOL    HW219287   3.699   0.287   8.468  0.5673 -0.3041 -0.1681
 2551SOL     OW19288   4.511   1.677   7.488  0.2525  0.4092  0.1291
 2551SOL    HW119289   4.484   1.642   7.403  3.8949 -1.0042 -0.4592
 2551SOL    HW219290   4.500   1.600   7.543  0.1179  0.2611 -0.1078
 2552SOL     OW19291   3.487   4.431   4.018 -0.5693 -0.1683  0.0758
 2552SOL    HW119292   3.412   4.489   4.005  0.6718  2.0618  2.8888
 2552SOL    HW219293   3.447   4.356   3.974  0.1979 -1.1440  1.0499
 2553SOL     OW19294   2.114   0.707   5.602 -0.0594  0.0689  0.2156
 2553SOL    HW119295   2.178   0.721   5.532  2.1808  1.0576  2.4558
 2553SOL    HW219296   2.157   0.629   5.639  2.2405  0.9957 -0.4633
 2554SOL     OW19297   4.450   1.966   0.859 -0.2067  0.1144 -0.8373
 2554SOL    HW119298   4.447   1.871   0.864  1.5755  0.1276  0.9398
 2554SOL    HW219299   4.357   1.986   0.851  0.0974  2.1019  0.3307
 2555SOL     OW19300   4.446   0.956   4.305 -0.6018  0.1483  0.1234
 2555SOL    HW119301   4.371   1.015   4.313  0.3709  1.0600  2.6855
 2555SOL    HW219302   4.506   0.988   4.373 -0.2101 -0.0968 -0.1031
 2556SOL     OW19303   4.398   1.737   4.835 -0.3058 -0.5733 -0.2028
 2556SOL    HW119304   4.375   1.765   4.746  0.6667  3.8208  0.9435
 2556SOL    HW219305   4.355   1.651   4.829 -0.2081 -0.7079  1.1114
 2557SOL     OW19306   2.251   3.035  13.881 -0.3056 -0.8453 -0.0617
 2557SOL    HW119307   2.316   3.091  13.839 -1.2023  0.1829 -0.0719
 2557SOL    HW219308   2.210   2.979  13.814 -1.3832 -0.3188  0.1670
 2558SOL     OW19309   0.065   1.057   3.862 -0.2753  0.3156 -0.1086
 2558SOL    HW119310   0.056   1.009   3.780  2.4109  0.4438 -0.4979
 2558SOL    HW219311   4.712   1.052   3.891  0.2476 -0.2417  1.3768
 2559SOL     OW19312   1.100   3.787   0.759 -0.6466 -0.0832  0.2289
 2559SOL    HW119313   1.121   3.837   0.680  0.8470  0.8311  1.1990
 2559SOL    HW219314   1.039   3.853   0.794  0.8077  2.0264 -1.1686
 2560SOL     OW19315   1.265   1.396   7.222 -0.5824 -0.6129 -0.2908
 2560SOL    HW119316   1.277   1.431   7.310  0.4135  1.0957 -1.1041
 2560SOL    HW219317   1.171   1.377   7.216 -0.1267 -3.2268  1.0178
 2561SOL     OW19318   2.313   2.425   0.326 -0.1539 -0.0366 -0.2796
 2561SOL    HW119319   2.270   2.420   0.241  0.5076 -1.5124 -0.5234
 2561SOL    HW219320   2.394   2.383   0.297 -0.6698  0.1469 -2.0071
 2562SOL     OW19321   1.090   0.887   1.319  0.0659  0.3144 -0.4358
 2562SOL    HW119322   1.113   0.970   1.361 -0.3720 -1.2273  2.9021
 2562SOL    HW219323   1.139   0.819   1.366  0.0126  0.2500 -0.4729
 2563SOL     OW19324   1.695   1.632   7.766  0.1480 -0.0102 -0.5368
 2563SOL    HW119325   1.646   1.551   7.781 -0.5539  0.5274  0.0897
 2563SOL    HW219326   1.728   1.616   7.678  2.0146  1.3545 -0.0906
 2564SOL     OW19327   4.090   0.379   0.259  0.4200  0.0031  0.5081
 2564SOL    HW119328   4.045   0.386   0.343 -1.7734  0.8720 -0.7343
 2564SOL    HW219329   4.017   0.387   0.198  1.2643 -0.8273 -0.6147
 2565SOL     OW19330   1.929   3.936   0.822 -0.8472 -0.0626  0.5508
 2565SOL    HW119331   2.012   3.919   0.778 -0.8467 -0.4336  0.6943
 2565SOL    HW219332   1.966   3.982   0.897 -0.4618  0.4754  0.0299
 2566SOL     OW19333   2.943   4.654   6.053 -0.1915  0.0008 -0.2210
 2566SOL    HW119334   2.882   4.668   6.126  0.4292 -3.2903  0.9611
 2566SOL    HW219335   2.926   4.561   6.036  1.5567 -0.3378 -0.1003
 2567SOL     OW19336   2.866   4.430   0.633  0.3412  0.0390  0.1765
 2567SOL    HW119337   2.944   4.483   0.622  0.3973 -0.4327 -1.7374
 2567SOL    HW219338   2.884   4.355   0.576 -0.5575  0.2661 -0.4110
 2568SOL     OW19339   0.416   3.875  11.171  0.2956  0.2752  0.3009
 2568SOL    HW119340   0.334   3.908  11.207 -0.1273 -1.2565  0.7828
 2568SOL    HW219341   0.378   3.827  11.097 -0.1430  0.9342  0.1005
 2569SOL     OW19342   3.858   1.701   2.648  0.0406  0.9627  0.1906
 2569SOL    HW119343   3.909   1.640   2.701  0.5261 -0.4078 -1.8733
 2569SOL    HW219344   3.820   1.649   2.577  1.6881  0.0496 -0.0056
 2570SOL     OW19345   4.380   4.483   7.866 -0.6291  0.4535  0.4080
 2570SOL    HW119346   4.403   4.566   7.825  0.2531  0.2013  0.4004
 2570SOL    HW219347   4.453   4.421   7.860 -1.2484 -0.0569 -1.6746
 2571SOL     OW19348   2.163   0.557   1.920  0.2101  0.6049 -0.1594
 2571SOL    HW119349   2.169   0.625   1.853 -3.0096  0.1288 -0.9353
 2571SOL    HW219350   2.254   0.530   1.929  0.1694  0.8830  1.0663
 2572SOL     OW19351   1.475   3.050   3.518 -0.0566 -0.0804  0.3173
 2572SOL    HW119352   1.405   2.994   3.551 -2.1410  1.5608 -1.3847
 2572SOL    HW219353   1.525   3.067   3.599 -3.1914 -0.0299  2.2258
 2573SOL     OW19354   3.096   3.204   9.330  0.0417 -0.1968 -0.6158
 2573SOL    HW119355   3.047   3.172   9.405  1.7691 -2.7259 -0.5377
 2573SOL    HW219356   3.187   3.184   9.352 -0.6736 -2.3295  0.4149
 2574SOL     OW19357   1.345   2.868   8.661 -0.0144  0.0052  0.3487
 2574SOL    HW119358   1.382   2.926   8.728  0.3663 -0.6577  0.7158
 2574SOL    HW219359   1.375   2.906   8.579 -2.0217 -1.4073 -1.0563
 2575SOL     OW19360   2.586   2.290   3.610  0.2061 -0.5292 -0.3190
 2575SOL    HW119361   2.552   2.373   3.642  1.6095 -0.1291  0.1586
 2575SOL    HW219362   2.519   2.226   3.635  1.1172 -0.6639  1.8600
 2576SOL     OW19363   3.464   2.470   7.698 -0.3257  0.2934 -0.3858
 2576SOL    HW119364   3.530   2.520   7.746  0.8742 -1.3145 -0.3622
 2576SOL    HW219365   3.522   2.412   7.649  0.4102 -0.6427  1.5830
 2577SOL     OW19366   0.843   4.443  12.172 -0.6947  0.2725  0.2375
 2577SOL    HW119367   0.848   4.350  12.194  0.8754  0.9338  2.6287
 2577SOL    HW219368   0.751   4.460  12.195 -0.0255  2.3349  1.2978
 2578SOL     OW19369   2.415   0.326   2.758  0.0497  0.3397  0.2993
 2578SOL    HW119370   2.330   0.336   2.800 -0.4581  1.4815 -1.0297
 2578SOL    HW219371   2.412   0.240   2.715 -1.2914 -0.0746  1.2442
 2579SOL     OW19372   3.969   0.104   8.006  0.1326  0.1493  0.1823
 2579SOL    HW119373   3.939   0.173   8.066  4.0599  1.9256  0.0879
 2579SOL    HW219374   4.034   0.065   8.064 -0.1720  0.5378  0.7823
 2580SOL     OW19375   3.702   0.737   2.467 -0.3188  0.1170  0.0986
 2580SOL    HW119376   3.786   0.772   2.438 -0.2496  0.4427  0.7097
 2580SOL    HW219377   3.728   0.698   2.550  1.2481 -0.3502 -0.6188
 2581SOL     OW19378   0.016   0.166  11.954 -0.9259 -0.8023 -0.4242
 2581SOL    HW119379   4.687   0.208  11.898 -1.4633  1.0457  1.5718
 2581SOL    HW219380   4.707   0.088  11.985  0.9695 -2.6321 -2.2160
 2582SOL     OW19381   2.789   1.530   5.901 -0.1578 -0.6491  0.2707
 2582SOL    HW119382   2.805   1.625   5.901 -1.2819 -0.4503  3.5653
 2582SOL    HW219383   2.717   1.528   5.838 -2.5109  0.9538  2.9217
 2583SOL     OW19384   2.620   2.690   9.249  0.4000 -0.3429  0.6311
 2583SOL    HW119385   2.533   2.713   9.216  0.5489 -2.7629 -1.4272
 2583SOL    HW219386   2.639   2.777   9.283 -0.3202  0.8343 -2.0095
 2584SOL     OW19387   0.760   2.864   5.986  0.1215  0.1545  0.5366
 2584SOL    HW119388   0.834   2.867   5.925  0.2154  0.1472  0.6483
 2584SOL    HW219389   0.765   2.956   6.010  0.1651  0.4766 -0.7040
 2585SOL     OW19390   2.971   4.414  11.719 -0.1260 -0.1640 -0.2840
 2585SOL    HW119391   2.996   4.503  11.696 -0.1748  0.5714  2.5183
 2585SOL    HW219392   2.890   4.412  11.670  0.0575 -1.1164 -0.5534
 2586SOL     OW19393   2.216   4.535  14.134 -0.1874 -0.1269  0.0985
 2586SOL    HW119394   2.177   4.604  14.080  0.1580  0.0187  0.0337
 2586SOL    HW219395   2.240   4.463  14.075  2.0225 -0.3834  1.3145
 2587SOL     OW19396   2.996   3.373  16.239 -0.3382 -0.6650  0.2067
 2587SOL    HW119397   3.050   3.311  16.287  1.5230  0.7817 -0.0266
 2587SOL    HW219398   2.908   3.334  16.233 -1.2582  1.4520 -0.1900
 2588SOL     OW19399   1.003   3.077   6.818  0.4670  0.4032 -0.4818
 2588SOL    HW119400   1.069   3.024   6.774 -0.2286 -0.4842 -0.4608
 2588SOL    HW219401   0.950   3.092   6.739 -0.3789  2.9089  0.5485
 2589SOL     OW19402   4.232   0.202   1.438 -0.3394  0.3266  0.2857
 2589SOL    HW119403   4.180   0.253   1.500 -1.6291 -0.3678 -0.2160
 2589SOL    HW219404   4.266   0.138   1.501 -1.9010 -0.8116 -0.0100
 2590SOL     OW19405   4.633   1.949  16.434 -0.3684  0.1370  0.0937
 2590SOL    HW119406   4.680   1.988  16.508 -1.0289 -1.1089  1.1730
 2590SOL    HW219407   4.567   1.894  16.476 -0.3265 -0.7088 -0.9269
 2591SOL     OW19408   0.887   2.346   4.195  0.4319 -0.5213  0.5993
 2591SOL    HW119409   0.871   2.298   4.114  3.4305 -3.4470  1.7243
 2591SOL    HW219410   0.867   2.285   4.265  1.2745  0.5343  1.7624
 2592SOL     OW19411   1.358   1.397  11.099 -0.4552  0.1420 -0.4976
 2592SOL    HW119412   1.273   1.365  11.129 -0.4369  1.3146  0.7926
 2592SOL    HW219413   1.409   1.375  11.177 -0.9626 -1.0540 -0.5054
 2593SOL     OW19414   1.555   3.035  10.813  1.0584 -0.3101 -0.0895
 2593SOL    HW119415   1.577   2.971  10.881  1.0419 -1.0094 -0.7514
 2593SOL    HW219416   1.491   3.096  10.851 -1.3071 -1.0921 -2.8413
 2594SOL     OW19417   0.807   2.484   5.119  0.0375 -0.2629  0.2294
 2594SOL    HW119418   0.866   2.449   5.053  0.6602  1.1770  0.0208
 2594SOL    HW219419   0.881   2.506   5.176 -0.3567  0.1999  0.5597
 2595SOL     OW19420   3.977   3.738   1.953  0.6422  0.2614 -0.0220
 2595SOL    HW119421   3.894   3.777   1.926  0.9244 -0.2626 -1.5985
 2595SOL    HW219422   4.031   3.816   1.958  1.0640 -0.0611  0.5451
 2596SOL     OW19423   3.000   3.069  13.507  0.2770  0.5794 -0.1293
 2596SOL    HW119424   2.980   3.066  13.414  0.3220 -3.2368 -0.0469
 2596SOL    HW219425   3.071   3.004  13.503 -0.8320 -0.5470 -1.3173
 2597SOL     OW19426   3.439   0.154   9.896  0.1805 -0.1549  0.1406
 2597SOL    HW119427   3.461   0.072   9.852  1.2543  0.1819  0.0627
 2597SOL    HW219428   3.346   0.148   9.919 -0.4425 -1.7443 -2.6886
 2598SOL     OW19429   2.077   0.434  16.531 -0.6351 -0.2408 -0.1645
 2598SOL    HW119430   2.122   0.507  16.575  0.2323 -1.4211  0.8928
 2598SOL    HW219431   1.987   0.455  16.556 -0.0770 -0.0941  1.7744
 2599SOL     OW19432   2.110   0.286   8.868  0.8634 -0.2475  1.0183
 2599SOL    HW119433   2.040   0.351   8.853  1.7789 -0.3210 -3.6155
 2599SOL    HW219434   2.120   0.245   8.783  2.6241  0.9637  0.6475
 2600SOL     OW19435   0.473   4.133   0.229  0.2413  0.4268  0.0221
 2600SOL    HW119436   0.461   4.200   0.296  0.0079  0.7274 -0.3152
 2600SOL    HW219437   0.385   4.106   0.202  0.7555  0.6870 -1.9014
 2601SOL     OW19438   1.658   1.136   6.276 -0.5416 -0.1153  0.3671
 2601SOL    HW119439   1.736   1.147   6.332  0.2827  1.9865 -1.2059
 2601SOL    HW219440   1.628   1.047   6.295  0.3830 -0.0994  1.9864
 2602SOL     OW19441   0.349   0.705   4.796  0.2160 -0.1870  0.0403
 2602SOL    HW119442   0.422   0.676   4.741  1.8807  3.1712  0.4829
 2602SOL    HW219443   0.325   0.794   4.769  0.0508 -0.2007  0.1381
 2603SOL     OW19444   2.008   2.367   0.894  0.2217 -0.5961 -0.1049
 2603SOL    HW119445   1.957   2.287   0.910  0.5723 -1.0056 -1.0580
 2603SOL    HW219446   2.050   2.396   0.975  0.0201  0.0028 -0.2173
 2604SOL     OW19447   4.529   0.047  14.696 -0.7337 -0.3340 -0.1037
 2604SOL    HW119448   4.607   0.090  14.660 -1.1013  1.0169  0.7320
 2604SOL    HW219449   4.480   0.034  14.615  0.1857  2.4796 -1.1120
 2605SOL     OW19450   4.248   1.865   0.663 -0.7121  0.0411  0.1304
 2605SOL    HW119451   4.167   1.848   0.613 -1.3666 -0.5269  1.3904
 2605SOL    HW219452   4.251   1.960   0.668 -0.2423 -0.0715  1.7601
 2606SOL     OW19453   3.488   2.412   9.307 -0.0293 -0.3310  0.0376
 2606SOL    HW119454   3.419   2.449   9.363  0.6632 -0.0712  0.7134
 2606SOL    HW219455   3.451   2.324   9.299  0.5501 -0.6678  1.0485
 2607SOL     OW19456   0.499   2.902   3.807  0.0746 -0.1253  0.5434
 2607SOL    HW119457   0.407   2.882   3.793 -0.0119  1.5444 -1.2851
 2607SOL    HW219458   0.500   2.993   3.779  2.3558  0.3678  2.2343
 2608SOL     OW19459   0.279   4.287   4.229 -0.2498  0.3408 -0.3023
 2608SOL    HW119460   0.203   4.305   4.284  0.2390  2.6357 -0.3697
 2608SOL    HW219461   0.277   4.362   4.169  1.9989 -0.1593 -0.9875
 2609SOL     OW19462   1.569   2.557   7.562  0.1914  0.2815  0.3199
 2609SOL    HW119463   1.535   2.589   7.479 -0.7637 -1.5379  0.0236
 2609SOL    HW219464   1.623   2.632   7.587  0.8825 -0.2854  0.5306
 2610SOL     OW19465   2.907   3.321   5.413 -0.4243  0.1867  0.0175
 2610SOL    HW119466   2.984   3.339   5.359  0.0272 -0.7530  0.3351
 2610SOL    HW219467   2.919   3.226   5.411 -2.0071 -0.0074  0.2526
 2611SOL     OW19468   0.060   2.449   3.820 -0.2271 -0.0501 -0.0611
 2611SOL    HW119469   0.130   2.490   3.871 -0.5974  1.5139 -0.7991
 2611SOL    HW219470   4.713   2.488   3.840 -0.2044 -0.5026  0.8750
 2612SOL     OW19471   2.155   0.159  13.287  0.4077 -0.2551  0.5310
 2612SOL    HW119472   2.102   0.235  13.311 -1.1170 -1.2331  0.3177
 2612SOL    HW219473   2.228   0.171  13.347 -0.5626 -1.6437  2.0099
 2613SOL     OW19474   0.982   2.108   8.942  0.1905  0.1160  0.8090
 2613SOL    HW119475   0.953   2.032   8.892  1.3706  1.3204 -1.6925
 2613SOL    HW219476   1.076   2.103   8.924 -0.4353 -0.2450 -2.3830
 2614SOL     OW19477   2.306   0.255   3.163 -0.0879  0.6326 -0.4866
 2614SOL    HW119478   2.360   0.177   3.174  0.1431  0.9066  0.3485
 2614SOL    HW219479   2.254   0.251   3.243  0.6558 -2.7310 -0.1703
 2615SOL     OW19480   3.564   4.397   8.757  0.1055  0.0730 -0.7290
 2615SOL    HW119481   3.621   4.422   8.830 -1.2192  0.9928 -0.0179
 2615SOL    HW219482   3.486   4.366   8.804  1.9957 -2.0591  1.0111
 2616SOL     OW19483   1.998   2.648   4.692  0.4370  0.4962 -0.5959
 2616SOL    HW119484   1.912   2.668   4.655 -0.0576 -0.8666 -0.1944
 2616SOL    HW219485   2.033   2.580   4.633 -0.1845  1.4260 -2.0509
 2617SOL     OW19486   2.101   1.309  12.732  0.1408  0.1136  0.3933
 2617SOL    HW119487   2.190   1.336  12.754 -0.4196  2.4236 -0.2405
 2617SOL    HW219488   2.064   1.397  12.733  2.5656  1.1363 -1.6257
 2618SOL     OW19489   2.116   1.568  15.680 -0.0582  0.1451 -0.2274
 2618SOL    HW119490   2.048   1.505  15.705  0.0567 -0.0477 -0.3919
 2618SOL    HW219491   2.193   1.537  15.727 -1.1866 -1.3590  0.6244
 2619SOL     OW19492   3.521   2.344   8.353 -0.2297 -0.4838  0.5592
 2619SOL    HW119493   3.528   2.338   8.258 -1.6995  1.6428  0.3014
 2619SOL    HW219494   3.610   2.368   8.379  0.2505 -1.6146 -0.0793
 2620SOL     OW19495   3.130   3.184   5.722  0.5889  0.2596 -0.5056
 2620SOL    HW119496   3.219   3.214   5.708 -0.5373  2.4241 -2.9331
 2620SOL    HW219497   3.110   3.244   5.794 -0.9299 -0.2788 -0.4697
 2621SOL     OW19498   4.022   4.139   4.603 -0.1335 -0.0790  0.5609
 2621SOL    HW119499   4.062   4.191   4.673 -0.0677  0.4679  0.1258
 2621SOL    HW219500   3.972   4.212   4.566 -0.6205  0.7285  2.8065
 2622SOL     OW19501   4.410   2.189   6.622 -0.6271 -0.3155 -0.2380
 2622SOL    HW119502   4.499   2.198   6.589 -1.1010  1.5108 -1.0020
 2622SOL    HW219503   4.405   2.101   6.659 -0.7040 -0.2890 -0.1830
 2623SOL     OW19504   1.727   3.384   9.690 -0.1850  0.0241 -0.0924
 2623SOL    HW119505   1.797   3.350   9.747 -0.6037 -1.6976 -0.6126
 2623SOL    HW219506   1.767   3.443   9.627 -0.2155 -1.4209 -1.4813
 2624SOL     OW19507   3.687   2.592   4.382 -0.3089  0.0441 -0.1780
 2624SOL    HW119508   3.636   2.518   4.415 -0.6482  0.1962 -0.3616
 2624SOL    HW219509   3.679   2.583   4.287  0.2965 -0.2116 -0.2091
 2625SOL     OW19510   3.942   3.903   2.646  0.2076 -0.0405 -0.3836
 2625SOL    HW119511   3.859   3.856   2.642 -1.3873  2.4936  2.7031
 2625SOL    HW219512   3.994   3.861   2.578 -0.3902 -1.6031  0.1258
 2626SOL     OW19513   3.132   1.728   9.503  0.4851  0.1287 -0.1952
 2626SOL    HW119514   3.115   1.751   9.594  0.0746  1.2783 -0.5619
 2626SOL    HW219515   3.116   1.634   9.502  0.9958  0.0654 -2.7047
 2627SOL     OW19516   0.354   3.546  13.154  0.5256  0.5403 -0.0450
 2627SOL    HW119517   0.441   3.585  13.164  0.9182 -0.1905 -0.7023
 2627SOL    HW219518   0.302   3.627  13.152 -0.4753 -0.1180 -0.4855
 2628SOL     OW19519   2.157   1.931   1.006 -0.0941  0.5917  0.3300
 2628SOL    HW119520   2.240   1.949   0.962 -0.8064 -1.0941 -1.7242
 2628SOL    HW219521   2.132   2.017   1.040  1.4697  0.1616  2.5963
 2629SOL     OW19522   4.505   0.909  13.930 -0.2242  0.1788 -0.1567
 2629SOL    HW119523   4.409   0.917  13.926 -0.2964  0.1005  1.5593
 2629SOL    HW219524   4.531   1.001  13.925  0.9136 -0.1454 -0.0620
 2630SOL     OW19525   0.955   4.412   2.913  0.0401 -0.2137 -0.0529
 2630SOL    HW119526   0.995   4.411   3.000 -1.8643  1.8943  0.8594
 2630SOL    HW219527   0.897   4.488   2.921 -2.3917 -2.1101  0.1810
 2631SOL     OW19528   4.018   0.773   8.425  0.3854 -0.0164  0.2453
 2631SOL    HW119529   4.037   0.805   8.513 -0.0108 -2.5453  1.2165
 2631SOL    HW219530   4.041   0.856   8.382 -0.0915  0.9227  1.7903
 2632SOL     OW19531   4.730   3.867   6.031 -0.3226  0.6049  0.0208
 2632SOL    HW119532   0.075   3.889   6.075  0.7545 -0.2494 -1.5703
 2632SOL    HW219533   4.706   3.944   5.980 -1.2148  0.9376  0.9474
 2633SOL     OW19534   1.122   4.338  12.957  0.1433 -0.7218 -0.2959
 2633SOL    HW119535   1.206   4.368  12.992 -0.2546  0.4329 -0.3317
 2633SOL    HW219536   1.145   4.287  12.879 -1.2515  0.7958 -1.7162
 2634SOL     OW19537   3.442   2.666  12.177  0.4546 -0.2493 -0.1241
 2634SOL    HW119538   3.464   2.576  12.203  1.4419 -0.0197 -0.1520
 2634SOL    HW219539   3.516   2.714  12.215  0.4543  0.8943 -1.5753
 2635SOL     OW19540   1.204   1.597   7.734 -0.2546  0.0496 -0.6586
 2635SOL    HW119541   1.249   1.613   7.650  1.0779  0.2532  0.0939
 2635SOL    HW219542   1.116   1.618   7.703  0.2142 -0.2985 -2.2554
 2636SOL     OW19543   2.378   2.259   7.640  0.6419 -0.1134  0.1755
 2636SOL    HW119544   2.283   2.260   7.640  0.6711  1.9933  0.4683
 2636SOL    HW219545   2.385   2.270   7.735  0.7697 -0.5815  0.2209
 2637SOL     OW19546   4.470   1.603   7.892  0.7241 -0.0090  0.7100
 2637SOL    HW119547   4.403   1.669   7.873  1.9554  1.0090 -0.0691
 2637SOL    HW219548   4.463   1.567   7.803  0.4728  0.2607  0.6178
 2638SOL     OW19549   1.443   1.755  14.359  0.5298  0.1360 -0.1511
 2638SOL    HW119550   1.488   1.683  14.314  1.0764 -0.2724  1.0423
 2638SOL    HW219551   1.430   1.821  14.290  1.5091 -0.1682 -0.6389
 2639SOL     OW19552   1.375   4.732  14.103  0.0405 -0.0675 -0.2845
 2639SOL    HW119553   1.285   4.718  14.074 -0.1020  1.4289 -0.5711
 2639SOL    HW219554   1.399   4.641  14.087 -1.7583 -0.8028  1.1393
 2640SOL     OW19555   0.734   3.724   3.890  0.4197  0.3605 -0.0441
 2640SOL    HW119556   0.776   3.642   3.863 -0.4420 -0.1125  0.0613
 2640SOL    HW219557   0.793   3.792   3.856 -0.8457  1.7928  0.6222
 2641SOL     OW19558   4.139   4.430   7.002  0.3673 -0.0729  0.3461
 2641SOL    HW119559   4.212   4.492   7.013 -0.7007  1.4353 -1.0792
 2641SOL    HW219560   4.079   4.494   6.964 -0.5785 -1.1383  0.0634
 2642SOL     OW19561   4.103   1.692  17.728 -0.0527 -0.4384  0.4892
 2642SOL    HW119562   4.045   1.756  17.686 -2.2273 -2.7462 -0.0615
 2642SOL    HW219563   4.062   1.605  17.721  0.7045 -0.9188  1.8977
 2643SOL     OW19564   2.549   4.186   8.264 -0.4495 -0.1193  0.0062
 2643SOL    HW119565   2.563   4.100   8.226 -2.3211 -1.3158  2.0449
 2643SOL    HW219566   2.521   4.240   8.189  1.8473 -0.9437 -1.4429
 2644SOL     OW19567   0.868   1.568  10.629  0.0403 -0.2472 -0.0058
 2644SOL    HW119568   0.901   1.646  10.584  1.0734 -0.1147  0.9798
 2644SOL    HW219569   0.806   1.537  10.563  1.7802 -0.1810 -1.6736
 2645SOL     OW19570   1.288   2.981  17.200 -0.1014  0.1601  0.3554
 2645SOL    HW119571   1.363   3.028  17.162 -1.1413  1.4759 -0.0660
 2645SOL    HW219572   1.220   2.998  17.135 -0.4351 -0.9434  0.4183
 2646SOL     OW19573   3.643   0.642   7.944 -0.2346  0.0606  0.1001
 2646SOL    HW119574   3.683   0.690   8.016 -0.1342 -0.2635  0.2598
 2646SOL    HW219575   3.552   0.643   7.974 -0.2777 -2.1896  0.0357
 2647SOL     OW19576   2.268   0.134  10.799 -0.2960  0.6068  0.2834
 2647SOL    HW119577   2.263   0.056  10.854  0.5901 -0.2487 -0.8460
 2647SOL    HW219578   2.362   0.154  10.793 -0.1397 -0.2220 -0.1324
 2648SOL     OW19579   2.527   0.182   6.991 -0.1676 -0.2770  0.0552
 2648SOL    HW119580   2.503   0.212   6.903 -1.7921  0.7835  0.8844
 2648SOL    HW219581   2.522   0.261   7.044  1.1845  0.1043 -0.3670
 2649SOL     OW19582   3.784   4.629   2.116  0.3592 -0.6293 -0.1499
 2649SOL    HW119583   3.831   4.563   2.167  0.7318 -1.0646 -1.0576
 2649SOL    HW219584   3.691   4.608   2.120  0.8107 -2.3963  0.8186
 2650SOL     OW19585   0.621   1.994   0.444  0.1560  0.1283 -0.6610
 2650SOL    HW119586   0.595   1.991   0.536  0.5654 -1.9974 -0.6048
 2650SOL    HW219587   0.577   1.910   0.428 -0.4805 -0.1115  2.3146
 2651SOL     OW19588   2.247   2.598   8.918 -0.2729 -0.3451 -0.2628
 2651SOL    HW119589   2.231   2.675   8.863 -1.2617 -0.6847 -0.4386
 2651SOL    HW219590   2.202   2.530   8.869  0.0696  0.8266 -2.2181
 2652SOL     OW19591   0.071   1.240  17.605  0.1280 -0.3164 -0.2764
 2652SOL    HW119592   0.093   1.147  17.599  0.1236 -0.3453  0.1917
 2652SOL    HW219593   0.147   1.272  17.654 -1.9193  0.6282  2.2656
 2653SOL     OW19594   1.587   3.631   9.366  0.2965  0.0577  0.3415
 2653SOL    HW119595   1.522   3.699   9.385 -2.2798 -2.5046  0.7192
 2653SOL    HW219596   1.556   3.592   9.284 -1.4139  3.9623 -0.8534
 2654SOL     OW19597   1.760   2.591   6.512 -0.1404  0.1297 -0.4115
 2654SOL    HW119598   1.765   2.500   6.541 -2.9161 -0.3915 -1.5372
 2654SOL    HW219599   1.797   2.642   6.584 -1.9818  0.3762  0.3630
 2655SOL     OW19600   1.399   4.188  13.692 -0.4170 -0.3260 -0.5193
 2655SOL    HW119601   1.323   4.233  13.729  0.6518  0.9334  0.1757
 2655SOL    HW219602   1.465   4.247  13.729  0.1234 -1.1618 -0.1451
 2656SOL     OW19603   4.096   3.060   9.644 -0.0588 -0.0989  0.2025
 2656SOL    HW119604   4.112   3.059   9.739  0.6780 -0.1672  0.0765
 2656SOL    HW219605   4.158   2.996   9.610  1.1268  1.0787  0.1514
 2657SOL     OW19606   2.547   0.236   3.985  0.2483  0.5314 -0.2906
 2657SOL    HW119607   2.565   0.194   4.069 -0.6685  0.2446 -0.2357
 2657SOL    HW219608   2.523   0.324   4.014  1.3913  0.3848  1.1036
 2658SOL     OW19609   2.735   2.221   9.858  0.4435  0.1589 -0.5395
 2658SOL    HW119610   2.795   2.293   9.838 -0.1533  0.8323  0.0787
 2658SOL    HW219611   2.656   2.257   9.819  0.0887 -0.5440 -0.4640
 2659SOL     OW19612   3.708   3.482   5.930  0.6463  0.3196 -0.6594
 2659SOL    HW119613   3.632   3.540   5.919 -0.5442 -1.6929 -2.9709
 2659SOL    HW219614   3.781   3.542   5.915  0.5866  0.8326  1.0408
 2660SOL     OW19615   2.051   4.071  13.277  0.4178  0.1302 -0.1684
 2660SOL    HW119616   2.067   3.977  13.264  1.3500  0.2884 -0.1677
 2660SOL    HW219617   2.079   4.067  13.368  2.2973 -0.7956 -0.7890
 2661SOL     OW19618   0.028   4.419   4.781 -0.1601  0.7160 -0.3991
 2661SOL    HW119619   0.123   4.406   4.785  0.0123  2.3289  0.7706
 2661SOL    HW219620   0.006   4.362   4.854  0.7283 -1.1342 -1.5675
 2662SOL     OW19621   0.693   1.841   3.151 -0.2978 -0.3542  0.0746
 2662SOL    HW119622   0.763   1.810   3.208  0.9389 -0.9839 -1.7766
 2662SOL    HW219623   0.698   1.767   3.089  0.4161 -0.1127 -0.1509
 2663SOL     OW19624   2.905   2.632   7.515 -0.9167 -0.1203  0.3017
 2663SOL    HW119625   2.872   2.579   7.442  0.3699  1.8634 -1.7030
 2663SOL    HW219626   2.986   2.669   7.481 -1.6957 -0.0154 -1.4458
 2664SOL     OW19627   0.307   0.026  13.678 -0.1909  0.2320  0.7277
 2664SOL    HW119628   0.352   4.700  13.622  1.0283  1.5960  0.1539
 2664SOL    HW219629   0.381   0.057  13.730 -0.4825  1.2137  0.5652
 2665SOL     OW19630   0.079   0.441   7.880  0.3895  0.5300  0.3720
 2665SOL    HW119631   0.074   0.354   7.920 -0.0722 -0.0982 -1.0752
 2665SOL    HW219632   0.002   0.479   7.923  0.3054 -1.1063  1.6501
 2666SOL     OW19633   2.745   1.414  14.135  0.2672  0.4467 -0.3440
 2666SOL    HW119634   2.715   1.327  14.108  1.4788  0.2429 -1.0246
 2666SOL    HW219635   2.751   1.401  14.229  2.7186  0.8753 -0.4440
 2667SOL     OW19636   0.119   0.985   6.710  0.5327 -0.6087 -0.2622
 2667SOL    HW119637   0.089   1.040   6.783  0.9766 -1.7301  0.7781
 2667SOL    HW219638   0.040   0.937   6.685  1.4817 -0.2298 -3.8965
 2668SOL     OW19639   1.145   2.982   2.757  0.6385  0.2416 -0.0293
 2668SOL    HW119640   1.076   2.934   2.711  2.1534  0.8005 -2.8861
 2668SOL    HW219641   1.104   3.064   2.784  0.7693 -0.1413  1.3592
 2669SOL     OW19642   4.121   3.823   6.557 -0.2977  0.0822  0.3542
 2669SOL    HW119643   4.026   3.826   6.546 -0.3268  1.2337  0.9350
 2669SOL    HW219644   4.143   3.730   6.566 -0.3390 -0.1120 -1.5566
 2670SOL     OW19645   1.225   0.845   9.158 -0.8669 -0.0121 -0.1819
 2670SOL    HW119646   1.153   0.838   9.096  0.3452 -0.5944 -1.5246
 2670SOL    HW219647   1.240   0.940   9.155  0.8103 -0.1937  1.8715
 2671SOL     OW19648   3.042   0.250   8.328  0.1496  0.0999  0.5560
 2671SOL    HW119649   3.003   0.256   8.415 -1.4793  1.1329 -0.2405
 2671SOL    HW219650   2.978   0.191   8.288 -1.3590 -0.2646  3.4695
 2672SOL     OW19651   3.526   0.156   1.143 -0.0013  0.4550  0.2384
 2672SOL    HW119652   3.441   0.165   1.186  0.3480  2.3696  0.5105
 2672SOL    HW219653   3.539   0.247   1.118  3.2148 -0.9346 -3.0953
 2673SOL     OW19654   2.920   2.957   9.920 -0.1786 -0.4755 -0.5638
 2673SOL    HW119655   2.838   3.005   9.927 -1.1012 -2.5812  3.1033
 2673SOL    HW219656   2.884   2.874   9.890 -1.2162 -0.6930  1.2875
 2674SOL     OW19657   3.756   0.610   5.251 -0.0483  0.0619 -0.4540
 2674SOL    HW119658   3.819   0.540   5.266 -0.5200  0.0504  1.5406
 2674SOL    HW219659   3.726   0.632   5.340 -1.7504 -1.0290 -0.7655
 2675SOL     OW19660   2.382   2.640   7.027 -0.1280 -0.3581 -0.0731
 2675SOL    HW119661   2.407   2.567   7.084 -0.5699 -0.4877 -0.0396
 2675SOL    HW219662   2.322   2.695   7.077 -1.2519 -0.8151 -0.9182
 2676SOL     OW19663   1.588   1.273   1.921 -0.2972  0.2098 -0.2171
 2676SOL    HW119664   1.627   1.202   1.971 -0.4277  0.3490  0.0831
 2676SOL    HW219665   1.542   1.317   1.992 -2.5739  0.0981 -1.6064
 2677SOL     OW19666   3.964   2.796  15.842 -0.5102  0.0405  0.4165
 2677SOL    HW119667   4.051   2.815  15.807 -0.4620  1.3271  1.2273
 2677SOL    HW219668   3.937   2.719  15.793 -0.7004 -0.4184  1.2420
 2678SOL     OW19669   1.868   1.001   2.939  0.2838  0.5202  0.3863
 2678SOL    HW119670   1.914   0.966   2.863 -1.7976 -1.3760  0.0268
 2678SOL    HW219671   1.831   1.082   2.903 -2.9536 -0.9664  0.3864
 2679SOL     OW19672   1.752   0.061  10.124  0.2831 -0.1251  0.1200
 2679SOL    HW119673   1.819   0.061  10.193 -0.5418 -3.3465  0.9091
 2679SOL    HW219674   1.746   0.155  10.108 -0.2949  0.0239  1.2150
 2680SOL     OW19675   2.169   2.251   9.269  0.7108  0.1880  0.3353
 2680SOL    HW119676   2.243   2.274   9.213 -0.6575  1.7913 -0.8319
 2680SOL    HW219677   2.207   2.214   9.349  0.5490 -1.4120 -0.3307
 2681SOL     OW19678   0.546   4.672   3.571  0.4861 -0.3197  0.4455
 2681SOL    HW119679   0.542   0.003   3.504  2.2024 -0.9727 -0.2972
 2681SOL    HW219680   0.613   4.611   3.540  1.3893  1.2072 -0.5758
 2682SOL     OW19681   4.118   0.745   9.731  0.1772 -0.3093  0.2386
 2682SOL    HW119682   4.193   0.795   9.700 -1.2270  0.7967 -1.3485
 2682SOL    HW219683   4.100   0.703   9.647  0.2024 -1.0672  0.6024
 2683SOL     OW19684   1.223   0.964   0.571  0.1727  0.3792  0.1089
 2683SOL    HW119685   1.147   0.907   0.580 -0.4168  1.3409  1.2372
 2683SOL    HW219686   1.189   1.030   0.632  0.9084  0.2135  0.6867
 2684SOL     OW19687   3.325   4.104  17.555  0.2133 -0.1417 -0.2446
 2684SOL    HW119688   3.383   4.174  17.525  1.5556 -1.2623 -0.2486
 2684SOL    HW219689   3.240   4.144  17.576 -0.0150 -0.6084 -0.2922
 2685SOL     OW19690   1.305   0.261  14.121 -0.5390 -0.1387  0.6142
 2685SOL    HW119691   1.392   0.300  14.116 -0.7024  0.1372  0.0415
 2685SOL    HW219692   1.326   0.168  14.113  2.6139  0.7584 -1.5996
 2686SOL     OW19693   0.975   2.947   5.805 -0.3499 -0.0343  0.2863
 2686SOL    HW119694   0.949   2.899   5.727 -0.1077 -0.4587  0.4667
 2686SOL    HW219695   0.952   3.032   5.768  1.0271 -0.5176 -1.6627
 2687SOL     OW19696   0.397   0.337  12.479 -0.1300  0.3269  0.1726
 2687SOL    HW119697   0.418   0.320  12.387 -2.8979 -2.1202 -0.0105
 2687SOL    HW219698   0.385   0.431  12.487 -1.0620  0.1360  1.0583
 2688SOL     OW19699   2.290   1.586   1.978 -0.1924  0.1076  0.5337
 2688SOL    HW119700   2.198   1.589   2.004 -0.2298  0.3843  0.3793
 2688SOL    HW219701   2.316   1.678   1.989  1.1338 -0.2072  0.0387
 2689SOL     OW19702   4.300   4.522   1.344  0.1255 -0.0377  0.3256
 2689SOL    HW119703   4.280   4.615   1.330  2.0497  0.4257  0.6296
 2689SOL    HW219704   4.371   4.504   1.282 -0.0838 -0.0454  0.0838
 2690SOL     OW19705   3.737   1.410   2.988 -0.4644 -0.6318 -0.3474
 2690SOL    HW119706   3.772   1.457   3.063  1.7776 -2.3218 -0.3597
 2690SOL    HW219707   3.810   1.364   2.947 -0.8913 -2.2792  0.7696
 2691SOL     OW19708   4.632   1.968   7.940  0.3177 -0.2346  0.7140
 2691SOL    HW119709   4.550   1.973   7.989 -0.4246 -0.0398 -0.5633
 2691SOL    HW219710   4.596   1.943   7.855  2.0508 -1.5043  0.3430
 2692SOL     OW19711   3.277   0.835   6.305 -0.0542  0.1129 -0.1984
 2692SOL    HW119712   3.258   0.742   6.318  0.0275  0.2248  0.7472
 2692SOL    HW219713   3.190   0.860   6.276  0.2720 -1.0981 -2.2371
 2693SOL     OW19714   0.620   2.738   4.553  0.4474 -0.1926 -0.2749
 2693SOL    HW119715   0.573   2.722   4.635  1.3183 -0.1021  0.2433
 2693SOL    HW219716   0.557   2.693   4.497 -0.2415 -0.7813  0.9722
 2694SOL     OW19717   3.205   0.664  11.149 -0.4750  0.6864 -0.0839
 2694SOL    HW119718   3.115   0.694  11.153 -0.6556  0.2729 -1.0125
 2694SOL    HW219719   3.209   0.605  11.225  3.8047  0.8636 -0.1764
 2695SOL     OW19720   1.190   3.951   0.539  0.3726  0.5392 -0.5234
 2695SOL    HW119721   1.270   3.935   0.589 -1.3219  1.0036  2.3248
 2695SOL    HW219722   1.227   3.987   0.458 -1.9063 -0.1847 -1.9079
 2696SOL     OW19723   1.751   0.822   4.507 -0.3599  0.5025  0.2455
 2696SOL    HW119724   1.729   0.828   4.414 -0.6494 -0.2028  0.2664
 2696SOL    HW219725   1.697   0.894   4.539  1.1949  1.9057 -0.2645
 2697SOL     OW19726   3.285   4.071   1.567 -0.6646 -0.1250  0.6453
 2697SOL    HW119727   3.304   4.162   1.588  0.7345  0.0172 -1.1589
 2697SOL    HW219728   3.256   4.036   1.650 -1.6778  0.7822  0.6684
 2698SOL     OW19729   3.182   1.741   2.314 -0.2968  0.0885 -0.5345
 2698SOL    HW119730   3.120   1.790   2.261  1.3026  2.3861 -0.2530
 2698SOL    HW219731   3.260   1.733   2.259  1.3339 -0.5320  1.8210
 2699SOL     OW19732   1.926   1.778   2.377 -0.1802 -0.5056 -0.2837
 2699SOL    HW119733   1.885   1.716   2.438 -1.9543  1.9933  1.0527
 2699SOL    HW219734   1.912   1.860   2.425 -2.2417 -0.9583 -0.1034
 2700SOL     OW19735   1.581   3.533   4.919  0.0923  0.2498 -0.2862
 2700SOL    HW119736   1.527   3.499   4.848  0.0014 -2.0848  0.8877
 2700SOL    HW219737   1.673   3.516   4.896  0.3750  1.7227 -0.2347
 2701SOL     OW19738   3.032   2.483  14.944 -0.0958 -0.4946 -0.1925
 2701SOL    HW119739   3.016   2.464  15.037  1.5933  2.9770  0.8059
 2701SOL    HW219740   3.031   2.398  14.900 -1.8558 -0.2865 -0.5863
 2702SOL     OW19741   1.581   2.719   8.746  0.2331 -0.4178  0.1818
 2702SOL    HW119742   1.611   2.667   8.671  0.1426  2.1418 -1.6023
 2702SOL    HW219743   1.486   2.722   8.734  0.4726 -0.6232 -1.8349
 2703SOL     OW19744   0.206   3.046   7.269  0.5066 -0.0362  0.4519
 2703SOL    HW119745   0.213   3.029   7.175  1.6937  0.7193  0.3974
 2703SOL    HW219746   0.259   3.124   7.285  0.3337  0.2209 -0.2397
 2704SOL     OW19747   1.233   1.479   9.290 -0.4633  0.1267  0.4086
 2704SOL    HW119748   1.308   1.514   9.242 -0.6649 -1.8762 -1.3642
 2704SOL    HW219749   1.201   1.426   9.218  0.2365  0.4549 -0.1502
 2705SOL     OW19750   0.880   3.119   8.202 -0.1444 -0.1763 -0.0467
 2705SOL    HW119751   0.810   3.137   8.265  1.3254 -0.4172  1.6312
 2705SOL    HW219752   0.822   3.069   8.144 -0.7832  0.5458 -0.0336
 2706SOL     OW19753   4.415   4.328   3.245  0.0872 -0.0445 -0.4099
 2706SOL    HW119754   4.397   4.412   3.288  0.2915  0.3176 -1.0313
 2706SOL    HW219755   4.419   4.267   3.318  2.5631 -0.8906 -1.2582
 2707SOL     OW19756   1.424   2.696   2.435 -0.0482  0.2809 -0.0375
 2707SOL    HW119757   1.444   2.648   2.354  1.4689 -2.0849  1.7398
 2707SOL    HW219758   1.332   2.715   2.416 -0.1831  0.6133  0.9933
 2708SOL     OW19759   2.008   3.496   3.061 -0.1149 -0.2113  0.5726
 2708SOL    HW119760   1.913   3.495   3.077 -0.4082 -0.9927 -1.2774
 2708SOL    HW219761   2.020   3.475   2.969 -0.5894  1.1715  0.1959
 2709SOL     OW19762   3.858   0.837  10.159 -0.1021 -1.0162  0.0931
 2709SOL    HW119763   3.802   0.903  10.118 -0.0143 -1.1201 -0.1950
 2709SOL    HW219764   3.828   0.829  10.250  0.2165 -2.3271  0.0759
 2710SOL     OW19765   2.123   1.621   7.569  0.5193 -0.2104 -0.1109
 2710SOL    HW119766   2.070   1.692   7.604 -1.8465 -0.5842 -2.8628
 2710SOL    HW219767   2.068   1.545   7.550 -0.2004  0.6853 -1.6763
 2711SOL     OW19768   3.311   0.293  11.963  0.2786  0.1997 -0.1580
 2711SOL    HW119769   3.263   0.337  11.893  1.4834  1.2345 -0.3398
 2711SOL    HW219770   3.298   0.199  11.947 -2.0139  0.4576  0.1854
 2712SOL     OW19771   0.784   4.124  15.063 -0.4414 -0.6698  0.3358
 2712SOL    HW119772   0.721   4.053  15.077 -0.3731 -0.5496  1.2472
 2712SOL    HW219773   0.752   4.176  14.990 -0.4787 -0.3000  0.6178
 2713SOL     OW19774   1.646   0.635   0.538  0.1803  0.4952 -0.3291
 2713SOL    HW119775   1.711   0.695   0.576  0.3749 -0.2317  0.4667
 2713SOL    HW219776   1.562   0.683   0.535  0.4643  1.1665  2.6032
 2714SOL     OW19777   2.852   0.901   2.102 -0.0652  0.0751  0.2548
 2714SOL    HW119778   2.761   0.926   2.113 -0.2754  0.9435 -3.6414
 2714SOL    HW219779   2.862   0.806   2.106  0.4078  0.0842 -0.9494
 2715SOL     OW19780   0.055   4.559   4.195  0.1087  0.0622 -0.1079
 2715SOL    HW119781   4.728   4.629   4.194 -1.4831 -1.4289 -1.1600
 2715SOL    HW219782   0.107   4.584   4.118  2.0753 -0.7902  0.9267
 2716SOL     OW19783   2.342   3.641   5.496  0.2047 -0.3978  0.1621
 2716SOL    HW119784   2.254   3.653   5.460 -0.4978  0.2597  2.0898
 2716SOL    HW219785   2.323   3.649   5.590  1.4392  0.8642  0.2978
 2717SOL     OW19786   2.163   0.142   4.490 -0.1947 -0.4001  0.1116
 2717SOL    HW119787   2.158   0.070   4.427  0.7963  1.9034 -2.6056
 2717SOL    HW219788   2.230   0.198   4.451 -0.7419 -1.1893 -1.9857
 2718SOL     OW19789   2.900   2.960  10.289  0.2953  0.0366 -0.5240
 2718SOL    HW119790   2.808   2.943  10.273 -0.0100  2.0617 -0.9125
 2718SOL    HW219791   2.912   3.037  10.344  0.0298 -1.8737  2.2111
 2719SOL     OW19792   1.538   3.095   3.775 -0.1467  0.1670 -0.3561
 2719SOL    HW119793   1.602   3.166   3.788  1.5254 -1.2783 -0.6837
 2719SOL    HW219794   1.564   3.041   3.850  1.2852  1.9220  0.4363
 2720SOL     OW19795   2.694   3.204   4.020 -0.5549 -0.0677 -0.6491
 2720SOL    HW119796   2.615   3.255   4.036  0.7392  1.7658  0.0151
 2720SOL    HW219797   2.675   3.127   4.073  0.4879 -0.8794 -1.4477
 2721SOL     OW19798   4.216   1.241   4.151  0.4321 -0.4390  0.1862
 2721SOL    HW119799   4.135   1.291   4.157 -0.1958 -1.8745  3.7287
 2721SOL    HW219800   4.211   1.198   4.237 -0.8634 -0.8291 -0.0842
 2722SOL     OW19801   2.750   3.158  15.756  0.2167  0.0097  0.8223
 2722SOL    HW119802   2.780   3.239  15.797  2.8687 -0.0021 -1.0930
 2722SOL    HW219803   2.799   3.159  15.674 -0.2293  1.6386  0.5809
 2723SOL     OW19804   2.898   1.698   3.708 -0.1362 -0.3483 -0.6203
 2723SOL    HW119805   2.853   1.781   3.693  1.1540  0.3825 -0.3414
 2723SOL    HW219806   2.857   1.668   3.789  0.1497 -4.1064 -1.8183
 2724SOL     OW19807   1.779   0.169   0.708  0.1159 -0.1215  0.3399
 2724SOL    HW119808   1.841   0.205   0.772  2.4359 -3.4605  0.0152
 2724SOL    HW219809   1.718   0.241   0.693 -2.4113 -1.7511  2.8830
 2725SOL     OW19810   3.621   1.472  10.815  0.2751 -0.1411 -0.4131
 2725SOL    HW119811   3.554   1.497  10.878  1.1955  1.0214  0.1110
 2725SOL    HW219812   3.699   1.516  10.850 -1.5041  0.3528  2.8808
 2726SOL     OW19813   3.481   3.236   5.014  0.4717 -0.4821 -0.1467
 2726SOL    HW119814   3.559   3.266   4.966  1.1072  2.1812  2.5875
 2726SOL    HW219815   3.511   3.171   5.077  0.3541  0.0103  0.4060
 2727SOL     OW19816   0.718   2.605   8.776 -0.0579 -0.0368 -0.1050
 2727SOL    HW119817   0.761   2.535   8.726  2.5998  2.0050 -0.6577
 2727SOL    HW219818   0.641   2.622   8.721  0.1378 -0.4041 -0.4930
 2728SOL     OW19819   0.381   2.970   7.695 -0.5107 -0.0520  0.0816
 2728SOL    HW119820   0.300   2.928   7.664 -1.8115  1.0946  1.9577
 2728SOL    HW219821   0.437   2.899   7.726 -1.0682 -0.1675  0.8317
 2729SOL     OW19822   1.922   3.180   1.882  0.4470 -0.2258  0.1168
 2729SOL    HW119823   1.830   3.193   1.904  0.2877  0.6381 -1.0243
 2729SOL    HW219824   1.944   3.092   1.912 -0.1996 -0.9975 -1.6603
 2730SOL     OW19825   1.584   1.839   9.323 -0.4693  0.1796 -0.2038
 2730SOL    HW119826   1.649   1.909   9.321 -0.4090  0.1482  0.7246
 2730SOL    HW219827   1.542   1.854   9.238  2.6273 -0.3732 -1.8375
 2731SOL     OW19828   4.300   0.945  14.738  0.2633  0.1906 -0.5529
 2731SOL    HW119829   4.214   0.907  14.757  0.9586 -1.0239  0.1717
 2731SOL    HW219830   4.350   0.870  14.769 -1.2870 -1.4948 -2.0486
 2732SOL     OW19831   3.413   3.492  15.842 -0.3219 -0.3921 -0.9286
 2732SOL    HW119832   3.344   3.448  15.793  0.1796 -1.5797 -0.5685
 2732SOL    HW219833   3.360   3.553  15.894 -0.0834 -0.8338 -0.1744
 2733SOL     OW19834   4.565   2.678  17.618  0.0937 -0.0730 -0.8312
 2733SOL    HW119835   4.532   2.651  17.532  0.8800 -1.0129 -0.8506
 2733SOL    HW219836   4.640   2.618  17.626 -0.1013 -0.0302  1.1329
 2734SOL     OW19837   0.703   4.065   6.032 -0.3505  0.0247  0.4759
 2734SOL    HW119838   0.766   4.136   6.046 -0.6758  0.2592  0.7688
 2734SOL    HW219839   0.651   4.113   5.968  0.5638  1.1250  0.5484
 2735SOL     OW19840   1.618   1.734  16.606  0.4057 -0.3570  0.2618
 2735SOL    HW119841   1.640   1.827  16.594  0.4636 -0.2183  1.4359
 2735SOL    HW219842   1.632   1.716  16.699  0.2499 -1.4333  0.0689
 2736SOL     OW19843   3.279   2.854  10.273 -0.4625  0.4039  0.2632
 2736SOL    HW119844   3.213   2.890  10.213 -0.9411 -0.9170 -0.0173
 2736SOL    HW219845   3.251   2.893  10.356 -1.8189  0.3177 -0.1559
 2737SOL     OW19846   3.743   3.884   1.899  0.0190 -0.0113  0.6080
 2737SOL    HW119847   3.794   3.909   1.822 -3.3021  0.3714 -1.4529
 2737SOL    HW219848   3.676   3.952   1.902  0.2157  0.2338 -0.7574
 2738SOL     OW19849   2.573   4.493   6.759  0.0067 -0.4539 -0.2878
 2738SOL    HW119850   2.653   4.474   6.710  0.0005 -0.7826 -0.1655
 2738SOL    HW219851   2.549   4.579   6.724 -1.8753 -0.9649 -0.2463
 2739SOL     OW19852   0.090   4.510  16.786 -0.1629  0.1044  0.4435
 2739SOL    HW119853   0.148   4.574  16.828 -0.0681  0.5260 -0.3338
 2739SOL    HW219854   0.135   4.432  16.818  0.5589  0.1703 -0.4116
 2740SOL     OW19855   3.749   2.468   7.930  0.1743  0.2098  0.3067
 2740SOL    HW119856   3.782   2.447   7.842 -3.4442 -0.3060 -0.9449
 2740SOL    HW219857   3.801   2.543   7.957  2.0897 -0.6921 -0.8828
 2741SOL     OW19858   4.668   0.946  10.324 -0.0948  0.2749  0.1351
 2741SOL    HW119859   4.732   0.906  10.382  1.6388 -1.3360 -2.8872
 2741SOL    HW219860   4.699   1.035  10.341  0.7930  0.1086 -0.5763
 2742SOL     OW19861   1.441   0.991   0.222  0.2396 -0.4308  0.6761
 2742SOL    HW119862   1.485   1.060   0.173 -1.0053  0.6097  1.0177
 2742SOL    HW219863   1.368   0.976   0.162 -0.1415  2.1466  0.4985
 2743SOL     OW19864   1.270   4.107   4.469 -0.8072 -0.0256 -0.2916
 2743SOL    HW119865   1.239   4.121   4.379 -1.4299 -1.3600 -0.2913
 2743SOL    HW219866   1.365   4.109   4.461 -0.8858 -0.4601 -1.4432
 2744SOL     OW19867   1.031   2.189   4.685  0.1077 -0.2629  0.2369
 2744SOL    HW119868   0.939   2.176   4.665  0.2391 -0.2940 -0.3619
 2744SOL    HW219869   1.077   2.121   4.636  1.1136 -1.3517  2.6866
 2745SOL     OW19870   2.096   2.348   7.644 -0.5254  0.4490  0.9802
 2745SOL    HW119871   2.036   2.339   7.570  0.1285 -2.3988  0.8208
 2745SOL    HW219872   2.093   2.444   7.645  0.2386  0.5043 -1.1736
 2746SOL     OW19873   3.701   1.380   5.551  0.2376 -0.0582  0.1766
 2746SOL    HW119874   3.780   1.376   5.605  0.1623 -0.7544  0.2390
 2746SOL    HW219875   3.692   1.291   5.517 -1.7891  0.6791 -1.2354
 2747SOL     OW19876   0.335   3.078  13.464 -0.4590  0.0424 -0.9771
 2747SOL    HW119877   0.316   2.985  13.477 -1.0285  0.1739 -0.8777
 2747SOL    HW219878   0.415   3.063  13.413 -0.0695 -1.9297  0.1957
 2748SOL     OW19879   1.452   4.658  17.340 -0.1447 -0.4591 -0.6371
 2748SOL    HW119880   1.431   4.671  17.248  0.5513  1.2899 -0.5480
 2748SOL    HW219881   1.486   4.568  17.346  0.2915 -0.3508 -1.4231
 2749SOL     OW19882   2.693   3.002   2.836  0.3271 -0.1966 -0.1265
 2749SOL    HW119883   2.720   3.088   2.869 -1.0007 -0.3405  1.3015
 2749SOL    HW219884   2.628   2.976   2.901 -0.5097  0.7735 -0.5832
 2750SOL     OW19885   3.858   3.845   0.671 -0.1102  0.2417  0.0261
 2750SOL    HW119886   3.887   3.759   0.703 -1.8811 -0.8575 -1.3407
 2750SOL    HW219887   3.773   3.851   0.715  0.4761 -1.8833  1.4406
 2751SOL     OW19888   1.357   3.852   4.943  0.1794 -0.1836 -0.1210
 2751SOL    HW119889   1.385   3.795   4.871  0.5244  0.7379 -0.7048
 2751SOL    HW219890   1.281   3.898   4.908  1.0546  1.8627  0.6648
 2752SOL     OW19891   2.547   1.496   1.905 -0.4845 -0.0030  0.4306
 2752SOL    HW119892   2.459   1.517   1.934  0.4624  1.3421  2.2811
 2752SOL    HW219893   2.565   1.582   1.868  1.8168 -1.1813 -1.2027
 2753SOL     OW19894   0.706   4.433  12.560  0.2656  0.4774 -0.3666
 2753SOL    HW119895   0.755   4.496  12.507  0.2666 -0.1383 -1.1011
 2753SOL    HW219896   0.762   4.356  12.553 -2.0097 -1.6613  5.3859
 2754SOL     OW19897   0.045   3.200  11.653  0.0722  0.1788 -0.9499
 2754SOL    HW119898   0.049   3.228  11.744 -1.9637 -1.4817 -0.3626
 2754SOL    HW219899   0.023   3.285  11.615 -0.2666 -0.3823 -2.0173
 2755SOL     OW19900   3.917   0.914   5.534  0.0577  0.0548  0.2791
 2755SOL    HW119901   4.003   0.939   5.500 -0.0461 -0.3818 -0.3080
 2755SOL    HW219902   3.949   0.860   5.606  1.1933 -0.1912 -0.4031
 2756SOL     OW19903   0.784   2.218   7.585  0.4776  0.1357  0.0024
 2756SOL    HW119904   0.809   2.146   7.643  0.0988  0.7384  0.9285
 2756SOL    HW219905   0.721   2.162   7.540  1.1440 -0.3252 -0.3478
 2757SOL     OW19906   2.549   0.715  12.282  0.1980 -0.4060 -0.3102
 2757SOL    HW119907   2.599   0.645  12.324  0.6812 -1.5785 -2.8201
 2757SOL    HW219908   2.612   0.761  12.227  0.7493 -0.9484 -0.1275
 2758SOL     OW19909   3.563   3.864   3.335 -0.1058  0.4362  0.2093
 2758SOL    HW119910   3.515   3.935   3.291  0.5180  0.5991 -0.2187
 2758SOL    HW219911   3.587   3.917   3.411 -0.1759  0.7613  0.0057
 2759SOL     OW19912   3.130   2.350  16.113  0.3773 -0.0428 -0.5534
 2759SOL    HW119913   3.057   2.347  16.174 -0.3592 -0.0719 -1.4379
 2759SOL    HW219914   3.172   2.266  16.131  0.4576 -0.1694 -1.3144
 2760SOL     OW19915   2.997   2.715   0.661  0.2467  0.2251 -0.1359
 2760SOL    HW119916   3.081   2.671   0.645  0.8317  1.1778  0.3429
 2760SOL    HW219917   3.018   2.782   0.727  4.1795 -0.0976 -1.0233
 2761SOL     OW19918   3.017   4.294   9.211 -0.1008  0.5426  0.3813
 2761SOL    HW119919   2.928   4.312   9.241 -1.1502 -1.8577 -1.2784
 2761SOL    HW219920   3.013   4.272   9.118 -1.5119 -1.0871  0.8273
 2762SOL     OW19921   1.422   0.043  12.822 -0.0917  0.1326 -0.4704
 2762SOL    HW119922   1.403   0.081  12.736  0.4214  1.4104 -0.0158
 2762SOL    HW219923   1.490   0.100  12.856 -0.8783  0.3854  0.6492
 2763SOL     OW19924   1.783   0.678  14.016  0.4453 -0.2548  0.0152
 2763SOL    HW119925   1.716   0.631  13.966 -1.1463  2.1177 -0.0911
 2763SOL    HW219926   1.857   0.670  13.955  0.7657 -0.4446  0.4320
 2764SOL     OW19927   3.144   0.253  14.216 -0.3137  0.4324 -0.0443
 2764SOL    HW119928   3.201   0.191  14.262 -1.5008  1.1291  2.3477
 2764SOL    HW219929   3.061   0.214  14.243 -0.5269  0.4347 -0.7146
 2765SOL     OW19930   4.294   1.922  17.689  0.3965  0.0464  0.1995
 2765SOL    HW119931   4.248   1.840  17.705 -0.9605  0.8184  0.3029
 2765SOL    HW219932   4.362   1.897  17.627  1.1634  0.4368  0.8743
 2766SOL     OW19933   2.478   0.935   5.139  0.2201  0.4795  0.5492
 2766SOL    HW119934   2.399   0.919   5.190 -1.0107 -0.6974 -1.7573
 2766SOL    HW219935   2.542   0.920   5.209  1.0755 -0.6933 -0.4720
 2767SOL     OW19936   1.381   0.638   9.695 -0.0166 -0.1673  0.1273
 2767SOL    HW119937   1.350   0.559   9.651 -0.1249  1.9563 -3.6652
 2767SOL    HW219938   1.473   0.613   9.687  0.0363  0.1083 -0.1284
 2768SOL     OW19939   3.773   0.448   1.275  0.1075 -0.3473 -0.1374
 2768SOL    HW119940   3.700   0.441   1.213 -0.0135 -2.0097  0.1725
 2768SOL    HW219941   3.723   0.466   1.354  0.6770 -0.4260  0.2368
 2769SOL     OW19942   3.717   3.722   5.650 -0.1947 -0.1935  0.4684
 2769SOL    HW119943   3.652   3.696   5.585 -0.2986  1.0367  0.0715
 2769SOL    HW219944   3.672   3.722   5.734  0.9954  2.5916  1.1095
 2770SOL     OW19945   3.329   1.402   0.044 -0.1265  0.2332 -0.2509
 2770SOL    HW119946   3.329   1.407   0.139  0.0630 -0.3145 -0.2228
 2770SOL    HW219947   3.398   1.336   0.040 -0.0221  0.5282 -3.1693
 2771SOL     OW19948   4.202   1.650   5.953  0.3388  0.3734  0.1524
 2771SOL    HW119949   4.233   1.733   5.988  0.1109  1.2739 -1.7761
 2771SOL    HW219950   4.189   1.603   6.035  3.1611  0.2171  0.5060
 2772SOL     OW19951   4.366   0.166  17.170  0.3888 -0.3794  0.0716
 2772SOL    HW119952   4.347   0.101  17.237  2.0545 -0.1766  0.7407
 2772SOL    HW219953   4.405   0.116  17.098  0.9822 -1.1113  0.9132
 2773SOL     OW19954   0.514   2.721   4.807 -0.0781 -0.3554  0.1308
 2773SOL    HW119955   0.420   2.720   4.824 -0.3536  0.5731 -1.3119
 2773SOL    HW219956   0.546   2.708   4.896 -0.2362  0.1899  0.2709
 2774SOL     OW19957   2.541   0.105   2.369 -0.0864  0.0272 -0.0238
 2774SOL    HW119958   2.493   0.083   2.449  0.7380  0.3999  0.5662
 2774SOL    HW219959   2.473   0.143   2.314 -0.0600  1.7295  1.1340
 2775SOL     OW19960   3.854   0.973  10.888 -0.1519 -0.1653 -0.1238
 2775SOL    HW119961   3.919   0.904  10.899  1.2157  1.1890  0.2184
 2775SOL    HW219962   3.779   0.922  10.919  0.0926  1.0649  2.5201
 2776SOL     OW19963   0.754   2.030   8.009 -0.4425  0.0778  0.2505
 2776SOL    HW119964   0.791   2.026   7.921  0.8914  0.4786  0.8032
 2776SOL    HW219965   0.832   2.050   8.061 -0.1261  1.9580 -0.9559
 2777SOL     OW19966   0.497   4.717   5.708  0.7930  0.1165 -0.0314
 2777SOL    HW119967   0.444   0.029   5.646  0.1333 -0.3598  0.1514
 2777SOL    HW219968   0.515   0.046   5.775 -0.7173 -0.0503  0.5325
 2778SOL     OW19969   2.434   2.320   2.542  0.0534 -0.6569  0.0472
 2778SOL    HW119970   2.477   2.253   2.595 -2.7129 -1.6462  1.0795
 2778SOL    HW219971   2.365   2.272   2.495 -1.2436  0.6478  0.6175
 2779SOL     OW19972   2.209   1.807   2.386  0.0209  0.6333  0.3449
 2779SOL    HW119973   2.241   1.798   2.296 -1.1612  0.3881 -0.0427
 2779SOL    HW219974   2.115   1.793   2.377  0.2603  0.0862 -1.2529
 2780SOL     OW19975   3.632   3.838   3.798 -0.3766  0.7687  0.2144
 2780SOL    HW119976   3.672   3.756   3.828 -0.1632  1.1633  1.0003
 2780SOL    HW219977   3.628   3.893   3.876 -1.6192  0.4591  0.3708
 2781SOL     OW19978   1.462   0.359   4.754  0.1055  0.2624  0.4079
 2781SOL    HW119979   1.388   0.309   4.719 -0.6467  1.1214  0.8023
 2781SOL    HW219980   1.518   0.354   4.677 -0.0571  2.6250  0.1582
 2782SOL     OW19981   0.469   0.696   5.687 -0.2187  0.2822 -0.2919
 2782SOL    HW119982   0.403   0.740   5.634 -0.3003  0.9912  0.3896
 2782SOL    HW219983   0.413   0.674   5.761 -0.7183 -0.3414 -0.8601
 2783SOL     OW19984   1.805   3.579   8.174  0.0791 -0.0900 -0.2150
 2783SOL    HW119985   1.808   3.483   8.181 -1.1558 -0.1649 -0.5525
 2783SOL    HW219986   1.774   3.599   8.262 -0.8398 -2.5407  0.0431
 2784SOL     OW19987   4.274   1.200   7.205 -0.1459 -0.6100 -0.4327
 2784SOL    HW119988   4.347   1.208   7.267  1.1681  0.5243 -2.1348
 2784SOL    HW219989   4.308   1.191   7.116 -0.9044  0.5004 -0.8329
 2785SOL     OW19990   2.873   4.414   5.969  0.1154  0.6547  0.4716
 2785SOL    HW119991   2.838   4.455   5.890  1.1754  0.8849  0.1205
 2785SOL    HW219992   2.866   4.322   5.944 -0.5383  0.7115  0.4525
 2786SOL     OW19993   4.526   3.090   3.511  0.3412 -0.1560 -0.3690
 2786SOL    HW119994   4.595   3.157   3.507  0.9568 -0.8496 -1.4553
 2786SOL    HW219995   4.450   3.147   3.506 -1.5449 -2.7108 -0.6594
 2787SOL     OW19996   4.637   1.860  10.020  0.1750 -0.2708 -0.2983
 2787SOL    HW119997   4.730   1.877  10.028 -0.0406  0.6181  0.3173
 2787SOL    HW219998   4.621   1.799  10.092 -1.5198  0.2606 -0.2088
 2788SOL     OW19999   0.168   4.019   9.209  0.2377 -0.3556  0.1074
 2788SOL    HW120000   0.162   3.954   9.138 -0.3914  0.2594 -0.4067
 2788SOL    HW220001   0.113   3.980   9.277  0.5999  0.2630  0.7508
 2789SOL     OW20002   2.967   3.002  13.256 -0.3386  0.0225 -0.5779
 2789SOL    HW120003   2.882   2.973  13.224  0.1344 -3.3739  1.3058
 2789SOL    HW220004   3.026   2.927  13.250 -0.0235  0.1268  1.1856
 2790SOL     OW20005   3.016   2.640   9.128  0.4639 -0.0090  0.7258
 2790SOL    HW120006   2.965   2.601   9.058  0.9895  0.7964 -0.1003
 2790SOL    HW220007   3.021   2.727   9.089  0.9286  0.3567  1.6006
 2791SOL     OW20008   3.319   3.654   1.064  0.8058 -0.6204  0.1653
 2791SOL    HW120009   3.392   3.592   1.058  2.0875  0.8427  0.6628
 2791SOL    HW220010   3.298   3.659   1.157 -0.2296 -0.3050 -0.0918
 2792SOL     OW20011   4.437   3.221   3.784 -0.3509 -0.9718 -0.0208
 2792SOL    HW120012   4.452   3.189   3.873 -1.4316 -0.1042  0.4744
 2792SOL    HW220013   4.527   3.230   3.753 -0.5756 -2.5091 -1.1404
 2793SOL     OW20014   0.395   2.698   7.042 -0.4961 -0.2901  0.0820
 2793SOL    HW120015   0.450   2.699   6.964  0.2584  1.1461  0.6252
 2793SOL    HW220016   0.469   2.697   7.103 -1.8492 -3.3340  1.6916
 2794SOL     OW20017   4.263   1.264   6.237  0.4250  0.1358 -0.5950
 2794SOL    HW120018   4.271   1.173   6.264  1.2887  0.3679 -0.0749
 2794SOL    HW220019   4.289   1.307   6.319 -0.7823 -0.6147  0.1770
 2795SOL     OW20020   3.310   0.299   0.271 -0.5997  0.6333 -0.1810
 2795SOL    HW120021   3.371   0.272   0.340 -1.4168 -2.5538 -0.7134
 2795SOL    HW220022   3.266   0.214   0.266 -0.4715  0.4532  1.6919
 2796SOL     OW20023   1.313   2.687   3.408  0.1406  0.0959 -0.0840
 2796SOL    HW120024   1.285   2.748   3.476 -0.8021 -0.5737  0.1178
 2796SOL    HW220025   1.227   2.650   3.390  1.3823 -2.1360 -1.4253
 2797SOL     OW20026   3.910   3.077  16.101  0.8631 -0.2941 -0.3019
 2797SOL    HW120027   3.828   3.094  16.055 -0.1742 -2.0659  0.8924
 2797SOL    HW220028   3.937   3.168  16.116  0.9666 -0.0514 -1.9097
 2798SOL     OW20029   3.099   0.266   7.046  0.0843  0.1256  0.0466
 2798SOL    HW120030   3.161   0.332   7.015  0.6223 -1.6220 -2.6524
 2798SOL    HW220031   3.076   0.302   7.131 -0.0801 -0.2460  0.1600
 2799SOL     OW20032   2.440   2.941   9.788  0.2866 -0.0642 -0.5486
 2799SOL    HW120033   2.350   2.936   9.755  0.0635 -0.6287  0.1437
 2799SOL    HW220034   2.478   2.874   9.730 -0.1525 -1.7515  1.0985
 2800SOL     OW20035   2.114   1.751   5.355 -0.1621 -0.2332 -0.0614
 2800SOL    HW120036   2.107   1.845   5.340 -1.5660 -0.2862  0.1995
 2800SOL    HW220037   2.073   1.742   5.441  0.0102 -0.5908 -0.0202
 2801SOL     OW20038   0.148   3.145   4.515  0.1349  0.0289 -0.0205
 2801SOL    HW120039   0.161   3.092   4.593  1.0321 -2.1442 -1.6531
 2801SOL    HW220040   0.165   3.233   4.549  0.0971  0.4198 -0.9995
 2802SOL     OW20041   0.879   1.540   8.676  0.4042  0.4393  0.2146
 2802SOL    HW120042   0.932   1.462   8.659  0.4717  0.5920 -0.2798
 2802SOL    HW220043   0.792   1.499   8.671  0.8270 -0.5601  1.1947
 2803SOL     OW20044   0.301   2.510   2.783 -0.8402 -0.6504  0.0379
 2803SOL    HW120045   0.347   2.453   2.722  1.6757  1.5320 -0.0517
 2803SOL    HW220046   0.217   2.467   2.803 -1.7941  0.9101 -0.6486
 2804SOL     OW20047   0.754   3.782   6.056 -0.0015  0.5285 -0.1663
 2804SOL    HW120048   0.731   3.875   6.061 -1.4627  0.2273 -1.5724
 2804SOL    HW220049   0.817   3.786   6.128  0.5097 -1.2664 -0.5320
 2805SOL     OW20050   0.592   3.076   0.043 -0.1557 -0.0179  0.3916
 2805SOL    HW120051   0.658   3.107   0.105  0.3615  0.6173 -0.4750
 2805SOL    HW220052   0.618   3.128  17.715  1.0096  0.7709  1.3286
 2806SOL     OW20053   0.832   2.675   1.980 -0.2850  0.0060  0.5536
 2806SOL    HW120054   0.854   2.584   1.999 -1.3056 -0.8133 -2.2179
 2806SOL    HW220055   0.750   2.660   1.933  1.3286  0.4422 -2.4542
 2807SOL     OW20056   2.540   3.934   5.254  0.1539  0.0012 -0.4197
 2807SOL    HW120057   2.598   3.923   5.179 -1.6661  3.8083 -2.4328
 2807SOL    HW220058   2.555   4.027   5.272  1.1813  0.3959 -3.2639
 2808SOL     OW20059   3.414   3.444   7.608 -0.1595  0.0188 -0.0535
 2808SOL    HW120060   3.494   3.441   7.555  2.0136 -1.2347  3.2611
 2808SOL    HW220061   3.441   3.373   7.666  0.9494  1.5603  1.3157
 2809SOL     OW20062   1.270   4.357   2.835  0.3221  0.1338  0.0846
 2809SOL    HW120063   1.252   4.265   2.814  2.6316  0.2174 -2.3072
 2809SOL    HW220064   1.221   4.396   2.763  0.0950 -1.1397 -0.4651
 2810SOL     OW20065   3.986   2.252   7.483  0.0840  0.2860 -0.3714
 2810SOL    HW120066   3.969   2.187   7.414  1.9891 -0.2534 -0.3291
 2810SOL    HW220067   3.978   2.338   7.442 -0.8935 -0.2475 -1.3075
 2811SOL     OW20068   3.912   3.268   8.313 -0.2095  0.3728  0.3940
 2811SOL    HW120069   3.956   3.184   8.314 -1.2365 -0.2335 -3.8855
 2811SOL    HW220070   3.952   3.318   8.242 -1.0780 -1.0267 -1.0955
 2812SOL     OW20071   0.756   1.477   2.624 -0.2286  0.3659  0.6170
 2812SOL    HW120072   0.704   1.399   2.605  0.4280 -0.5037  2.4516
 2812SOL    HW220073   0.762   1.520   2.538 -0.0085  0.2226  0.5609
 2813SOL     OW20074   4.703   2.848  14.381  0.1815 -0.2218  0.1932
 2813SOL    HW120075   4.663   2.797  14.451  1.9731  0.9667  2.0906
 2813SOL    HW220076   0.004   2.780  14.326 -1.2275  0.3485 -1.4822
 2814SOL     OW20077   3.371   0.396  13.988  0.6168 -0.5125 -0.1164
 2814SOL    HW120078   3.449   0.451  13.988 -0.2759  0.7422  0.1595
 2814SOL    HW220079   3.313   0.442  14.049 -0.1680 -2.7867  0.8660
 2815SOL     OW20080   2.763   4.057   2.688 -0.7755  0.0974 -0.7167
 2815SOL    HW120081   2.680   4.080   2.728 -0.8067 -1.3015  0.0023
 2815SOL    HW220082   2.768   3.962   2.694  1.7978  0.2480 -0.0304
 2816SOL     OW20083   1.674   1.059   0.540 -0.0706 -0.0097 -0.1063
 2816SOL    HW120084   1.703   1.089   0.453  0.4470  0.3856  0.2069
 2816SOL    HW220085   1.582   1.085   0.532 -0.2842 -0.7056  0.1555
 2817SOL     OW20086   2.218   1.737   4.272 -0.5830  0.0643  0.1558
 2817SOL    HW120087   2.287   1.710   4.333  0.0745  0.7343 -0.2847
 2817SOL    HW220088   2.147   1.730   4.335 -0.2850  2.2861  0.7320
 2818SOL     OW20089   2.116   0.347   3.807 -0.0589  0.6673  0.4546
 2818SOL    HW120090   2.112   0.337   3.902  0.6207  1.2381  0.5409
 2818SOL    HW220091   2.039   0.403   3.799 -0.2766  0.2421 -0.4086
 2819SOL     OW20092   0.435   2.230   5.379  0.1867 -0.2385  0.0069
 2819SOL    HW120093   0.420   2.204   5.288  0.5516  1.8407 -0.6489
 2819SOL    HW220094   0.432   2.323   5.355 -2.1229  0.2355  2.0894
 2820SOL     OW20095   0.776   0.341   7.844  0.8390 -0.0948  0.2031
 2820SOL    HW120096   0.807   0.373   7.759 -2.4015 -0.1212 -0.9745
 2820SOL    HW220097   0.689   0.309   7.822  1.1959 -0.8149 -0.1886
 2821SOL     OW20098   3.961   1.914   3.784 -0.2678  0.0381  0.5516
 2821SOL    HW120099   4.047   1.957   3.791 -0.0652 -0.0107 -1.5110
 2821SOL    HW220100   3.919   1.974   3.846  0.1283 -0.1238  0.9795
 2822SOL     OW20101   1.655   1.966   5.563  0.2188  0.2615  0.2491
 2822SOL    HW120102   1.700   1.882   5.558  2.5278  1.7225 -3.4360
 2822SOL    HW220103   1.679   1.988   5.653  2.8050  0.9066 -0.6179
 2823SOL     OW20104   4.574   4.225   8.569  0.0633 -0.0879 -0.0711
 2823SOL    HW120105   4.635   4.216   8.643 -1.0095  0.7210  0.9249
 2823SOL    HW220106   4.488   4.232   8.613  0.3721 -1.8019  0.7933
 2824SOL     OW20107   1.673   0.816   0.294 -0.5234  0.1735 -0.4636
 2824SOL    HW120108   1.658   0.798   0.387  2.4246  1.0721  0.2198
 2824SOL    HW220109   1.599   0.871   0.268 -1.6045 -0.7766  0.6220
 2825SOL     OW20110   2.846   3.424  15.783 -0.1522  0.4708 -0.2379
 2825SOL    HW120111   2.895   3.451  15.705 -0.3733 -2.2372 -1.3347
 2825SOL    HW220112   2.907   3.454  15.851 -0.6768 -0.0696  0.4688
 2826SOL     OW20113   4.488   3.962  11.138  0.0574 -0.5228  0.2584
 2826SOL    HW120114   4.485   3.965  11.042 -2.1383 -1.3835  0.2981
 2826SOL    HW220115   4.545   4.032  11.168  2.1222 -3.1199  2.4526
 2827SOL     OW20116   1.826   4.355   5.290  0.0818 -1.0458 -0.5019
 2827SOL    HW120117   1.770   4.325   5.362  1.3352 -1.2031  0.4112
 2827SOL    HW220118   1.839   4.271   5.247  1.3035 -1.2814  0.3212
 2828SOL     OW20119   2.049   4.522  16.233 -0.2665 -0.1665 -0.2538
 2828SOL    HW120120   2.009   4.478  16.308  2.5288 -0.5722  0.9879
 2828SOL    HW220121   1.967   4.558  16.200  1.3742  2.1915 -1.7360
 2829SOL     OW20122   0.133   1.918   7.306 -0.8796  0.2239 -0.1637
 2829SOL    HW120123   0.092   1.834   7.326 -1.1543  0.2815 -0.4952
 2829SOL    HW220124   0.062   1.973   7.273  0.4904  1.0857 -1.6964
 2830SOL     OW20125   1.526   2.198  12.149  0.0668 -0.5588  0.4544
 2830SOL    HW120126   1.536   2.105  12.128 -0.3597 -0.2134 -1.2423
 2830SOL    HW220127   1.473   2.242  12.083  0.4113 -1.2207 -0.2683
 2831SOL     OW20128   1.903   3.129  15.241  0.5113  0.1165 -0.2795
 2831SOL    HW120129   1.856   3.176  15.173  0.8713  1.1435  0.1854
 2831SOL    HW220130   1.839   3.060  15.259 -0.1197  0.2566 -1.9235
 2832SOL     OW20131   2.730   2.367   6.265  0.5703 -0.3661 -0.6234
 2832SOL    HW120132   2.770   2.280   6.274 -0.5491 -0.7719  0.4022
 2832SOL    HW220133   2.658   2.346   6.206 -0.6791  1.1809  0.3496
 2833SOL     OW20134   2.188   1.491   3.574  0.3071  0.3877 -0.1979
 2833SOL    HW120135   2.106   1.472   3.528 -0.1362  2.6015 -0.3154
 2833SOL    HW220136   2.247   1.517   3.503 -0.8913  0.7958 -1.0380
 2834SOL     OW20137   3.484   1.488   6.539  0.2238 -0.1650  0.4101
 2834SOL    HW120138   3.406   1.436   6.554  2.0000 -2.4062  1.8140
 2834SOL    HW220139   3.454   1.574   6.569 -1.2024 -1.2669  2.1636
 2835SOL     OW20140   4.487   2.538   6.835  0.3816  0.5037 -0.0898
 2835SOL    HW120141   4.445   2.464   6.879 -0.3117  1.4359  0.8200
 2835SOL    HW220142   4.552   2.491   6.782 -1.3315 -2.4596  0.4331
 2836SOL     OW20143   0.511   4.445   4.560  0.3639  0.4253 -0.1134
 2836SOL    HW120144   0.574   4.492   4.505  0.6448  0.2890  0.0946
 2836SOL    HW220145   0.568   4.391   4.614  1.8149  1.6320 -0.4177
 2837SOL     OW20146   0.883   4.525   4.653 -0.2905  0.1158 -0.1430
 2837SOL    HW120147   0.875   4.521   4.749  2.6577 -1.1217  0.0573
 2837SOL    HW220148   0.873   4.619   4.637  0.3079  0.1962 -0.0517
 2838SOL     OW20149   1.657   2.339  11.661  0.1560 -0.0438 -0.1733
 2838SOL    HW120150   1.745   2.329  11.624  0.0722  0.3056 -0.4622
 2838SOL    HW220151   1.637   2.252  11.695  0.1814 -0.0017 -0.0509
 2839SOL     OW20152   0.884   1.903   4.817 -0.7453  0.9346  1.0657
 2839SOL    HW120153   0.802   1.889   4.864 -0.6118  1.6364  1.5134
 2839SOL    HW220154   0.852   1.858   4.739 -0.6816  0.3496  1.3837
 2840SOL     OW20155   3.695   3.599   3.938  0.0067  0.1594 -0.6333
 2840SOL    HW120156   3.637   3.530   3.907 -0.8450  0.9631 -0.8254
 2840SOL    HW220157   3.778   3.552   3.942  0.8254  1.9291  2.6260
 2841SOL     OW20158   0.225   2.012   2.965 -0.0221  0.5256  0.1068
 2841SOL    HW120159   0.215   2.105   2.987  0.9519  0.7384 -0.3695
 2841SOL    HW220160   0.299   2.013   2.904 -1.1286  0.8893 -1.2169
 2842SOL     OW20161   2.093   1.367   6.255  0.0709  0.2949  0.0250
 2842SOL    HW120162   2.028   1.316   6.207  0.5830 -0.3694  0.0262
 2842SOL    HW220163   2.045   1.449   6.267 -0.5693 -0.1358  0.4129
 2843SOL     OW20164   4.221   1.300  12.593 -0.2849 -0.1454  0.1998
 2843SOL    HW120165   4.198   1.222  12.542  0.2836  1.5502 -2.6933
 2843SOL    HW220166   4.287   1.266  12.653 -0.6307 -2.1099 -0.5452
 2844SOL     OW20167   3.612   3.699  11.410  0.1433  0.4963  0.2690
 2844SOL    HW120168   3.627   3.690  11.504 -1.4190  0.6123  0.5291
 2844SOL    HW220169   3.657   3.620  11.381 -1.4891 -0.9168  1.5268
 2845SOL     OW20170   3.902   3.587  17.516  0.5206  0.2704  0.0037
 2845SOL    HW120171   3.864   3.499  17.509  0.2875  0.3480  0.2810
 2845SOL    HW220172   3.990   3.564  17.487  1.3333 -1.1011  3.4935
 2846SOL     OW20173   4.656   2.293  16.007  0.2034 -0.3891 -0.3054
 2846SOL    HW120174   4.701   2.366  16.050  1.4309  0.4982 -3.0754
 2846SOL    HW220175   4.690   2.299  15.917  2.7138 -3.4076  0.4469
 2847SOL     OW20176   0.722   1.730   5.253  0.0385 -0.2307 -0.5273
 2847SOL    HW120177   0.635   1.770   5.246  0.9473  2.1723  2.0762
 2847SOL    HW220178   0.698   1.654   5.307 -2.0185  0.2613 -0.7372
 2848SOL     OW20179   3.290   4.122   2.717  0.2713 -0.2379 -0.0438
 2848SOL    HW120180   3.207   4.157   2.747  0.1528  0.7260 -1.5482
 2848SOL    HW220181   3.272   4.124   2.623  1.6260  0.9557 -0.2849
 2849SOL     OW20182   4.507   1.975  12.461 -0.3713  0.1046  0.5695
 2849SOL    HW120183   4.492   1.911  12.391  0.8974  1.7746 -1.2243
 2849SOL    HW220184   4.426   2.026  12.465 -1.3011 -1.2883 -0.4929
 2850SOL     OW20185   3.921   4.207  16.504  0.3154  0.1832  0.1396
 2850SOL    HW120186   3.889   4.157  16.429  1.6112  1.3492 -1.2058
 2850SOL    HW220187   4.014   4.182  16.505  0.8226  2.0076 -0.7048
 2851SOL     OW20188   3.969   3.577  11.749 -0.1154  0.2861 -0.4911
 2851SOL    HW120189   4.025   3.543  11.679 -2.2462 -0.4181 -1.8573
 2851SOL    HW220190   3.909   3.509  11.777  2.6555 -1.9928 -0.0655
 2852SOL     OW20191   1.589   4.013   0.931 -0.7114 -0.1504  0.2005
 2852SOL    HW120192   1.578   3.943   0.996 -2.9800  2.0567  2.1477
 2852SOL    HW220193   1.510   4.064   0.941 -0.3497  1.0190 -2.8525
 2853SOL     OW20194   2.772   3.983   8.388  0.5589  0.2252  0.1513
 2853SOL    HW120195   2.708   3.917   8.415 -0.6064  0.4388 -2.0245
 2853SOL    HW220196   2.751   4.059   8.443  1.2123  1.1692 -0.8963
 2854SOL     OW20197   2.251   4.064   6.844  0.2912  0.5703  0.1651
 2854SOL    HW120198   2.275   4.077   6.935  0.6020 -0.0633  0.1744
 2854SOL    HW220199   2.333   4.082   6.798  0.1848 -0.3472 -0.3980
 2855SOL     OW20200   4.438   0.427   4.948 -0.3406 -0.1141  0.3594
 2855SOL    HW120201   4.466   0.503   4.898  0.0494 -0.0021  0.7437
 2855SOL    HW220202   4.407   0.486   5.016 -2.1311 -0.1081 -0.4450
 2856SOL     OW20203   2.132   3.192   1.486  0.1854 -0.3679  0.1106
 2856SOL    HW120204   2.055   3.179   1.431  0.2784 -0.4292 -0.0041
 2856SOL    HW220205   2.204   3.180   1.424  0.2780 -0.3596  0.2153
 2857SOL     OW20206   2.338   0.261   9.332  0.2450 -0.3200  0.6136
 2857SOL    HW120207   2.290   0.328   9.381  1.0446  1.0520 -0.4744
 2857SOL    HW220208   2.311   0.288   9.244  1.7736  0.0223  0.2473
 2858SOL     OW20209   3.181   2.346   6.497  0.1000  0.0725 -0.3697
 2858SOL    HW120210   3.123   2.272   6.518  1.1189 -0.5012  0.3989
 2858SOL    HW220211   3.123   2.420   6.517 -0.2384 -0.6373  1.2969
 2859SOL     OW20212   0.956   2.699   3.988 -0.4557 -0.1443  0.4254
 2859SOL    HW120213   0.871   2.733   3.960 -0.1226 -1.2962 -2.0033
 2859SOL    HW220214   0.954   2.610   3.954  0.4413 -0.0571  0.1418
 2860SOL     OW20215   0.173   1.013   3.149  0.2753  0.0541  0.4702
 2860SOL    HW120216   0.254   0.961   3.152  0.1387 -0.2382 -1.3087
 2860SOL    HW220217   0.145   1.011   3.241 -3.0845  2.1615 -0.5084
 2861SOL     OW20218   2.476   0.514   1.911 -0.1883 -0.2703 -0.0503
 2861SOL    HW120219   2.467   0.558   1.996 -1.3551  1.7611 -1.2061
 2861SOL    HW220220   2.471   0.596   1.860  0.7453 -0.0584  0.1932
 2862SOL     OW20221   4.599   0.526  16.490 -0.2565 -0.7287  0.1824
 2862SOL    HW120222   4.508   0.555  16.501  0.1632  0.7736 -0.2640
 2862SOL    HW220223   4.609   0.531  16.395  0.3600  3.4144  0.4573
 2863SOL     OW20224   4.521   0.126  16.531  0.2765 -0.0830  0.1336
 2863SOL    HW120225   4.580   0.167  16.468 -3.7152  0.6551 -3.1875
 2863SOL    HW220226   4.563   0.044  16.555  0.1110 -0.4243 -0.7230
 2864SOL     OW20227   3.963   2.869  15.063  0.0622  0.0386 -0.4817
 2864SOL    HW120228   4.012   2.904  15.137 -0.5679 -0.7032  0.2842
 2864SOL    HW220229   3.966   2.947  15.007 -1.6083  1.4940  1.4222
 2865SOL     OW20230   1.522   3.448   1.485 -0.6380  0.4047 -0.1463
 2865SOL    HW120231   1.463   3.512   1.524 -1.1759  0.2729 -0.7477
 2865SOL    HW220232   1.456   3.382   1.462 -0.7284  0.4737 -0.0836
 2866SOL     OW20233   4.244   3.532   6.416 -0.1127 -0.1667  0.5555
 2866SOL    HW120234   4.298   3.464   6.376 -1.1418  1.2818 -3.2659
 2866SOL    HW220235   4.304   3.579   6.475 -0.9932 -0.8331  1.9900
 2867SOL     OW20236   3.217   1.679   8.884 -0.3020  0.2395 -0.4450
 2867SOL    HW120237   3.291   1.740   8.890  0.1990 -0.2738 -1.3969
 2867SOL    HW220238   3.199   1.676   8.790 -0.3149 -1.8269 -0.3778
 2868SOL     OW20239   3.253   0.086  13.342 -0.3286  0.5998 -0.0007
 2868SOL    HW120240   3.250   4.734  13.307 -1.4332  0.5789  0.1285
 2868SOL    HW220241   3.167   0.109  13.306 -1.5658 -3.3289  0.4188
 2869SOL     OW20242   0.374   1.105  15.030 -0.1685  0.0321  0.1720
 2869SOL    HW120243   0.402   1.030  14.978 -0.6534 -0.3039  0.3911
 2869SOL    HW220244   0.350   1.166  14.960  2.1950  0.1387 -0.5414
 2870SOL     OW20245   0.486   4.329  11.709 -1.0188  0.1037 -0.0944
 2870SOL    HW120246   0.518   4.245  11.742 -1.8771 -1.0882 -2.3210
 2870SOL    HW220247   0.480   4.309  11.616 -0.7100  0.4828 -0.1983
 2871SOL     OW20248   3.088   0.997   6.878  0.1116  0.0689 -0.1534
 2871SOL    HW120249   3.037   1.077   6.867  2.1792  1.3265 -0.7389
 2871SOL    HW220250   3.103   1.004   6.972  0.8764  2.8085 -0.4779
 2872SOL     OW20251   3.553   1.030   2.344  0.1111  0.5968  0.4010
 2872SOL    HW120252   3.626   0.970   2.359  0.3508  0.3710 -1.7746
 2872SOL    HW220253   3.526   1.009   2.255 -1.0894  0.1965  0.8528
 2873SOL     OW20254   4.067   3.129   1.333 -0.4687  0.9859 -0.0404
 2873SOL    HW120255   4.147   3.148   1.284 -0.9547  1.4855 -0.6358
 2873SOL    HW220256   4.006   3.197   1.302 -1.5371 -0.0363 -0.1910
 2874SOL     OW20257   0.481   4.629   9.425  0.5017 -0.1427  0.1983
 2874SOL    HW120258   0.457   4.611   9.334  0.9256 -1.8914  0.4416
 2874SOL    HW220259   0.518   4.543   9.445 -1.5116 -1.1231 -0.3138
 2875SOL     OW20260   2.304   3.501  12.396  0.1886  0.0212 -0.2284
 2875SOL    HW120261   2.276   3.565  12.330 -2.5033 -0.5753  0.3348
 2875SOL    HW220262   2.383   3.532  12.439 -0.2738 -0.8074  1.2132
 2876SOL     OW20263   4.264   1.051   3.957  0.4013  0.3058 -0.0915
 2876SOL    HW120264   4.184   1.052   3.904  0.8190  3.3602 -0.6990
 2876SOL    HW220265   4.237   1.115   4.023  1.0474  0.4751  0.0101
 2877SOL     OW20266   3.967   3.670   8.754 -0.1126  0.1583  0.3779
 2877SOL    HW120267   3.911   3.706   8.822 -0.7729 -1.2905  0.6153
 2877SOL    HW220268   4.050   3.692   8.796  1.3393  0.6499 -2.7624
 2878SOL     OW20269   4.163   2.491   9.097  0.5218  0.0971 -0.1357
 2878SOL    HW120270   4.169   2.532   9.011 -2.9947 -2.9151 -1.7810
 2878SOL    HW220271   4.116   2.552   9.156  0.9052 -0.3515  0.6364
 2879SOL     OW20272   2.476   3.777   6.479 -0.1896  0.0115 -0.6301
 2879SOL    HW120273   2.462   3.694   6.526 -3.7617  0.3946 -0.9693
 2879SOL    HW220274   2.570   3.783   6.467  0.3626 -1.4340  2.7972
 2880SOL     OW20275   4.469   0.124   5.595 -0.0033 -0.4147  0.5637
 2880SOL    HW120276   4.532   0.163   5.655 -0.2654 -0.6463  0.9936
 2880SOL    HW220277   4.416   0.071   5.655 -0.9067  0.2003  0.3173
 2881SOL     OW20278   2.519   2.727  10.791  0.2638 -0.0102  0.4569
 2881SOL    HW120279   2.504   2.733  10.885 -1.1781  2.6200  0.0645
 2881SOL    HW220280   2.575   2.649  10.793 -0.6429 -0.6786 -0.0433
 2882SOL     OW20281   0.290   2.524  13.858 -0.7334  0.2759  0.1594
 2882SOL    HW120282   0.209   2.514  13.908  0.3182 -0.0077  1.8078
 2882SOL    HW220283   0.257   2.575  13.784  0.5143 -0.1070 -0.6554
 2883SOL     OW20284   3.328   2.789   3.629  0.5262 -0.1036  0.7083
 2883SOL    HW120285   3.284   2.809   3.547 -0.5284 -1.3701  0.9688
 2883SOL    HW220286   3.254   2.805   3.688 -0.6181 -0.6580 -0.5988
 2884SOL     OW20287   1.966   2.958  16.311 -0.0207 -0.3067  0.0604
 2884SOL    HW120288   1.958   3.048  16.280 -0.3836  0.0823  1.2958
 2884SOL    HW220289   2.061   2.955  16.316  0.0701  0.3232 -1.2568
 2885SOL     OW20290   3.896   1.489   3.927 -0.3009 -0.2484 -0.0432
 2885SOL    HW120291   3.801   1.476   3.925 -0.1503 -1.0064 -3.2119
 2885SOL    HW220292   3.898   1.567   3.872  0.5573 -0.4149 -0.2564
 2886SOL     OW20293   0.511   0.348  15.991 -0.2998 -0.5304 -0.6764
 2886SOL    HW120294   0.513   0.361  16.086 -1.7006  0.9275 -0.8319
 2886SOL    HW220295   0.548   0.434  15.968  0.3192  0.0953  2.6202
 2887SOL     OW20296   4.084   3.894   3.806 -0.2457  0.4328 -0.6994
 2887SOL    HW120297   4.140   3.820   3.830 -1.1598 -0.0258  0.0655
 2887SOL    HW220298   4.062   3.929   3.892 -2.1682 -1.4638 -0.4214
 2888SOL     OW20299   2.086   1.067  12.587  0.3385  0.1055 -0.4470
 2888SOL    HW120300   2.093   1.120  12.508 -1.8758 -0.5865 -1.0965
 2888SOL    HW220301   2.082   1.144  12.644  0.1227 -0.1684 -0.0920
 2889SOL     OW20302   3.763   2.000   5.680  0.6767 -0.5000  0.0861
 2889SOL    HW120303   3.697   1.931   5.690 -0.9731  1.3819  1.9947
 2889SOL    HW220304   3.774   2.039   5.766  2.6776  0.0060 -0.4071
 2890SOL     OW20305   0.976   1.868  11.538  0.4154 -0.5026  0.2230
 2890SOL    HW120306   1.064   1.903  11.543  1.1610 -2.0245 -2.2352
 2890SOL    HW220307   0.958   1.864  11.632  1.7219 -0.2017  0.4820
 2891SOL     OW20308   3.055   0.969   4.029 -0.4004  0.5305  0.0859
 2891SOL    HW120309   3.103   1.047   4.056  1.2928 -0.7662  0.8399
 2891SOL    HW220310   3.127   0.905   4.032 -0.3032  0.5537 -1.6999
 2892SOL     OW20311   4.521   1.464   5.544 -0.0416 -0.0304  0.0087
 2892SOL    HW120312   4.491   1.464   5.635  1.9269 -0.7873  0.6646
 2892SOL    HW220313   4.460   1.397   5.513  1.3114  0.2255 -3.3007
 2893SOL     OW20314   2.740   1.792  12.517  0.2097 -0.5145 -0.1099
 2893SOL    HW120315   2.777   1.756  12.597  0.5475 -0.6209 -0.3110
 2893SOL    HW220316   2.649   1.800  12.544  0.3439 -0.7651  0.4038
 2894SOL     OW20317   2.851   3.461   9.501 -0.1888 -0.3088 -0.2273
 2894SOL    HW120318   2.883   3.427   9.584 -0.0062 -0.9832 -0.5760
 2894SOL    HW220319   2.764   3.421   9.506 -0.6360  0.8424  1.2104
 2895SOL     OW20320   3.166   2.517   5.265 -0.0222 -0.3901 -0.4584
 2895SOL    HW120321   3.148   2.473   5.348  3.7708 -2.2741 -0.6473
 2895SOL    HW220322   3.253   2.556   5.274 -0.9665  2.0371 -1.9547
 2896SOL     OW20323   3.713   2.891   3.227  0.1304 -0.0477 -0.4242
 2896SOL    HW120324   3.801   2.894   3.190  0.0384  2.7475 -0.3972
 2896SOL    HW220325   3.683   2.978   3.202  2.1962  1.1924  1.4901
 2897SOL     OW20326   2.899   2.938   1.761 -0.2163  0.1140  0.5876
 2897SOL    HW120327   2.852   2.959   1.681  0.7480 -0.0316 -0.0219
 2897SOL    HW220328   2.892   2.842   1.759  3.5565 -0.1778  0.3746
 2898SOL     OW20329   1.262   1.054  13.824 -0.3265 -0.0317 -0.1310
 2898SOL    HW120330   1.176   1.091  13.843 -0.6201 -0.0652 -1.4207
 2898SOL    HW220331   1.314   1.132  13.806  1.2783 -0.8838  0.7929
 2899SOL     OW20332   2.612   4.036  16.124  0.1112 -0.3491 -0.5847
 2899SOL    HW120333   2.695   3.998  16.154  0.1783  0.8821  0.8004
 2899SOL    HW220334   2.633   4.063  16.034  0.5448  0.6029 -0.2037
 2900SOL     OW20335   4.220   0.150   3.667  0.0823  0.1906 -0.0944
 2900SOL    HW120336   4.161   0.091   3.620 -1.0194  1.5979 -0.5004
 2900SOL    HW220337   4.218   0.122   3.759  1.8809  0.9019  0.1560
 2901SOL     OW20338   4.624   0.452   5.420 -0.2151  0.7463 -0.0784
 2901SOL    HW120339   4.699   0.392   5.424 -0.5270  0.3003 -0.9392
 2901SOL    HW220340   4.647   0.493   5.336 -2.7477  0.4706 -0.9010
 2902SOL     OW20341   2.247   0.024   0.080  0.2273  0.0028 -0.1278
 2902SOL    HW120342   2.233   0.086   0.008  0.3509 -1.9159 -1.8018
 2902SOL    HW220343   2.282   0.086   0.144  1.7257  0.5477 -1.4674
 2903SOL     OW20344   0.278   3.313   5.610 -0.1611 -0.3026 -0.3056
 2903SOL    HW120345   0.187   3.335   5.588 -0.2388 -0.3857 -0.0787
 2903SOL    HW220346   0.261   3.260   5.688 -2.1301  0.6268 -0.1067
 2904SOL     OW20347   0.633   0.627  16.565  0.5795 -0.3139 -0.0672
 2904SOL    HW120348   0.654   0.713  16.600  1.6587 -1.5155  2.2503
 2904SOL    HW220349   0.722   0.593  16.565  0.1327 -1.4731 -2.7533
 2905SOL     OW20350   0.547   0.733   0.406  0.0530 -0.1485  0.1578
 2905SOL    HW120351   0.599   0.691   0.338 -0.2235  0.6968 -0.5779
 2905SOL    HW220352   0.543   0.820   0.367  2.0407 -0.7229 -1.3121
 2906SOL     OW20353   2.164   0.680  17.417  0.1065 -0.2575  0.8151
 2906SOL    HW120354   2.121   0.619  17.476 -3.0281  0.0263 -1.1959
 2906SOL    HW220355   2.105   0.667  17.343  2.2645 -0.7846 -0.8041
 2907SOL     OW20356   3.342   3.064   1.830  0.4955 -0.2501 -0.3075
 2907SOL    HW120357   3.261   3.013   1.830  0.5889 -0.3815  1.7954
 2907SOL    HW220358   3.405   3.004   1.789 -0.4882  0.0770 -2.3109
 2908SOL     OW20359   2.907   4.216   3.673  0.4035 -0.0920  0.2009
 2908SOL    HW120360   2.849   4.201   3.598  1.1112  0.2397 -0.4117
 2908SOL    HW220361   2.948   4.302   3.662  1.5319 -0.8089 -1.1177
 2909SOL     OW20362   2.658   0.440  15.763  0.5459  0.6351  0.7304
 2909SOL    HW120363   2.615   0.417  15.846  0.7899  0.8884  0.9274
 2909SOL    HW220364   2.698   0.367  15.717 -1.4525  0.8902 -1.4048
 2910SOL     OW20365   4.224   1.771   8.141  0.0113  0.3421  0.9535
 2910SOL    HW120366   4.129   1.771   8.152 -0.0382 -0.9427  0.5789
 2910SOL    HW220367   4.251   1.713   8.212 -1.6434 -1.6189 -0.0128
 2911SOL     OW20368   4.558   4.332   6.536  0.6559  0.2884 -0.0157
 2911SOL    HW120369   4.507   4.254   6.558  0.4572 -0.0853 -1.8055
 2911SOL    HW220370   4.626   4.327   6.602 -0.1780  0.0436  0.8304
 2912SOL     OW20371   3.887   1.481   4.831 -0.0066 -0.2367 -0.0363
 2912SOL    HW120372   3.903   1.409   4.892  1.2972 -2.4832 -3.0405
 2912SOL    HW220373   3.866   1.561   4.880  1.0677  0.7450 -1.1764
 2913SOL     OW20374   3.494   1.169   0.441 -0.4935 -0.0901 -0.3934
 2913SOL    HW120375   3.588   1.163   0.458 -0.5349  0.8292  0.1413
 2913SOL    HW220376   3.477   1.107   0.370 -2.7720 -1.3384  1.2027
 2914SOL     OW20377   0.228   3.257   2.123 -0.6220 -0.3602 -0.0545
 2914SOL    HW120378   0.155   3.317   2.135 -0.6852 -0.4392 -0.0439
 2914SOL    HW220379   0.283   3.275   2.200 -2.3138 -1.7684  1.4934
 2915SOL     OW20380   2.865   0.695   3.997 -0.7759 -0.4132 -0.3033
 2915SOL    HW120381   2.773   0.695   4.021 -0.9124 -1.1734 -0.8329
 2915SOL    HW220382   2.871   0.742   3.914 -0.9393 -1.4291 -0.8918
 2916SOL     OW20383   4.458   2.566  15.374 -0.1520  0.1222  0.4136
 2916SOL    HW120384   4.433   2.658  15.364  1.6012  0.3702 -1.5083
 2916SOL    HW220385   4.439   2.545  15.466 -1.1494 -1.1860 -0.0862
 2917SOL     OW20386   2.379   1.109   4.481  0.2618 -0.3369 -0.1169
 2917SOL    HW120387   2.471   1.103   4.455  0.1334  0.2723 -0.6861
 2917SOL    HW220388   2.385   1.114   4.577 -0.2055 -0.8939 -0.0571
 2918SOL     OW20389   4.671   1.902   9.476  0.0865 -0.4465  0.1630
 2918SOL    HW120390   4.690   1.825   9.422  0.5450 -0.3362  0.1712
 2918SOL    HW220391   0.021   1.912   9.512 -0.5184  1.3984  1.1155
 2919SOL     OW20392   0.250   4.422  17.583  0.2390 -0.3839 -0.4142
 2919SOL    HW120393   0.261   4.328  17.576 -0.3461 -0.5173  0.4208
 2919SOL    HW220394   0.295   4.456  17.506 -0.1237 -1.2094 -0.9822
 2920SOL     OW20395   1.032   3.836   0.229 -0.2297 -0.1650  0.4324
 2920SOL    HW120396   1.103   3.884   0.186 -1.0931  0.9646  0.2600
 2920SOL    HW220397   1.087   3.774   0.276 -1.8408  0.1222  2.6713
 2921SOL     OW20398   3.651   1.392   7.388  0.8555 -0.1515  0.0814
 2921SOL    HW120399   3.720   1.449   7.355 -0.6530  1.1637 -0.7901
 2921SOL    HW220400   3.676   1.309   7.347  0.3195 -0.2946  0.0385
 2922SOL     OW20401   4.520   0.805   2.883  0.3748  0.0364  1.1414
 2922SOL    HW120402   4.565   0.861   2.947  2.2656  1.4133 -1.4159
 2922SOL    HW220403   4.592   0.786   2.823  1.0005 -2.7240  2.7825
 2923SOL     OW20404   3.622   3.983   3.556 -0.2838  0.2947 -0.0629
 2923SOL    HW120405   3.715   3.995   3.537 -0.6617  2.2089 -0.7841
 2923SOL    HW220406   3.638   3.925   3.630  2.5833 -0.6242 -1.4045
 2924SOL     OW20407   3.748   4.557   5.597 -0.5230  0.5865  0.2068
 2924SOL    HW120408   3.831   4.604   5.591 -0.4313  0.3774 -0.1397
 2924SOL    HW220409   3.733   4.544   5.503  0.0093 -1.7336  0.4359
 2925SOL     OW20410   0.857   3.660   7.860 -0.3374 -0.2715 -0.7286
 2925SOL    HW120411   0.857   3.600   7.934  1.1253 -1.1428 -1.4427
 2925SOL    HW220412   0.944   3.640   7.826  0.9111 -1.3466  3.0918
 2926SOL     OW20413   1.552   1.914   2.672  0.0186  0.0327 -0.4758
 2926SOL    HW120414   1.472   1.962   2.650  1.2939  1.6848 -1.5347
 2926SOL    HW220415   1.536   1.840   2.614 -1.1167 -0.4043  0.4072
 2927SOL     OW20416   1.970   3.696   9.101 -0.6503 -0.1952 -0.3730
 2927SOL    HW120417   2.007   3.771   9.054 -2.5962  0.4885 -0.8174
 2927SOL    HW220418   2.042   3.633   9.095 -2.3279 -2.0153 -1.5152
 2928SOL     OW20419   1.440   0.807   0.487 -0.0607 -0.7436  0.0873
 2928SOL    HW120420   1.425   0.850   0.402 -0.9706  1.7662  1.5153
 2928SOL    HW220421   1.397   0.876   0.538  1.4656  0.2956 -0.0520
 2929SOL     OW20422   2.415   3.603  12.016 -0.1175 -0.0991  0.0501
 2929SOL    HW120423   2.360   3.653  12.076 -0.4135  0.6684 -0.8488
 2929SOL    HW220424   2.476   3.567  12.080 -0.9558  1.5769  1.7616
 2930SOL     OW20425   0.500   1.704   2.006 -0.5356 -0.0230 -0.2000
 2930SOL    HW120426   0.438   1.677   1.938  0.6876 -1.6155 -0.6795
 2930SOL    HW220427   0.582   1.679   1.965  0.1523  2.6393 -0.4480
 2931SOL     OW20428   4.680   4.338   2.628 -0.3168 -0.4825 -0.5796
 2931SOL    HW120429   0.005   4.285   2.578  1.4871  1.5769 -0.5209
 2931SOL    HW220430   0.007   4.403   2.657 -0.4263  0.1416 -1.6993
 2932SOL     OW20431   2.913   1.683   7.619  0.0957 -0.0736 -0.1527
 2932SOL    HW120432   2.955   1.746   7.677 -1.2808  0.1450  0.5996
 2932SOL    HW220433   2.856   1.643   7.685 -0.4764  1.0209  0.0054
 2933SOL     OW20434   0.833   3.897  16.186 -0.4240  0.3414 -0.6412
 2933SOL    HW120435   0.926   3.900  16.167  0.2106 -1.7568  2.0227
 2933SOL    HW220436   0.824   3.802  16.197  1.5840  0.3945  1.4242
 2934SOL     OW20437   0.757   4.688   6.580 -0.4967 -0.1856  0.0875
 2934SOL    HW120438   0.834   4.704   6.635 -1.0019  2.0753  0.1492
 2934SOL    HW220439   0.757   4.595   6.558 -0.6589 -0.1802  0.0656
 2935SOL     OW20440   3.866   3.253   3.084 -0.3676 -0.1962 -0.2320
 2935SOL    HW120441   3.933   3.185   3.075 -2.5251 -2.2011 -1.1364
 2935SOL    HW220442   3.928   3.324   3.103 -3.1343  2.3226 -0.5324
 2936SOL     OW20443   1.424   1.564   8.426 -0.1158 -0.1641 -0.3944
 2936SOL    HW120444   1.362   1.543   8.356  1.0381 -3.4421 -0.4253
 2936SOL    HW220445   1.371   1.536   8.501 -0.1635 -2.7943 -1.3757
 2937SOL     OW20446   1.889   1.969  10.406  0.5346  0.5756 -0.0902
 2937SOL    HW120447   1.851   1.966  10.318  0.6612 -0.5793 -0.1120
 2937SOL    HW220448   1.937   2.051  10.399 -0.2063  0.9998 -0.2219
 2938SOL     OW20449   1.674   3.647   5.768 -0.5856  0.0873 -0.1513
 2938SOL    HW120450   1.648   3.596   5.844  2.3104  0.9090  1.3859
 2938SOL    HW220451   1.645   3.736   5.790  0.6081  0.6112 -0.6242
 2939SOL     OW20452   3.011   2.727  13.008 -0.2267  0.2069 -0.1292
 2939SOL    HW120453   2.983   2.668  13.078  1.0726 -0.1201  0.1041
 2939SOL    HW220454   2.925   2.761  12.982 -0.7029 -0.6873  0.2663
 2940SOL     OW20455   4.441   1.026   5.225 -0.0678 -0.2070 -0.3683
 2940SOL    HW120456   4.399   1.001   5.308 -0.6555 -3.0579 -1.5128
 2940SOL    HW220457   4.521   1.071   5.253 -2.0695  2.2757  1.2868
 2941SOL     OW20458   2.252   3.102   6.744  0.6141 -0.5709  0.0006
 2941SOL    HW120459   2.324   3.094   6.682  0.0249  0.8150 -0.8549
 2941SOL    HW220460   2.282   3.183   6.786  0.9456 -0.8318  0.2704
 2942SOL     OW20461   0.528   0.290   7.774  0.0448  0.4763  0.7427
 2942SOL    HW120462   0.487   0.333   7.849 -1.8593  1.4274 -0.8428
 2942SOL    HW220463   0.449   0.263   7.727 -0.7317  1.7508  1.2997
 2943SOL     OW20464   2.792   1.976   7.160 -0.0927 -0.1323 -0.0919
 2943SOL    HW120465   2.856   1.938   7.220 -0.3858 -0.6853 -0.1360
 2943SOL    HW220466   2.722   1.937   7.211 -1.8706  3.4626  0.2174
 2944SOL     OW20467   3.744   4.431   2.971  0.3835  0.1047  0.3808
 2944SOL    HW120468   3.664   4.418   2.920  1.5613 -1.1006 -1.1322
 2944SOL    HW220469   3.716   4.408   3.060 -0.9758 -0.7498 -0.2740
 2945SOL     OW20470   1.871   1.311   8.843  0.2617  0.1270 -0.1618
 2945SOL    HW120471   1.911   1.328   8.757  2.5144 -1.7467  0.5121
 2945SOL    HW220472   1.784   1.274   8.827  0.3125  0.7368 -1.8594
 2946SOL     OW20473   0.005   3.254  11.956  0.2530 -0.0891 -0.6056
 2946SOL    HW120474   0.042   3.341  11.938 -0.6223  0.4846  0.3773
 2946SOL    HW220475   4.647   3.259  11.947  0.1410  0.3592  0.8379
 2947SOL     OW20476   1.999   0.632   0.592  0.2741 -0.4350 -0.1376
 2947SOL    HW120477   2.069   0.681   0.549 -0.5605 -1.1450 -2.3041
 2947SOL    HW220478   1.951   0.703   0.635  1.8576 -0.9298  2.4860
 2948SOL     OW20479   2.977   0.854  15.856 -0.1415 -0.4816  0.0104
 2948SOL    HW120480   2.885   0.879  15.857  0.2107  0.8227  0.3161
 2948SOL    HW220481   3.003   0.844  15.764 -0.3133 -1.8342  0.1041
 2949SOL     OW20482   1.495   3.941  13.667 -0.0328  1.0940 -0.3822
 2949SOL    HW120483   1.460   3.915  13.582  2.5968 -0.1542 -1.0716
 2949SOL    HW220484   1.434   4.011  13.690 -1.7622 -0.2672 -0.8110
 2950SOL     OW20485   4.237   2.430  12.347 -0.1598  0.9781  0.2264
 2950SOL    HW120486   4.289   2.504  12.318  1.0130 -0.8733 -2.3491
 2950SOL    HW220487   4.185   2.411  12.269  0.7975 -1.8258  0.2564
 2951SOL     OW20488   1.233   0.356   6.957  0.0084  0.3046  0.0644
 2951SOL    HW120489   1.162   0.302   6.993 -1.4471  2.0283 -0.2027
 2951SOL    HW220490   1.204   0.443   6.984 -1.6444 -0.3116  0.3005
 2952SOL     OW20491   1.347   2.308   9.805  0.1240 -0.5628  0.1445
 2952SOL    HW120492   1.422   2.353   9.842  0.9742 -1.5311 -0.3965
 2952SOL    HW220493   1.357   2.309   9.710 -0.2814 -1.8219  0.0793
 2953SOL     OW20494   3.465   3.471   7.922 -0.5329  0.1310 -0.2372
 2953SOL    HW120495   3.440   3.380   7.906 -0.3769  0.3012 -1.4065
 2953SOL    HW220496   3.385   3.506   7.883 -1.3532  0.7171  1.9659
 2954SOL     OW20497   2.293   1.395   6.443 -1.0084 -0.2750  0.7158
 2954SOL    HW120498   2.249   1.370   6.361 -0.6652  2.8630 -0.4290
 2954SOL    HW220499   2.383   1.390   6.411 -0.5506 -1.8265  2.2624
 2955SOL     OW20500   2.454   0.372   7.447 -0.6885  0.0710 -0.0074
 2955SOL    HW120501   2.417   0.454   7.479 -0.9602 -0.8865  2.1614
 2955SOL    HW220502   2.394   0.324   7.504  1.2040 -0.8813  1.2163
 2956SOL     OW20503   3.855   4.709   7.084 -0.5931 -0.3126  0.5938
 2956SOL    HW120504   3.902   4.642   7.034 -0.3814 -0.4425  0.9625
 2956SOL    HW220505   3.857   0.033   7.011 -1.7861  0.0080  0.8437
 2957SOL     OW20506   0.407   3.673   3.011  0.0105  0.1964  0.1846
 2957SOL    HW120507   0.337   3.608   3.021  1.1533 -0.8941  1.2097
 2957SOL    HW220508   0.475   3.621   2.967  0.2567 -0.8445  1.7833
 2958SOL     OW20509   3.365   3.777   4.825 -0.0660 -0.8968  0.3529
 2958SOL    HW120510   3.323   3.846   4.877 -0.4645  0.7105 -2.1155
 2958SOL    HW220511   3.455   3.807   4.810  0.0507 -1.0848  0.6705
 2959SOL     OW20512   4.029   2.502  10.332  0.2304 -0.1773 -0.5813
 2959SOL    HW120513   3.981   2.583  10.351 -2.2676 -1.4234 -1.5199
 2959SOL    HW220514   3.963   2.433  10.328 -3.9119  3.5559  3.3397
 2960SOL     OW20515   0.418   1.689   4.982 -0.1155 -0.0194  0.1686
 2960SOL    HW120516   0.342   1.710   4.928 -0.3823 -2.5845 -0.4839
 2960SOL    HW220517   0.450   1.610   4.937 -0.9567 -0.9076  1.1242
 2961SOL     OW20518   3.815   2.255  10.116 -0.1047 -0.4673  0.8337
 2961SOL    HW120519   3.788   2.322  10.179 -0.0682 -1.5758  2.0284
 2961SOL    HW220520   3.733   2.243  10.068  0.5025  3.1738 -1.0841
 2962SOL     OW20521   1.211   2.634   4.097  0.2847  0.1505  0.4539
 2962SOL    HW120522   1.199   2.554   4.148  0.8225  0.7575  1.5546
 2962SOL    HW220523   1.118   2.656   4.089  0.5318  1.1544  0.2784
 2963SOL     OW20524   0.962   4.012   9.229  0.0301  0.2528  0.1776
 2963SOL    HW120525   1.054   4.008   9.202  0.3493  2.4983  0.9901
 2963SOL    HW220526   0.920   3.974   9.153 -0.9979  0.6435  0.5551
 2964SOL     OW20527   1.284   4.680   6.827  0.1582 -0.0326  0.6753
 2964SOL    HW120528   1.242   4.602   6.862  0.3857 -0.6627 -0.4557
 2964SOL    HW220529   1.358   4.638   6.782  0.0345  0.7342 -0.2570
 2965SOL     OW20530   1.753   4.577   6.947 -0.1738 -0.2527  0.0983
 2965SOL    HW120531   1.750   4.645   7.015  1.4342 -0.4317  0.3288
 2965SOL    HW220532   1.660   4.557   6.936 -0.4077  0.1365  1.3067
 2966SOL     OW20533   1.852   0.903  12.704 -0.8303 -0.0768 -0.0635
 2966SOL    HW120534   1.901   0.955  12.641  0.6184 -0.4817  0.7270
 2966SOL    HW220535   1.824   0.964  12.773 -1.3406  0.2479 -0.5618
 2967SOL     OW20536   3.956   1.020   6.871 -0.2425  0.1871  0.0896
 2967SOL    HW120537   3.876   0.977   6.900 -0.8088  2.9246  2.5378
 2967SOL    HW220538   4.020   0.989   6.934 -0.1977  1.1857  0.5320
 2968SOL     OW20539   0.753   4.580   5.955 -1.1324  0.7096 -0.3439
 2968SOL    HW120540   0.684   4.543   5.900 -2.0911 -1.2311  2.1599
 2968SOL    HW220541   0.794   4.639   5.891 -0.8108  1.7576  0.8255
 2969SOL     OW20542   2.459   2.726   4.367  0.6660 -0.4650  0.4495
 2969SOL    HW120543   2.423   2.704   4.453  0.4085  1.2169  0.7730
 2969SOL    HW220544   2.538   2.765   4.405  0.5558 -0.6427  0.8693
 2970SOL     OW20545   4.090   4.002   3.329 -1.2543  0.6801 -0.0198
 2970SOL    HW120546   4.112   3.946   3.404  0.1720  0.7674 -0.3635
 2970SOL    HW220547   4.162   3.990   3.266 -1.0636  0.0606  0.3175
 2971SOL     OW20548   3.094   4.487   0.508  0.5204 -0.4252  0.1117
 2971SOL    HW120549   3.151   4.465   0.582  2.2603  3.2141 -0.1439
 2971SOL    HW220550   3.125   4.425   0.441 -1.6870 -1.9967  0.5335
 2972SOL     OW20551   1.197   0.141  13.154 -0.1706  0.3777 -0.0146
 2972SOL    HW120552   1.266   0.207  13.154 -0.2174  0.4174 -3.3177
 2972SOL    HW220553   1.160   0.141  13.066 -0.0334  0.3161 -0.0719
 2973SOL     OW20554   2.081   2.564   2.728 -0.4039  0.3640  0.3095
 2973SOL    HW120555   2.159   2.588   2.780 -1.2307 -4.0498  3.5575
 2973SOL    HW220556   2.126   2.548   2.645  0.4022  2.0155  0.4056
 2974SOL     OW20557   2.038   2.756  12.808  0.3150 -0.4741  0.4990
 2974SOL    HW120558   2.098   2.829  12.790  0.9481 -1.2861 -0.6801
 2974SOL    HW220559   2.048   2.706  12.727 -0.6625  1.0713 -0.5859
 2975SOL     OW20560   0.193   3.752  15.727 -0.5630 -0.3740 -0.0354
 2975SOL    HW120561   0.240   3.688  15.674 -1.0241  0.2329 -1.1703
 2975SOL    HW220562   0.269   3.784  15.776 -1.2320 -1.0563  1.4499
 2976SOL     OW20563   3.671   2.986  10.550  0.0085  0.2728 -0.1273
 2976SOL    HW120564   3.670   2.904  10.600  0.0518 -0.3304 -1.1191
 2976SOL    HW220565   3.674   3.039  10.630  1.4985  0.6512 -0.4322
 2977SOL     OW20566   4.244   1.508   4.424  0.6175  0.4049 -0.1103
 2977SOL    HW120567   4.278   1.591   4.392  1.8160  0.0882  0.3586
 2977SOL    HW220568   4.221   1.470   4.339 -4.0382  1.4315  0.6584
 2978SOL     OW20569   2.973   4.621   1.178 -1.1384  0.1863  0.1326
 2978SOL    HW120570   3.022   4.654   1.253  0.6549 -0.7127 -0.6443
 2978SOL    HW220571   3.043   4.603   1.116 -1.1255 -0.8404  0.4496
 2979SOL     OW20572   1.097   1.496   4.102  0.1120 -0.1065  0.4626
 2979SOL    HW120573   1.174   1.524   4.152  1.1764 -2.0682 -0.1034
 2979SOL    HW220574   1.050   1.428   4.149  1.7043 -2.5119 -1.4654
 2980SOL     OW20575   3.828   4.258  16.145  0.0732  0.3696 -0.2363
 2980SOL    HW120576   3.814   4.175  16.190  2.4905  0.2756  0.3888
 2980SOL    HW220577   3.924   4.258  16.139  0.0582 -1.4816 -0.3827
 2981SOL     OW20578   3.490   1.316   5.287  0.3283  0.6859  0.1768
 2981SOL    HW120579   3.547   1.373   5.339 -0.4522  0.4620  1.2987
 2981SOL    HW220580   3.411   1.312   5.343  1.2662  0.6227  1.5000
 2982SOL     OW20581   4.405   1.955   4.032  0.6775 -0.0776 -0.0681
 2982SOL    HW120582   4.446   2.002   4.104  0.6410  1.3545 -0.9678
 2982SOL    HW220583   4.465   1.881   4.031 -0.8868 -1.3475 -0.3427
 2983SOL     OW20584   3.918   4.406  15.513 -0.5600  0.0244  0.0462
 2983SOL    HW120585   3.846   4.344  15.506 -1.3069  0.9412 -0.2871
 2983SOL    HW220586   3.881   4.483  15.470 -1.9188  0.1054  1.3646
 2984SOL     OW20587   2.746   2.676   5.149 -0.4793  0.0456  0.3632
 2984SOL    HW120588   2.738   2.715   5.237 -2.7891  1.2247 -0.3660
 2984SOL    HW220589   2.700   2.737   5.091 -0.9791  0.2285  0.9479
 2985SOL     OW20590   2.525   0.813   3.012 -0.4456  0.3300  0.1142
 2985SOL    HW120591   2.561   0.818   3.100 -0.7106  0.0087  0.2397
 2985SOL    HW220592   2.462   0.742   3.027 -0.3601 -0.0297 -1.1454
 2986SOL     OW20593   0.638   4.644  10.656 -0.1730 -0.5233 -0.1705
 2986SOL    HW120594   0.702   4.703  10.616 -2.2322  1.6313 -0.2436
 2986SOL    HW220595   0.585   4.618  10.581  1.5067  1.8878 -2.1703
 2987SOL     OW20596   2.828   2.605   7.998 -0.6334 -0.4502 -0.3062
 2987SOL    HW120597   2.767   2.676   7.982 -0.0518  0.0399 -0.3501
 2987SOL    HW220598   2.842   2.615   8.093 -0.7468  1.8304 -0.5531
 2988SOL     OW20599   2.878   1.277   4.504  0.6806  0.0003  0.1991
 2988SOL    HW120600   2.850   1.186   4.503 -0.1175  0.2661 -1.0274
 2988SOL    HW220601   2.958   1.274   4.557  0.1754  0.8555  0.9986
 2989SOL     OW20602   1.503   0.007   3.352  0.1681  0.1818 -0.2544
 2989SOL    HW120603   1.467   4.695   3.278 -0.3622 -0.1544  0.2307
 2989SOL    HW220604   1.593   0.018   3.319  0.2736 -0.0119 -0.0337
 2990SOL     OW20605   2.021   1.258  17.746  0.0209 -0.1500  0.2019
 2990SOL    HW120606   1.966   1.331   0.027  0.4632  0.5715 -0.7818
 2990SOL    HW220607   1.994   1.260  17.654 -0.8707  0.9721  0.4763
 2991SOL     OW20608   2.622   3.324   4.533  0.3416 -0.1424  1.0510
 2991SOL    HW120609   2.640   3.401   4.480  0.4433 -2.1040 -1.7996
 2991SOL    HW220610   2.708   3.283   4.526 -0.7343 -1.8984 -2.1657
 2992SOL     OW20611   3.099   2.902  11.277 -0.1043 -0.0869 -0.1701
 2992SOL    HW120612   3.065   2.827  11.228 -0.7167 -0.6584  1.1066
 2992SOL    HW220613   3.108   2.859  11.363  0.6798  0.2190 -0.1013
 2993SOL     OW20614   3.203   2.704  15.698 -0.2402  0.1002  0.4599
 2993SOL    HW120615   3.225   2.694  15.790  0.3119  2.4255  0.5657
 2993SOL    HW220616   3.215   2.617  15.659 -0.4820 -1.3522  3.6971
 2994SOL     OW20617   1.570   2.837   7.945  0.5145  0.5751 -0.2873
 2994SOL    HW120618   1.585   2.744   7.925  2.0865  0.4569  1.4122
 2994SOL    HW220619   1.622   2.875   7.874 -0.9141 -0.3753 -1.8314
 2995SOL     OW20620   2.575   1.183  15.396 -0.0126 -0.0217  0.5258
 2995SOL    HW120621   2.588   1.133  15.477 -1.1115  0.5938  1.0839
 2995SOL    HW220622   2.574   1.274  15.428  0.1077 -0.3934  1.5960
 2996SOL     OW20623   3.425   0.825  15.665 -0.3527  0.0554 -0.4562
 2996SOL    HW120624   3.426   0.731  15.646 -3.8356  0.3203 -1.9647
 2996SOL    HW220625   3.347   0.864  15.626 -1.7814 -2.9085 -0.5772
 2997SOL     OW20626   3.852   2.300   6.754 -0.2799 -0.5325 -0.0327
 2997SOL    HW120627   3.790   2.244   6.708  0.7010 -0.4407 -1.5015
 2997SOL    HW220628   3.918   2.307   6.684  0.5895 -2.1676  0.6156
 2998SOL     OW20629   3.875   2.036   8.649  0.1352  0.1176  0.4078
 2998SOL    HW120630   3.783   2.035   8.678  0.0991 -2.4847  0.2598
 2998SOL    HW220631   3.910   2.059   8.735  0.8541  1.6085 -0.2956
 2999SOL     OW20632   0.028   2.959  15.654  0.0143 -0.5851  0.5544
 2999SOL    HW120633   0.048   3.045  15.691 -0.7993 -0.8933  1.7133
 2999SOL    HW220634   0.115   2.923  15.675  1.1885  0.0156 -3.2329
 3000SOL     OW20635   4.054   1.902   6.297  0.0212 -0.0049  0.3130
 3000SOL    HW120636   4.038   1.997   6.300  1.7542  0.3733 -2.5779
 3000SOL    HW220637   3.966   1.865   6.300 -0.6993  1.7495  0.9410
 3001SOL     OW20638   4.456   2.178  16.145  0.0098 -0.3174  0.3251
 3001SOL    HW120639   4.445   2.253  16.204  0.4090  1.0672 -1.3550
 3001SOL    HW220640   4.523   2.216  16.088 -0.6051  2.5459  1.4583
 3002SOL     OW20641   3.795   0.152  17.682 -0.3540  0.4550  0.0020
 3002SOL    HW120642   3.825   0.234  17.719 -2.7400  1.0886  0.5644
 3002SOL    HW220643   3.790   0.176  17.590  1.8013 -2.8322 -1.0018
 3003SOL     OW20644   0.041   3.185  17.436  0.7805  0.0416  0.9529
 3003SOL    HW120645   4.712   3.240  17.476 -1.0911 -1.0653 -0.6659
 3003SOL    HW220646   0.002   3.098  17.440 -1.0142  0.9279  2.7514
 3004SOL     OW20647   2.330   1.787   6.032  0.3894  0.6474  0.1806
 3004SOL    HW120648   2.295   1.789   6.121 -0.3308  2.9073 -0.1497
 3004SOL    HW220649   2.369   1.700   6.031  0.9543  0.9121 -0.8446
 3005SOL     OW20650   4.300   2.636   4.864 -0.5855 -0.2736  0.2396
 3005SOL    HW120651   4.206   2.647   4.881 -0.3322  2.6425 -0.1777
 3005SOL    HW220652   4.338   2.668   4.946  1.5333 -1.0392 -0.4651
 3006SOL     OW20653   0.575   2.605   5.061  0.3024 -0.2907 -0.1411
 3006SOL    HW120654   0.647   2.542   5.071 -0.4072 -0.9172  1.1704
 3006SOL    HW220655   0.580   2.659   5.140 -0.9150  0.8638 -0.8634
 3007SOL     OW20656   4.629   1.950   3.332 -0.3306  0.2270  0.6714
 3007SOL    HW120657   4.596   1.952   3.242  1.3158  1.4722  0.0894
 3007SOL    HW220658   4.633   2.043   3.352  0.8894  0.9728 -3.1266
 3008SOL     OW20659   2.611   1.014   8.107 -0.0034 -0.1317  0.3668
 3008SOL    HW120660   2.660   1.083   8.061 -0.0190  0.6829  1.5643
 3008SOL    HW220661   2.616   1.040   8.199  1.0910  0.5723  0.1089
 3009SOL     OW20662   3.628   0.857   7.763 -0.6479  0.4339 -0.1098
 3009SOL    HW120663   3.549   0.885   7.808 -0.7560 -2.0714  1.2591
 3009SOL    HW220664   3.657   0.777   7.809 -2.3997  0.7361  1.4935
 3010SOL     OW20665   3.586   2.201   2.671 -0.1189  0.3914 -0.3620
 3010SOL    HW120666   3.645   2.178   2.599 -1.9322 -3.5817 -0.5725
 3010SOL    HW220667   3.519   2.132   2.662 -1.2833  1.5419 -0.4999
 3011SOL     OW20668   0.043   2.779  16.821 -0.3235 -0.3411  0.1152
 3011SOL    HW120669   0.078   2.724  16.751 -0.9343 -0.2430 -0.2682
 3011SOL    HW220670   4.698   2.735  16.841 -0.2754 -0.1284  0.7650
 3012SOL     OW20671   2.785   3.997  14.771  0.5697 -0.4359 -0.5564
 3012SOL    HW120672   2.787   4.083  14.729  1.2212 -0.7027 -1.0654
 3012SOL    HW220673   2.719   3.948  14.722 -0.9147  1.4259 -0.4176
 3013SOL     OW20674   3.443   3.322   5.721  0.0633  0.5870  0.2454
 3013SOL    HW120675   3.524   3.366   5.696 -0.0536 -0.1850 -1.4688
 3013SOL    HW220676   3.405   3.324   5.634  1.9172 -0.3913 -0.5888
 3014SOL     OW20677   3.067   0.728   7.577  0.1953 -0.2826 -0.1340
 3014SOL    HW120678   3.102   0.660   7.634 -1.6246 -2.4893 -1.6937
 3014SOL    HW220679   3.079   0.800   7.639 -1.3647 -0.8831  0.8775
 3015SOL     OW20680   1.993   3.132   3.146 -0.4208  0.2461  0.3733
 3015SOL    HW120681   2.017   3.143   3.054 -0.4309 -1.2800  0.1986
 3015SOL    HW220682   2.060   3.070   3.172  0.0754  0.5211 -0.2348
 3016SOL     OW20683   2.432   3.276  12.273 -0.2131 -0.0802 -0.1051
 3016SOL    HW120684   2.351   3.322  12.297 -1.2352 -1.8751 -0.0900
 3016SOL    HW220685   2.479   3.343  12.224 -0.4649 -0.0366 -0.2833
 3017SOL     OW20686   0.844   0.080   7.683  0.1207 -0.3318  0.2648
 3017SOL    HW120687   0.892   0.117   7.757  0.5087 -0.7053  0.1991
 3017SOL    HW220688   0.784   0.016   7.721  0.8291 -0.8467  0.5316
 3018SOL     OW20689   0.331   3.950   4.721  0.3955  0.2626  0.5264
 3018SOL    HW120690   0.302   3.868   4.761 -0.6018 -0.7274 -2.2241
 3018SOL    HW220691   0.245   3.980   4.689  0.1688  0.5504  1.4208
 3019SOL     OW20692   2.992   3.382   5.880  0.2399 -0.3585 -0.4934
 3019SOL    HW120693   3.028   3.470   5.883 -0.3100 -0.1114 -1.1227
 3019SOL    HW220694   2.934   3.386   5.803  1.3245 -0.2120 -1.2958
 3020SOL     OW20695   4.461   3.742  14.490 -0.0186  0.2425 -0.1017
 3020SOL    HW120696   4.539   3.724  14.438  0.7653 -0.0538  1.1588
 3020SOL    HW220697   4.479   3.820  14.542  0.9167 -0.0358 -0.0149
 3021SOL     OW20698   1.935   0.352   2.099  0.4843  0.3315 -0.3670
 3021SOL    HW120699   2.006   0.417   2.111  0.1811  0.3887  1.1379
 3021SOL    HW220700   1.925   0.323   2.190  0.2517  1.2670 -0.0877
 3022SOL     OW20701   1.229   0.701   8.590  0.0043  0.5008  0.1034
 3022SOL    HW120702   1.190   0.646   8.522  2.2893  0.1668 -0.9379
 3022SOL    HW220703   1.209   0.644   8.664 -0.7120 -0.6190 -0.9632
 3023SOL     OW20704   3.820   0.155  15.301  0.2241 -0.5011  0.3233
 3023SOL    HW120705   3.824   0.134  15.208 -0.5679 -0.3714  0.2574
 3023SOL    HW220706   3.898   0.210  15.312  0.2275 -0.1228 -1.7142
 3024SOL     OW20707   0.091   3.952   1.214  0.3906 -0.0614  0.6118
 3024SOL    HW120708   0.061   3.983   1.300 -3.1318 -1.4416 -0.0974
 3024SOL    HW220709   0.025   3.888   1.187  0.2576  1.0002 -1.5062
 3025SOL     OW20710   0.137   4.529   6.246  0.3085 -0.5536 -0.1057
 3025SOL    HW120711   0.230   4.522   6.226  0.2719  1.8090 -1.0892
 3025SOL    HW220712   0.108   4.538   6.156 -1.8392  2.3315  0.8683
 3026SOL     OW20713   1.441   4.128   8.453 -0.2706  0.5087  0.2538
 3026SOL    HW120714   1.528   4.161   8.476 -0.0056  1.0217 -1.5431
 3026SOL    HW220715   1.437   4.047   8.505  1.0119  0.0186 -0.3994
 3027SOL     OW20716   1.632   0.727   6.965  1.0541  0.1327 -0.0987
 3027SOL    HW120717   1.607   0.635   6.961 -2.0255  0.8631  2.0550
 3027SOL    HW220718   1.582   0.757   7.041  0.3701 -1.8541  0.2233
 3028SOL     OW20719   0.994   0.045   4.648  0.7078  0.5815  0.2101
 3028SOL    HW120720   1.024   0.065   4.737 -0.2164 -1.7618  1.0345
 3028SOL    HW220721   1.063   4.724   4.618  1.1327  0.0505  2.2709
 3029SOL     OW20722   4.135   3.352   5.592 -0.2364 -0.1564  0.3280
 3029SOL    HW120723   4.189   3.334   5.669  0.2233 -0.7622 -0.1384
 3029SOL    HW220724   4.113   3.445   5.595  2.8759  0.6002  0.2080
 3030SOL     OW20725   2.658   0.688   7.839  0.3859  0.2775 -0.1720
 3030SOL    HW120726   2.739   0.728   7.808 -0.3858  1.2334 -0.9283
 3030SOL    HW220727   2.679   0.600   7.807 -1.0154 -0.1562  0.1250
 3031SOL     OW20728   2.455   4.137   7.224 -0.2303 -0.1042  0.2658
 3031SOL    HW120729   2.415   4.058   7.188  1.6889 -1.2053  0.5132
 3031SOL    HW220730   2.389   4.202   7.201  1.3219  0.8555 -1.5546
 3032SOL     OW20731   1.828   4.211   5.841 -0.2379 -0.0514  0.6710
 3032SOL    HW120732   1.851   4.133   5.892  2.0739 -0.0674 -0.4473
 3032SOL    HW220733   1.762   4.251   5.898 -0.4805 -0.1237  0.4408
 3033SOL     OW20734   2.169   4.260  13.781  0.3206 -0.6354 -0.0588
 3033SOL    HW120735   2.087   4.223  13.813 -0.2652 -1.3966 -2.4339
 3033SOL    HW220736   2.132   4.297  13.701 -1.4372  1.5411  1.7583
 3034SOL     OW20737   0.711   4.125   9.210  0.2031  0.5358 -0.1058
 3034SOL    HW120738   0.638   4.081   9.254  0.8678 -1.8318 -1.3504
 3034SOL    HW220739   0.786   4.078   9.247 -0.9267 -1.5492 -0.4748
 3035SOL     OW20740   4.201   3.402   3.819  0.1750 -0.7746 -0.0362
 3035SOL    HW120741   4.239   3.314   3.811  0.7898 -0.6231  1.2068
 3035SOL    HW220742   4.274   3.457   3.792 -0.1768 -0.8626 -1.1548
 3036SOL     OW20743   2.937   0.544   4.771  0.0974  0.4317 -0.2673
 3036SOL    HW120744   2.982   0.564   4.689  0.1037 -1.7755 -0.7969
 3036SOL    HW220745   2.943   0.626   4.820  0.1667  0.6336 -0.6179
 3037SOL     OW20746   3.552   1.618   7.251  0.5868  0.0894 -0.4671
 3037SOL    HW120747   3.527   1.561   7.324 -0.3168 -0.1937 -0.9959
 3037SOL    HW220748   3.531   1.553   7.183  0.5632 -0.8431  0.4328
 3038SOL     OW20749   0.474   0.711   8.540  0.6916 -0.0745 -0.3329
 3038SOL    HW120750   0.538   0.783   8.533  1.6882 -0.8003  1.0928
 3038SOL    HW220751   0.529   0.633   8.535  0.5786 -0.1853  0.1072
 3039SOL     OW20752   0.176   0.303  10.476  0.6112 -0.2006 -0.1208
 3039SOL    HW120753   0.153   0.380  10.528  0.9013 -0.2331  0.0552
 3039SOL    HW220754   0.257   0.278  10.520  0.4254 -1.0688 -0.2725
 3040SOL     OW20755   2.995   0.201   7.746  0.0431 -0.0019 -0.1130
 3040SOL    HW120756   3.081   0.164   7.766 -0.2436 -0.1636  0.8062
 3040SOL    HW220757   3.017   0.247   7.665  2.1926  0.1857  0.5863
 3041SOL     OW20758   1.460   3.918   9.045  0.2723  0.0044 -0.0679
 3041SOL    HW120759   1.550   3.912   9.075  0.2862 -1.6413 -0.4746
 3041SOL    HW220760   1.475   3.950   8.956  3.4372  1.2572  0.9529
 3042SOL     OW20761   2.830   0.850   8.095 -0.0911  0.2558 -0.1645
 3042SOL    HW120762   2.885   0.864   8.172 -0.3503 -1.1276  0.2758
 3042SOL    HW220763   2.750   0.902   8.105  0.6399  1.1382  1.0217
 3043SOL     OW20764   4.052   1.880   5.566  0.3849 -0.0279  0.2014
 3043SOL    HW120765   3.970   1.930   5.562  0.5670  0.5025  2.9202
 3043SOL    HW220766   4.064   1.881   5.661  0.6048  2.2906  0.1395
 3044SOL     OW20767   0.945   4.499   4.026 -0.4352  0.9959  0.7407
 3044SOL    HW120768   0.972   4.476   4.115  0.5567 -0.6632  0.0151
 3044SOL    HW220769   1.027   4.489   3.977 -1.4470 -0.4968 -0.6485
 3045SOL     OW20770   3.432   0.580   4.268 -0.1194  0.6765 -0.1635
 3045SOL    HW120771   3.491   0.587   4.343 -1.6726  1.7157  0.9703
 3045SOL    HW220772   3.503   0.590   4.205  0.1578 -1.6974 -0.2055
 3046SOL     OW20773   3.416   2.323   3.852  0.0941 -0.0184  0.6566
 3046SOL    HW120774   3.425   2.403   3.800  0.2089 -0.9179 -0.7131
 3046SOL    HW220775   3.507   2.295   3.839  0.5642  0.8337  2.0548
 3047SOL     OW20776   3.446   0.033  15.629  0.6611  0.6141 -0.1439
 3047SOL    HW120777   3.437   0.067  15.540 -1.9521  1.2255  0.3558
 3047SOL    HW220778   3.493   4.690  15.607  1.9370  0.5631  2.7306
 3048SOL     OW20779   1.658   2.870   9.928 -0.5476 -0.1498  0.2610
 3048SOL    HW120780   1.631   2.799   9.987 -1.1104 -0.5185 -0.4356
 3048SOL    HW220781   1.625   2.838   9.844 -0.4869 -1.2482  0.6617
 3049SOL     OW20782   1.621   0.095  13.969 -0.4069  0.4873 -0.1125
 3049SOL    HW120783   1.533   0.061  13.983  0.1521 -1.0560 -0.3094
 3049SOL    HW220784   1.663   0.053  14.044 -0.6129 -0.1185 -0.3368
 3050SOL     OW20785   0.036   3.210   3.460 -0.1048 -0.1294  0.0468
 3050SOL    HW120786   0.092   3.136   3.438  2.6056  2.0372 -0.3531
 3050SOL    HW220787   0.080   3.280   3.412 -0.3500 -1.1891 -1.6998
 3051SOL     OW20788   3.661   4.578   9.814  0.2957 -0.0560  0.0768
 3051SOL    HW120789   3.650   4.584   9.909 -1.4656  2.3388 -0.2876
 3051SOL    HW220790   3.754   4.602   9.805  0.7447 -0.7118  3.1211
 3052SOL     OW20791   3.264   2.170   3.250  0.3028  0.3998 -0.6578
 3052SOL    HW120792   3.354   2.188   3.277  0.7140 -0.2223 -1.6083
 3052SOL    HW220793   3.238   2.260   3.229  1.1112  0.7990  0.0461
 3053SOL     OW20794   0.984   1.523   9.094  0.6233  0.2952 -0.7854
 3053SOL    HW120795   1.059   1.531   9.034  1.3608  0.1146  0.1093
 3053SOL    HW220796   1.008   1.583   9.165  1.5162 -0.0690 -0.7787
 3054SOL     OW20797   3.574   4.635   5.814 -0.4981 -0.7847  0.1535
 3054SOL    HW120798   3.669   4.620   5.815 -0.8376 -2.8778 -0.3788
 3054SOL    HW220799   3.550   4.563   5.757 -1.1202 -1.8079  1.7041
 3055SOL     OW20800   0.602   1.264   7.427  0.2212  0.2721  0.3089
 3055SOL    HW120801   0.530   1.246   7.487  0.5210 -2.3037 -0.1154
 3055SOL    HW220802   0.571   1.343   7.382 -0.7309  0.4509  1.2727
 3056SOL     OW20803   0.126   4.388   3.854  0.1928 -0.0648 -0.0033
 3056SOL    HW120804   0.085   4.319   3.802 -0.7536 -0.4148  1.1988
 3056SOL    HW220805   0.052   4.446   3.872  0.9125  0.7122  0.4644
 3057SOL     OW20806   4.626   3.959   1.986  0.3434  0.5572  0.7864
 3057SOL    HW120807   4.721   3.963   1.976  0.4408  2.5098  2.5054
 3057SOL    HW220808   4.606   3.878   2.032 -2.9483  0.2123 -1.2879
 3058SOL     OW20809   4.401   3.232   1.488 -0.1575 -0.0477 -0.3960
 3058SOL    HW120810   4.426   3.160   1.431 -3.7501  0.2125 -2.3232
 3058SOL    HW220811   4.473   3.293   1.470  0.7461 -1.5513 -1.8291
 3059SOL     OW20812   4.355   0.063   9.879 -0.4047  0.0427 -0.0938
 3059SOL    HW120813   4.382   0.036   9.967 -2.5995 -1.5724  0.0857
 3059SOL    HW220814   4.443   0.083   9.847 -0.4979  0.0262 -0.3567
 3060SOL     OW20815   1.867   3.844   4.157 -0.0868 -0.0855  0.4868
 3060SOL    HW120816   1.892   3.920   4.105  2.3979  0.4643  2.4760
 3060SOL    HW220817   1.814   3.795   4.094 -0.4258  0.1608  0.5837
 3061SOL     OW20818   0.316   3.782   1.255  0.2761 -0.7927  0.1149
 3061SOL    HW120819   0.244   3.836   1.222  0.1871 -0.3746  0.9777
 3061SOL    HW220820   0.347   3.836   1.328  0.6730 -1.6167  0.5566
 3062SOL     OW20821   0.715   3.783   1.570 -0.5233  0.2247 -0.8007
 3062SOL    HW120822   0.727   3.746   1.657  0.1714 -0.3564 -1.1453
 3062SOL    HW220823   0.802   3.776   1.532 -0.6629  2.3606 -1.5200
 3063SOL     OW20824   0.489   0.975   9.885  0.3500 -0.0370  0.0806
 3063SOL    HW120825   0.568   1.022   9.857 -0.0026 -0.2971 -1.3263
 3063SOL    HW220826   0.507   0.887   9.854  1.4612 -0.3061  1.4600
 3064SOL     OW20827   1.166   1.110  14.638 -0.2680  0.0880  0.4281
 3064SOL    HW120828   1.129   1.198  14.631 -0.6995 -0.1897 -0.7469
 3064SOL    HW220829   1.252   1.134  14.674  1.3354 -2.3591 -1.7287
 3065SOL     OW20830   0.889   3.474   8.048  0.0155 -0.2469  0.5429
 3065SOL    HW120831   0.797   3.464   8.071  0.2653 -1.9114  0.8262
 3065SOL    HW220832   0.929   3.461   8.134 -0.4493 -0.0597  0.7856
 3066SOL     OW20833   4.203   0.055   3.080 -0.2966 -0.5013 -0.2782
 3066SOL    HW120834   4.123   0.108   3.072  0.4844  0.0508 -4.4390
 3066SOL    HW220835   4.221   0.026   2.991 -0.0789 -0.9841 -0.0711
 3067SOL     OW20836   4.644   2.573   2.932  0.4515  0.0966  0.2865
 3067SOL    HW120837   4.634   2.538   3.021 -1.3000 -1.2822 -0.4420
 3067SOL    HW220838   4.692   2.504   2.886  0.7234 -0.7484  1.8426
 3068SOL     OW20839   4.605   3.518   8.983 -0.1318  0.0308 -0.4163
 3068SOL    HW120840   4.618   3.430   8.948 -3.2499 -1.4240  1.9933
 3068SOL    HW220841   4.674   3.514   9.049  0.0478  1.9782 -0.4783
 3069SOL     OW20842   2.388   3.481   3.115 -0.2488 -0.0045  0.5204
 3069SOL    HW120843   2.336   3.416   3.161 -0.9409 -0.7321 -1.2835
 3069SOL    HW220844   2.451   3.421   3.075 -0.7734  0.0080 -0.3279
 3070SOL     OW20845   2.095   4.717   7.237  0.5353  0.2450  0.2378
 3070SOL    HW120846   2.189   4.733   7.234  0.3276  1.0234 -1.7688
 3070SOL    HW220847   2.070   0.071   7.246 -0.0887  0.3173 -2.2626
 3071SOL     OW20848   3.830   1.244   3.838  0.0816 -0.7111 -0.2400
 3071SOL    HW120849   3.755   1.268   3.894  1.5256 -1.4397  2.0137
 3071SOL    HW220850   3.899   1.302   3.871 -0.1868 -0.7091  0.3148
 3072SOL     OW20851   3.393   3.198   2.510 -0.0486  0.5148 -0.1576
 3072SOL    HW120852   3.316   3.230   2.463 -0.0960 -1.3241 -1.3271
 3072SOL    HW220853   3.383   3.104   2.524  3.2451  0.3206  0.9237
 3073SOL     OW20854   3.493   3.375   3.224 -0.0519  0.1757  0.2146
 3073SOL    HW120855   3.401   3.355   3.208  0.7989  0.0952 -4.6550
 3073SOL    HW220856   3.491   3.463   3.261 -0.7510 -0.2608  1.2275
 3074SOL     OW20857   2.237   1.423   7.732 -0.2738 -0.2191 -0.5961
 3074SOL    HW120858   2.215   1.506   7.689 -1.0782  0.2450  0.7172
 3074SOL    HW220859   2.328   1.409   7.706  0.2337 -0.1185  1.0760
 3075SOL     OW20860   2.863   1.749  16.523  0.3295  0.1013 -0.1245
 3075SOL    HW120861   2.823   1.706  16.599  2.6465 -0.8139  0.5938
 3075SOL    HW220862   2.862   1.839  16.554  1.1733  0.6111 -1.5761
 3076SOL     OW20863   2.020   3.566   2.254 -0.1163  0.8351  0.3963
 3076SOL    HW120864   1.967   3.515   2.193  0.4716  2.0897 -1.1348
 3076SOL    HW220865   2.007   3.655   2.224 -1.7295  0.0885 -1.1262
 3077SOL     OW20866   2.585   1.086  11.569  0.3078  0.6413  0.1370
 3077SOL    HW120867   2.510   1.027  11.567  1.9632 -1.4817  0.6067
 3077SOL    HW220868   2.658   1.025  11.574 -1.1284 -1.0866 -0.1494
 3078SOL     OW20869   1.599   1.882   9.064  0.1561 -0.7893 -0.7162
 3078SOL    HW120870   1.687   1.898   9.099  1.4063 -0.0801 -4.1680
 3078SOL    HW220871   1.628   1.858   8.976 -1.1832  0.0022 -1.3766
 3079SOL     OW20872   3.036   0.083   0.547  0.0260  0.5358  0.2053
 3079SOL    HW120873   3.039   0.089   0.642 -0.0188 -1.1959  0.3052
 3079SOL    HW220874   3.028   0.173   0.513  1.5374  0.7762  0.5051
 3080SOL     OW20875   2.512   3.305   5.103 -0.0738  0.0334  0.2089
 3080SOL    HW120876   2.438   3.346   5.058  0.8325  1.0010 -0.3763
 3080SOL    HW220877   2.484   3.270   5.188  0.0326  0.4610  0.4189
 3081SOL     OW20878   0.892   4.154  17.406 -0.7883  0.9648 -0.2355
 3081SOL    HW120879   0.950   4.231  17.409  0.5956 -0.1501  1.9283
 3081SOL    HW220880   0.815   4.201  17.439 -0.2289  0.7052  1.4488
 3082SOL     OW20881   4.686   1.271   7.687  0.4238 -0.2225  0.0588
 3082SOL    HW120882   0.005   1.291   7.761  1.7415 -1.2053 -0.7012
 3082SOL    HW220883   4.656   1.181   7.700 -0.8040 -0.2538 -2.9719
 3083SOL     OW20884   0.387   3.232  10.531  0.1259  0.0722 -0.2081
 3083SOL    HW120885   0.341   3.315  10.543  1.2131  0.3146  2.1287
 3083SOL    HW220886   0.460   3.246  10.591  0.3513 -0.9646 -0.2366
 3084SOL     OW20887   1.877   0.726   9.529  0.4461 -0.1159 -0.0043
 3084SOL    HW120888   1.957   0.674   9.538 -0.0010 -1.0100 -1.1408
 3084SOL    HW220889   1.908   0.798   9.475  1.7236 -1.0642 -0.5291
 3085SOL     OW20890   4.417   3.306  14.605 -0.1186 -0.4023  0.2148
 3085SOL    HW120891   4.481   3.361  14.559 -0.5872  0.8673  1.0794
 3085SOL    HW220892   4.383   3.359  14.677  1.3301  0.1711  0.4889
 3086SOL     OW20893   1.750   3.333   4.428 -0.5529  0.5846 -0.3986
 3086SOL    HW120894   1.769   3.250   4.471  1.7157  0.9981 -0.6460
 3086SOL    HW220895   1.836   3.372   4.417 -0.6082  1.1374  1.1036
 3087SOL     OW20896   3.967   0.431   5.126 -0.1004 -0.0634 -0.0760
 3087SOL    HW120897   4.040   0.481   5.088 -0.6249  1.8559  1.4064
 3087SOL    HW220898   3.913   0.423   5.047  0.0694 -0.2353 -0.1733
 3088SOL     OW20899   0.664   2.463  13.358  0.2834 -0.0114  0.0008
 3088SOL    HW120900   0.721   2.415  13.418 -0.7822 -0.4542  0.6771
 3088SOL    HW220901   0.678   2.557  13.374  0.3262  0.1976 -1.2419
 3089SOL     OW20902   1.153   2.575  16.152  0.1886 -0.3623  0.4549
 3089SOL    HW120903   1.138   2.484  16.178  0.6482 -0.9030 -1.1648
 3089SOL    HW220904   1.203   2.603  16.229  1.1742  0.5248 -0.5158
 3090SOL     OW20905   2.969   1.555   2.747  0.0137 -0.2766 -0.1229
 3090SOL    HW120906   3.025   1.478   2.758 -0.3259  0.1155  4.5269
 3090SOL    HW220907   2.901   1.534   2.811 -1.5606 -0.2457 -1.7825
 3091SOL     OW20908   0.397   1.177  11.493  0.2852 -0.0030 -0.0684
 3091SOL    HW120909   0.327   1.188  11.557  0.5187  0.8722  0.0407
 3091SOL    HW220910   0.354   1.185  11.408 -0.2705  0.8029  0.2962
 3092SOL     OW20911   0.836   1.419  10.870  0.2842  0.3201  0.3882
 3092SOL    HW120912   0.741   1.408  10.876 -0.0690  2.9196 -0.4140
 3092SOL    HW220913   0.844   1.494  10.811 -0.5901 -0.1678 -0.3541
 3093SOL     OW20914   2.639   0.385   0.963 -0.0023 -0.1024 -0.0548
 3093SOL    HW120915   2.614   0.293   0.961  1.8287 -0.5448 -2.4519
 3093SOL    HW220916   2.684   0.392   0.878  0.2020 -1.3834 -0.0539
 3094SOL     OW20917   1.515   1.641  11.060 -0.3263  0.1577 -0.0275
 3094SOL    HW120918   1.462   1.563  11.076 -1.3977  0.7972 -0.4721
 3094SOL    HW220919   1.585   1.599  11.010 -1.0451  0.2544 -1.1309
 3095SOL     OW20920   0.364   4.393   2.438 -0.1946 -0.5508 -0.3574
 3095SOL    HW120921   0.383   4.332   2.509 -0.2995  2.6660  2.4543
 3095SOL    HW220922   0.277   4.363   2.411 -1.9963  3.4413  0.9690
 3096SOL     OW20923   0.076   1.084   3.427 -0.1544  0.5727  0.0493
 3096SOL    HW120924   0.086   1.124   3.513 -1.4665  0.9343  0.0280
 3096SOL    HW220925   0.075   1.168   3.381  0.0028  0.2328 -0.5753
 3097SOL     OW20926   4.054   1.999  12.431  0.1030 -0.3283  0.3617
 3097SOL    HW120927   4.005   2.069  12.474  0.4772 -1.2308  2.2625
 3097SOL    HW220928   3.986   1.959  12.377 -1.1528  1.2495  0.7505
 3098SOL     OW20929   3.836   4.605   5.955  0.3645 -0.2216  0.0990
 3098SOL    HW120930   3.843   4.689   6.002 -1.5922  0.1798 -0.3109
 3098SOL    HW220931   3.889   4.636   5.882  1.6358 -2.5009  0.0855
 3099SOL     OW20932   1.106   3.554   1.086 -0.1686  0.3441  0.6909
 3099SOL    HW120933   1.037   3.502   1.045  1.1468  1.8319 -3.5021
 3099SOL    HW220934   1.126   3.502   1.163 -0.8910 -0.7972  0.0984
 3100SOL     OW20935   4.517   0.234   1.092  0.5180 -0.3074 -0.4296
 3100SOL    HW120936   4.487   0.318   1.128  2.2047  0.2897 -0.4283
 3100SOL    HW220937   4.445   0.216   1.031 -2.0204  1.0740  2.1310
 3101SOL     OW20938   0.554   1.894  12.865  0.0899  0.3846  0.0716
 3101SOL    HW120939   0.519   1.821  12.917  0.9583 -0.7555 -0.9271
 3101SOL    HW220940   0.605   1.944  12.928  1.0688  0.6297 -0.9181
 3102SOL     OW20941   0.541   2.514   6.715  0.0944 -0.4613 -0.8027
 3102SOL    HW120942   0.574   2.587   6.768 -0.0496  0.1889 -1.6068
 3102SOL    HW220943   0.576   2.432   6.750  1.5515 -0.1618 -1.5523
 3103SOL     OW20944   2.819   2.426  16.124  0.3895  0.0509 -0.6443
 3103SOL    HW120945   2.841   2.421  16.217 -2.5305 -2.9964 -0.1280
 3103SOL    HW220946   2.803   2.518  16.103  0.1235 -0.5769 -3.1682
 3104SOL     OW20947   3.455   4.299  14.968  0.1576 -0.3382  0.0334
 3104SOL    HW120948   3.363   4.317  14.950 -1.0071 -5.2271  1.0504
 3104SOL    HW220949   3.455   4.326  15.059 -2.3451  2.7110 -0.8832
 3105SOL     OW20950   2.120   0.735   3.409  0.4090 -0.0646 -0.1389
 3105SOL    HW120951   2.111   0.697   3.496 -1.2908  2.1233  0.6417
 3105SOL    HW220952   2.091   0.826   3.420  2.5700  0.3311  2.3921
 3106SOL     OW20953   2.937   1.817   4.291  0.1487 -0.2867 -0.2405
 3106SOL    HW120954   3.026   1.815   4.256 -0.1264 -0.5384 -0.9253
 3106SOL    HW220955   2.890   1.766   4.225 -0.7619 -0.1794  0.3325
 3107SOL     OW20956   2.910   1.563   4.510  0.3697  0.3817  0.0742
 3107SOL    HW120957   2.853   1.604   4.445  0.3775 -0.2482 -0.3266
 3107SOL    HW220958   2.896   1.469   4.502  0.9179  0.4160 -1.2287
 3108SOL     OW20959   2.152   0.614   7.697 -0.4594 -0.1463 -0.1269
 3108SOL    HW120960   2.180   0.701   7.668 -0.6303  0.1609  0.6295
 3108SOL    HW220961   2.182   0.625   7.787 -2.0017 -1.1441  0.5070
 3109SOL     OW20962   3.470   2.430   2.461 -0.7350  0.1544 -0.5094
 3109SOL    HW120963   3.547   2.427   2.404 -1.0299  0.2951 -0.9140
 3109SOL    HW220964   3.475   2.348   2.509  0.2382 -0.9346 -2.4666
 3110SOL     OW20965   3.247   1.031   4.646  0.6334 -0.0793 -0.1358
 3110SOL    HW120966   3.189   0.976   4.594 -2.7745  2.3814  1.0098
 3110SOL    HW220967   3.322   0.979   4.674  0.9179  0.2218 -0.3368
 3111SOL     OW20968   3.112   0.150   5.256 -1.0264  0.5013 -0.1414
 3111SOL    HW120969   3.170   0.143   5.180  0.2760  1.0504  0.8000
 3111SOL    HW220970   3.081   0.240   5.244  1.3977  1.5215  1.0298
 3112SOL     OW20971   0.111   3.830  15.449  0.7276  0.1127 -0.2451
 3112SOL    HW120972   0.151   3.845  15.535  2.6023 -1.5223 -0.8391
 3112SOL    HW220973   0.052   3.905  15.442  0.1445 -0.2950  0.3773
 3113SOL     OW20974   3.239   1.513   3.962  0.2813  0.5557 -0.0576
 3113SOL    HW120975   3.149   1.484   3.950  1.4238 -2.0490 -2.3936
 3113SOL    HW220976   3.262   1.538   3.872 -0.7636  0.2186 -0.4185
 3114SOL     OW20977   2.580   0.759   7.392 -0.2209  0.0807 -0.0464
 3114SOL    HW120978   2.616   0.801   7.470  1.3225 -1.3314 -0.0076
 3114SOL    HW220979   2.630   0.680   7.374  1.2368  1.2391 -1.1080
 3115SOL     OW20980   0.179   1.468   1.940  0.0069 -0.0739  0.0301
 3115SOL    HW120981   0.261   1.420   1.930  0.8425  0.9583  1.8665
 3115SOL    HW220982   0.199   1.561   1.932  0.0311 -0.1231 -0.4801
 3116SOL     OW20983   3.524   0.255   6.996 -0.2842 -0.4761 -0.2333
 3116SOL    HW120984   3.520   0.162   7.018  0.9759 -0.0047  1.9465
 3116SOL    HW220985   3.446   0.271   6.942  1.5474  0.7465 -2.5029
 3117SOL     OW20986   0.569   1.172   6.426  0.0523  0.1767 -0.4590
 3117SOL    HW120987   0.553   1.120   6.347 -0.8659  1.7054 -1.2895
 3117SOL    HW220988   0.657   1.145   6.451  0.3599 -0.3145 -2.0367
 3118SOL     OW20989   0.153   4.229  11.047 -0.1344 -0.1349 -0.5822
 3118SOL    HW120990   0.133   4.318  11.019 -2.0761  0.1506  1.6474
 3118SOL    HW220991   0.108   4.178  10.980  0.8093  0.3251 -1.5724
 3119SOL     OW20992   1.985   4.582   2.163  0.4277  0.2361 -0.4094
 3119SOL    HW120993   2.065   4.600   2.114 -1.0207  0.7339 -2.5790
 3119SOL    HW220994   1.924   4.646   2.128 -0.8443 -1.0529 -0.5488
 3120SOL     OW20995   4.691   0.949   6.133  0.1654 -0.1501 -0.8353
 3120SOL    HW120996   4.595   0.944   6.132  0.1415  0.7147 -2.2903
 3120SOL    HW220997   4.706   1.031   6.180  0.5041  0.5587 -2.1796
 3121SOL     OW20998   1.991   2.215   4.749 -0.4054  0.1979 -0.0417
 3121SOL    HW120999   1.997   2.181   4.660  0.7714  1.5343 -0.4749
 3121SOL    HW221000   1.986   2.132   4.795  0.0338  1.1220  1.6718
 3122SOL     OW21001   0.077   3.772   2.688  0.4448 -0.0717  0.4601
 3122SOL    HW121002   0.170   3.792   2.694  0.1167  0.2914  4.2804
 3122SOL    HW221003   0.058   3.767   2.782 -0.1372  0.6572  0.3806
 3123SOL     OW21004   3.758   4.033   2.329 -0.0183 -0.0367 -0.1735
 3123SOL    HW121005   3.684   4.073   2.284 -1.7740 -0.0593  2.7392
 3123SOL    HW221006   3.770   4.087   2.407  0.6868 -0.5197  0.0603
 3124SOL     OW21007   2.793   0.789   1.715 -0.4612 -0.2728 -0.0478
 3124SOL    HW121008   2.716   0.759   1.763 -1.2433  1.2622 -0.3509
 3124SOL    HW221009   2.751   0.830   1.638  0.6385 -1.3042 -1.1995
 3125SOL     OW21010   1.452   2.229   8.163  0.2188  0.3898  0.3220
 3125SOL    HW121011   1.521   2.291   8.139 -0.1318  0.6859  0.0849
 3125SOL    HW221012   1.499   2.147   8.149  1.0993  0.6231  1.9200
 3126SOL     OW21013   1.901   3.491  16.511 -0.2797  0.0733 -0.2491
 3126SOL    HW121014   1.988   3.471  16.477  0.5792  3.7338 -0.2184
 3126SOL    HW221015   1.923   3.484  16.604  0.9133  0.3394 -0.5118
 3127SOL     OW21016   0.319   0.158   7.052  0.5825  0.6354  0.0066
 3127SOL    HW121017   0.233   0.134   7.086  0.7119 -2.0008 -1.5574
 3127SOL    HW221018   0.375   0.101   7.105  0.8815  0.9875  0.0698
 3128SOL     OW21019   4.408   1.570   5.149  0.0479  0.3756  0.2767
 3128SOL    HW121020   4.446   1.641   5.097  1.0141 -0.9367 -0.8185
 3128SOL    HW221021   4.418   1.615   5.233 -1.2284  0.7717  0.2125
 3129SOL     OW21022   3.941   3.423   8.622 -0.8404  0.0079  0.0569
 3129SOL    HW121023   3.990   3.500   8.650  0.2657  0.0007 -1.8413
 3129SOL    HW221024   4.008   3.358   8.601 -1.8638 -0.9220 -0.3511
 3130SOL     OW21025   2.859   2.215  17.090  0.0919  0.2463  0.1082
 3130SOL    HW121026   2.790   2.207  17.156  0.4877  0.7949  0.5855
 3130SOL    HW221027   2.872   2.309  17.078  0.0953  0.2004 -0.2669
 3131SOL     OW21028   2.389   0.579   9.221  0.0457  0.1516 -0.1466
 3131SOL    HW121029   2.329   0.576   9.295 -1.5118  1.3246 -1.3800
 3131SOL    HW221030   2.347   0.511   9.168  1.1543 -0.6145 -0.0379
 3132SOL     OW21031   0.133   3.792   1.716  0.0102 -0.0812  0.0853
 3132SOL    HW121032   0.091   3.715   1.755  2.1825 -2.0201 -1.3866
 3132SOL    HW221033   0.192   3.747   1.655 -0.0964 -1.4355  0.9836
 3133SOL     OW21034   3.866   3.694   6.327  0.1194 -0.2145 -0.1628
 3133SOL    HW121035   3.838   3.725   6.413  1.3762  2.4736 -0.7285
 3133SOL    HW221036   3.872   3.783   6.292  0.6783  0.7257  2.3204
 3134SOL     OW21037   0.609   2.101   2.364  0.0038 -0.3286  0.0696
 3134SOL    HW121038   0.559   2.083   2.443  0.4641 -0.0171  0.4259
 3134SOL    HW221039   0.576   2.033   2.304 -2.6075  2.5885 -1.8061
 3135SOL     OW21040   1.014   3.811   6.461  0.7547  0.2172 -0.2375
 3135SOL    HW121041   0.959   3.855   6.526  1.2080 -0.3204  0.5159
 3135SOL    HW221042   1.102   3.806   6.499  0.6899  0.6155 -0.0331
 3136SOL     OW21043   2.535   0.365  12.543 -0.1380 -0.2350 -0.1650
 3136SOL    HW121044   2.585   0.430  12.492  1.1961 -1.7454 -0.7821
 3136SOL    HW221045   2.539   0.400  12.632  1.6573 -1.4216  0.2299
 3137SOL     OW21046   1.172   4.032   5.194  0.2612 -0.1473  0.1814
 3137SOL    HW121047   1.258   4.074   5.190  0.7443 -0.9801  1.6313
 3137SOL    HW221048   1.163   4.009   5.102  0.6864  1.6502 -0.3059
 3138SOL     OW21049   3.686   3.624   8.603 -0.5319  0.3454 -0.0255
 3138SOL    HW121050   3.767   3.581   8.632  0.2946  2.3782  0.7396
 3138SOL    HW221051   3.718   3.683   8.534 -0.2205  0.3360  0.1100
 3139SOL     OW21052   2.842   3.784   5.263 -0.1278 -0.1576  0.0867
 3139SOL    HW121053   2.810   3.798   5.174  2.5654  2.9563 -0.3992
 3139SOL    HW221054   2.839   3.874   5.296 -1.8142 -1.2299  2.7918
 3140SOL     OW21055   1.906   1.903   0.446 -0.0850  0.5919 -0.3762
 3140SOL    HW121056   1.923   1.967   0.515 -0.4122 -0.6256  0.8490
 3140SOL    HW221057   1.949   1.826   0.485 -2.7346 -2.0323 -2.5819
 3141SOL     OW21058   2.746   1.153   3.228  0.5084 -0.6304  0.3601
 3141SOL    HW121059   2.769   1.174   3.319  1.1613  0.6590 -0.0965
 3141SOL    HW221060   2.700   1.072   3.247 -1.3864  0.5081  0.6353
 3142SOL     OW21061   4.131   0.021   1.872  0.8751  0.4314 -0.2844
 3142SOL    HW121062   4.087   0.083   1.814 -0.2520  0.0620  0.1663
 3142SOL    HW221063   4.205   4.731   1.818  0.8314 -0.2274 -0.0108
 3143SOL     OW21064   3.005   3.051   8.500  0.0810 -0.0549  0.3594
 3143SOL    HW121065   2.942   3.013   8.439  2.5679  1.0955 -2.9173
 3143SOL    HW221066   3.086   3.024   8.456  0.1642  0.3456  0.2693
 3144SOL     OW21067   4.058   4.712  17.203 -0.1028  0.3571 -0.2470
 3144SOL    HW121068   4.031   4.705  17.295 -0.2749  1.2674 -0.2298
 3144SOL    HW221069   4.138   4.660  17.215 -0.3225  0.2719  0.8874
 3145SOL     OW21070   0.692   1.945  13.500 -0.1254  0.2578  0.0363
 3145SOL    HW121071   0.637   2.007  13.453 -2.3817 -1.7652  0.0148
 3145SOL    HW221072   0.624   1.890  13.540  0.4739 -1.5108 -1.3754
 3146SOL     OW21073   2.941   1.980   3.996  0.1689  0.2299 -0.5407
 3146SOL    HW121074   2.946   2.030   4.078  0.8728  0.0997 -0.4981
 3146SOL    HW221075   3.028   1.999   3.960  0.9559 -0.4938  0.9556
 3147SOL     OW21076   3.323   0.353   5.471 -0.0410 -0.2666  0.0115
 3147SOL    HW121077   3.295   0.444   5.472  1.9302  0.3434 -0.4923
 3147SOL    HW221078   3.342   0.326   5.382 -2.1149  0.4361 -0.6496
 3148SOL     OW21079   4.375   4.044  16.393  0.2490  0.6393  0.0103
 3148SOL    HW121080   4.438   4.115  16.378  0.4866  0.3709 -0.2527
 3148SOL    HW221081   4.326   4.079  16.468  0.0260 -0.2157  0.2630
 3149SOL     OW21082   2.362   3.445  17.331 -0.7734  0.2708  0.2242
 3149SOL    HW121083   2.324   3.438  17.419 -3.8623  0.0595 -1.1050
 3149SOL    HW221084   2.298   3.390  17.285 -0.3745 -0.2439  0.2920
 3150SOL     OW21085   4.617   0.401   2.884 -0.0136 -0.6364 -0.1722
 3150SOL    HW121086   4.694   0.345   2.885 -0.0185 -0.6434 -0.2178
 3150SOL    HW221087   4.657   0.475   2.840  1.9493 -0.2231  2.3123
 3151SOL     OW21088   2.686   3.466  12.780  0.0810  0.8719 -0.0170
 3151SOL    HW121089   2.669   3.487  12.872  1.1497 -0.9320  0.5748
 3151SOL    HW221090   2.712   3.555  12.756  0.8529  0.2364 -1.5117
 3152SOL     OW21091   0.681   2.545   5.476  0.0848 -0.1812  0.4715
 3152SOL    HW121092   0.688   2.612   5.544  1.9130  1.4624 -1.3685
 3152SOL    HW221093   0.596   2.561   5.434 -0.0516 -0.3754  0.6696
 3153SOL     OW21094   1.476   1.471  16.305 -0.0369 -0.1509  0.2331
 3153SOL    HW121095   1.556   1.510  16.339 -0.3988  1.2089 -0.4914
 3153SOL    HW221096   1.423   1.460  16.383 -0.3749  0.8524  0.1394
 3154SOL     OW21097   0.403   1.947  13.857  0.1628 -0.0715  0.1857
 3154SOL    HW121098   0.452   1.927  13.937  0.5573  0.1811  0.0079
 3154SOL    HW221099   0.458   1.932  13.781 -0.7684  0.1225 -0.5207
 3155SOL     OW21100   3.120   1.442   9.490  0.2149  0.3785 -0.2614
 3155SOL    HW121101   3.093   1.351   9.477 -3.7940  1.7751 -2.0598
 3155SOL    HW221102   3.166   1.433   9.573 -0.4740 -0.3829  0.0449
 3156SOL     OW21103   3.512   0.115   7.996  0.3615  0.6420 -0.0501
 3156SOL    HW121104   3.496   0.037   8.049  0.7086  0.3539 -0.3703
 3156SOL    HW221105   3.605   0.110   7.973  0.1069 -1.1179 -0.7306
 3157SOL     OW21106   0.592   4.623  10.932 -0.0776 -0.0169  0.3304
 3157SOL    HW121107   0.616   4.617  10.839 -0.8802 -2.2933  0.2764
 3157SOL    HW221108   0.663   4.670  10.974 -1.0340  1.3935  0.3769
 3158SOL     OW21109   2.131   0.932  13.613 -0.2311  0.1447  0.1590
 3158SOL    HW121110   2.091   1.018  13.629  0.9746  0.6758  0.3945
 3158SOL    HW221111   2.212   0.947  13.564  1.1548 -1.5138  1.9607
 3159SOL     OW21112   2.432   3.248   9.676  0.2279 -0.1579 -0.0563
 3159SOL    HW121113   2.434   3.275   9.768  2.7100  2.1446 -0.7872
 3159SOL    HW221114   2.369   3.175   9.679  0.3080 -0.1903  1.0429
 3160SOL     OW21115   4.729   1.549   5.729  0.5138  0.1947 -0.2166
 3160SOL    HW121116   0.013   1.639   5.703  0.1463  0.1928 -0.5151
 3160SOL    HW221117   4.680   1.521   5.652  1.8936  0.0509 -1.0550
 3161SOL     OW21118   3.422   2.482   5.062  0.8744  0.3340  0.1184
 3161SOL    HW121119   3.469   2.566   5.070  0.8855  0.3221  0.1860
 3161SOL    HW221120   3.344   2.507   5.013  2.0531  0.6685 -1.5546
 3162SOL     OW21121   2.256   2.030   2.538 -0.2074 -0.1795 -0.4195
 3162SOL    HW121122   2.255   1.963   2.470 -1.3864  0.2722 -0.8581
 3162SOL    HW221123   2.218   2.103   2.489 -0.7542  0.9593  1.6825
 3163SOL     OW21124   4.435   4.155   5.653 -0.2424  0.3419  0.0462
 3163SOL    HW121125   4.425   4.135   5.746 -0.5120  1.8306  0.3476
 3163SOL    HW221126   4.379   4.233   5.652  0.0834  0.5770 -0.1727
 3164SOL     OW21127   2.975   3.091   7.681  0.5906  0.5598 -0.2971
 3164SOL    HW121128   2.957   3.129   7.767 -0.0273 -1.7050  0.5838
 3164SOL    HW221129   2.889   3.052   7.664  0.5711  0.5596 -0.2008
 3165SOL     OW21130   0.445   3.474   7.505  0.6942  0.0381  0.3055
 3165SOL    HW121131   0.505   3.441   7.439 -0.0355  1.6534 -1.1622
 3165SOL    HW221132   0.436   3.405   7.571  0.4847 -2.0011 -1.8731
 3166SOL     OW21133   0.809   1.725  11.344 -0.5294 -0.5226  0.1848
 3166SOL    HW121134   0.864   1.774  11.405 -0.1395 -3.9236  2.5846
 3166SOL    HW221135   0.783   1.804  11.296  2.4377  0.9171  0.9879
 3167SOL     OW21136   4.659   1.587   8.774 -0.4183 -0.3437 -0.7586
 3167SOL    HW121137   4.593   1.628   8.717 -0.7969 -1.0374 -0.8154
 3167SOL    HW221138   0.003   1.617   8.736 -0.4438  0.0881 -0.4780
 3168SOL     OW21139   2.600   4.386   2.601  0.1138 -0.8719 -0.3891
 3168SOL    HW121140   2.683   4.353   2.566  1.2247  1.0400  0.4788
 3168SOL    HW221141   2.619   4.354   2.689 -0.3241 -1.4032 -0.4823
 3169SOL     OW21142   3.775   2.413  13.541 -0.1767  0.2602 -0.2748
 3169SOL    HW121143   3.829   2.353  13.488 -0.2968 -0.3121  0.2444
 3169SOL    HW221144   3.843   2.471  13.575  0.4558 -0.8194  0.3200
 3170SOL     OW21145   1.101   3.076   9.882  0.3903  0.0961  1.1035
 3170SOL    HW121146   1.196   3.068   9.892  0.8011  0.2577 -2.5486
 3170SOL    HW221147   1.068   3.087   9.971 -0.0191 -0.8136  1.0711
 3171SOL     OW21148   0.413   3.322   4.663  0.3017 -0.1711  0.3291
 3171SOL    HW121149   0.376   3.409   4.649  0.4715 -0.2022 -0.3015
 3171SOL    HW221150   0.332   3.281   4.692 -0.4384 -0.2281 -1.8067
 3172SOL     OW21151   1.706   3.941   5.436  0.1075  0.0349  0.6691
 3172SOL    HW121152   1.798   3.916   5.428  0.4151  0.7817  1.9394
 3172SOL    HW221153   1.713   3.986   5.520  1.4561  0.8065  0.1437
 3173SOL     OW21154   0.650   0.757   8.174 -0.2141 -0.2738  0.1725
 3173SOL    HW121155   0.696   0.710   8.243 -0.0486 -0.7883 -0.2868
 3173SOL    HW221156   0.651   0.699   8.098  0.0243 -0.1910  0.1106
 3174SOL     OW21157   4.569   0.182   8.113  0.0984 -0.1578  0.1866
 3174SOL    HW121158   4.479   0.150   8.122  1.1582 -2.8187  1.1406
 3174SOL    HW221159   4.576   0.222   8.199  0.7628 -0.0149  0.0610
 3175SOL     OW21160   4.068   3.854   0.395  0.3949 -0.4489  0.2302
 3175SOL    HW121161   3.995   3.843   0.457 -0.3335  0.5791 -0.4312
 3175SOL    HW221162   4.029   3.894   0.317 -1.6018 -0.4808  1.2080
 3176SOL     OW21163   2.159   1.069   3.795 -0.2039 -0.6322  0.0115
 3176SOL    HW121164   2.177   1.021   3.714  0.9330 -1.1089  0.5387
 3176SOL    HW221165   2.179   1.005   3.864  0.0061 -0.8619 -0.2618
 3177SOL     OW21166   2.791   3.608   6.654 -0.4148  0.1952  0.5102
 3177SOL    HW121167   2.829   3.676   6.709 -0.7536  0.0198  0.9670
 3177SOL    HW221168   2.699   3.611   6.682 -0.2570  0.4237  1.0153
 3178SOL     OW21169   4.427   2.727   0.288  0.5694 -0.0244  0.5304
 3178SOL    HW121170   4.387   2.766   0.210  2.3347  1.4311  0.3694
 3178SOL    HW221171   4.355   2.675   0.324  0.9888 -0.7663  0.2831
 3179SOL     OW21172   1.964   0.068  10.324  0.4400  0.3740 -0.0712
 3179SOL    HW121173   1.930   4.719  10.346  0.5398  0.2009 -0.5840
 3179SOL    HW221174   2.016   0.088  10.402 -1.8794 -1.5194  1.9365
 3180SOL     OW21175   2.568   3.038   1.804 -0.3221 -0.4333  0.6524
 3180SOL    HW121176   2.538   2.965   1.859 -1.9272  0.3442  0.8088
 3180SOL    HW221177   2.527   3.113   1.848  1.2003 -0.2058  1.6896
 3181SOL     OW21178   0.322   1.189  17.741  0.2037  0.0982 -0.8979
 3181SOL    HW121179   0.381   1.191  17.665  0.1520 -2.8776 -1.0432
 3181SOL    HW221180   0.360   1.112   0.036  1.8786  0.9633 -0.7991
 3182SOL     OW21181   4.614   2.988   0.238 -0.1028  0.0270  0.1802
 3182SOL    HW121182   4.630   2.984   0.144  0.0722 -1.3524  0.2733
 3182SOL    HW221183   4.580   3.077   0.247 -2.7948 -1.1424  1.4663
 3183SOL     OW21184   1.324   4.291  12.578  0.4300 -0.1113 -0.0566
 3183SOL    HW121185   1.285   4.204  12.568 -0.7709  0.2789  1.2382
 3183SOL    HW221186   1.336   4.292  12.673 -2.5337 -1.2641  0.3274
 3184SOL     OW21187   2.499   2.348   1.392 -0.0061 -0.0742  0.3244
 3184SOL    HW121188   2.483   2.383   1.480 -0.7235  0.1254  0.1169
 3184SOL    HW221189   2.499   2.430   1.343  1.4497  0.4045  1.1105
 3185SOL     OW21190   0.911   0.751   7.603  0.5030  0.5902  0.0966
 3185SOL    HW121191   0.926   0.775   7.694 -0.4094 -0.8940  0.6544
 3185SOL    HW221192   0.847   0.818   7.577 -0.2772 -0.1522  0.0790
 3186SOL     OW21193   1.030   1.894   6.774 -0.3365 -0.3572  0.0479
 3186SOL    HW121194   1.022   1.942   6.692  0.3898 -2.1947 -1.1055
 3186SOL    HW221195   1.124   1.879   6.775 -0.3916 -0.6547  0.8378
 3187SOL     OW21196   1.429   1.421  17.163 -0.5563 -0.0000  0.3160
 3187SOL    HW121197   1.449   1.448  17.073 -0.7474  0.3960  0.3925
 3187SOL    HW221198   1.344   1.382  17.141 -0.5312  0.2016 -0.1497
 3188SOL     OW21199   4.356   2.715   5.948 -0.2663 -0.7831  0.2949
 3188SOL    HW121200   4.303   2.715   6.028  0.3411 -0.2552  0.6959
 3188SOL    HW221201   4.288   2.730   5.882  0.2926 -0.1351 -0.1295
 3189SOL     OW21202   0.486   2.697   8.654 -0.9501  0.5165 -0.1154
 3189SOL    HW121203   0.400   2.739   8.657 -0.1867  1.9355  1.9204
 3189SOL    HW221204   0.464   2.636   8.584  0.2940 -0.8775  0.7255
 3190SOL     OW21205   1.158   2.763   5.856 -0.0052 -0.5197  0.0097
 3190SOL    HW121206   1.090   2.830   5.862 -1.0491 -1.5852  0.0699
 3190SOL    HW221207   1.217   2.819   5.804 -1.0826  0.8365  0.2474
 3191SOL     OW21208   0.029   3.655   0.910 -0.6454 -0.7611  0.4489
 3191SOL    HW121209   0.041   3.631   0.818  1.7667 -1.2211  0.8844
 3191SOL    HW221210   0.120   3.677   0.930 -1.3272  1.8546  0.6805
 3192SOL     OW21211   1.741   4.373   4.363 -0.3023 -0.1502  0.4373
 3192SOL    HW121212   1.783   4.459   4.361 -1.3612  0.3519 -0.4103
 3192SOL    HW221213   1.780   4.318   4.430 -0.0544 -1.7755 -1.0585
 3193SOL     OW21214   0.123   0.667   3.091 -0.0772 -0.3326 -0.6617
 3193SOL    HW121215   0.060   0.602   3.059 -1.2392 -0.9277  2.9470
 3193SOL    HW221216   0.069   0.725   3.144 -0.5083 -1.7980  0.5144
 3194SOL     OW21217   2.326   4.046  13.495 -0.0309  0.2013  0.3961
 3194SOL    HW121218   2.246   4.045  13.547  0.4568  2.0005  1.1882
 3194SOL    HW221219   2.325   4.129  13.447 -0.3511  1.4073  2.5052
 3195SOL     OW21220   2.593   1.441   3.447  0.6204 -0.1653  0.5138
 3195SOL    HW121221   2.533   1.514   3.463 -0.2446 -0.9188  0.7183
 3195SOL    HW221222   2.675   1.471   3.486  0.6727  0.0438  0.2388
 3196SOL     OW21223   0.994   1.079   4.275  0.8959  0.6287 -0.5533
 3196SOL    HW121224   1.078   1.083   4.228  0.8940 -0.4342 -0.6480
 3196SOL    HW221225   0.929   1.052   4.210  0.1254  0.6507  0.2105
 3197SOL     OW21226   3.702   3.323   6.825  0.0688  0.9596 -0.2952
 3197SOL    HW121227   3.688   3.297   6.916  0.0381 -1.1279 -0.9151
 3197SOL    HW221228   3.612   3.350   6.806  0.0670 -0.0657 -1.7134
 3198SOL     OW21229   3.685   0.343   7.491 -0.1094  0.0884  0.4644
 3198SOL    HW121230   3.775   0.311   7.491  0.5197  1.8162 -1.0224
 3198SOL    HW221231   3.670   0.344   7.586 -1.9518 -0.8371  0.1744
 3199SOL     OW21232   1.783   3.034   8.154  0.4993 -0.1416 -0.0780
 3199SOL    HW121233   1.692   3.009   8.134  0.2368  1.2749 -0.6667
 3199SOL    HW221234   1.788   2.996   8.242 -0.5820 -0.5594 -0.1868
 3200SOL     OW21235   2.894   2.724  14.858  0.3378  0.3249  0.1920
 3200SOL    HW121236   2.829   2.688  14.798 -0.8213 -1.2280  2.3622
 3200SOL    HW221237   2.906   2.643  14.907  1.0810  0.6854  0.6155
 3201SOL     OW21238   1.145   3.916  12.995  0.0517  0.3956 -0.3036
 3201SOL    HW121239   1.119   3.946  13.082 -0.4516  2.0309 -1.0094
 3201SOL    HW221240   1.063   3.953  12.963  1.0257  2.1808 -0.7549
 3202SOL     OW21241   1.467   3.593   3.188  0.2101 -0.2553  0.0982
 3202SOL    HW121242   1.466   3.507   3.147  0.7022  1.0228 -2.5582
 3202SOL    HW221243   1.517   3.581   3.269  1.6266 -3.1475 -1.1943
 3203SOL     OW21244   3.092   4.098   0.437  0.1986  0.8467 -0.1412
 3203SOL    HW121245   3.002   4.100   0.470  0.3345 -0.3877  0.3112
 3203SOL    HW221246   3.139   4.093   0.520 -2.3181  2.1479  1.3668
 3204SOL     OW21247   3.887   0.528  17.316 -0.1424  0.4380  0.0438
 3204SOL    HW121248   3.980   0.549  17.309 -0.2625  0.9775  0.0424
 3204SOL    HW221249   3.904   0.440  17.351 -2.6703  0.4765  1.3493
 3205SOL     OW21250   4.466   4.515  16.535  0.2264 -0.8358 -0.4822
 3205SOL    HW121251   4.427   4.543  16.618 -1.1472 -1.2171 -1.0001
 3205SOL    HW221252   4.555   4.545  16.554  0.3329 -0.5156 -1.5026
 3206SOL     OW21253   1.121   4.158   4.666 -0.2137 -0.2005  0.6213
 3206SOL    HW121254   1.030   4.155   4.637  0.1445  1.8142 -0.7044
 3206SOL    HW221255   1.173   4.125   4.592 -0.2181  1.8945 -0.3149
 3207SOL     OW21256   3.452   2.785  16.112  0.5446  0.7078  0.5158
 3207SOL    HW121257   3.369   2.827  16.087 -0.3060  0.5231  2.9941
 3207SOL    HW221258   3.466   2.820  16.200  0.2811 -0.3884  0.9955
 3208SOL     OW21259   0.803   3.968   0.099  0.6359  1.0507  0.0881
 3208SOL    HW121260   0.746   3.937   0.170  0.3542 -1.5249 -1.2713
 3208SOL    HW221261   0.879   3.918   0.130  0.2776  2.3859  3.1630
 3209SOL     OW21262   1.354   2.751  14.185  0.2230 -0.4252 -0.3822
 3209SOL    HW121263   1.337   2.716  14.272  0.4160  0.7921  0.1362
 3209SOL    HW221264   1.431   2.799  14.216 -1.2806  1.0936  0.9840
 3210SOL     OW21265   0.118   3.009   9.209 -0.5604 -0.4747  0.4314
 3210SOL    HW121266   0.056   2.944   9.242 -2.1042  0.9465  0.3382
 3210SOL    HW221267   0.081   3.095   9.229 -3.0036 -1.1966 -0.9760
 3211SOL     OW21268   1.099   3.173   5.037  0.1297 -0.2934  0.0169
 3211SOL    HW121269   1.164   3.230   4.993  1.6653  0.5498  3.3808
 3211SOL    HW221270   1.149   3.095   5.059  0.2393 -0.1937  0.1245
 3212SOL     OW21271   4.269   0.913   3.077  0.0625  0.0020  0.7281
 3212SOL    HW121272   4.278   0.820   3.057  0.1663 -0.1641  1.5335
 3212SOL    HW221273   4.277   0.909   3.172 -1.6732  0.5717  0.8980
 3213SOL     OW21274   3.529   0.020   7.739  0.4730  0.4347 -0.0656
 3213SOL    HW121275   3.509   4.664   7.748  3.4951 -0.3125 -1.2112
 3213SOL    HW221276   3.615   0.013   7.779  0.2784 -0.2468  0.2413
 3214SOL     OW21277   0.167   0.543   6.083 -0.1750 -0.1570 -0.5259
 3214SOL    HW121278   0.162   0.461   6.131  1.5646 -1.2491 -2.2272
 3214SOL    HW221279   0.122   0.607   6.138 -0.1001 -0.8589  0.3432
 3215SOL     OW21280   1.480   1.088   4.116 -0.3636  0.2072  0.0091
 3215SOL    HW121281   1.558   1.125   4.074 -1.0302  1.7148  0.1156
 3215SOL    HW221282   1.489   1.003   4.072  0.8760  0.1896  0.2878
 3216SOL     OW21283   3.374   1.926   7.563 -0.4226  0.0177  0.3637
 3216SOL    HW121284   3.314   1.997   7.543  0.7166  1.6103  2.6856
 3216SOL    HW221285   3.448   1.978   7.592 -0.0357 -0.8713  0.9842
 3217SOL     OW21286   2.781   4.316   1.024 -0.4209  0.3053 -0.6039
 3217SOL    HW121287   2.795   4.325   1.118 -1.1956 -0.0172 -0.4599
 3217SOL    HW221288   2.871   4.328   0.994 -0.4678  0.5953 -0.6291
 3218SOL     OW21289   4.020   1.673   9.257  0.1799  0.0196 -0.2928
 3218SOL    HW121290   4.102   1.644   9.298  1.3923  2.7748 -0.8260
 3218SOL    HW221291   3.970   1.596   9.287 -1.6605  1.4075  0.1670
 3219SOL     OW21292   3.990   1.133   8.591  0.2573 -0.4505  0.1704
 3219SOL    HW121293   3.941   1.183   8.657  2.7273  2.2675 -0.0616
 3219SOL    HW221294   4.079   1.144   8.623  1.3256 -0.1349 -2.9046
 3220SOL     OW21295   3.252   3.094  12.967 -0.5758  0.2303 -0.4530
 3220SOL    HW121296   3.177   3.128  13.015  1.4130  0.2201  2.6924
 3220SOL    HW221297   3.280   3.014  13.012  1.5752  0.6829 -1.0047
 3221SOL     OW21298   0.961   1.494   6.907  0.6660 -0.3057 -0.4657
 3221SOL    HW121299   0.944   1.448   6.989  1.3086 -0.3477 -0.3496
 3221SOL    HW221300   1.054   1.514   6.920  0.7627 -0.0423 -1.5205
 3222SOL     OW21301   3.289   0.578   0.248 -0.3177 -0.0611 -0.1311
 3222SOL    HW121302   3.332   0.498   0.279 -0.8166 -0.3891 -0.2829
 3222SOL    HW221303   3.339   0.599   0.169 -1.2065 -0.1988 -0.7327
 3223SOL     OW21304   0.188   0.429   5.057 -0.1180  0.2536 -0.1973
 3223SOL    HW121305   0.177   0.422   4.963 -1.1756  0.1580 -0.0720
 3223SOL    HW221306   0.264   0.487   5.065  1.3499 -1.6405 -0.6184
 3224SOL     OW21307   2.475   3.481   7.221 -0.1345 -0.0268  0.0044
 3224SOL    HW121308   2.551   3.423   7.226 -0.7683 -0.8325  0.2764
 3224SOL    HW221309   2.510   3.550   7.277 -1.1356  1.0774 -0.7340
 3225SOL     OW21310   2.991   4.445   0.027 -0.3433  0.0792 -0.1314
 3225SOL    HW121311   2.963   4.424   0.116 -0.2288 -0.4637 -0.2282
 3225SOL    HW221312   2.965   4.366  17.729  0.1970  1.1078 -2.1969
 3226SOL     OW21313   1.724   1.624   8.601  0.1687  0.0015 -0.0557
 3226SOL    HW121314   1.750   1.542   8.643  1.5267 -0.0438 -1.0120
 3226SOL    HW221315   1.810   1.648   8.566 -1.3802 -2.2607 -5.4460
 3227SOL     OW21316   0.106   1.050   2.121  0.0162 -0.3158  0.0254
 3227SOL    HW121317   0.073   1.079   2.206 -4.1144 -0.5649 -1.5204
 3227SOL    HW221318   0.199   1.034   2.140 -0.2071  0.1285  1.4631
 3228SOL     OW21319   1.973   0.571   3.951  0.3146 -0.4717 -0.0981
 3228SOL    HW121320   1.946   0.568   4.042 -0.2539  0.0791 -0.2524
 3228SOL    HW221321   2.065   0.598   3.956  0.0084  0.3786  0.8692
 3229SOL     OW21322   1.945   3.661   4.934 -0.4496 -0.4177 -0.4451
 3229SOL    HW121323   1.997   3.672   4.855 -1.1574 -0.8715 -0.9685
 3229SOL    HW221324   1.871   3.720   4.922  1.6948  2.8194  2.2027
 3230SOL     OW21325   1.344   4.408  16.789 -0.7467 -0.2171 -0.3529
 3230SOL    HW121326   1.393   4.394  16.708  1.7338 -2.9189  1.5871
 3230SOL    HW221327   1.284   4.334  16.777  1.1813 -1.7915 -0.1593
 3231SOL     OW21328   3.086   2.326   6.832  0.3249  0.1209  0.4597
 3231SOL    HW121329   3.049   2.275   6.759  0.7034  0.9986 -0.3451
 3231SOL    HW221330   3.008   2.367   6.869  0.8413  0.2219  1.4284
 3232SOL     OW21331   0.340   0.099   5.532  0.8067 -0.3278 -0.2846
 3232SOL    HW121332   0.318   0.172   5.589  0.6815 -0.1856 -0.5147
 3232SOL    HW221333   0.303   0.128   5.449 -0.4012 -1.8333 -0.2686
 3233SOL     OW21334   1.116   0.135   4.112 -0.5648  0.3204 -0.7193
 3233SOL    HW121335   1.086   0.213   4.159 -2.6596 -0.9978  0.1174
 3233SOL    HW221336   1.181   0.099   4.172 -1.5249 -0.3350 -0.0741
 3234SOL     OW21337   2.044   4.400   5.863  0.4239  0.1781 -0.0917
 3234SOL    HW121338   2.086   4.363   5.941 -0.4768  0.5504  0.5579
 3234SOL    HW221339   1.973   4.338   5.845  0.3501  0.7139 -1.6534
 3235SOL     OW21340   0.408   3.467   9.326  0.5992  0.0386 -0.4682
 3235SOL    HW121341   0.387   3.410   9.400  0.6610  0.4844 -0.1103
 3235SOL    HW221342   0.491   3.430   9.296 -1.2294 -0.9295 -4.2810
 3236SOL     OW21343   1.764   3.703   3.181 -0.0258  0.8429  0.0215
 3236SOL    HW121344   1.752   3.643   3.107  0.4516 -0.4786  1.0314
 3236SOL    HW221345   1.847   3.745   3.156 -1.9329  4.3021 -0.4843
 3237SOL     OW21346   1.003   1.394   3.854 -0.5002 -0.4755  0.3039
 3237SOL    HW121347   1.076   1.447   3.885 -0.9642  0.2506  0.1697
 3237SOL    HW221348   1.038   1.305   3.854 -1.2222 -0.7613  2.3749
 3238SOL     OW21349   0.447   0.332   4.745  0.2057 -0.2097 -0.0432
 3238SOL    HW121350   0.362   0.376   4.752  0.2924 -0.1917  0.8761
 3238SOL    HW221351   0.427   0.254   4.692 -1.0060 -1.0303  1.6012
 3239SOL     OW21352   1.213   0.821   9.834 -0.2943 -0.6074  0.3767
 3239SOL    HW121353   1.267   0.899   9.845  0.2006 -0.9555  0.4352
 3239SOL    HW221354   1.269   0.750   9.802 -0.4989 -0.1290 -1.0495
 3240SOL     OW21355   3.304   0.046  12.150  0.1712  0.1405 -1.0024
 3240SOL    HW121356   3.288   0.034  12.056 -1.3358  0.0753 -0.7396
 3240SOL    HW221357   3.251   0.124  12.167 -1.1680 -1.0595  0.3871
 3241SOL     OW21358   2.655   2.347  11.088  0.1085  0.2175 -0.8500
 3241SOL    HW121359   2.695   2.302  11.014  0.2065  0.2209 -0.8001
 3241SOL    HW221360   2.565   2.342  11.056  0.3100  0.1256 -1.3966
 3242SOL     OW21361   1.046   3.179   5.536 -0.5298  0.9168 -0.6688
 3242SOL    HW121362   1.064   3.112   5.469  0.5034  1.4238 -0.9046
 3242SOL    HW221363   1.088   3.139   5.613 -0.9593  1.0700 -0.3558
 3243SOL     OW21364   1.517   4.079   6.024 -0.6307 -0.0215  0.0809
 3243SOL    HW121365   1.603   4.036   6.020  1.2101  3.6982 -0.0167
 3243SOL    HW221366   1.462   4.009   6.060  0.2752 -0.3590  0.8167
 3244SOL     OW21367   1.291   4.343   2.370  0.1094  0.1948  0.1286
 3244SOL    HW121368   1.313   4.319   2.280  1.5208  1.1767  0.2110
 3244SOL    HW221369   1.259   4.432   2.360  3.3568  1.0393 -2.4527
 3245SOL     OW21370   0.073   2.760   8.847 -0.2522 -0.3530  0.2509
 3245SOL    HW121371   0.163   2.743   8.874 -0.3005  0.7503  1.1271
 3245SOL    HW221372   0.094   2.812   8.770 -1.2644  0.3529  0.4457
 3246SOL     OW21373   3.801   1.018   3.274  0.5401 -0.1391 -0.6634
 3246SOL    HW121374   3.730   0.989   3.331 -0.5000  0.5381 -1.6130
 3246SOL    HW221375   3.875   0.995   3.331  1.0522  0.9184 -0.9152
 3247SOL     OW21376   1.216   0.197   6.622 -0.5297 -0.1438  0.0469
 3247SOL    HW121377   1.216   0.147   6.703 -0.6987 -0.8236 -0.3764
 3247SOL    HW221378   1.258   0.280   6.646  0.0299  0.3750 -2.7365
 3248SOL     OW21379   0.609   3.936   8.285  0.0191  0.6689  0.6102
 3248SOL    HW121380   0.569   3.870   8.342  0.9604  0.5970  1.1859
 3248SOL    HW221381   0.631   3.889   8.205  1.6735  1.6511  0.4885
 3249SOL     OW21382   0.091   4.685   8.319 -0.6255  0.3933  0.0609
 3249SOL    HW121383   0.079   4.709   8.227 -0.1275  0.5241  0.0329
 3249SOL    HW221384   0.097   0.029   8.369 -2.3077  1.3012 -1.1968
 3250SOL     OW21385   0.135   0.927   9.513  0.0441  0.9266  0.0537
 3250SOL    HW121386   0.075   0.941   9.441  1.2816  0.9021 -0.9832
 3250SOL    HW221387   0.172   1.015   9.526  1.1600  0.7168 -1.7603
 3251SOL     OW21388   3.291   1.463   8.408 -0.0330  0.3540 -0.0906
 3251SOL    HW121389   3.222   1.440   8.471  2.5306  0.4314  2.7193
 3251SOL    HW221390   3.333   1.385   8.371 -0.1931  0.6555 -0.9058
 3252SOL     OW21391   4.178   2.679  13.311 -0.1919 -0.2524  0.0809
 3252SOL    HW121392   4.086   2.704  13.309 -0.5128 -1.2784  1.7694
 3252SOL    HW221393   4.156   2.591  13.340  1.3955 -0.6573  0.0232
 3253SOL     OW21394   3.261   3.682  13.524  0.9437  0.0222 -0.0446
 3253SOL    HW121395   3.344   3.718  13.554  0.6724 -0.5993  1.4379
 3253SOL    HW221396   3.306   3.643  13.449 -1.3415  0.2504 -1.5363
 3254SOL     OW21397   0.260   3.138   8.350 -0.0761 -0.1995 -0.5081
 3254SOL    HW121398   0.323   3.160   8.419 -2.1110  2.8026  0.3809
 3254SOL    HW221399   0.253   3.043   8.357  0.0860  0.0427  3.0906
 3255SOL     OW21400   3.738   0.586  10.101  0.0342 -0.8577  0.0789
 3255SOL    HW121401   3.806   0.519  10.110  0.0070 -0.9901 -0.7383
 3255SOL    HW221402   3.784   0.667  10.120 -2.6968  0.3970  1.4280
 3256SOL     OW21403   2.767   0.787  12.134  0.6042  0.5317  0.0314
 3256SOL    HW121404   2.861   0.773  12.150  1.1348  0.8912 -2.8282
 3256SOL    HW221405   2.761   0.754  12.044 -1.0941 -1.3097  0.8149
 3257SOL     OW21406   3.204   1.102   0.075  0.4331  0.1824 -0.5081
 3257SOL    HW121407   3.143   1.171   0.049 -0.7811 -1.3604 -1.7306
 3257SOL    HW221408   3.267   1.143   0.134  0.7335 -0.3400 -0.4675
 3258SOL     OW21409   2.092   3.656  17.312 -0.0601 -0.0844 -0.3464
 3258SOL    HW121410   2.170   3.712  17.305 -0.5655  0.5486 -0.9320
 3258SOL    HW221411   2.023   3.720  17.325  0.0527  0.2352 -1.2696
 3259SOL     OW21412   1.224   3.660   2.423 -0.3340  0.2511  0.1255
 3259SOL    HW121413   1.294   3.602   2.390  0.6582  1.3619  0.2852
 3259SOL    HW221414   1.275   3.733   2.457  2.3013  0.1301 -3.5270
 3260SOL     OW21415   3.572   3.720   3.092 -0.0892  0.4859 -0.1057
 3260SOL    HW121416   3.565   3.776   3.169 -0.0119 -1.9386  1.6893
 3260SOL    HW221417   3.665   3.723   3.071 -0.7182 -0.7414 -3.1801
 3261SOL     OW21418   0.374   4.275   8.020  0.2593 -0.7324  0.2945
 3261SOL    HW121419   0.450   4.333   8.032  2.4002 -2.8220 -3.2745
 3261SOL    HW221420   0.407   4.237   7.939 -0.5984 -1.7315  0.4219
 3262SOL     OW21421   2.371   4.508   4.402 -0.6569  0.4739  0.1846
 3262SOL    HW121422   2.416   4.591   4.418 -0.2204  0.3598 -0.4416
 3262SOL    HW221423   2.389   4.484   4.311 -0.4519  1.1599  0.0473
 3263SOL     OW21424   2.308   4.222   9.437 -0.0126  0.1004  0.2837
 3263SOL    HW121425   2.218   4.253   9.437  0.0988  0.4245  1.7101
 3263SOL    HW221426   2.352   4.270   9.507  0.1507  0.5347 -0.1117
 3264SOL     OW21427   0.528   0.322   7.424 -0.0417  0.2095 -0.6973
 3264SOL    HW121428   0.613   0.286   7.449  0.3552 -1.0796 -3.9275
 3264SOL    HW221429   0.509   0.386   7.492  0.3154  0.3462 -0.7249
 3265SOL     OW21430   3.670   1.033  10.065  0.0222  0.4020 -0.1148
 3265SOL    HW121431   3.669   1.128  10.078 -2.1422  0.2231  1.0029
 3265SOL    HW221432   3.579   1.016  10.092 -0.1179 -0.2792 -1.0407
 3266SOL     OW21433   4.668   2.866   7.528  0.1420  0.1700 -0.5527
 3266SOL    HW121434   4.659   2.921   7.450  0.4259  1.8221  0.5806
 3266SOL    HW221435   4.659   2.923   7.604 -2.9302  0.1165 -0.8706
 3267SOL     OW21436   1.816   0.068   8.898  0.7531  0.0033 -0.0466
 3267SOL    HW121437   1.804   0.077   8.803  0.0099  1.8220  0.2274
 3267SOL    HW221438   1.749   0.130   8.928 -1.6607 -1.3202 -2.6653
 3268SOL     OW21439   4.382   2.089  10.455  0.1212 -0.3283  0.5353
 3268SOL    HW121440   4.319   2.150  10.494 -0.8555 -1.0183  0.0525
 3268SOL    HW221441   4.320   2.066  10.385 -1.5089 -0.3856  1.9989
 3269SOL     OW21442   2.098   0.268   1.517  0.2476 -0.0727 -0.6391
 3269SOL    HW121443   2.082   0.331   1.588  3.0868 -0.5000  0.3756
 3269SOL    HW221444   2.009   0.251   1.484  1.3778 -1.3020 -3.0348
 3270SOL     OW21445   1.586   0.656   3.626  0.0532  0.2877 -0.0881
 3270SOL    HW121446   1.672   0.680   3.592  0.7319 -0.9993  0.6968
 3270SOL    HW221447   1.580   0.561   3.616  0.6601  0.2566 -0.1675
 3271SOL     OW21448   2.677   1.081  16.735 -0.1795  0.1792  0.4831
 3271SOL    HW121449   2.751   1.044  16.782  1.1553 -2.5302 -3.7272
 3271SOL    HW221450   2.603   1.059  16.791 -0.5209 -0.9219 -0.3911
 3272SOL     OW21451   2.885   1.294   2.252 -0.4502 -0.3162 -0.4596
 3272SOL    HW121452   2.832   1.351   2.197 -2.3958 -0.6995  1.0078
 3272SOL    HW221453   2.875   1.333   2.339 -0.6431 -3.2977  0.8755
 3273SOL     OW21454   3.119   0.537   3.445 -0.3918  0.0836 -0.4508
 3273SOL    HW121455   3.061   0.581   3.507  1.0238 -0.1581  1.0612
 3273SOL    HW221456   3.203   0.579   3.466  1.2712 -1.5206 -3.8448
 3274SOL     OW21457   1.633   3.246   7.498 -0.4734  0.1586 -0.2556
 3274SOL    HW121458   1.614   3.223   7.407 -1.5089  2.2959 -0.5673
 3274SOL    HW221459   1.551   3.288   7.523  0.2038  0.3388  1.6167
 3275SOL     OW21460   3.848   1.140  14.685  0.7356  1.0060  0.3260
 3275SOL    HW121461   3.825   1.141  14.592 -0.0693  1.2235  0.5322
 3275SOL    HW221462   3.840   1.232  14.710 -1.1823  1.0076 -0.3497
 3276SOL     OW21463   2.118   3.848   3.996 -0.4291  0.3930  0.1548
 3276SOL    HW121464   2.207   3.853   3.961  0.3600 -0.2440  2.0673
 3276SOL    HW221465   2.116   3.882   4.086 -0.4377  0.9147 -0.0423
 3277SOL     OW21466   0.956   2.007  13.236  0.0707  0.1399  0.5349
 3277SOL    HW121467   0.963   1.999  13.331 -1.4876  0.0504  0.6396
 3277SOL    HW221468   0.965   2.102  13.228 -2.1678  0.3005 -0.0085
 3278SOL     OW21469   2.163   1.878   9.266 -0.2323 -0.5141  0.2288
 3278SOL    HW121470   2.211   1.877   9.349 -0.2934 -0.2724  0.2679
 3278SOL    HW221471   2.080   1.921   9.286  0.5336  0.6891  0.8455
 3279SOL     OW21472   3.677   3.092   7.306  0.0853 -0.1330  0.3759
 3279SOL    HW121473   3.631   3.065   7.386 -1.1029  0.1605 -0.2113
 3279SOL    HW221474   3.771   3.094   7.324  0.4436 -1.7420 -1.3804
 3280SOL     OW21475   3.016   4.057  10.713 -0.1109 -0.7777 -0.1278
 3280SOL    HW121476   3.041   4.082  10.802 -0.5376 -2.6584  0.5164
 3280SOL    HW221477   2.943   4.120  10.710 -1.4014 -2.1382  2.4513
 3281SOL     OW21478   0.328   2.408   8.886 -0.1584  0.1540 -0.5075
 3281SOL    HW121479   0.269   2.440   8.818  0.3160 -0.0727 -1.0237
 3281SOL    HW221480   0.365   2.488   8.923 -0.0713  0.3514 -1.0219
 3282SOL     OW21481   3.323   4.221   6.482 -0.0684 -0.3903  0.2782
 3282SOL    HW121482   3.308   4.314   6.469  1.0160 -0.3936 -0.9542
 3282SOL    HW221483   3.348   4.225   6.574  0.1731  0.0760  0.1916
 3283SOL     OW21484   0.844   4.694   2.800  0.4633 -0.2444 -0.0927
 3283SOL    HW121485   0.874   0.021   2.737  0.0490  0.4185  0.3965
 3283SOL    HW221486   0.796   4.634   2.743 -0.6912  0.1640  0.4477
 3284SOL     OW21487   0.037   2.816   3.020  0.2612 -0.2167 -0.3811
 3284SOL    HW121488   0.096   2.837   2.947 -0.3615  1.1293 -0.4847
 3284SOL    HW221489   4.733   2.737   2.986 -0.4042 -0.0889  0.1414
 3285SOL     OW21490   0.006   2.323   5.447  0.0397 -0.3849 -0.1278
 3285SOL    HW121491   0.053   2.398   5.410 -0.4463  0.1382  0.3094
 3285SOL    HW221492   4.693   2.373   5.510  0.4363 -0.5577  0.3239
 3286SOL     OW21493   3.758   0.828   1.125  0.0594  0.9396  0.2874
 3286SOL    HW121494   3.746   0.923   1.118  3.7795  1.5818  2.6074
 3286SOL    HW221495   3.682   0.803   1.072 -1.3453 -0.0293  2.7857
 3287SOL     OW21496   4.729   2.593  12.498  0.7486  0.0088  0.2756
 3287SOL    HW121497   0.004   2.650  12.422  0.0804  0.5098  0.5418
 3287SOL    HW221498   4.662   2.534  12.463 -1.0253  2.5873 -0.6778
 3288SOL     OW21499   2.525   3.590  11.682 -0.4167 -0.2269 -0.2685
 3288SOL    HW121500   2.607   3.622  11.719 -1.5992  0.8160  1.4233
 3288SOL    HW221501   2.556   3.546  11.603 -0.2392 -0.1590 -0.2360
 3289SOL     OW21502   4.131   2.380   7.149 -0.1269 -0.2566  0.6702
 3289SOL    HW121503   4.109   2.309   7.088 -2.4187  2.0794 -1.2100
 3289SOL    HW221504   4.217   2.354   7.183 -0.0319 -1.0209 -0.1468
 3290SOL     OW21505   3.288   2.194   7.995  0.2766 -0.3043 -0.0022
 3290SOL    HW121506   3.379   2.174   7.971  0.5077 -0.7411  1.2479
 3290SOL    HW221507   3.264   2.255   7.925 -1.9217 -0.7800  0.3617
 3291SOL     OW21508   3.706   0.926  13.707 -0.3470 -0.1188 -0.2023
 3291SOL    HW121509   3.704   0.908  13.613 -0.8611  0.1504 -0.2448
 3291SOL    HW221510   3.759   1.005  13.697  0.9819 -1.1214 -1.1362
 3292SOL     OW21511   3.674   2.741   7.680 -0.0047 -0.5529  0.1038
 3292SOL    HW121512   3.697   2.651   7.657  1.1844 -0.2839  0.2647
 3292SOL    HW221513   3.763   2.776   7.683 -0.1611  0.0944 -2.6835
 3293SOL     OW21514   1.784   2.551   0.803  0.3971  0.1190 -0.1362
 3293SOL    HW121515   1.756   2.464   0.831  2.0646 -0.5860 -0.7023
 3293SOL    HW221516   1.859   2.576   0.857  1.4967  0.5960 -1.8783
 3294SOL     OW21517   0.053   0.212  11.296  0.1690 -0.1994  0.0097
 3294SOL    HW121518   4.728   0.210  11.369  2.7276 -2.5985  2.1151
 3294SOL    HW221519   0.004   0.161  11.231 -0.7769 -1.1322  1.4537
 3295SOL     OW21520   3.293   4.365   3.167 -0.4903 -0.5514 -0.5267
 3295SOL    HW121521   3.202   4.393   3.162 -0.5227 -0.1752  2.5072
 3295SOL    HW221522   3.280   4.293   3.106 -0.3602 -1.2842  0.3121
 3296SOL     OW21523   2.919   2.111  12.732 -0.4304  0.0845 -0.3905
 3296SOL    HW121524   2.872   2.029  12.750  2.1785 -1.1757  0.7054
 3296SOL    HW221525   2.895   2.158  12.811 -1.5371 -2.5197  0.8457
 3297SOL     OW21526   0.270   3.790   5.403  0.3090  0.0014  0.3135
 3297SOL    HW121527   0.339   3.742   5.357 -1.8678 -1.4863 -1.4306
 3297SOL    HW221528   0.264   3.864   5.343  0.4015 -1.2803 -1.2830
 3298SOL     OW21529   4.492   2.842   3.411  0.4160  0.0901 -0.3492
 3298SOL    HW121530   4.456   2.815   3.496  1.5896  2.1843  0.8152
 3298SOL    HW221531   4.521   2.929   3.437  0.7914 -0.7557  2.1041
 3299SOL     OW21532   1.599   4.174   3.589 -0.0471 -0.4707  0.0711
 3299SOL    HW121533   1.692   4.163   3.610 -0.2742  0.6321  1.6080
 3299SOL    HW221534   1.582   4.263   3.618  1.0169 -0.0580 -0.5872
 3300SOL     OW21535   1.590   0.115   7.462 -0.1229 -0.3615 -0.2159
 3300SOL    HW121536   1.584   0.168   7.382  1.5264  0.8465  0.4385
 3300SOL    HW221537   1.681   0.131   7.487 -0.0960  0.7227 -0.9957
 3301SOL     OW21538   1.104   1.183   2.470 -0.1083 -0.1560 -0.1671
 3301SOL    HW121539   1.056   1.221   2.543 -1.2595  0.3241 -1.1875
 3301SOL    HW221540   1.144   1.106   2.511 -0.3422  0.9464  2.1493
 3302SOL     OW21541   3.046   0.767  15.626  0.1254 -0.2994  0.2021
 3302SOL    HW121542   3.100   0.843  15.605  0.0845 -0.4415 -0.4122
 3302SOL    HW221543   3.058   0.723  15.542 -0.4925 -0.7221  0.3332
 3303SOL     OW21544   2.542   0.377  14.573 -0.0394 -0.0894  0.0641
 3303SOL    HW121545   2.500   0.444  14.626  1.3208  0.3967  0.5244
 3303SOL    HW221546   2.526   0.411  14.485  0.3061 -1.8747 -0.7015
 3304SOL     OW21547   2.533   3.664   2.203  0.0316 -0.3858 -0.3641
 3304SOL    HW121548   2.628   3.658   2.202 -0.0046 -1.1313  1.5624
 3304SOL    HW221549   2.511   3.617   2.284 -3.1475  0.1910 -0.9086
 3305SOL     OW21550   1.966   0.046  16.422  0.5533  0.0044  0.2736
 3305SOL    HW121551   2.042   0.069  16.368  0.4911  0.6393  0.4548
 3305SOL    HW221552   1.987   4.693  16.445 -2.2466 -1.2302 -2.0574
 3306SOL     OW21553   3.275   0.508   2.243  0.3956 -0.0565  0.1926
 3306SOL    HW121554   3.364   0.543   2.253  0.3676  0.9138 -3.0371
 3306SOL    HW221555   3.239   0.588   2.204  2.5062  1.4995  1.4053
 3307SOL     OW21556   0.793   4.239   0.216  0.0205 -0.4351 -0.0359
 3307SOL    HW121557   0.752   4.156   0.191  1.1134 -0.9997  0.0458
 3307SOL    HW221558   0.791   4.222   0.310  1.2705 -2.0571 -0.2935
 3308SOL     OW21559   3.720   0.445  14.395 -0.1396  0.3855  0.1951
 3308SOL    HW121560   3.738   0.493  14.315 -0.6013  2.6707  1.4554
 3308SOL    HW221561   3.805   0.444  14.439 -0.7876  3.8102  1.5128
 3309SOL     OW21562   0.186   2.949  17.748  0.0738 -0.0687 -0.3041
 3309SOL    HW121563   0.216   3.000  17.672 -0.2814 -0.3091 -0.6039
 3309SOL    HW221564   0.097   2.937  17.715 -0.3158 -1.4472  1.2549
 3310SOL     OW21565   4.204   2.202   2.328 -0.0420 -0.0854  0.0955
 3310SOL    HW121566   4.223   2.193   2.235 -1.1386 -1.2079 -0.0093
 3310SOL    HW221567   4.203   2.108   2.347  0.4526 -0.3858 -1.3587
 3311SOL     OW21568   1.320   1.206   8.894 -0.5702  0.5023 -0.2522
 3311SOL    HW121569   1.317   1.117   8.859 -0.7524 -0.0718  1.2010
 3311SOL    HW221570   1.256   1.241   8.832 -1.6496 -0.7716  0.1519
 3312SOL     OW21571   4.415   3.690  11.148  0.4214  0.0941  0.6858
 3312SOL    HW121572   4.344   3.701  11.085  1.0701  0.3695  0.0055
 3312SOL    HW221573   4.435   3.780  11.171 -0.5069 -0.2163  2.7044
 3313SOL     OW21574   1.114   3.724  12.144  0.2611 -0.1971 -0.5396
 3313SOL    HW121575   1.200   3.762  12.127  0.2767 -0.7402 -1.7310
 3313SOL    HW221576   1.062   3.786  12.093 -2.1139  0.1516  2.2986
 3314SOL     OW21577   3.480   0.679   8.316  0.7778 -0.5809  0.3989
 3314SOL    HW121578   3.571   0.681   8.343  1.7095  1.0439 -2.9308
 3314SOL    HW221579   3.441   0.747   8.371 -0.9793 -2.5671  1.6220
 3315SOL     OW21580   3.080   3.112   3.960 -0.3116 -0.5883 -0.3198
 3315SOL    HW121581   3.054   3.084   4.048 -0.1894 -1.9644 -0.7281
 3315SOL    HW221582   3.173   3.107   3.980 -0.9581  1.0462  3.0959
 3316SOL     OW21583   1.867   1.398   6.652 -0.0163  0.3738  0.1765
 3316SOL    HW121584   1.947   1.352   6.627  0.0729  0.1257  0.9006
 3316SOL    HW221585   1.807   1.324   6.662 -1.4385  1.2581 -1.8073
 3317SOL     OW21586   3.999   3.335   7.883 -0.0285 -0.6292  0.2885
 3317SOL    HW121587   3.911   3.368   7.898  0.2023  0.0427  0.1663
 3317SOL    HW221588   4.041   3.409   7.839 -3.0030  0.3249 -0.8823
 3318SOL     OW21589   3.049   0.152   5.923  0.0631 -0.1874 -0.6397
 3318SOL    HW121590   3.021   0.069   5.960  0.2332  0.7209  1.5209
 3318SOL    HW221591   3.122   0.119   5.871 -1.1787 -2.0047 -1.2275
 3319SOL     OW21592   3.411   3.205   4.765 -0.0259 -0.7450 -0.6011
 3319SOL    HW121593   3.500   3.181   4.738  0.4522 -0.5729  0.8152
 3319SOL    HW221594   3.419   3.248   4.850 -1.2159 -2.0658  0.1796
 3320SOL     OW21595   1.427   2.823  10.371  0.0932  0.6617 -0.6494
 3320SOL    HW121596   1.393   2.809  10.459 -0.2572  0.2289 -0.8517
 3320SOL    HW221597   1.456   2.733  10.357 -0.4051  0.3176  0.5820
 3321SOL     OW21598   1.865   3.615   0.758  0.1815 -0.3347  0.0163
 3321SOL    HW121599   1.838   3.666   0.834  1.3258  0.1978  0.0675
 3321SOL    HW221600   1.866   3.680   0.688  1.0754 -0.6986 -0.3135
 3322SOL     OW21601   2.115   2.902   5.388  0.5337  0.2544  0.3524
 3322SOL    HW121602   2.152   2.971   5.333  0.3862  0.9501  1.1297
 3322SOL    HW221603   2.025   2.936   5.384 -0.4655 -2.7131 -3.0032
 3323SOL     OW21604   1.385   1.005   3.482  0.0289  0.2959 -0.0968
 3323SOL    HW121605   1.373   1.025   3.575  1.1793 -0.5437  0.2298
 3323SOL    HW221606   1.373   0.910   3.475 -0.7242  0.2516  1.7273
 3324SOL     OW21607   0.648   2.471   4.210  0.3995  0.2276  0.0680
 3324SOL    HW121608   0.630   2.540   4.146 -0.1667  1.4397  1.5542
 3324SOL    HW221609   0.741   2.452   4.194  0.2079 -0.0426 -0.7468
 3325SOL     OW21610   2.864   0.920  16.906 -0.3373 -0.7376  0.3266
 3325SOL    HW121611   2.920   0.843  16.913  0.0386 -0.4699  0.2225
 3325SOL    HW221612   2.860   0.950  16.997 -3.5324 -3.0922  0.9969
 3326SOL     OW21613   0.764   2.946   3.289  0.2397 -0.0989  1.1988
 3326SOL    HW121614   0.837   2.911   3.237  0.7504  2.6091  0.0653
 3326SOL    HW221615   0.727   2.863   3.320 -1.0433  0.0907  0.1641
 3327SOL     OW21616   2.280   1.629   3.821  0.2743  0.1867  0.0410
 3327SOL    HW121617   2.376   1.628   3.816  0.2088  1.8262 -1.2364
 3327SOL    HW221618   2.257   1.585   3.739  2.1285  2.1509 -1.5375
 3328SOL     OW21619   3.321   1.002  12.491 -0.1060 -0.0878 -0.6775
 3328SOL    HW121620   3.346   0.910  12.484 -2.3313 -0.6433 -1.3963
 3328SOL    HW221621   3.247   0.993  12.431 -0.4594  0.3748 -0.3076
 3329SOL     OW21622   0.724   3.674   4.184 -0.1714  0.2618 -0.3236
 3329SOL    HW121623   0.649   3.662   4.125 -1.6507 -0.1839  1.6431
 3329SOL    HW221624   0.713   3.768   4.197  0.8393  0.2346  0.6754
 3330SOL     OW21625   1.911   2.171   8.509 -0.1578 -0.4080  0.1583
 3330SOL    HW121626   1.939   2.261   8.489  0.5671 -0.7615 -0.4333
 3330SOL    HW221627   1.822   2.185   8.541  0.5393  2.3637  0.8535
 3331SOL     OW21628   3.533   0.007   0.331 -0.3730  0.0233 -0.2463
 3331SOL    HW121629   3.597   0.022   0.262 -0.1701 -2.3484 -0.5879
 3331SOL    HW221630   3.564   0.068   0.398 -0.8622  0.8523 -0.7710
 3332SOL     OW21631   4.098   4.223  17.726  0.0902 -0.3962  0.3268
 3332SOL    HW121632   4.160   4.193   0.045  0.9833  0.4370 -0.1311
 3332SOL    HW221633   4.100   4.315   0.002 -0.9542 -0.2957  0.0464
 3333SOL     OW21634   2.589   2.543   7.296 -0.2993 -0.0813 -0.2094
 3333SOL    HW121635   2.613   2.454   7.323  0.5412  0.5188  1.0405
 3333SOL    HW221636   2.634   2.560   7.214 -0.1181  0.1026 -0.0726
 3334SOL     OW21637   0.497   2.254   6.910 -0.2217  0.0124 -0.3083
 3334SOL    HW121638   0.544   2.172   6.895  1.3899  1.2462 -1.9040
 3334SOL    HW221639   0.570   2.304   6.947  1.2526 -0.4826 -2.5555
 3335SOL     OW21640   3.933   0.574  14.529 -0.1847  0.3048 -0.5661
 3335SOL    HW121641   3.961   0.663  14.506  1.5524 -0.2686 -0.6873
 3335SOL    HW221642   4.016   0.527  14.538 -0.0655  0.2981 -1.7254
 3336SOL     OW21643   1.573   3.176   9.607 -0.0164  0.0284  0.1650
 3336SOL    HW121644   1.628   3.244   9.646 -0.3462 -0.2084  1.0352
 3336SOL    HW221645   1.551   3.215   9.522  2.5782  0.6682 -0.2187
 3337SOL     OW21646   4.701   4.100  10.903 -0.5487  0.3094 -0.4976
 3337SOL    HW121647   4.649   4.023  10.879  0.3005 -1.9987  4.8882
 3337SOL    HW221648   4.637   4.163  10.937 -0.0440  0.5889 -0.0662
 3338SOL     OW21649   1.907   4.479   2.585 -0.0627 -0.3403  0.0921
 3338SOL    HW121650   1.816   4.487   2.555  0.1579  1.1221 -0.1865
 3338SOL    HW221651   1.898   4.388   2.614 -0.6527 -0.8979 -1.8704
 3339SOL     OW21652   1.420   2.650   7.071  0.0748  0.3716 -0.3868
 3339SOL    HW121653   1.375   2.601   7.139  1.6931 -0.9937 -0.3151
 3339SOL    HW221654   1.372   2.731   7.090 -1.5003 -1.1789  2.1891
 3340SOL     OW21655   0.475   3.277   2.608 -0.4738  0.1703 -0.3468
 3340SOL    HW121656   0.424   3.235   2.539 -2.2609 -0.7543  1.5374
 3340SOL    HW221657   0.415   3.342   2.644 -0.6423 -0.5914  0.7532
 3341SOL     OW21658   3.782   3.732   8.023 -0.2760  0.3607  0.1241
 3341SOL    HW121659   3.805   3.824   8.030 -3.5720  1.2896 -1.0600
 3341SOL    HW221660   3.691   3.740   8.050  0.0029  0.5494  0.9825
 3342SOL     OW21661   2.313   0.709   7.379 -0.4497  0.5465 -0.1781
 3342SOL    HW121662   2.406   0.728   7.367 -0.2761 -0.6776 -0.7620
 3342SOL    HW221663   2.276   0.779   7.325 -2.7987 -1.7025 -1.4639
 3343SOL     OW21664   3.552   3.672   1.995  0.0032  0.5174 -0.3210
 3343SOL    HW121665   3.587   3.755   1.963 -0.3795  0.8846  0.2131
 3343SOL    HW221666   3.634   3.627   2.018 -0.8509  0.0670  1.8251
 3344SOL     OW21667   2.588   4.335   2.121  0.4218 -0.5923  0.2241
 3344SOL    HW121668   2.608   4.258   2.069 -0.8736 -1.8184  1.5435
 3344SOL    HW221669   2.674   4.368   2.147  0.4500 -1.3782  1.1265
 3345SOL     OW21670   4.424   4.405   5.879  0.5652 -0.4696  0.0896
 3345SOL    HW121671   4.356   4.427   5.815 -0.5250 -0.8334  1.1395
 3345SOL    HW221672   4.370   4.362   5.945 -0.5380 -0.1559 -0.6104
 3346SOL     OW21673   3.331   3.095  10.642 -0.3618 -0.0902  0.2160
 3346SOL    HW121674   3.391   3.135  10.580  0.2662 -2.9787 -1.0588
 3346SOL    HW221675   3.274   3.171  10.644 -1.8102 -1.2069  1.9484
 3347SOL     OW21676   3.467   0.238   5.649 -0.2336 -0.0980  0.0430
 3347SOL    HW121677   3.426   0.281   5.574 -0.0699 -1.3166 -0.7313
 3347SOL    HW221678   3.541   0.188   5.615  0.7541  1.2883  0.1481
 3348SOL     OW21679   4.021   2.281   6.506 -0.3494  0.2260  0.5054
 3348SOL    HW121680   4.038   2.304   6.415  2.1825 -1.7181  0.4915
 3348SOL    HW221681   4.061   2.195   6.515  0.5719  0.5869 -0.0520
 3349SOL     OW21682   3.245   3.527   0.817 -1.0479 -0.0717 -0.1599
 3349SOL    HW121683   3.250   3.602   0.876 -1.5768 -1.8184  2.0822
 3349SOL    HW221684   3.153   3.528   0.789 -0.9073 -0.0275 -0.6284
 3350SOL     OW21685   1.470   3.004   7.608 -0.1440  0.6187 -0.2882
 3350SOL    HW121686   1.504   3.077   7.660  2.2573 -1.8228  1.5662
 3350SOL    HW221687   1.417   3.039   7.536 -0.2701 -0.7293 -0.8436
 3351SOL     OW21688   1.575   4.640   1.083  0.3419 -0.4467  0.3572
 3351SOL    HW121689   1.624   4.661   1.004 -4.4119 -2.0165 -3.0471
 3351SOL    HW221690   1.504   4.704   1.073  0.8081 -0.0315 -0.2754
 3352SOL     OW21691   4.654   3.732  10.968 -0.2809 -0.0658 -0.0624
 3352SOL    HW121692   4.622   3.799  10.907  1.3326  0.2286 -0.5620
 3352SOL    HW221693   4.581   3.670  10.977 -0.9134  0.4175 -1.7224
 3353SOL     OW21694   3.003   2.607   8.574 -0.3315 -0.1251 -0.4868
 3353SOL    HW121695   3.009   2.545   8.500 -0.7164  0.9208 -1.3878
 3353SOL    HW221696   3.068   2.673   8.550  0.2822 -0.3133  0.6679
 3354SOL     OW21697   0.180   0.944   6.014  0.2185 -0.8591 -0.3938
 3354SOL    HW121698   0.237   1.018   6.036 -1.2562  0.6720 -1.7566
 3354SOL    HW221699   0.103   0.949   6.070  0.2050  1.6677 -0.6420
 3355SOL     OW21700   4.398   2.269   7.248  0.9523  0.0420  0.5317
 3355SOL    HW121701   4.457   2.291   7.176  0.6755  1.1752  0.6511
 3355SOL    HW221702   4.441   2.319   7.317  1.0438  1.3867 -0.4932
 3356SOL     OW21703   1.797   3.654   5.512  0.0033  0.4430 -0.2116
 3356SOL    HW121704   1.761   3.625   5.595 -1.5315  3.3950  0.1535
 3356SOL    HW221705   1.739   3.727   5.489  0.1709  0.1823 -1.4611
 3357SOL     OW21706   0.681   0.823   9.607  0.0034  0.2040 -0.4874
 3357SOL    HW121707   0.717   0.778   9.684 -0.8331  2.0665  0.9882
 3357SOL    HW221708   0.754   0.845   9.550 -1.8950  0.8023 -2.6989
 3358SOL     OW21709   2.582   3.062   3.170 -0.2269 -0.1618 -0.7152
 3358SOL    HW121710   2.556   2.982   3.125 -0.0978  0.2865 -1.5811
 3358SOL    HW221711   2.644   3.031   3.236 -1.6686  0.1577  0.8076
 3359SOL     OW21712   0.723   0.928   7.554  0.8038 -0.3286 -0.6097
 3359SOL    HW121713   0.689   0.993   7.616 -2.8290 -2.4353 -0.3717
 3359SOL    HW221714   0.661   0.934   7.481 -0.1980 -0.2276  0.2462
 3360SOL     OW21715   4.275   0.433  16.487  0.3676  0.0467  0.4900
 3360SOL    HW121716   4.228   0.363  16.443 -1.1351  1.0300  0.5483
 3360SOL    HW221717   4.208   0.500  16.472 -0.5910 -1.1763 -0.6171
 3361SOL     OW21718   2.782   2.907   3.654  0.1889 -0.0291 -0.3694
 3361SOL    HW121719   2.728   2.986   3.662  1.6492  1.0658 -1.5250
 3361SOL    HW221720   2.753   2.864   3.735  0.1949 -1.6544 -1.2246
 3362SOL     OW21721   0.779   0.908   3.630 -0.6040 -0.1518  0.0873
 3362SOL    HW121722   0.872   0.909   3.655 -0.3687 -0.2519 -0.7681
 3362SOL    HW221723   0.755   0.820   3.600  0.4452 -0.0179 -1.1524
 3363SOL     OW21724   3.301   4.000   4.991  0.1868  0.0246 -0.2292
 3363SOL    HW121725   3.275   4.036   5.076  1.9117 -2.2445  1.2513
 3363SOL    HW221726   3.377   4.054   4.972 -0.2647 -0.3888 -3.1296
 3364SOL     OW21727   0.137   2.793  10.109  1.1515  0.1112 -0.5600
 3364SOL    HW121728   0.073   2.798  10.037  0.3000 -0.0888  0.1809
 3364SOL    HW221729   0.097   2.710  10.134 -0.6341  2.1744  3.4206
 3365SOL     OW21730   1.835   2.431  10.393 -0.2256 -0.1262  0.2524
 3365SOL    HW121731   1.815   2.437  10.299 -1.7186 -0.6125  0.5437
 3365SOL    HW221732   1.884   2.511  10.414 -0.6082  0.1390  0.1307
 3366SOL     OW21733   2.076   2.451   4.502  0.4367 -0.4648 -0.1117
 3366SOL    HW121734   2.006   2.409   4.452  2.9257 -2.4771 -1.8825
 3366SOL    HW221735   2.112   2.379   4.554  1.4340 -0.5939 -0.9952
 3367SOL     OW21736   0.481   2.235   6.399  0.1598 -0.0702  0.5161
 3367SOL    HW121737   0.472   2.197   6.312 -0.2381 -4.0403  2.2826
 3367SOL    HW221738   0.389   2.251   6.421 -0.1695 -0.8553 -0.3172
 3368SOL     OW21739   3.130   4.094   3.733  0.6262 -0.1212  0.3186
 3368SOL    HW121740   3.175   4.095   3.648  1.0506  0.9660  0.5479
 3368SOL    HW221741   3.045   4.128   3.703  1.9864  2.1132 -1.0046
 3369SOL     OW21742   4.545   2.291   8.746 -0.0795  0.1094  0.3007
 3369SOL    HW121743   4.501   2.370   8.716 -0.5905  0.0571  0.9220
 3369SOL    HW221744   4.535   2.304   8.840 -0.3197  0.9080  0.1584
 3370SOL     OW21745   0.197   4.465   7.096  0.3496  0.0503  0.0080
 3370SOL    HW121746   0.199   4.496   7.006  1.7723 -0.8011 -0.2561
 3370SOL    HW221747   0.142   4.532   7.138 -0.5850  0.0715 -1.2526
 3371SOL     OW21748   1.292   4.101   7.224  0.3969  0.6134  0.3709
 3371SOL    HW121749   1.309   4.028   7.283 -0.0982  0.7563  0.6892
 3371SOL    HW221750   1.369   4.155   7.244  0.4555  0.6643  0.0024
 3372SOL     OW21751   1.068   1.101   5.676  0.1223 -0.1480  0.6946
 3372SOL    HW121752   1.034   1.031   5.621  1.0505  1.1732 -1.5613
 3372SOL    HW221753   0.983   1.144   5.686 -0.6330 -1.9605  2.0123
 3373SOL     OW21754   0.985   2.314   5.697 -0.0693 -0.1556 -0.1769
 3373SOL    HW121755   0.970   2.316   5.603 -1.1995  0.3262  0.0116
 3373SOL    HW221756   0.942   2.232   5.722 -0.4639 -0.3136 -1.4000
 3374SOL     OW21757   3.558   1.885   3.138  0.0622  0.2332  0.0129
 3374SOL    HW121758   3.534   1.796   3.162  0.8393  0.3301  1.1515
 3374SOL    HW221759   3.596   1.920   3.218 -1.0414  0.5766  0.3934
 3375SOL     OW21760   3.461   2.733  15.468 -0.1529  0.4582  0.4876
 3375SOL    HW121761   3.507   2.685  15.398 -1.0413  2.2015 -1.3002
 3375SOL    HW221762   3.423   2.799  15.409  1.1108  1.2323  0.5338
 3376SOL     OW21763   2.829   0.907   7.480  0.8681  0.5682  0.2765
 3376SOL    HW121764   2.846   0.828   7.531  0.9749  1.4839  1.6501
 3376SOL    HW221765   2.808   0.971   7.549 -1.6720  0.3143 -0.2408
 3377SOL     OW21766   0.697   1.530   6.384 -0.0119 -0.4911  0.4111
 3377SOL    HW121767   0.709   1.622   6.362 -1.1953 -0.5987 -0.6912
 3377SOL    HW221768   0.601   1.524   6.380  0.0420 -1.8074  1.0994
 3378SOL     OW21769   1.847   4.593  15.276 -0.4482 -0.2671  0.1762
 3378SOL    HW121770   1.831   4.631  15.190  0.5305  0.2957  0.2498
 3378SOL    HW221771   1.942   4.594  15.289 -0.5439  2.4847  0.6537
 3379SOL     OW21772   1.500   2.654   0.839 -0.4748  0.0068  0.3366
 3379SOL    HW121773   1.508   2.633   0.932  0.3986 -1.1697 -0.0027
 3379SOL    HW221774   1.587   2.624   0.813  0.5729  2.5290  0.9774
 3380SOL     OW21775   4.068   3.541   7.151 -0.1210 -0.2906  0.3493
 3380SOL    HW121776   4.158   3.568   7.169 -0.4251  0.6187  0.4574
 3380SOL    HW221777   4.077   3.445   7.148 -2.4719 -0.5151  0.6584
 3381SOL     OW21778   2.602   0.823   9.006 -0.0123 -0.1288 -0.1461
 3381SOL    HW121779   2.693   0.842   9.028 -0.5748  0.4382  1.6634
 3381SOL    HW221780   2.606   0.827   8.911  3.6416  1.5122  0.0868
 3382SOL     OW21781   1.534   0.242   1.902 -0.4695  0.0047 -0.2244
 3382SOL    HW121782   1.491   0.327   1.891  0.2379  0.1258 -2.0585
 3382SOL    HW221783   1.626   0.260   1.880 -0.2136 -1.7262 -0.5071
 3383SOL     OW21784   0.370   3.485   8.139 -0.2471 -0.1979  0.0068
 3383SOL    HW121785   0.327   3.555   8.189 -2.0064 -2.9133  2.2885
 3383SOL    HW221786   0.308   3.412   8.141 -1.3304  0.7264  0.3624
 3384SOL     OW21787   0.984   4.695   6.704  0.2177  0.2096  0.5776
 3384SOL    HW121788   0.989   4.731   6.792  0.1665 -1.0690  1.1070
 3384SOL    HW221789   1.025   4.613   6.732  1.2139  1.0806  1.6302
 3385SOL     OW21790   0.105   3.361   4.329 -0.4311  0.1088  0.4059
 3385SOL    HW121791   0.066   3.318   4.254 -0.8263 -0.9938  1.2476
 3385SOL    HW221792   0.152   3.291   4.376 -2.4860 -0.7326  1.1835
 3386SOL     OW21793   1.662   4.488   2.494 -0.4563  0.5623 -0.0492
 3386SOL    HW121794   1.600   4.552   2.461  0.1920  1.2401  0.0458
 3386SOL    HW221795   1.616   4.479   2.578  1.3061 -1.3554  0.7182
 3387SOL     OW21796   2.857   0.599  10.487  0.3371  0.3054 -0.4483
 3387SOL    HW121797   2.823   0.510  10.487 -3.4157  1.7492  1.0846
 3387SOL    HW221798   2.900   0.607  10.572 -0.1262 -1.9643 -0.0178
 3388SOL     OW21799   3.504   1.344   8.648  0.4761  0.5709  0.6011
 3388SOL    HW121800   3.526   1.417   8.706  1.9277  1.1082 -0.6415
 3388SOL    HW221801   3.492   1.274   8.712  0.3046 -0.4707 -0.5782
 3389SOL     OW21802   0.847   1.022  14.315  0.0104 -0.2707 -0.0939
 3389SOL    HW121803   0.830   0.937  14.274  1.3383 -1.4762  1.8429
 3389SOL    HW221804   0.827   1.072  14.236  1.0618  0.2560 -0.0308
 3390SOL     OW21805   3.359   2.637  10.509  0.0910  0.0467  0.1249
 3390SOL    HW121806   3.297   2.695  10.464  1.0153  0.1620 -0.9794
 3390SOL    HW221807   3.413   2.603  10.438  0.8064  0.1638  0.6150
 3391SOL     OW21808   3.935   1.274  12.271 -0.1690  0.0027  0.4138
 3391SOL    HW121809   4.011   1.219  12.289 -0.5899 -0.7213 -0.0494
 3391SOL    HW221810   3.964   1.352  12.320 -0.2778 -0.9136  1.9259
 3392SOL     OW21811   2.924   2.763   4.853  0.3384  0.1234 -0.2168
 3392SOL    HW121812   2.833   2.745   4.828 -0.0290  1.6453  0.0700
 3392SOL    HW221813   2.950   2.681   4.895 -1.1896 -0.5893 -0.6430
 3393SOL     OW21814   4.643   2.130   8.553  0.1929  0.1387 -0.1649
 3393SOL    HW121815   4.619   2.208   8.604  0.3269 -0.5494  0.9508
 3393SOL    HW221816   4.556   2.091   8.539  0.2356  0.4727 -1.2944
 3394SOL     OW21817   1.663   3.813   6.366  0.5358  0.4454  0.0422
 3394SOL    HW121818   1.724   3.851   6.429  1.1675  2.0486 -1.5367
 3394SOL    HW221819   1.644   3.728   6.407 -0.0406  1.3262  1.6281
 3395SOL     OW21820   0.899   4.473   4.362  0.5103 -0.0565  0.7780
 3395SOL    HW121821   0.933   4.386   4.345  0.3239  0.2059 -0.9159
 3395SOL    HW221822   0.926   4.483   4.453 -1.3606 -1.2150  1.4736
 3396SOL     OW21823   1.025   1.332   3.382 -0.4316 -1.0725  0.3686
 3396SOL    HW121824   0.986   1.358   3.299  0.6237  0.6483  0.4210
 3396SOL    HW221825   0.958   1.270   3.413 -0.5847 -0.4742  1.2379
 3397SOL     OW21826   0.432   4.222  16.007  0.3611  0.0726  0.6580
 3397SOL    HW121827   0.371   4.169  16.058 -0.5294  1.0038  0.5791
 3397SOL    HW221828   0.406   4.314  16.016  0.2587  0.3289 -2.2875
 3398SOL     OW21829   4.026   2.800   6.683 -0.6369 -0.9172 -0.4166
 3398SOL    HW121830   3.982   2.737   6.627 -1.0185 -1.0448  0.0261
 3398SOL    HW221831   4.100   2.748   6.714 -0.3808  0.3332  1.0992
 3399SOL     OW21832   3.506   1.152   8.835  0.0983  0.0934 -0.0167
 3399SOL    HW121833   3.531   1.075   8.783 -1.6936  0.7503 -1.8595
 3399SOL    HW221834   3.540   1.126   8.921 -1.8470 -0.2054  0.6807
 3400SOL     OW21835   1.612   4.732  12.410 -0.9810  0.0294 -0.3174
 3400SOL    HW121836   1.526   4.690  12.409  0.0132 -1.9825 -1.1199
 3400SOL    HW221837   1.640   4.712  12.499  0.9043  1.3656 -0.6180
 3401SOL     OW21838   2.345   0.223  13.482  0.6830  0.7236 -0.6751
 3401SOL    HW121839   2.414   0.178  13.531 -0.1246  0.6769  0.4159
 3401SOL    HW221840   2.287   0.236  13.557 -1.0765 -1.0097 -1.7308
 3402SOL     OW21841   0.874   3.477   3.038  0.1616  0.5884 -0.8117
 3402SOL    HW121842   0.901   3.548   2.980 -0.6213  0.3125 -1.5196
 3402SOL    HW221843   0.885   3.398   2.984  2.4604  0.5870 -0.3705
 3403SOL     OW21844   0.658   0.098   8.044 -1.1921  0.8402  0.0893
 3403SOL    HW121845   0.631   0.117   8.134 -2.3483 -0.3566 -0.0043
 3403SOL    HW221846   0.575   0.077   8.001 -0.4448  0.4670 -1.1758
 3404SOL     OW21847   3.893   3.662   4.997  0.1136 -0.0048  0.6351
 3404SOL    HW121848   3.930   3.725   5.059 -0.4031 -0.0959  1.0407
 3404SOL    HW221849   3.799   3.676   5.001  0.4727  2.4074  0.4499
 3405SOL     OW21850   1.408   3.492   6.405 -0.4364  0.1934  0.7650
 3405SOL    HW121851   1.390   3.407   6.445 -0.2566 -1.0808 -1.8924
 3405SOL    HW221852   1.478   3.530   6.458  0.0493 -0.0009  0.2566
 3406SOL     OW21853   2.894   4.683  14.906 -0.1609  0.0829 -0.7673
 3406SOL    HW121854   2.942   4.601  14.896  0.1960  0.1684  0.3364
 3406SOL    HW221855   2.816   4.648  14.951  0.2302  0.4397  0.1826
 3407SOL     OW21856   1.609   4.051   8.175  0.0845 -0.2519  0.7025
 3407SOL    HW121857   1.679   4.111   8.201 -0.6015  1.0188 -0.3347
 3407SOL    HW221858   1.648   3.984   8.119 -4.1714 -1.7539 -0.4771
 3408SOL     OW21859   0.344   3.678   2.602 -0.3814  0.4533  0.2074
 3408SOL    HW121860   0.280   3.635   2.545 -1.9469 -1.8268  3.7178
 3408SOL    HW221861   0.347   3.604   2.663  0.0112  0.4775  0.2134
 3409SOL     OW21862   0.404   2.570   3.044  0.3105 -0.3567 -0.5046
 3409SOL    HW121863   0.453   2.649   3.019  1.5852 -0.8108  0.5207
 3409SOL    HW221864   0.368   2.549   2.958 -1.9821 -1.7273  0.7883
 3410SOL     OW21865   0.530   4.282   4.329 -0.1700 -0.2402 -0.3093
 3410SOL    HW121866   0.440   4.271   4.296 -1.3711  1.5465  2.3487
 3410SOL    HW221867   0.535   4.377   4.339 -1.8765 -0.1689 -0.0265
 3411SOL     OW21868   2.358   1.153  17.424 -0.6845  0.1680  0.0521
 3411SOL    HW121869   2.309   1.072  17.439 -0.5647 -0.0410 -0.6542
 3411SOL    HW221870   2.305   1.229  17.449 -2.6539 -0.9468 -0.7023
 3412SOL     OW21871   1.913   3.098  11.049  0.1203 -0.6663 -0.3398
 3412SOL    HW121872   1.948   3.009  11.052 -1.7293 -1.3599  0.7530
 3412SOL    HW221873   1.944   3.120  10.961 -3.6393  2.2815 -0.9108
 3413SOL     OW21874   2.272   0.350   9.094  0.3212  0.6312 -0.1697
 3413SOL    HW121875   2.344   0.290   9.075 -1.1583 -1.2020  0.1024
 3413SOL    HW221876   2.207   0.339   9.025 -1.6471  0.1036  1.7744
 3414SOL     OW21877   3.835   4.650  16.718  0.1753  0.8184  0.0078
 3414SOL    HW121878   3.752   4.611  16.748  0.0446  0.0156 -1.3924
 3414SOL    HW221879   3.878   4.587  16.660 -0.8135 -0.2461  0.4189
 3415SOL     OW21880   2.144   4.669  13.721 -0.6915  0.4718 -0.3614
 3415SOL    HW121881   2.218   4.645  13.664  1.3745 -0.2292  2.6327
 3415SOL    HW221882   2.145   0.027  13.714 -0.2689  0.3899 -1.5118
 3416SOL     OW21883   4.062   1.895  16.921  0.0040  0.3258 -0.1332
 3416SOL    HW121884   4.078   1.943  16.840  1.2117  1.3270  0.7017
 3416SOL    HW221885   4.014   1.819  16.887 -2.1430  2.3295 -1.5911
 3417SOL     OW21886   1.239   2.816  15.890  0.3037 -0.4329  0.3780
 3417SOL    HW121887   1.333   2.805  15.897  0.4676 -0.7630 -2.3383
 3417SOL    HW221888   1.215   2.835  15.981  2.8183  1.0736  0.7033
 3418SOL     OW21889   1.880   0.246   5.393 -0.2601 -0.0827  0.0406
 3418SOL    HW121890   1.860   0.305   5.320 -0.0422  2.0663  1.6991
 3418SOL    HW221891   1.959   0.293   5.419  1.2008 -2.9162  0.7183
 3419SOL     OW21892   2.233   1.028  10.252 -0.9736 -0.7727 -0.2361
 3419SOL    HW121893   2.170   1.044  10.322 -0.0911  0.9925  0.1471
 3419SOL    HW221894   2.198   1.082  10.181 -1.1105 -1.8708 -1.0165
 3420SOL     OW21895   2.395   4.001   8.699  0.8040 -0.4190 -0.3598
 3420SOL    HW121896   2.439   3.921   8.671  1.1707  0.2800 -1.8305
 3420SOL    HW221897   2.454   4.067   8.662 -0.3453  2.2207  2.5347
 3421SOL     OW21898   1.353   2.315   6.494  0.1254  0.4709  0.1227
 3421SOL    HW121899   1.314   2.250   6.553  0.7897 -1.6090 -1.7486
 3421SOL    HW221900   1.419   2.258   6.455  2.8186  2.2950  2.0121
 3422SOL     OW21901   2.819   2.107  11.591 -0.4007  0.1915  0.1401
 3422SOL    HW121902   2.859   2.022  11.572 -1.2536 -0.1701 -0.0281
 3422SOL    HW221903   2.883   2.167  11.554 -1.9325  1.4467 -0.4430
 3423SOL     OW21904   2.116   1.635   7.095  0.3404 -0.4260 -0.0120
 3423SOL    HW121905   2.094   1.543   7.111  0.0617 -0.3084  0.2731
 3423SOL    HW221906   2.157   1.664   7.177 -1.4197 -0.2673  0.8039
 3424SOL     OW21907   1.338   2.658   6.326 -0.1319  0.0749 -0.7620
 3424SOL    HW121908   1.271   2.723   6.303  0.1069  0.6788  0.2691
 3424SOL    HW221909   1.415   2.715   6.328 -0.5860  0.7421 -2.1743
 3425SOL     OW21910   0.419   3.440  11.927  0.0846 -0.0743  0.0880
 3425SOL    HW121911   0.447   3.362  11.879  1.1112  0.1152  0.3624
 3425SOL    HW221912   0.476   3.508  11.889  1.7151 -0.9490  0.9607
 3426SOL     OW21913   1.692   0.233  16.175 -0.4574  0.4099  0.1892
 3426SOL    HW121914   1.678   0.293  16.249  0.1299  0.6282  0.1186
 3426SOL    HW221915   1.775   0.270  16.146 -1.4189  1.3857 -1.2844
 3427SOL     OW21916   2.130   0.939   4.417 -0.2660  0.1358  0.1745
 3427SOL    HW121917   2.225   0.951   4.407 -0.8954  3.7048 -1.8468
 3427SOL    HW221918   2.096   0.990   4.342 -0.2107 -0.9284 -0.5681
 3428SOL     OW21919   2.692   4.666  17.154  0.1908  0.0473  0.5106
 3428SOL    HW121920   2.611   4.709  17.181  0.5304  0.2140  1.2857
 3428SOL    HW221921   2.761   4.728  17.178 -1.4153  2.0191 -0.0592
 3429SOL     OW21922   3.509   3.021  11.007  0.2761  0.4627 -0.3809
 3429SOL    HW121923   3.556   3.068  10.938 -0.1343 -1.1900 -1.7943
 3429SOL    HW221924   3.564   2.946  11.031 -3.4860 -2.2348 -0.1589
 3430SOL     OW21925   1.187   1.116   7.315  0.5803 -0.0546 -0.0367
 3430SOL    HW121926   1.157   1.125   7.224  1.8702  2.2038 -0.2578
 3430SOL    HW221927   1.200   1.022   7.322 -1.5887 -0.1636  2.3059
 3431SOL     OW21928   0.106   2.923   5.959  0.6158 -0.1704  0.3376
 3431SOL    HW121929   0.053   2.850   5.991  0.1399 -0.1018 -0.2881
 3431SOL    HW221930   0.068   2.995   6.011 -1.8751  0.3275 -2.1434
 3432SOL     OW21931   1.284   2.614   6.835  0.0340 -0.1786  0.1487
 3432SOL    HW121932   1.354   2.624   6.899 -0.0680 -1.6519  0.5034
 3432SOL    HW221933   1.341   2.588   6.763  0.3937  0.3781  0.2332
 3433SOL     OW21934   3.010   4.203   2.774  0.3184  0.1321 -0.2684
 3433SOL    HW121935   2.975   4.222   2.861  2.9093  0.4268  0.7133
 3433SOL    HW221936   2.942   4.145   2.741  1.5286 -1.2572 -0.3086
 3434SOL     OW21937   2.735   3.684   3.671 -0.5658  0.0718  0.1177
 3434SOL    HW121938   2.816   3.725   3.642 -0.2065  1.3395  2.9226
 3434SOL    HW221939   2.732   3.603   3.618 -1.1002  0.2253 -0.0931
 3435SOL     OW21940   0.765   3.117   6.418 -0.2406  0.5324 -0.0135
 3435SOL    HW121941   0.690   3.064   6.391 -0.1039  0.2266  0.2004
 3435SOL    HW221942   0.744   3.152   6.505  1.7633  0.4404  0.5129
 3436SOL     OW21943   3.137   2.895   5.224  0.0492 -0.0393 -0.1415
 3436SOL    HW121944   3.226   2.858   5.227  0.7620  1.6840  0.0710
 3436SOL    HW221945   3.118   2.895   5.130 -1.0201  0.0738  0.0774
 3437SOL     OW21946   3.413   3.934   6.641  0.4076  0.7809 -0.5985
 3437SOL    HW121947   3.506   3.956   6.640  0.1945  1.6678 -0.9207
 3437SOL    HW221948   3.397   3.973   6.555 -0.1026 -2.7975 -2.1291
 3438SOL     OW21949   3.877   3.631   4.370  0.0720 -0.7554  0.1116
 3438SOL    HW121950   3.877   3.689   4.447 -1.9183  0.0653 -0.4970
 3438SOL    HW221951   3.877   3.552   4.424 -0.3660  0.0748  1.3375
 3439SOL     OW21952   2.769   0.368   2.188  0.0598 -0.7896  0.0426
 3439SOL    HW121953   2.720   0.337   2.264 -0.4719  2.1517  0.8945
 3439SOL    HW221954   2.852   0.401   2.224 -0.8080  1.8527 -0.3417
 3440SOL     OW21955   4.628   3.556   0.025 -0.3411  0.2358 -0.4227
 3440SOL    HW121956   4.664   3.644   0.027  3.0353 -1.0986 -1.8930
 3440SOL    HW221957   4.543   3.574   0.064  0.3670  2.5914  0.0456
 3441SOL     OW21958   1.738   2.577   2.190 -1.0586  0.0657  0.5726
 3441SOL    HW121959   1.690   2.494   2.196  1.9879 -1.6813  1.2019
 3441SOL    HW221960   1.715   2.626   2.269 -1.4224  1.5050 -0.4253
 3442SOL     OW21961   1.830   1.915   9.213 -0.7948  0.4117 -0.4416
 3442SOL    HW121962   1.860   1.909   9.304  0.0329  0.5497 -0.7054
 3442SOL    HW221963   1.867   1.997   9.179 -0.2881  0.9572  1.4373
 3443SOL     OW21964   0.223   3.993   4.004  0.2047  0.1429  0.3263
 3443SOL    HW121965   0.290   3.941   3.959 -2.1195 -2.6579  0.0576
 3443SOL    HW221966   0.140   3.946   3.989 -0.2154  1.0397 -0.1381
 3444SOL     OW21967   4.466   4.555   8.266 -0.0212 -0.9411 -0.0163
 3444SOL    HW121968   4.391   4.514   8.309 -1.8610  1.2280 -1.1281
 3444SOL    HW221969   4.541   4.523   8.315 -1.4750 -0.6748  2.4343
 3445SOL     OW21970   3.484   4.424   6.076 -0.0173  0.4544  0.3718
 3445SOL    HW121971   3.477   4.501   6.019  2.0249 -0.3629 -0.9713
 3445SOL    HW221972   3.409   4.435   6.135  1.0554  0.2095  1.7740
 3446SOL     OW21973   3.951   4.677   0.973  0.6927  0.3126 -0.3259
 3446SOL    HW121974   3.961   4.687   1.068  1.8658  0.5203 -0.4735
 3446SOL    HW221975   3.958   0.028   0.939 -0.2300  0.3157 -0.5099
 3447SOL     OW21976   1.291   0.513  13.594  0.1067 -0.1472  0.0205
 3447SOL    HW121977   1.200   0.507  13.625  0.5876 -1.1336  1.2175
 3447SOL    HW221978   1.320   0.465  13.671  1.2237  0.1793 -0.1947
 3448SOL     OW21979   2.302   0.852   6.765  0.0395 -0.5053 -0.0260
 3448SOL    HW121980   2.349   0.778   6.802  3.3788  1.7724  0.2512
 3448SOL    HW221981   2.240   0.870   6.836 -0.8103 -0.2915 -0.8176
 3449SOL     OW21982   4.612   0.385   4.360 -0.4672  0.3268 -0.4995
 3449SOL    HW121983   4.698   0.365   4.324  0.6126  1.6703  1.2992
 3449SOL    HW221984   4.561   0.374   4.280  0.2713  4.0333 -1.4974
 3450SOL     OW21985   0.986   1.602   5.660 -0.0326  0.5314 -0.1488
 3450SOL    HW121986   0.911   1.647   5.623  1.2839  1.6971 -1.3792
 3450SOL    HW221987   1.028   1.569   5.580 -0.6674 -1.8207  0.4758
 3451SOL     OW21988   0.434   1.414   6.519 -0.0919  0.0296 -0.2517
 3451SOL    HW121989   0.490   1.342   6.490  1.0579  1.2496 -1.0417
 3451SOL    HW221990   0.425   1.456   6.433 -0.3591 -1.1349 -0.7934
 3452SOL     OW21991   1.565   0.452   5.158  0.4174 -0.1523 -0.4222
 3452SOL    HW121992   1.511   0.381   5.191  0.9799 -2.0745 -3.5340
 3452SOL    HW221993   1.530   0.459   5.069  0.7152 -1.9974 -0.6924
 3453SOL     OW21994   1.553   0.146   7.749 -0.5418 -0.2012  0.7890
 3453SOL    HW121995   1.577   0.171   7.660  2.5984 -1.0181  1.4112
 3453SOL    HW221996   1.468   0.111   7.724 -0.6967 -0.8242  2.1765
 3454SOL     OW21997   1.766   3.469   5.311  0.5667  0.0362 -0.6268
 3454SOL    HW121998   1.672   3.477   5.297  0.4909 -0.4421 -0.4218
 3454SOL    HW221999   1.798   3.536   5.371 -0.5068 -1.1361  1.2515
 3455SOL     OW22000   2.401   2.918  12.939 -0.2720  0.0699 -0.1224
 3455SOL    HW122001   2.471   2.982  12.927 -1.6831  1.2021 -2.4808
 3455SOL    HW222002   2.331   2.948  12.881  1.3924  0.7664 -1.7726
 3456SOL     OW22003   2.668   2.102   4.458 -0.5242  0.0977 -0.2062
 3456SOL    HW122004   2.704   2.013   4.460 -0.8596 -0.0363 -0.2485
 3456SOL    HW222005   2.675   2.122   4.365  0.5190 -1.9795 -0.5884
 3457SOL     OW22006   0.570   3.619   6.166 -0.4083 -0.0999 -0.6172
 3457SOL    HW122007   0.509   3.681   6.207 -0.0380  1.8868 -3.0721
 3457SOL    HW222008   0.634   3.672   6.117 -0.3934 -0.4234 -0.9449
 3458SOL     OW22009   4.372   3.815   5.519 -0.0166 -0.0480  0.1961
 3458SOL    HW122010   4.397   3.782   5.433 -0.8722 -1.1704  0.3728
 3458SOL    HW222011   4.456   3.857   5.539  1.0513 -2.4230  0.6470
 3459SOL     OW22012   3.442   3.577  13.373 -0.0299  0.2889  0.4950
 3459SOL    HW122013   3.465   3.520  13.300  1.8222  2.1557 -0.3998
 3459SOL    HW222014   3.520   3.555  13.425  1.6437 -0.1826 -2.2140
 3460SOL     OW22015   4.482   4.156   0.566  0.4408 -0.3712 -0.2077
 3460SOL    HW122016   4.530   4.138   0.485 -0.5418 -4.0046  0.0295
 3460SOL    HW222017   4.405   4.101   0.550  1.0285 -1.2304 -0.1037
 3461SOL     OW22018   0.069   2.523   9.188  0.5782 -0.0703 -0.2994
 3461SOL    HW122019   0.052   2.493   9.277  3.0026  1.9658  0.8283
 3461SOL    HW222020   0.151   2.571   9.199  0.5757  0.4351 -2.4542
 3462SOL     OW22021   0.637   2.325  13.076  0.1815 -0.2745 -0.0289
 3462SOL    HW122022   0.710   2.267  13.097  1.0011  0.1825 -1.6705
 3462SOL    HW222023   0.643   2.399  13.136 -0.1721  1.4998 -2.2058
 3463SOL     OW22024   2.790   4.475   3.313 -0.3113 -0.1421 -0.0520
 3463SOL    HW122025   2.803   4.516   3.399 -0.4578 -0.3526  0.0727
 3463SOL    HW222026   2.746   4.542   3.261 -0.5505  1.0203  1.6164
 3464SOL     OW22027   4.332   2.990  17.031  0.1409  0.5477 -0.2504
 3464SOL    HW122028   4.324   2.913  16.975 -0.3446 -0.6207  1.4526
 3464SOL    HW222029   4.414   2.964  17.073 -0.7140 -0.6081  0.7102
 3465SOL     OW22030   0.514   1.693   7.986 -0.1783 -0.3614  0.4861
 3465SOL    HW122031   0.580   1.638   8.029  0.4415 -0.1467 -0.1745
 3465SOL    HW222032   0.440   1.633   7.976 -1.3914  1.1106  0.6080
 3466SOL     OW22033   1.340   1.156   6.333 -0.1495 -0.4296 -0.4818
 3466SOL    HW122034   1.408   1.101   6.295  1.3052 -0.1573  1.7326
 3466SOL    HW222035   1.373   1.246   6.335  1.0585 -0.9325  2.3396
 3467SOL     OW22036   3.979   1.066  13.062 -0.3890  0.0988  0.0533
 3467SOL    HW122037   3.902   1.028  13.019 -1.0385 -0.3134  1.5903
 3467SOL    HW222038   3.956   1.159  13.065 -0.0845  0.1868 -0.3762
 3468SOL     OW22039   3.819   2.478   2.982 -0.5643 -0.3966  0.0110
 3468SOL    HW122040   3.906   2.516   2.968 -0.5914 -0.2354  0.2959
 3468SOL    HW222041   3.833   2.388   2.952 -0.7183 -0.2980 -0.3663
 3469SOL     OW22042   4.113   2.973  15.302 -0.1638  0.3998 -0.1864
 3469SOL    HW122043   4.173   3.047  15.304 -0.9856  1.0671 -0.3269
 3469SOL    HW222044   4.028   3.016  15.310  0.0106  0.7011  0.0198
 3470SOL     OW22045   3.007   0.512   6.581  0.3685  0.2236  0.8259
 3470SOL    HW122046   2.996   0.607   6.586  0.5104  0.2814  0.1127
 3470SOL    HW222047   2.928   0.489   6.532  0.6967  0.4975  0.1606
 3471SOL     OW22048   3.106   0.618   7.343  0.5561  0.1228 -0.0036
 3471SOL    HW122049   3.070   0.660   7.422  0.3820  1.0118 -0.5512
 3471SOL    HW222050   3.198   0.617   7.368  0.3849 -1.1046  0.5651
 3472SOL     OW22051   4.591   3.366   7.816 -0.0164  0.2798 -0.3205
 3472SOL    HW122052   4.685   3.356   7.803 -0.3285 -0.3879 -2.0794
 3472SOL    HW222053   4.590   3.449   7.865 -1.5342  0.2197 -0.2560
 3473SOL     OW22054   2.923   4.522   4.585 -0.3937 -0.3142  0.1543
 3473SOL    HW122055   2.847   4.570   4.618 -0.6013  0.5971 -1.6629
 3473SOL    HW222056   2.878   4.441   4.562  1.8032 -0.8061 -2.3479
 3474SOL     OW22057   0.170   3.603  14.418 -0.2892  0.3434 -0.6282
 3474SOL    HW122058   0.162   3.555  14.335 -1.0156  2.8581 -2.0013
 3474SOL    HW222059   0.097   3.664  14.416  0.4024  1.2282  1.0427
 3475SOL     OW22060   4.563   0.241   5.816 -0.2205 -0.0725  0.0474
 3475SOL    HW122061   4.544   0.259   5.908 -1.1184 -0.0056 -0.1565
 3475SOL    HW222062   4.659   0.240   5.823 -0.3664 -1.8999  1.9181
 3476SOL     OW22063   0.931   2.082  11.160 -0.0962  0.0801 -0.0596
 3476SOL    HW122064   0.877   2.113  11.233  1.0031 -0.3549  0.9468
 3476SOL    HW222065   0.925   2.149  11.092 -2.7441  0.3899  0.5057
 3477SOL     OW22066   4.261   1.279   9.288 -0.7347  0.0629  0.6009
 3477SOL    HW122067   4.307   1.323   9.360 -1.3812 -0.2261  1.1887
 3477SOL    HW222068   4.178   1.247   9.322 -2.3257  2.4609 -1.0929
 3478SOL     OW22069   0.062   3.527   8.569  0.2667 -0.6030  0.0605
 3478SOL    HW122070   0.048   3.454   8.629 -1.8917  1.0131  1.5276
 3478SOL    HW222071   4.711   3.542   8.536  0.3261  1.2047  0.6899
 3479SOL     OW22072   3.517   2.170   7.073  0.2848  0.5071  0.7775
 3479SOL    HW122073   3.456   2.217   7.016 -0.7735 -0.1110  1.4111
 3479SOL    HW222074   3.519   2.233   7.145  1.0246  0.2294  1.0072
 3480SOL     OW22075   3.709   1.598   5.884  0.6975 -0.1392 -0.1401
 3480SOL    HW122076   3.796   1.637   5.875  1.0055 -0.8509 -0.2562
 3480SOL    HW222077   3.681   1.603   5.793  0.6865  0.2471 -0.1150
 3481SOL     OW22078   3.470   4.373   8.291 -0.3337 -0.0652 -0.0716
 3481SOL    HW122079   3.394   4.318   8.272 -1.2343  1.0985  0.1446
 3481SOL    HW222080   3.437   4.460   8.266  2.9338  1.4397  0.8972
 3482SOL     OW22081   3.692   1.627   3.823 -0.7366 -0.6831  0.1161
 3482SOL    HW122082   3.642   1.547   3.806 -0.0303 -1.4349  1.5639
 3482SOL    HW222083   3.743   1.642   3.743 -2.1342 -2.1982 -1.0791
 3483SOL     OW22084   2.133   0.442   5.000  0.5229  0.1880  0.5635
 3483SOL    HW122085   2.081   0.362   5.004  1.6426 -0.6415 -1.5181
 3483SOL    HW222086   2.107   0.482   4.917  0.5131  0.0568  0.5030
 3484SOL     OW22087   3.287   3.452   7.035  0.0766 -0.0766 -0.2188
 3484SOL    HW122088   3.376   3.485   7.047 -0.4053  1.0134  0.3509
 3484SOL    HW222089   3.262   3.476   6.946 -1.7392  0.3111  0.3999
 3485SOL     OW22090   2.355   3.317   4.429 -0.3430  0.1872  0.1459
 3485SOL    HW122091   2.319   3.242   4.475 -0.6972  0.0787 -0.3091
 3485SOL    HW222092   2.446   3.300   4.453 -0.3384 -0.2217 -0.1712
 3486SOL     OW22093   3.102   3.207   1.601 -0.2445  0.3235 -0.2172
 3486SOL    HW122094   3.033   3.271   1.617 -0.8415 -0.1752 -0.7805
 3486SOL    HW222095   3.066   3.118   1.611 -0.1856  0.4291  0.8925
 3487SOL     OW22096   1.074   2.931   4.106 -0.3449 -0.2569 -0.1341
 3487SOL    HW122097   1.069   2.878   4.185  1.6044 -0.4577 -0.1587
 3487SOL    HW222098   1.040   2.869   4.041 -0.4308  1.4833 -1.7570
 3488SOL     OW22099   4.313   3.814   4.196 -0.4814  0.3240 -0.1569
 3488SOL    HW122100   4.220   3.798   4.181 -0.3711 -0.7987  0.3695
 3488SOL    HW222101   4.303   3.824   4.291 -2.1895  3.3941 -0.6371
 3489SOL     OW22102   3.777   1.043   0.130 -0.0784  0.2404 -0.5814
 3489SOL    HW122103   3.840   0.979   0.162 -0.3444  1.2532  1.9417
 3489SOL    HW222104   3.775   1.016   0.038 -0.9628 -1.3585 -0.0843
 3490SOL     OW22105   4.304   4.133   4.053  0.6844 -0.2746 -0.0176
 3490SOL    HW122106   4.337   4.221   4.070  1.9829 -1.1218  1.8463
 3490SOL    HW222107   4.269   4.122   4.141  1.0046 -1.1255  0.0076
 3491SOL     OW22108   0.877   1.349   8.300 -0.1605 -0.1975 -0.8424
 3491SOL    HW122109   0.810   1.411   8.328  0.0052 -1.5230  2.5091
 3491SOL    HW222110   0.904   1.321   8.387 -0.1173 -0.0635 -0.8131
 3492SOL     OW22111   3.377   2.782  11.184  0.0721 -0.3665 -0.0150
 3492SOL    HW122112   3.308   2.796  11.120 -0.1349 -2.2218 -0.2129
 3492SOL    HW222113   3.351   2.699  11.225 -2.2878  0.7811  0.8446
 3493SOL     OW22114   4.141   1.776   5.247 -0.3426 -0.9015 -0.1729
 3493SOL    HW122115   4.130   1.862   5.287  0.6815 -0.2876 -1.2073
 3493SOL    HW222116   4.177   1.797   5.161 -1.9816 -0.5013 -0.7384
 3494SOL     OW22117   2.438   4.526  16.009 -0.4894  0.1533  0.0644
 3494SOL    HW122118   2.345   4.502  16.002  0.1818 -2.2132 -0.7083
 3494SOL    HW222119   2.466   4.452  16.062 -1.3903  0.2594  0.6933
 3495SOL     OW22120   2.686   3.982   7.658  0.5945 -0.3892  0.3756
 3495SOL    HW122121   2.598   3.964   7.690  0.4315  2.2693  1.4032
 3495SOL    HW222122   2.672   4.065   7.612 -1.7758 -0.6469  0.6300
 3496SOL     OW22123   1.370   0.378   9.626  0.3357 -0.5812 -0.1548
 3496SOL    HW122124   1.438   0.347   9.686 -0.0587 -2.7743 -0.8136
 3496SOL    HW222125   1.330   0.294   9.602 -1.7877  0.1908  0.6593
 3497SOL     OW22126   0.719   3.782   9.103 -0.3792  0.0182  0.6034
 3497SOL    HW122127   0.630   3.747   9.094 -0.3322  0.3386 -1.2197
 3497SOL    HW222128   0.721   3.850   9.036 -0.8695 -0.3563  0.2058
 3498SOL     OW22129   3.123   4.669  14.350  0.2513  0.5109 -0.6069
 3498SOL    HW122130   3.187   4.611  14.307 -0.2574 -0.4107 -0.1250
 3498SOL    HW222131   3.173   4.705  14.423 -0.9937  0.7233  0.1345
 3499SOL     OW22132   0.996   3.894   1.550  0.1115  0.1723 -0.2620
 3499SOL    HW122133   0.963   3.984   1.552 -1.6762 -0.4354 -1.5038
 3499SOL    HW222134   0.992   3.878   1.644  2.4255  1.1453 -0.0084
 3500SOL     OW22135   1.488   2.931  17.704 -0.1836  0.1754 -0.1419
 3500SOL    HW122136   1.497   3.023  17.730 -1.3859  0.1325  0.4369
 3500SOL    HW222137   1.440   2.939  17.621  4.0975  1.7466 -2.4638
 3501SOL     OW22138   2.162   0.357   6.904  0.4388 -0.0035 -0.4108
 3501SOL    HW122139   2.104   0.283   6.882 -1.4115  0.8366  1.5965
 3501SOL    HW222140   2.238   0.330   6.853  0.7724 -1.0365  0.6217
 3502SOL     OW22141   0.229   4.198   6.969  0.0808 -0.1422 -0.4595
 3502SOL    HW122142   0.231   4.273   7.029  3.8775 -0.2193 -0.5356
 3502SOL    HW222143   0.134   4.199   6.956  0.6327 -0.1308 -4.4598
 3503SOL     OW22144   0.222   4.026   1.803 -0.0132 -0.0034 -0.4452
 3503SOL    HW122145   0.187   3.958   1.745  1.0829  0.0629 -1.1682
 3503SOL    HW222146   0.218   3.970   1.881 -2.3582  0.1443 -0.4429
 3504SOL     OW22147   0.354   3.802   9.854 -0.1021  0.0051 -0.1779
 3504SOL    HW122148   0.290   3.764   9.793 -0.5191 -1.7530  1.3388
 3504SOL    HW222149   0.326   3.756   9.933  1.2850 -0.2610  0.1683
 3505SOL     OW22150   1.542   2.184   1.037  0.8805  0.0006 -0.7420
 3505SOL    HW122151   1.477   2.158   1.102  1.7590  0.3703  0.2653
 3505SOL    HW222152   1.620   2.163   1.088 -0.4477  0.4515  1.4464
 3506SOL     OW22153   4.385   0.657   7.893  0.2004 -0.1121  0.3022
 3506SOL    HW122154   4.359   0.604   7.968 -0.9541 -0.1161 -0.1052
 3506SOL    HW222155   4.343   0.738   7.921 -1.1437 -1.0792  1.0571
 3507SOL     OW22156   3.701   3.469   3.450 -0.0028  0.2943  0.3646
 3507SOL    HW122157   3.755   3.501   3.377 -0.6580 -0.3556 -0.4021
 3507SOL    HW222158   3.616   3.513   3.450  0.3635  1.0058  0.2578
 3508SOL     OW22159   3.018   3.788   6.520  0.3514 -0.3516  0.2316
 3508SOL    HW122160   3.045   3.880   6.516  0.7339 -0.2453  5.2757
 3508SOL    HW222161   2.979   3.781   6.607  0.4373  0.7223  0.3540
 3509SOL     OW22162   3.452   3.608   3.398  0.7079  0.1946 -0.2273
 3509SOL    HW122163   3.485   3.693   3.371  0.4062  0.1345 -0.7876
 3509SOL    HW222164   3.431   3.632   3.489  2.5261  0.3636  0.1448
 3510SOL     OW22165   0.923   4.403   3.258  0.3170  0.3610 -0.0831
 3510SOL    HW122166   0.953   4.318   3.289  0.8097  0.8092  0.6710
 3510SOL    HW222167   0.837   4.375   3.228  0.9300 -0.2070 -1.3270
 3511SOL     OW22168   0.259   0.296   7.376 -0.5495  0.2173 -0.2974
 3511SOL    HW122169   0.242   0.383   7.341  0.0494  0.3861 -0.1603
 3511SOL    HW222170   0.353   0.299   7.363 -0.5609 -0.8165 -0.6925
 3512SOL     OW22171   0.624   3.552   0.886  0.4931  0.6555 -0.6806
 3512SOL    HW122172   0.719   3.548   0.874  0.2012  2.5812 -3.5418
 3512SOL    HW222173   0.610   3.572   0.978  1.2316  0.0159 -0.4288
 3513SOL     OW22174   0.172   4.067   4.508  0.3784  0.3621 -0.3672
 3513SOL    HW122175   0.182   4.003   4.437  1.9099  0.5229 -0.2889
 3513SOL    HW222176   0.136   4.145   4.465 -0.2653 -0.8967 -2.1088
 3514SOL     OW22177   1.626   0.286  13.308  0.0036  0.1622 -0.2241
 3514SOL    HW122178   1.666   0.258  13.390  0.7139  2.3702  0.1734
 3514SOL    HW222179   1.681   0.355  13.271 -1.2804  1.9889  1.3259
 3515SOL     OW22180   1.243   3.827   2.770  0.9148  0.5617  0.3476
 3515SOL    HW122181   1.307   3.787   2.829  0.9200  0.1235  0.0381
 3515SOL    HW222182   1.259   3.776   2.691 -1.4088 -2.8919  2.0931
 3516SOL     OW22183   4.532   0.420   0.348  0.1138 -0.1116 -0.1544
 3516SOL    HW122184   4.530   0.403   0.442 -1.5130  2.2850  0.2302
 3516SOL    HW222185   4.447   0.381   0.326  1.8298 -2.4137 -2.6915
 3517SOL     OW22186   0.303   4.114   5.493  0.5808 -0.1457  0.0589
 3517SOL    HW122187   0.347   4.107   5.577 -1.0897  1.2261  1.0558
 3517SOL    HW222188   0.331   4.203   5.470  3.3882 -1.4191 -1.4103
 3518SOL     OW22189   1.671   1.297   1.184  0.0886 -0.4521 -0.0851
 3518SOL    HW122190   1.587   1.338   1.166  0.0176  0.1230  1.5584
 3518SOL    HW222191   1.725   1.352   1.127 -1.0824 -0.9478 -1.6496
 3519SOL     OW22192   3.249   1.699   7.352  0.5089  0.6819  0.7961
 3519SOL    HW122193   3.295   1.622   7.385 -0.8191  0.1310  1.3591
 3519SOL    HW222194   3.315   1.768   7.355  0.0418  1.0712  2.1591
 3520SOL     OW22195   4.336   0.612  10.120 -0.0654 -0.5787  0.7239
 3520SOL    HW122196   4.302   0.546  10.060  1.7564  0.7251 -1.6980
 3520SOL    HW222197   4.255   0.636  10.165 -1.5362 -0.1116 -2.2090
 3521SOL     OW22198   1.893   3.974   8.047  0.1159  0.1674  0.0477
 3521SOL    HW122199   1.821   3.911   8.041  1.8999 -2.1837  3.3906
 3521SOL    HW222200   1.924   3.962   8.137 -0.9263 -1.9748  0.1141
 3522SOL     OW22201   3.245   2.554   7.569  0.5308  0.3904  0.0577
 3522SOL    HW122202   3.320   2.505   7.604 -0.5557 -1.2953  0.0056
 3522SOL    HW222203   3.283   2.568   7.482  0.0304 -0.3776 -0.2764
 3523SOL     OW22204   0.554   1.567   3.457 -0.3900  0.0322  0.2000
 3523SOL    HW122205   0.471   1.519   3.465 -1.8305  1.9330 -3.1617
 3523SOL    HW222206   0.602   1.528   3.530 -0.5254  1.5799  1.1102
 3524SOL     OW22207   2.150   0.932  14.863 -0.1643  0.0384  0.1629
 3524SOL    HW122208   2.057   0.956  14.870 -1.1962 -3.5935 -0.9751
 3524SOL    HW222209   2.193   1.010  14.898 -0.7714 -0.5562  2.2483
 3525SOL     OW22210   1.903   1.262   1.987  0.3605 -0.2256 -0.1110
 3525SOL    HW122211   1.853   1.193   2.029 -1.3409  1.1324  0.0985
 3525SOL    HW222212   1.903   1.234   1.895 -0.9454 -0.6644  0.0337
 3526SOL     OW22213   4.214   4.428  17.257  0.0350  0.0293  0.2787
 3526SOL    HW122214   4.163   4.420  17.176 -0.5141  0.7419  0.5571
 3526SOL    HW222215   4.166   4.384  17.327 -0.2353  0.4690  0.3648
 3527SOL     OW22216   4.090   2.332   5.757  0.3262  0.2746  0.4904
 3527SOL    HW122217   4.010   2.382   5.741 -0.8850 -1.5587  0.8465
 3527SOL    HW222218   4.095   2.289   5.672 -0.8045  0.0712  0.5194
 3528SOL     OW22219   3.758   1.681   0.948  0.0871  0.1039 -0.0424
 3528SOL    HW122220   3.851   1.658   0.942 -0.1781 -0.4447 -2.1235
 3528SOL    HW222221   3.764   1.736   0.870 -1.2389 -0.5487 -0.6016
 3529SOL     OW22222   1.215   2.313   8.319 -0.5532 -0.0507  0.1150
 3529SOL    HW122223   1.291   2.256   8.309  0.6628  1.5379  0.2927
 3529SOL    HW222224   1.207   2.362   8.237  1.2256  1.2674  0.7427
 3530SOL     OW22225   1.178   3.765   8.710  0.2150 -0.2553 -0.2395
 3530SOL    HW122226   1.115   3.695   8.691  0.6944 -0.6464 -0.3839
 3530SOL    HW222227   1.234   3.727   8.778 -1.2365 -3.2806 -0.7379
 3531SOL     OW22228   1.752   3.860   4.804 -0.4556  0.0939  0.4563
 3531SOL    HW122229   1.660   3.869   4.776 -0.5264 -0.3134  0.5597
 3531SOL    HW222230   1.763   3.946   4.843 -0.7468  0.6114 -0.5901
 3532SOL     OW22231   0.767   2.145   0.251 -0.9586 -0.2493  0.4625
 3532SOL    HW122232   0.851   2.132   0.294 -2.1114 -1.1665  2.4179
 3532SOL    HW222233   0.716   2.105   0.321 -2.3827  1.8788  0.6459
 3533SOL     OW22234   0.281   0.945  10.063 -0.0765  0.0490  0.2717
 3533SOL    HW122235   0.204   0.944  10.006 -0.4686  0.1279  0.7926
 3533SOL    HW222236   0.360   0.959  10.012  0.0186 -0.8351  0.1884
 3534SOL     OW22237   1.024   1.081   5.143  0.5232  0.0781 -0.5186
 3534SOL    HW122238   0.946   1.132   5.164  1.1648  1.6956 -2.0538
 3534SOL    HW222239   1.063   1.134   5.074 -0.3652  2.4005  0.7513
 3535SOL     OW22240   2.457   1.998   5.882  0.5386  0.7410 -0.4693
 3535SOL    HW122241   2.429   1.942   5.954  0.6424 -0.1752 -1.1388
 3535SOL    HW222242   2.382   2.054   5.867  1.4834  2.1831  0.2438
 3536SOL     OW22243   1.404   4.362   6.216  0.0483  0.0604 -0.6153
 3536SOL    HW122244   1.467   4.373   6.287  0.8498  0.9092 -1.4513
 3536SOL    HW222245   1.444   4.424   6.154 -1.1984  1.4820  0.0056
 3537SOL     OW22246   0.590   0.121   9.503  0.2340  0.1236  0.5773
 3537SOL    HW122247   0.546   0.041   9.477 -3.0294  1.5173  1.9110
 3537SOL    HW222248   0.576   0.170   9.421  2.5982 -2.6111 -1.4881
 3538SOL     OW22249   0.239   4.521   7.917 -0.2583 -0.2035 -0.2731
 3538SOL    HW122250   0.163   4.544   7.970  0.4506  0.5253  0.4451
 3538SOL    HW222251   0.304   4.489   7.980 -0.1346  0.3618 -0.1211
 3539SOL     OW22252   3.306   1.699   7.697  0.2106 -0.8180 -0.2530
 3539SOL    HW122253   3.239   1.751   7.742 -0.7571 -1.3058 -1.1278
 3539SOL    HW222254   3.328   1.761   7.627  1.3894 -2.0604 -0.9761
 3540SOL     OW22255   1.105   2.222   8.653 -0.2889  0.1691  0.5420
 3540SOL    HW122256   1.168   2.232   8.724  0.0807  0.2065  0.2084
 3540SOL    HW222257   1.103   2.308   8.611  1.7330  0.0914  0.2759
 3541SOL     OW22258   0.839   1.150   3.455 -0.3048 -0.1104  0.5094
 3541SOL    HW122259   0.873   1.087   3.391  4.0491  0.9485  1.8000
 3541SOL    HW222260   0.769   1.100   3.498 -0.6240  0.4196  0.6043
 3542SOL     OW22261   0.720   3.574  11.329  0.5277  0.6749  0.2006
 3542SOL    HW122262   0.664   3.520  11.384  0.5166  0.6678  0.1825
 3542SOL    HW222263   0.793   3.588  11.388  0.2765 -0.1760  0.7091
 3543SOL     OW22264   0.497   1.691  10.782 -0.7296 -0.1862  0.1519
 3543SOL    HW122265   0.479   1.687  10.876  1.2564 -1.3082  0.4917
 3543SOL    HW222266   0.405   1.707  10.762 -0.2849  1.7323 -0.4350
 3544SOL     OW22267   1.255   1.421   5.865  0.0325 -0.0406  0.0351
 3544SOL    HW122268   1.245   1.481   5.938  2.4243  0.2158  0.1484
 3544SOL    HW222269   1.314   1.478   5.817 -0.8739  0.1512 -0.8571
 3545SOL     OW22270   3.265   0.225   2.975 -0.0719 -0.1769  0.6487
 3545SOL    HW122271   3.206   0.269   2.913  1.5060  0.6246 -0.2761
 3545SOL    HW222272   3.345   0.277   2.969 -1.2636  1.7035  1.1338
 3546SOL     OW22273   1.978   0.246   6.454 -0.1647 -0.5102 -0.4114
 3546SOL    HW122274   2.051   0.228   6.514  0.2880 -1.5351 -1.2756
 3546SOL    HW222275   1.915   0.180   6.483 -2.2903  1.8968  0.4900
 3547SOL     OW22276   1.439   1.877   3.699 -0.0562 -0.6215 -0.6949
 3547SOL    HW122277   1.402   1.802   3.652  0.2767 -0.8256 -0.6319
 3547SOL    HW222278   1.512   1.908   3.646  0.9071  0.7432  1.4149
 3548SOL     OW22279   0.785   3.223  11.916 -0.1082  0.4317 -0.0273
 3548SOL    HW122280   0.828   3.303  11.947  3.2405 -1.5526  0.4948
 3548SOL    HW222281   0.823   3.166  11.983  0.5088  1.4979  0.5329
 3549SOL     OW22282   2.338   0.403  10.561 -0.4451  0.3232 -0.3238
 3549SOL    HW122283   2.403   0.333  10.565 -0.6273  0.0925 -1.2873
 3549SOL    HW222284   2.260   0.365  10.521  0.4495 -0.6759 -1.1118
 3550SOL     OW22285   2.013   0.008   3.241 -0.1055  0.3038  0.1485
 3550SOL    HW122286   2.075   0.068   3.282  0.2830 -0.1422  0.2180
 3550SOL    HW222287   2.027   4.661   3.284  0.2526 -0.0667 -0.6903
 3551SOL     OW22288   2.670   3.078   8.311  0.3112  0.2123 -0.4315
 3551SOL    HW122289   2.637   3.062   8.222  3.9197  1.1834 -1.9396
 3551SOL    HW222290   2.759   3.045   8.302  0.0409 -0.7999  0.6884
 3552SOL     OW22291   3.253   0.905   8.664 -0.3177 -0.8120 -0.2959
 3552SOL    HW122292   3.346   0.904   8.644  0.6009  0.9139  3.7564
 3552SOL    HW222293   3.217   0.859   8.588  1.4831 -0.2721 -1.4599
 3553SOL     OW22294   0.354   4.390   9.211  0.4250  0.4591  0.1207
 3553SOL    HW122295   0.277   4.424   9.166  0.5502  0.9586  0.2777
 3553SOL    HW222296   0.308   4.373   9.293  1.6510 -1.2800  0.4548
 3554SOL     OW22297   3.100   3.702  10.031 -0.6242  0.2623 -0.4451
 3554SOL    HW122298   3.077   3.650  10.108 -0.8672  0.2292 -0.5373
 3554SOL    HW222299   3.194   3.695  10.043 -0.5711 -0.7279 -1.4343
 3555SOL     OW22300   0.606   4.133   4.535 -0.2367  0.4422 -0.0617
 3555SOL    HW122301   0.578   4.181   4.457 -0.1742 -0.3063 -0.5445
 3555SOL    HW222302   0.561   4.049   4.525 -0.1659  0.5345 -1.1189
 3556SOL     OW22303   3.724   3.318   8.518 -0.2584  0.0853  0.0624
 3556SOL    HW122304   3.791   3.349   8.579  0.3013  0.8107 -0.9136
 3556SOL    HW222305   3.783   3.288   8.449  0.1679  0.5581  0.2204
 3557SOL     OW22306   3.339   4.305  13.680  0.3424  0.6908  0.9413
 3557SOL    HW122307   3.425   4.264  13.673 -0.3060 -0.3732 -0.7371
 3557SOL    HW222308   3.352   4.317  13.774 -0.4363  2.4739  0.8214
 3558SOL     OW22309   3.638   0.441  17.681  0.0761 -0.0975 -0.6635
 3558SOL    HW122310   3.666   0.505  17.615 -0.0323 -0.3896 -0.9918
 3558SOL    HW222311   3.578   0.403  17.617  0.3132  0.0908 -0.9991
 3559SOL     OW22312   3.240   4.670  15.306 -0.1617 -0.3503  1.0239
 3559SOL    HW122313   3.170   4.649  15.367 -0.9992 -1.9615 -0.5029
 3559SOL    HW222314   3.190   4.681  15.226  0.1066 -0.5287  0.8311
 3560SOL     OW22315   1.037   3.367   7.009 -0.0853 -0.1032 -0.4500
 3560SOL    HW122316   0.978   3.341   6.939 -3.6637  0.2519  2.3995
 3560SOL    HW222317   1.112   3.405   6.962  0.6128 -0.2345  0.5486
 3561SOL     OW22318   1.336   2.250   1.252 -0.5196  0.3111  0.1430
 3561SOL    HW122319   1.260   2.279   1.202  0.2730  1.4890 -0.3779
 3561SOL    HW222320   1.292   2.201   1.321 -2.6091 -2.5175 -3.1435
 3562SOL     OW22321   4.472   3.091   1.248 -0.3492 -0.4152  0.2802
 3562SOL    HW122322   4.552   3.129   1.211 -1.3345  0.1628 -1.2661
 3562SOL    HW222323   4.492   3.003   1.216 -1.4373  0.0517 -1.6782
 3563SOL     OW22324   2.900   3.743  16.206 -0.0139  0.0906  0.2951
 3563SOL    HW122325   2.831   3.678  16.218 -0.4490  0.9124  2.1822
 3563SOL    HW222326   2.970   3.719  16.266  0.2485 -1.2858 -0.5573
 3564SOL     OW22327   0.304   2.105  16.009  0.0651 -0.2858  0.1661
 3564SOL    HW122328   0.380   2.066  16.053  1.2070  1.4163 -0.3192
 3564SOL    HW222329   0.346   2.102  15.923 -1.5660 -2.6026 -0.5809
 3565SOL     OW22330   1.950   3.967   3.753 -0.1586  0.1994 -0.1063
 3565SOL    HW122331   1.903   3.885   3.770 -1.2374  1.6033  3.5827
 3565SOL    HW222332   2.037   3.937   3.778 -0.6227 -0.9738  0.1234
 3566SOL     OW22333   2.195   2.182   1.950 -0.0898 -0.7637 -0.0441
 3566SOL    HW122334   2.125   2.122   1.926 -2.0763  1.6542 -0.3108
 3566SOL    HW222335   2.156   2.240   2.016 -0.9344 -0.6529 -0.6479
 3567SOL     OW22336   1.128   2.404   5.117 -0.4355  0.1232  0.1606
 3567SOL    HW122337   1.174   2.442   5.192 -1.3538 -0.5274  1.0514
 3567SOL    HW222338   1.198   2.347   5.085 -0.6383  0.3979 -0.7920
 3568SOL     OW22339   1.601   1.780   8.414  0.8334  0.4691  0.0286
 3568SOL    HW122340   1.651   1.741   8.485 -0.4912  0.0876  0.7575
 3568SOL    HW222341   1.522   1.727   8.422  0.2731  1.2273 -0.4528
 3569SOL     OW22342   0.177   2.272   9.095  0.0348  0.4919  0.7432
 3569SOL    HW122343   0.156   2.343   9.155 -2.2590  0.3389  0.1270
 3569SOL    HW222344   0.229   2.314   9.027 -0.4266  0.3813  0.3186
 3570SOL     OW22345   0.654   1.339   0.658  0.6597 -0.2956  0.4343
 3570SOL    HW122346   0.626   1.286   0.733  1.2966 -1.0621  0.1314
 3570SOL    HW222347   0.650   1.427   0.695  0.8707 -0.1379  0.0718
 3571SOL     OW22348   3.547   1.697  12.761 -0.4310  0.1293 -0.0908
 3571SOL    HW122349   3.459   1.676  12.730  0.0334 -1.0111 -0.6668
 3571SOL    HW222350   3.547   1.791  12.777  1.1319  0.0045  0.6689
 3572SOL     OW22351   0.098   3.122   6.980 -0.4461 -0.9142  0.0603
 3572SOL    HW122352   0.007   3.131   6.949 -0.6858  0.3684  1.1431
 3572SOL    HW222353   0.105   3.215   7.001 -0.2350 -0.6477 -1.1788
 3573SOL     OW22354   0.086   4.579   1.378 -0.1444 -0.2219  0.7750
 3573SOL    HW122355   0.007   4.623   1.409  0.1628  0.3815  0.7044
 3573SOL    HW222356   0.063   4.486   1.385 -0.6998 -0.2122 -0.7508
 3574SOL     OW22357   4.146   0.773  10.188 -0.0487  0.3941 -0.0433
 3574SOL    HW122358   4.050   0.782  10.186 -0.2195 -1.5226 -0.9614
 3574SOL    HW222359   4.170   0.809  10.273  0.7287 -0.7242  0.2059
 3575SOL     OW22360   1.832   0.542   2.718 -0.1346  0.2369  0.9041
 3575SOL    HW122361   1.848   0.574   2.629 -0.1828  0.3706  0.9442
 3575SOL    HW222362   1.760   0.481   2.702  1.6306 -1.8349  0.9254
 3576SOL     OW22363   2.728   3.691   7.580 -0.4268 -0.1778  0.2252
 3576SOL    HW122364   2.797   3.655   7.635  0.6929  1.2214 -0.2650
 3576SOL    HW222365   2.718   3.783   7.604  0.2287 -0.7983  2.8062
 3577SOL     OW22366   4.590   4.310  12.926  0.0310  0.0872 -0.2629
 3577SOL    HW122367   4.528   4.332  12.995 -0.8129  2.6278 -1.8388
 3577SOL    HW222368   4.674   4.347  12.952 -0.1254 -0.4506  1.0158
 3578SOL     OW22369   1.968   0.152   8.420  0.2973  0.0729 -0.5131
 3578SOL    HW122370   1.997   0.240   8.397 -2.4728  0.9608 -0.6926
 3578SOL    HW222371   2.006   0.102   8.348 -0.6256 -1.5865  0.1595
 3579SOL     OW22372   1.590   2.890   3.022  0.5819 -0.0937 -0.6205
 3579SOL    HW122373   1.544   2.835   3.084  2.2057  0.6942  1.2734
 3579SOL    HW222374   1.635   2.948   3.083  0.7476 -1.1309  0.2367
 3580SOL     OW22375   1.683   0.679   3.995 -0.1371 -0.0303 -0.0919
 3580SOL    HW122376   1.706   0.631   4.075 -3.2701 -1.2751  0.0553
 3580SOL    HW222377   1.703   0.602   3.942  2.4395  1.1122 -0.7982
 3581SOL     OW22378   2.366   0.604   3.414 -0.1451 -0.1074  0.0333
 3581SOL    HW122379   2.295   0.669   3.413 -0.6264 -0.6209  0.8293
 3581SOL    HW222380   2.361   0.559   3.329 -2.5012  0.2489 -0.0127
 3582SOL     OW22381   2.493   2.407   4.858  0.0746  0.0363 -0.3341
 3582SOL    HW122382   2.527   2.365   4.779 -0.1242  1.3995 -1.1420
 3582SOL    HW222383   2.401   2.380   4.857 -0.2814  1.3165 -1.0231
 3583SOL     OW22384   4.725   0.819   1.476 -0.0456 -0.1262 -0.3772
 3583SOL    HW122385   4.693   0.883   1.539 -4.7584 -0.7117 -2.1734
 3583SOL    HW222386   4.668   0.837   1.402  0.9250  0.3573 -1.0064
 3584SOL     OW22387   1.844   2.096   2.336 -0.1689  0.5897  0.0238
 3584SOL    HW122388   1.806   2.013   2.306 -0.9683  1.3543 -1.1191
 3584SOL    HW222389   1.798   2.158   2.279  1.2423  0.4734 -1.2496
 3585SOL     OW22390   3.938   3.559  10.115  0.1243  0.6037  1.0636
 3585SOL    HW122391   3.856   3.597  10.145  0.3528  0.7017  1.5706
 3585SOL    HW222392   4.001   3.625  10.144  1.4887 -0.4324  0.4479
 3586SOL     OW22393   0.521   0.623   2.922 -0.0405  0.5099 -0.1639
 3586SOL    HW122394   0.553   0.538   2.953 -0.3109  0.2056 -0.7091
 3586SOL    HW222395   0.518   0.660   3.010 -0.1237  2.5789 -1.0430
 3587SOL     OW22396   2.214   2.186   1.436 -1.0108  0.4866 -0.4667
 3587SOL    HW122397   2.236   2.156   1.347  0.7292 -1.4201  0.6027
 3587SOL    HW222398   2.302   2.208   1.468 -1.6425  1.2108  0.7406
 3588SOL     OW22399   3.869   0.883  17.401 -0.1849  0.2686  0.1761
 3588SOL    HW122400   3.885   0.789  17.399 -0.3747  0.3040 -2.5137
 3588SOL    HW222401   3.889   0.905  17.310  1.6647 -1.1178  0.2420
 3589SOL     OW22402   0.449   1.809  13.197  0.5671 -0.5413  0.5089
 3589SOL    HW122403   0.424   1.765  13.115 -0.9912  1.3639 -0.0390
 3589SOL    HW222404   0.362   1.823  13.234  0.8736  0.7424  0.7458
 3590SOL     OW22405   4.544   1.857  10.996  0.1947  0.1765  0.5575
 3590SOL    HW122406   4.563   1.947  11.023 -1.5669  0.1959  1.7767
 3590SOL    HW222407   4.463   1.841  11.046  1.1164  1.1952  2.4029
 3591SOL     OW22408   3.018   2.588  13.453  0.6901  0.3709 -0.2840
 3591SOL    HW122409   3.010   2.613  13.545 -0.0137  2.8315 -1.0111
 3591SOL    HW222410   3.109   2.559  13.460  1.2100  1.4395 -2.9216
 3592SOL     OW22411   3.826   4.350   7.491  0.1508 -0.4425  0.4338
 3592SOL    HW122412   3.848   4.384   7.405  1.9702 -1.1204  0.6289
 3592SOL    HW222413   3.818   4.434   7.535 -1.2612 -1.0068  1.2646
 3593SOL     OW22414   3.853   2.413  17.176 -0.2236 -0.1148  0.2634
 3593SOL    HW122415   3.947   2.403  17.191 -0.3572  2.2336  2.6931
 3593SOL    HW222416   3.804   2.347  17.226  0.3380 -0.2965  0.5698
 3594SOL     OW22417   1.919   2.319  12.429 -0.0334  0.6639  0.1307
 3594SOL    HW122418   1.947   2.311  12.338 -1.1741  1.3570 -0.2886
 3594SOL    HW222419   1.883   2.408  12.432 -1.5736  0.0310  0.5510
 3595SOL     OW22420   1.470   2.044   7.583 -0.0679 -0.5199  0.3496
 3595SOL    HW122421   1.547   2.005   7.624 -0.3436 -0.0433  1.3312
 3595SOL    HW222422   1.489   2.138   7.581  1.4694 -0.8381  0.0318
 3596SOL     OW22423   4.094   2.975   3.432 -0.1575 -1.0177  0.1642
 3596SOL    HW122424   4.163   3.002   3.492 -0.6270 -1.8373  1.0617
 3596SOL    HW222425   4.015   2.978   3.485 -2.0239  0.2600 -2.6526
 3597SOL     OW22426   2.872   4.285  12.520  0.1287  0.2381 -0.1245
 3597SOL    HW122427   2.901   4.268  12.609  0.4856  1.5173  0.0049
 3597SOL    HW222428   2.936   4.350  12.491  1.4214 -0.6754  0.7190
 3598SOL     OW22429   4.426   4.632   1.826  0.1476  0.0073  0.1122
 3598SOL    HW122430   4.496   4.570   1.804 -0.4861 -0.6615 -0.0134
 3598SOL    HW222431   4.447   4.658   1.916  0.1011  0.1166  0.0924
 3599SOL     OW22432   4.115   1.811   7.056 -0.1097 -0.5309 -0.0502
 3599SOL    HW122433   4.020   1.812   7.069 -0.3145  1.3137 -1.6794
 3599SOL    HW222434   4.130   1.812   6.962  1.7074 -0.9569  0.2378
 3600SOL     OW22435   1.186   3.156   7.107 -0.0378 -0.2256  0.2287
 3600SOL    HW122436   1.240   3.198   7.175 -1.3532  0.3590  0.8990
 3600SOL    HW222437   1.156   3.238   7.070  0.8427  0.6098  1.3487
 3601SOL     OW22438   4.446   1.872   7.065 -0.1027  0.3207 -0.5229
 3601SOL    HW122439   4.378   1.813   7.032  1.6379 -0.2512 -3.1160
 3601SOL    HW222440   4.439   1.868   7.160 -3.1991 -0.1797 -0.7720
 3602SOL     OW22441   0.961   2.794   2.678  0.5690  0.1498  0.0799
 3602SOL    HW122442   0.999   2.713   2.641  1.5512  1.3951 -1.6486
 3602SOL    HW222443   0.936   2.839   2.598 -0.7455  2.2973  1.7122
 3603SOL     OW22444   2.286   1.033   9.897 -0.1635  0.5998  0.3881
 3603SOL    HW122445   2.304   0.941   9.915 -3.1740 -0.0392 -0.0059
 3603SOL    HW222446   2.281   1.030   9.802  0.5391  0.6676  0.3438
 3604SOL     OW22447   1.380   2.555   7.842  0.7578  0.3265  0.5604
 3604SOL    HW122448   1.307   2.519   7.793 -0.3935  2.5253  0.6552
 3604SOL    HW222449   1.380   2.649   7.823 -2.4199 -0.1754 -1.8962
 3605SOL     OW22450   4.649   3.643  14.699  0.0915  0.0507  0.2034
 3605SOL    HW122451   4.580   3.705  14.724  1.4145  1.6543 -0.0812
 3605SOL    HW222452   4.610   3.579  14.640 -3.0165  2.2807 -0.1638
 3606SOL     OW22453   1.752   2.368   1.886  0.0382 -0.3856 -0.1257
 3606SOL    HW122454   1.822   2.326   1.836  0.6597  1.9289 -1.1967
 3606SOL    HW222455   1.785   2.454   1.912 -0.7005  1.1561 -4.3476
 3607SOL     OW22456   3.458   0.203   0.567 -0.2637  0.3962 -0.0335
 3607SOL    HW122457   3.504   0.133   0.615 -1.6233  0.3362  1.1823
 3607SOL    HW222458   3.383   0.207   0.625 -0.4596 -2.2321 -0.0884
 3608SOL     OW22459   2.021   4.404  16.832 -0.5225 -0.2397 -0.3863
 3608SOL    HW122460   2.039   4.444  16.747 -0.5371 -0.6787 -0.5942
 3608SOL    HW222461   1.939   4.446  16.857 -0.3063 -0.8351  1.2880
 3609SOL     OW22462   1.818   3.180   2.390 -0.4764  0.1880 -0.2195
 3609SOL    HW122463   1.859   3.145   2.311 -1.3537 -2.2524  0.4312
 3609SOL    HW222464   1.725   3.185   2.365 -0.5139  1.2685  0.1449
 3610SOL     OW22465   3.064   1.040  16.750 -0.1863  0.4044  0.2406
 3610SOL    HW122466   3.059   1.032  16.655  2.2613  2.4353 -0.0486
 3610SOL    HW222467   2.994   0.983  16.780 -0.0369  0.1350  0.0793
 3611SOL     OW22468   3.106   4.716  15.090  0.4184 -0.9391  0.4583
 3611SOL    HW122469   3.018   4.723  15.052  1.4255 -0.0165 -1.7157
 3611SOL    HW222470   3.169   0.015  15.028  0.2915 -0.6910  0.4740
 3612SOL     OW22471   1.620   0.233   6.834 -0.2378 -0.2862 -0.2654
 3612SOL    HW122472   1.554   0.300   6.848 -0.0931 -0.5202  1.6003
 3612SOL    HW222473   1.695   0.283   6.801  0.9234 -1.0934  1.0928
 3613SOL     OW22474   2.379   3.419   2.414  0.1873  0.2416 -0.6359
 3613SOL    HW122475   2.451   3.399   2.475  1.3751  0.2516 -2.0286
 3613SOL    HW222476   2.396   3.356   2.343 -1.5034 -0.2964 -0.5696
 3614SOL     OW22477   1.191   0.465   7.649 -0.4216  0.5770 -0.1934
 3614SOL    HW122478   1.166   0.441   7.738 -0.2269  0.1290 -0.2609
 3614SOL    HW222479   1.277   0.503   7.663 -0.8004  1.5879 -0.5996
 3615SOL     OW22480   4.008   4.429  17.040 -0.1447  0.2397  0.2066
 3615SOL    HW122481   3.932   4.378  17.067  1.8435 -2.2758  0.9974
 3615SOL    HW222482   3.989   4.518  17.072  4.9935  1.0529  0.9469
 3616SOL     OW22483   2.365   3.104   4.862  0.4673  0.3601  0.6910
 3616SOL    HW122484   2.345   3.026   4.915 -4.3712 -1.3742 -3.6429
 3616SOL    HW222485   2.395   3.162   4.932  2.2559  1.9250 -1.3967
 3617SOL     OW22486   0.785   1.024   7.183 -0.6085 -0.2345  0.5993
 3617SOL    HW122487   0.693   1.048   7.184 -0.3144  0.8675  1.2597
 3617SOL    HW222488   0.830   1.095   7.229 -0.5235  0.0919  0.0102
 3618SOL     OW22489   2.108   0.548  14.978 -0.4313 -0.3526  0.3903
 3618SOL    HW122490   2.184   0.506  14.939 -0.5866 -0.6819  0.4451
 3618SOL    HW222491   2.152   0.608  15.038 -1.8325  1.5464 -0.4600
 3619SOL     OW22492   0.230   2.876   3.786  0.0455 -0.2519 -0.2774
 3619SOL    HW122493   0.178   2.869   3.866  0.7431 -1.4958  0.0643
 3619SOL    HW222494   0.177   2.942   3.741  0.3947  1.2531  1.5062
 3620SOL     OW22495   2.106   1.226  17.377 -0.2409  0.0401  0.0499
 3620SOL    HW122496   2.155   1.149  17.350 -0.4717 -0.4528  1.0755
 3620SOL    HW222497   2.102   1.279  17.297 -2.6632  0.4990  0.4661
 3621SOL     OW22498   1.897   3.786   0.521 -0.3732  0.3009  0.3420
 3621SOL    HW122499   1.877   3.802   0.429  0.1505 -2.0159 -0.1784
 3621SOL    HW222500   1.860   3.867   0.556 -3.4227 -1.6324  1.5940
 3622SOL     OW22501   4.076   4.221   3.667 -0.2622  0.1012  0.0641
 3622SOL    HW122502   4.170   4.212   3.684 -0.6172 -1.3121  1.2416
 3622SOL    HW222503   4.068   4.225   3.572  1.8173  1.0096 -0.0732
 3623SOL     OW22504   3.936   1.642   8.170 -0.2310 -0.1912  0.0674
 3623SOL    HW122505   3.892   1.679   8.247 -1.4000 -1.9952  0.2732
 3623SOL    HW222506   3.976   1.560   8.200 -0.3975 -0.2002  0.2707
 3624SOL     OW22507   4.430   3.010   5.738 -0.0791 -0.6205  0.0269
 3624SOL    HW122508   4.336   3.023   5.740  0.0196 -0.0160  1.0370
 3624SOL    HW222509   4.438   2.916   5.754  1.5985 -0.3948  0.5557
 3625SOL     OW22510   1.334   1.880   8.601 -0.2130 -0.0586  0.1964
 3625SOL    HW122511   1.422   1.903   8.573 -0.5438  1.2434  0.2263
 3625SOL    HW222512   1.354   1.806   8.658  2.1734  2.0818  2.1281
 3626SOL     OW22513   4.597   0.443   8.615  0.2240  0.1804  0.2596
 3626SOL    HW122514   4.646   0.424   8.696 -0.7484  0.6327  0.9525
 3626SOL    HW222515   4.510   0.421   8.649  0.3591  1.3466  1.3682
 3627SOL     OW22516   1.715   0.337  16.877 -0.2570 -0.1656  0.1355
 3627SOL    HW122517   1.720   0.364  16.969  1.1355  3.6961 -1.0442
 3627SOL    HW222518   1.706   0.242  16.882  0.4805 -0.3085 -1.2288
 3628SOL     OW22519   1.441   0.052  14.381  0.0676  0.2781  0.3867
 3628SOL    HW122520   1.530   0.084  14.370 -0.0114  0.8226  1.3020
 3628SOL    HW222521   1.421   0.018  14.294 -1.3257  2.6776 -0.2313
 3629SOL     OW22522   2.831   1.339  14.804  0.1207 -0.5659  0.6643
 3629SOL    HW122523   2.811   1.356  14.896  0.4523 -0.4550  0.7177
 3629SOL    HW222524   2.805   1.249  14.786  1.7478 -0.5386 -1.8935
 3630SOL     OW22525   1.013   0.105  12.208  0.0516  0.3089  0.1535
 3630SOL    HW122526   1.030   0.128  12.299  0.4029  1.2365 -0.1446
 3630SOL    HW222527   0.919   0.115  12.196 -0.0915  0.2355  1.2370
 3631SOL     OW22528   1.926   3.346  17.721  0.3386  0.1334  0.4311
 3631SOL    HW122529   1.838   3.382  17.735 -0.9105 -3.1951  1.0972
 3631SOL    HW222530   1.964   3.344   0.060 -1.2175 -0.4742  1.0969
 3632SOL     OW22531   3.759   2.019   1.471  0.2253 -0.2158 -0.0224
 3632SOL    HW122532   3.664   2.013   1.460  0.1585  0.0614  0.4239
 3632SOL    HW222533   3.783   1.963   1.397 -1.7738  1.4730 -1.9656
 3633SOL     OW22534   0.630   0.062   6.798  0.2378  0.5577 -0.1996
 3633SOL    HW122535   0.673   0.014   6.728  0.9832  0.2602  0.4607
 3633SOL    HW222536   0.571   0.114   6.744  2.7534  4.2566  0.6102
 3634SOL     OW22537   2.300   3.500  15.680 -0.2457  0.3247  0.0319
 3634SOL    HW122538   2.392   3.510  15.655 -0.6675 -0.7511 -2.0253
 3634SOL    HW222539   2.280   3.419  15.633 -0.8478  0.0109  0.8399
 3635SOL     OW22540   0.586   4.555   2.027  0.2244 -0.2276 -0.0533
 3635SOL    HW122541   0.577   4.462   2.045  0.3647 -0.0889  0.7141
 3635SOL    HW222542   0.646   4.578   2.098 -1.6294 -0.0079  1.4462
 3636SOL     OW22543   1.534   4.625   3.086 -0.4227 -0.8512 -0.5212
 3636SOL    HW122544   1.617   4.669   3.068 -1.9239  1.9736 -0.4374
 3636SOL    HW222545   1.558   4.535   3.062  0.9620 -0.5048 -0.4682
 3637SOL     OW22546   1.438   0.951   5.770 -0.0911 -0.0720  0.5249
 3637SOL    HW122547   1.405   0.981   5.685  0.1815 -0.4105  0.2981
 3637SOL    HW222548   1.445   1.037   5.810  0.7184 -0.5041  1.3109
 3638SOL     OW22549   3.429   4.447   4.492 -0.8743 -0.1228 -0.1449
 3638SOL    HW122550   3.473   4.527   4.518  1.9809 -1.4814 -0.7721
 3638SOL    HW222551   3.485   4.424   4.418  1.2954 -1.7095  1.9708
 3639SOL     OW22552   1.896   1.283   4.301  0.1809  0.8671 -0.1908
 3639SOL    HW122553   1.862   1.350   4.241 -0.9471 -0.0577 -0.5825
 3639SOL    HW222554   1.853   1.295   4.386 -0.3131  0.7886 -0.4281
 3640SOL     OW22555   0.207   4.301  11.321 -0.0664  0.2632  0.7477
 3640SOL    HW122556   0.216   4.257  11.237 -0.0857  0.8674  0.4309
 3640SOL    HW222557   0.156   4.375  11.288 -0.8154 -1.6021 -2.2899
 3641SOL     OW22558   2.249   2.816   4.204 -0.0166  0.1458  0.1455
 3641SOL    HW122559   2.308   2.759   4.254 -1.8648 -1.2805  0.6990
 3641SOL    HW222560   2.177   2.755   4.190  0.5593  0.1350 -2.8513
 3642SOL     OW22561   2.975   1.198   8.067 -0.0102 -0.2101  0.3582
 3642SOL    HW122562   2.928   1.277   8.094  0.7435  0.8690 -1.4496
 3642SOL    HW222563   2.960   1.142   8.143 -0.0423  2.5322  2.3498
 3643SOL     OW22564   0.010   2.001  15.940  0.3893  0.4404 -0.4313
 3643SOL    HW122565   4.717   1.946  16.013  1.1214  0.3630 -0.1819
 3643SOL    HW222566   0.089   2.039  15.979  0.3225 -0.2184  0.3473
 3644SOL     OW22567   2.797   4.007   1.313  0.0288  0.0167 -0.6204
 3644SOL    HW122568   2.793   4.102   1.306  1.8965  0.2179  1.0384
 3644SOL    HW222569   2.872   4.003   1.371  0.2929  0.8590 -0.9031
 3645SOL     OW22570   2.860   1.157   1.785 -0.3160  0.4349  0.3121
 3645SOL    HW122571   2.863   1.178   1.878 -1.0361  2.9068 -0.2114
 3645SOL    HW222572   2.951   1.163   1.758  0.2016  0.0114  1.9599
 3646SOL     OW22573   1.671   0.697   8.530 -0.0662  0.7289  0.0742
 3646SOL    HW122574   1.754   0.728   8.494  0.4404 -0.5752  0.1440
 3646SOL    HW222575   1.699   0.638   8.600 -0.5637  1.3841  0.8342
 3647SOL     OW22576   2.139   4.310  16.556  0.1261  0.5333 -0.9273
 3647SOL    HW122577   2.211   4.301  16.619 -3.4556 -0.1760  3.0693
 3647SOL    HW222578   2.093   4.230  16.581  1.5124 -0.0424 -0.1884
 3648SOL     OW22579   3.290   1.582  12.716 -0.3431  0.6361  0.4150
 3648SOL    HW122580   3.244   1.499  12.725  0.3124  0.0463 -1.6478
 3648SOL    HW222581   3.214   1.628  12.680  0.8444  2.9593  0.8946
 3649SOL     OW22582   0.744   0.714  12.294  0.0576  0.7167  0.5853
 3649SOL    HW122583   0.705   0.727  12.380 -0.5848 -1.7428  0.6577
 3649SOL    HW222584   0.838   0.715  12.314  0.6410 -3.6732 -1.8745
 3650SOL     OW22585   1.926   1.177   7.987 -0.5081  0.3373  0.0336
 3650SOL    HW122586   1.893   1.217   8.067 -0.1702  0.5057  0.0894
 3650SOL    HW222587   1.960   1.257   7.946 -0.6386 -0.1372 -1.0214
 3651SOL     OW22588   3.031   0.205   2.407 -0.3633 -0.3683  0.2850
 3651SOL    HW122589   2.994   0.129   2.363 -0.2104  0.5628 -1.4886
 3651SOL    HW222590   2.989   0.189   2.491  0.8886 -0.6350  0.8629
 3652SOL     OW22591   1.560   2.336   3.235  0.8959  0.2250  0.1313
 3652SOL    HW122592   1.552   2.328   3.330 -1.9478  0.5248 -0.0894
 3652SOL    HW222593   1.481   2.389   3.220 -0.4084 -0.5894  4.0812
 3653SOL     OW22594   2.866   0.555   0.885  0.4377 -0.0193 -0.3169
 3653SOL    HW122595   2.909   0.622   0.833  2.6281 -1.7307 -0.7074
 3653SOL    HW222596   2.841   0.486   0.822 -2.1163 -0.0321  0.7075
 3654SOL     OW22597   2.200   4.042   9.686 -0.1168 -0.4347 -0.4613
 3654SOL    HW122598   2.282   4.089   9.703 -1.8068  1.6027  1.9884
 3654SOL    HW222599   2.238   3.966   9.642 -1.5608 -1.6270  0.3580
 3655SOL     OW22600   0.493   1.717  12.057  0.1967 -0.3593  0.3164
 3655SOL    HW122601   0.519   1.802  12.021 -2.2799  0.9657  1.6640
 3655SOL    HW222602   0.414   1.743  12.104  0.3888  0.3940  0.2283
 3656SOL     OW22603   1.742   1.689   1.873  0.4751 -0.6714  0.4415
 3656SOL    HW122604   1.705   1.601   1.879 -1.2768  0.0561  0.3002
 3656SOL    HW222605   1.668   1.749   1.879  0.5350 -0.3990 -1.6692
 3657SOL     OW22606   4.187   0.860   4.493  0.3583  0.3034  0.0643
 3657SOL    HW122607   4.240   0.811   4.555  1.2780  2.2247  0.8008
 3657SOL    HW222608   4.224   0.826   4.412  2.2759 -0.0139  1.0817
 3658SOL     OW22609   3.891   2.155   5.462 -0.0205 -0.2537  0.5351
 3658SOL    HW122610   3.857   2.239   5.432  0.8593 -0.5038 -1.1719
 3658SOL    HW222611   3.840   2.136   5.541  0.1270  0.3178  0.7710
 3659SOL     OW22612   2.768   1.076   6.419  0.4140 -0.5817  0.6100
 3659SOL    HW122613   2.762   1.087   6.324  0.3516  0.6092  0.7523
 3659SOL    HW222614   2.684   1.037   6.440 -0.6277  1.8351  0.9069
 3660SOL     OW22615   2.271   3.582   4.487  0.0240  0.2834  0.3529
 3660SOL    HW122616   2.297   3.490   4.495  1.2445  0.4868 -1.2696
 3660SOL    HW222617   2.336   3.629   4.435 -0.9253 -0.4744 -1.5127
 3661SOL     OW22618   2.068   4.216   9.155 -0.4874  0.0635  0.0691
 3661SOL    HW122619   2.072   4.307   9.124 -1.7450  0.7461  1.8690
 3661SOL    HW222620   2.161   4.194   9.156  0.5026  4.1758 -2.0514
 3662SOL     OW22621   1.835   0.526   7.721 -0.6304  0.0872  0.1418
 3662SOL    HW122622   1.793   0.586   7.782 -2.2425  0.9433 -1.8249
 3662SOL    HW222623   1.920   0.570   7.710 -0.4928  0.1179  1.3735
 3663SOL     OW22624   4.163   4.253  15.559  0.7861  0.0078  0.4646
 3663SOL    HW122625   4.081   4.278  15.515  1.9149  0.4618 -1.3498
 3663SOL    HW222626   4.143   4.299  15.641  0.0155 -0.9982  0.8454
 3664SOL     OW22627   0.787   3.212   4.018  0.0048  0.4897  0.2779
 3664SOL    HW122628   0.735   3.161   3.957  0.5934  1.0785 -0.7238
 3664SOL    HW222629   0.716   3.259   4.063 -2.2893 -2.3818 -0.3502
 3665SOL     OW22630   3.991   0.916   8.079  0.1516  0.6167 -0.3137
 3665SOL    HW122631   3.943   0.994   8.052 -2.2933 -1.2183 -1.2367
 3665SOL    HW222632   4.003   0.944   8.170  0.1249 -0.3570 -0.0011
 3666SOL     OW22633   1.333   0.946   4.854 -0.0014 -0.1177 -0.2579
 3666SOL    HW122634   1.424   0.914   4.850  0.0367 -0.0582  0.1178
 3666SOL    HW222635   1.336   0.982   4.943  0.9403  0.2632 -0.4433
 3667SOL     OW22636   4.265   3.642   8.502  0.4593  0.7642 -0.0251
 3667SOL    HW122637   4.245   3.735   8.514 -1.0550  0.5967 -1.3218
 3667SOL    HW222638   4.272   3.614   8.593  0.7023 -1.3912 -0.6893
 3668SOL     OW22639   3.952   1.007  16.122 -0.2464  0.8678  0.2074
 3668SOL    HW122640   3.924   0.988  16.033  0.2890 -0.4069  0.3155
 3668SOL    HW222641   4.022   0.944  16.139  0.3745  1.7264  0.8814
 3669SOL     OW22642   3.445   2.924   4.301  0.0537 -0.2243  1.0368
 3669SOL    HW122643   3.419   2.832   4.295 -2.4029  0.7117 -2.3450
 3669SOL    HW222644   3.376   2.952   4.361 -2.5728 -0.7493 -1.8061
 3670SOL     OW22645   1.637   4.737   4.569 -0.4187 -0.6555 -0.1196
 3670SOL    HW122646   1.600   0.006   4.657 -1.2960  1.1961 -0.6297
 3670SOL    HW222647   1.601   4.650   4.550 -0.3513  0.1257 -3.8057
 3671SOL     OW22648   3.535   4.727   6.879 -0.1549 -0.4357 -0.2213
 3671SOL    HW122649   3.572   4.640   6.864  2.2770  0.7726 -1.2310
 3671SOL    HW222650   3.528   4.718   6.974 -0.1772 -3.1122 -0.4640
 3672SOL     OW22651   3.607   4.634   8.439 -0.6919  0.2061 -0.3728
 3672SOL    HW122652   3.512   4.636   8.435 -0.8798 -0.3097  3.5888
 3672SOL    HW222653   3.630   4.672   8.524  0.0463  0.5233 -0.7133
 3673SOL     OW22654   2.195   4.498   7.346 -0.0140 -0.3305  0.2701
 3673SOL    HW122655   2.290   4.505   7.342 -0.1968  0.9715 -1.5300
 3673SOL    HW222656   2.157   4.579   7.315  0.7426  0.7309  2.0976
 3674SOL     OW22657   0.932   4.247   8.871  0.2376  0.5021  0.1220
 3674SOL    HW122658   0.913   4.160   8.838 -0.2572  0.2178  1.1498
 3674SOL    HW222659   1.024   4.249   8.846  0.3189  0.9000  0.4567
 3675SOL     OW22660   4.674   4.480   8.418  0.1306 -0.4587 -0.0352
 3675SOL    HW122661   4.722   4.558   8.390 -0.3815 -0.5291 -1.1333
 3675SOL    HW222662   4.704   4.476   8.508 -2.6521 -2.0200  0.8264
 3676SOL     OW22663   3.218   1.131   7.987 -0.0414  0.2595 -0.4521
 3676SOL    HW122664   3.199   1.169   7.901 -1.4148 -1.6831 -0.9963
 3676SOL    HW222665   3.132   1.143   8.027 -0.3538 -0.0988 -1.0127
 3677SOL     OW22666   2.986   0.706   5.606  0.1489  0.0207  0.3221
 3677SOL    HW122667   3.049   0.763   5.651  1.2520  0.3929 -1.7203
 3677SOL    HW222668   2.960   0.656   5.684 -1.5794  0.0167 -0.2531
 3678SOL     OW22669   0.492   2.049  10.012 -0.3456  0.3500 -0.2650
 3678SOL    HW122670   0.494   2.052  10.108  3.1237  0.2507 -0.3575
 3678SOL    HW222671   0.399   2.031   9.997 -0.9149  1.4600  1.9991
 3679SOL     OW22672   3.511   0.768  17.236 -0.1161 -0.5094  0.9309
 3679SOL    HW122673   3.425   0.790  17.272 -1.7752 -3.0283 -1.4037
 3679SOL    HW222674   3.486   0.734  17.150  0.1834  1.8652 -0.0836
 3680SOL     OW22675   0.798   2.917   5.219 -0.3230 -0.1204  1.1596
 3680SOL    HW122676   0.812   2.970   5.297 -0.6239 -1.1492  1.9181
 3680SOL    HW222677   0.873   2.858   5.218 -0.1768  0.1426 -2.1086
 3681SOL     OW22678   4.668   4.209  17.554 -0.0014 -0.2880  0.5062
 3681SOL    HW122679   4.690   4.249  17.470 -0.0236 -0.4655  0.4152
 3681SOL    HW222680   4.576   4.232  17.560  0.0426  0.4336 -1.7143
 3682SOL     OW22681   0.858   4.160  12.327  0.0579  0.1887 -0.8773
 3682SOL    HW122682   0.904   4.078  12.347  0.1815 -0.1754 -2.6059
 3682SOL    HW222683   0.849   4.207  12.409  0.8891  1.1932 -1.3550
 3683SOL     OW22684   2.831   1.598  16.745  0.2926  0.5111 -0.2441
 3683SOL    HW122685   2.761   1.598  16.810 -0.4111  1.9875 -0.9892
 3683SOL    HW222686   2.820   1.512  16.706 -0.1109  0.3563  0.2019
 3684SOL     OW22687   2.456   2.331   1.682 -0.0238 -0.5454 -0.2020
 3684SOL    HW122688   2.389   2.263   1.684 -0.1243 -0.4713 -1.0924
 3684SOL    HW222689   2.453   2.375   1.767  0.8367 -0.9476  0.0417
 3685SOL     OW22690   2.466   0.917   7.141  0.4243 -0.1716  0.5995
 3685SOL    HW122691   2.507   0.889   7.222 -1.0073 -1.4424  0.8865
 3685SOL    HW222692   2.398   0.973   7.179 -1.3131 -3.6594  2.6632
 3686SOL     OW22693   3.221   1.526  12.160 -0.3185  0.2105 -0.6578
 3686SOL    HW122694   3.214   1.610  12.205 -0.9146  0.6624 -1.5951
 3686SOL    HW222695   3.298   1.540  12.105 -1.0411  0.3354 -1.6560
 3687SOL     OW22696   3.877   4.420   7.226  0.1516 -0.2465 -0.7755
 3687SOL    HW122697   3.850   4.505   7.191 -0.3706 -1.0610 -2.3427
 3687SOL    HW222698   3.854   4.359   7.156  0.1521 -2.6370  1.3215
 3688SOL     OW22699   1.490   3.015   8.108  0.0980 -0.5911 -0.1638
 3688SOL    HW122700   1.396   3.001   8.095 -0.1419  0.5742  0.2267
 3688SOL    HW222701   1.512   2.939   8.056 -0.9968 -1.0765  0.0779
 3689SOL     OW22702   3.777   2.094   8.351 -0.4795 -0.2701 -0.1829
 3689SOL    HW122703   3.862   2.124   8.318 -0.9784  0.3038 -0.9377
 3689SOL    HW222704   3.801   2.048   8.432  0.2443  0.3419 -0.0489
 3690SOL     OW22705   2.426   2.780   9.063 -0.0581  0.4922 -0.1073
 3690SOL    HW122706   2.353   2.733   9.023  2.3040 -1.4779 -2.0965
 3690SOL    HW222707   2.388   2.866   9.083 -0.7244 -0.0907  1.0921
 3691SOL     OW22708   3.116   3.567   2.076  0.1464 -0.5406  0.3516
 3691SOL    HW122709   3.094   3.492   2.020  0.1615 -0.5645  0.3772
 3691SOL    HW222710   3.044   3.630   2.066  0.1589 -0.7950 -1.2185
 3692SOL     OW22711   1.197   2.117   6.617 -0.2309  0.1377  0.4284
 3692SOL    HW122712   1.216   2.106   6.524  2.2397  1.0103  0.8359
 3692SOL    HW222713   1.107   2.152   6.618 -0.2506  0.1483 -0.9474
 3693SOL     OW22714   4.688   0.260   4.972  0.5988  0.1789 -0.3214
 3693SOL    HW122715   4.626   0.331   4.959 -2.3043 -2.5791 -1.4916
 3693SOL    HW222716   0.012   0.303   5.030 -0.0215  0.2960  0.2402
 3694SOL     OW22717   3.069   1.811  16.321  0.1113 -0.6087 -0.2905
 3694SOL    HW122718   3.094   1.861  16.399  2.3718 -2.3540  0.1125
 3694SOL    HW222719   3.000   1.760  16.362 -0.5941  0.8696  0.3714
 3695SOL     OW22720   2.355   1.515   3.022 -0.0657 -0.2642 -0.5989
 3695SOL    HW122721   2.398   1.597   2.997  0.2054 -0.5440 -1.0348
 3695SOL    HW222722   2.434   1.464   3.036  1.2477  1.9663  0.1756
 3696SOL     OW22723   0.752   4.153   8.156 -0.4240 -0.2828 -0.0974
 3696SOL    HW122724   0.717   4.065   8.173 -0.1831 -0.8076 -2.3938
 3696SOL    HW222725   0.833   4.123   8.116  0.1237 -0.2907  1.0195
 3697SOL     OW22726   3.132   1.078   5.628 -0.0886  0.2212  0.0553
 3697SOL    HW122727   3.065   1.147   5.630 -0.2888 -0.0352  2.2939
 3697SOL    HW222728   3.198   1.120   5.683 -0.5063 -0.2702  0.9534
 3698SOL     OW22729   3.014   0.260  10.050 -0.8816 -0.2860 -0.5396
 3698SOL    HW122730   3.069   0.188  10.021  1.4497  1.1899  0.1914
 3698SOL    HW222731   3.071   0.333  10.023 -1.3757 -0.1731 -1.2757
 3699SOL     OW22732   0.815   3.240   4.777  0.3077 -0.2700 -0.0990
 3699SOL    HW122733   0.778   3.310   4.830  1.4367 -1.5886  2.4493
 3699SOL    HW222734   0.907   3.267   4.774  0.2971 -0.0730  1.1495
 3700SOL     OW22735   2.495   0.085   3.748 -0.2050 -0.4769  0.3215
 3700SOL    HW122736   2.582   0.044   3.741  0.7086  1.5453 -0.1966
 3700SOL    HW222737   2.525   0.137   3.822 -0.5225 -0.0872  0.1741
 3701SOL     OW22738   3.034   1.783  12.869 -0.2553  0.4278  0.2561
 3701SOL    HW122739   3.078   1.795  12.784  0.8070 -1.0971  0.5897
 3701SOL    HW222740   2.948   1.754  12.839 -0.4601  2.5159 -1.1845
 3702SOL     OW22741   0.317   3.690   0.933  0.3676  0.1714 -0.6969
 3702SOL    HW122742   0.388   3.633   0.902  1.2475  0.7633  0.2172
 3702SOL    HW222743   0.292   3.644   1.013 -0.3900  3.3804  0.9151
 3703SOL     OW22744   3.343   1.693   4.979 -0.1503  0.0694  0.3060
 3703SOL    HW122745   3.419   1.661   5.028  1.0961  2.2506 -0.2092
 3703SOL    HW222746   3.271   1.681   5.041 -0.7340  0.8752 -0.2200
 3704SOL     OW22747   1.447   3.789  16.488  0.0263  0.1999 -0.2138
 3704SOL    HW122748   1.450   3.845  16.410 -1.1122  1.2987  0.5250
 3704SOL    HW222749   1.469   3.705  16.448  0.0209 -0.0074  0.2228
 3705SOL     OW22750   0.765   2.225  13.986 -0.1130 -0.3782 -0.1074
 3705SOL    HW122751   0.725   2.188  14.064 -0.9778 -0.4930 -0.6080
 3705SOL    HW222752   0.839   2.265  14.031 -1.6566  1.9168  0.3760
 3706SOL     OW22753   2.412   4.206   4.922  0.9393  1.0541 -0.3099
 3706SOL    HW122754   2.425   4.131   4.864 -0.1809  0.4139  0.2892
 3706SOL    HW222755   2.489   4.216   4.978  1.5978 -0.4017 -0.9808
 3707SOL     OW22756   1.938   0.754   7.861  0.1830  0.2223  0.0996
 3707SOL    HW122757   1.907   0.691   7.926 -0.3401 -0.0618 -0.4271
 3707SOL    HW222758   1.987   0.818   7.913  2.4529  0.1943 -2.0016
 3708SOL     OW22759   4.040   3.182  12.250 -0.0033  0.2467  1.1537
 3708SOL    HW122760   3.954   3.139  12.245  0.1011  0.0251  1.2750
 3708SOL    HW222761   4.065   3.181  12.157  1.9651 -0.5158  1.6998
 3709SOL     OW22762   1.082   4.566  12.198 -0.4408  0.4433  0.1931
 3709SOL    HW122763   0.997   4.526  12.177 -0.8133  0.0552  2.4467
 3709SOL    HW222764   1.057   4.655  12.170 -2.1972 -0.1985 -0.2992
 3710SOL     OW22765   3.176   1.132   6.378  0.6818 -0.5317  0.5917
 3710SOL    HW122766   3.260   1.086   6.388  1.4344  0.0883 -2.7458
 3710SOL    HW222767   3.128   1.085   6.446  2.7219 -1.8144  1.1536
 3711SOL     OW22768   2.673   3.172  13.324  0.5574  0.4521  0.2673
 3711SOL    HW122769   2.674   3.231  13.250  0.7312 -0.7075 -0.6511
 3711SOL    HW222770   2.595   3.197  13.375  0.5941  0.4714  0.3143
 3712SOL     OW22771   2.128   3.784   8.247 -0.3448 -0.2557  0.0143
 3712SOL    HW122772   2.055   3.845   8.260 -0.0556 -0.4986  2.7717
 3712SOL    HW222773   2.165   3.773   8.334 -1.7338  1.4856  0.8302
 3713SOL     OW22774   2.560   2.030  14.756  0.3138 -0.0188  0.5418
 3713SOL    HW122775   2.501   1.997  14.688 -0.2034 -0.3669  1.1565
 3713SOL    HW222776   2.500   2.085  14.806  0.2395  1.1302 -0.8147
 3714SOL     OW22777   3.949   2.783   7.585  0.6759 -0.0154 -0.1461
 3714SOL    HW122778   3.981   2.872   7.569 -2.8934  1.4811  0.8683
 3714SOL    HW222779   3.988   2.767   7.671 -1.3746  0.2423  0.8384
 3715SOL     OW22780   3.584   3.846   6.360 -0.8703  0.2166 -0.4280
 3715SOL    HW122781   3.558   3.921   6.306  3.1898  0.6891 -1.7394
 3715SOL    HW222782   3.601   3.785   6.289  0.4236 -0.8366  0.7864
 3716SOL     OW22783   1.881   3.906   8.585 -0.6105 -0.5757 -0.7901
 3716SOL    HW122784   1.849   3.970   8.649 -2.4813 -1.5735 -0.7586
 3716SOL    HW222785   1.921   3.843   8.645  0.7338  2.2940  1.3403
 3717SOL     OW22786   2.738   3.203   3.727 -0.2466  0.0140 -0.2188
 3717SOL    HW122787   2.833   3.218   3.726 -0.3819  0.8813 -0.0035
 3717SOL    HW222788   2.717   3.194   3.820  0.6464  0.9781  0.0814
 3718SOL     OW22789   2.353   1.230   3.403  0.7398  0.0474 -0.5892
 3718SOL    HW122790   2.304   1.297   3.357  0.0929  2.0746  3.0483
 3718SOL    HW222791   2.441   1.265   3.418 -0.1310  1.5425  1.1107
 3719SOL     OW22792   0.520   0.134   8.302  0.0132  0.3239  0.6779
 3719SOL    HW122793   0.516   0.050   8.348  0.9873  1.9978  3.8304
 3719SOL    HW222794   0.447   0.183   8.339 -0.6461  0.5406 -0.9128
 3720SOL     OW22795   0.417   2.832   9.393  0.1742 -0.4061 -0.6849
 3720SOL    HW122796   0.488   2.810   9.453  1.7145 -0.3747 -2.5132
 3720SOL    HW222797   0.346   2.844   9.456  1.4517 -0.1479  0.7111
 3721SOL     OW22798   0.873   1.022   1.095 -0.2827 -0.2730  0.4096
 3721SOL    HW122799   0.915   0.974   1.166 -1.3639 -0.0536  1.1932
 3721SOL    HW222800   0.818   0.951   1.061 -1.1583  1.8350 -2.6029
 3722SOL     OW22801   1.582   2.623   1.099 -0.1468  0.4245  0.5317
 3722SOL    HW122802   1.675   2.624   1.120  0.3846 -3.8759 -1.6704
 3722SOL    HW222803   1.562   2.540   1.143  0.1905  0.5991  1.0093
 3723SOL     OW22804   1.031   3.416   4.785  0.1797  0.7045 -0.2549
 3723SOL    HW122805   1.019   3.434   4.878  1.2324 -0.6597  0.1498
 3723SOL    HW222806   1.127   3.412   4.783  0.0355 -2.7726  1.1308
 3724SOL     OW22807   1.934   0.659   3.200 -0.1231 -0.1653  0.3741
 3724SOL    HW122808   1.971   0.674   3.287  1.2729 -2.8228  0.2352
 3724SOL    HW222809   1.959   0.735   3.147 -0.3084 -1.1862 -1.1822
 3725SOL     OW22810   0.033   0.447   7.195  0.0412  0.6736  0.4809
 3725SOL    HW122811   4.691   0.486   7.159  0.2904 -1.0505 -1.9488
 3725SOL    HW222812   0.093   0.518   7.218 -1.7577  2.1339  0.6426
 3726SOL     OW22813   4.603   2.246  11.739  0.1880 -0.3173 -0.4110
 3726SOL    HW122814   4.613   2.151  11.727 -1.1057 -0.5974  0.6836
 3726SOL    HW222815   4.653   2.281  11.666  2.4305 -1.1408  0.7342
 3727SOL     OW22816   4.088   3.976   1.972  0.3909  0.3798 -0.0660
 3727SOL    HW122817   4.080   3.989   2.067  0.8323 -2.6442  0.3884
 3727SOL    HW222818   4.019   4.034   1.939 -0.4916 -0.0620  0.9874
 3728SOL     OW22819   2.690   4.218   3.125  0.1418 -0.1041  0.4116
 3728SOL    HW122820   2.672   4.125   3.117  0.7913 -0.1029 -1.0652
 3728SOL    HW222821   2.660   4.235   3.214  2.7030 -1.0612  1.4472
 3729SOL     OW22822   3.133   3.396   4.826  0.5760  0.1042  0.3125
 3729SOL    HW122823   3.201   3.464   4.826  1.7886 -1.1210 -0.2790
 3729SOL    HW222824   3.192   3.338   4.778  0.2436 -0.1238  0.1818
 3730SOL     OW22825   3.928   4.133   1.444 -0.3400  0.3211  0.1980
 3730SOL    HW122826   3.963   4.220   1.463 -1.8240  0.9464  0.0536
 3730SOL    HW222827   3.855   4.161   1.390  0.9119  2.3050 -0.4526
 3731SOL     OW22828   0.968   0.930   6.495  0.0993  0.1050 -0.6876
 3731SOL    HW122829   0.920   0.990   6.437  2.5406  2.4962 -0.2307
 3731SOL    HW222830   1.034   0.990   6.529 -0.7658 -0.8142  2.5774
 3732SOL     OW22831   3.174   2.901  17.712 -0.6174  0.3782 -0.1773
 3732SOL    HW122832   3.111   2.968  17.685  0.4675  1.0376 -1.0615
 3732SOL    HW222833   3.137   2.885   0.051 -1.8535  0.8757 -0.6040
 3733SOL     OW22834   2.437   1.333  14.080  0.4038  0.8184 -0.2976
 3733SOL    HW122835   2.351   1.365  14.053 -0.1579  0.2097  0.7327
 3733SOL    HW222836   2.453   1.275  14.006 -1.1125 -1.6731  1.3263
 3734SOL     OW22837   0.008   1.361   1.692 -0.0428  0.0284 -0.0730
 3734SOL    HW122838   4.733   1.374   1.786 -0.5501  0.2813 -0.1768
 3734SOL    HW222839   0.102   1.350   1.678 -0.1276 -2.3047  1.0213
 3735SOL     OW22840   1.020   0.285   8.465  0.1433 -0.3574  0.1214
 3735SOL    HW122841   1.077   0.243   8.401 -1.7656  0.7727 -2.3357
 3735SOL    HW222842   1.026   0.224   8.539  1.4780  1.8186  1.8185
 3736SOL     OW22843   0.095   1.312   3.834 -0.1232 -0.0364  0.5896
 3736SOL    HW122844   0.123   1.311   3.742 -0.4632  0.0286  0.4854
 3736SOL    HW222845   0.105   1.220   3.858  0.2918 -0.3203 -0.6705
 3737SOL     OW22846   1.679   1.192   3.948 -0.2296  0.1281 -0.2409
 3737SOL    HW122847   1.695   1.144   3.867 -1.0780 -0.5406 -0.0094
 3737SOL    HW222848   1.765   1.182   3.989 -0.7980 -0.1622  0.8696
 3738SOL     OW22849   2.215   1.928   6.584  0.4108  0.1042  0.7239
 3738SOL    HW122850   2.280   1.998   6.585  1.0251 -0.4451 -0.3336
 3738SOL    HW222851   2.268   1.849   6.596  0.9404  0.7191  2.4367
 3739SOL     OW22852   1.819   4.386   4.966  0.3402  0.1806  0.0994
 3739SOL    HW122853   1.812   4.466   5.018 -0.1631  1.0220 -1.2472
 3739SOL    HW222854   1.731   4.350   4.961 -0.5562  2.0509  2.7413
 3740SOL     OW22855   1.231   1.872   7.888  0.6517 -0.1519 -0.6164
 3740SOL    HW122856   1.209   1.926   7.812  2.2094 -0.3200 -1.1829
 3740SOL    HW222857   1.251   1.788   7.848  0.3488 -1.0867  1.1857
 3741SOL     OW22858   1.124   2.935   5.410  0.2709 -0.6237 -0.5348
 3741SOL    HW122859   1.214   2.908   5.430  0.3638  0.5412  0.6031
 3741SOL    HW222860   1.146   2.966   5.322 -0.9708  1.5437 -0.0716
 3742SOL     OW22861   0.658   3.894   0.971  0.3346 -0.8434  0.1571
 3742SOL    HW122862   0.672   3.801   0.989  0.2635 -1.0204 -0.7255
 3742SOL    HW222863   0.652   3.886   0.876 -1.5073  0.6372  0.1392
 3743SOL     OW22864   3.830   3.508   7.338  0.2498 -0.0491  0.4933
 3743SOL    HW122865   3.901   3.533   7.279 -0.2677 -0.2167 -0.2006
 3743SOL    HW222866   3.767   3.578   7.320 -0.8729 -1.3768 -0.7485
 3744SOL     OW22867   2.150   3.681   0.472 -0.1019 -0.8359 -0.2342
 3744SOL    HW122868   2.213   3.725   0.529  0.3894  1.1672 -2.3297
 3744SOL    HW222869   2.065   3.722   0.490  0.0554 -0.2036 -0.9001
 3745SOL     OW22870   3.862   3.819  10.340  0.8779  0.7325 -0.1585
 3745SOL    HW122871   3.846   3.907  10.373 -1.0894  0.8029 -1.3231
 3745SOL    HW222872   3.939   3.827  10.285  0.2200 -0.7643 -1.2751
 3746SOL     OW22873   4.288   1.960   3.076 -0.0379  0.2270 -0.0269
 3746SOL    HW122874   4.355   2.025   3.099 -1.4894  1.5264  0.5385
 3746SOL    HW222875   4.265   1.978   2.985  1.9882 -1.2418 -0.8265
 3747SOL     OW22876   3.743   1.143  10.717  0.4063  0.2490 -0.2214
 3747SOL    HW122877   3.782   1.082  10.780 -1.1812  0.2778  0.7990
 3747SOL    HW222878   3.775   1.097  10.639  0.8444  0.8554 -0.3986
 3748SOL     OW22879   1.117   0.438   5.239 -0.3372 -0.0144  0.2713
 3748SOL    HW122880   1.120   0.368   5.304 -0.0555  0.2596  0.5516
 3748SOL    HW222881   1.076   0.405   5.159 -0.2438  0.9498 -0.1805
 3749SOL     OW22882   4.453   1.651  16.128 -0.0931 -0.0558 -0.1266
 3749SOL    HW122883   4.394   1.620  16.196  1.9636  0.1104  1.7348
 3749SOL    HW222884   4.406   1.731  16.104  2.1569  0.6285 -2.2577
 3750SOL     OW22885   1.546   3.173   1.687 -0.2709  0.1723 -0.2342
 3750SOL    HW122886   1.525   3.245   1.628 -2.2263 -1.9515 -2.1693
 3750SOL    HW222887   1.620   3.142   1.634 -0.7130  0.5646 -1.0725
 3751SOL     OW22888   1.373   0.515  17.065 -0.2115 -0.3086  0.1796
 3751SOL    HW122889   1.402   0.426  17.043 -0.2560 -0.0097 -1.0963
 3751SOL    HW222890   1.435   0.547  17.131 -1.1466  1.6824  0.0691
 3752SOL     OW22891   0.894   0.519  12.545  0.0132 -0.3719  0.1860
 3752SOL    HW122892   0.807   0.554  12.565 -1.5298 -3.2633 -1.6727
 3752SOL    HW222893   0.923   0.478  12.627 -0.4417  0.4679  0.7724
 3753SOL     OW22894   2.896   0.412  12.603  0.3046  0.0586 -0.0522
 3753SOL    HW122895   2.839   0.446  12.672  0.4249 -1.2844  0.7167
 3753SOL    HW222896   2.873   0.320  12.590  0.6054 -0.2154  1.3431
 3754SOL     OW22897   0.044   1.483   5.377  0.0886 -0.2644 -0.6707
 3754SOL    HW122898   0.042   1.415   5.444  1.8989  1.2816  0.9416
 3754SOL    HW222899   0.081   1.559   5.422 -1.3713  0.8017 -1.2486
 3755SOL     OW22900   2.769   2.200   4.686 -0.3191 -0.0766  0.2171
 3755SOL    HW122901   2.785   2.122   4.739  0.7074 -1.2883 -1.8646
 3755SOL    HW222902   2.754   2.160   4.600  0.7475 -2.4649  1.1287
 3756SOL     OW22903   0.863   2.311  10.983 -0.1766 -0.5543 -0.2324
 3756SOL    HW122904   0.770   2.322  11.004 -0.8093 -2.2801 -2.1361
 3756SOL    HW222905   0.877   2.384  10.922 -0.0033 -2.4046 -2.3833
 3757SOL     OW22906   2.923   3.785   8.874 -0.0976  0.4548 -0.2941
 3757SOL    HW122907   3.018   3.776   8.876 -0.0358  0.4443 -3.0774
 3757SOL    HW222908   2.896   3.760   8.962 -0.1684  0.4762 -0.3097
 3758SOL     OW22909   4.647   0.026   1.473  0.7595  0.1400 -0.9174
 3758SOL    HW122910   4.664   0.087   1.401 -1.5023  0.8005 -0.8954
 3758SOL    HW222911   4.566   4.719   1.448 -2.1207  4.1824  1.1172
 3759SOL     OW22912   2.388   1.114  17.124  0.4375 -0.2225  0.1541
 3759SOL    HW122913   2.336   1.192  17.146 -1.6550 -2.1853  2.1122
 3759SOL    HW222914   2.407   1.075  17.209 -0.3326  0.2153  0.5351
 3760SOL     OW22915   3.403   0.894   7.446 -0.0916 -0.1134  0.1882
 3760SOL    HW122916   3.496   0.918   7.442 -0.0881 -0.3969 -1.2356
 3760SOL    HW222917   3.388   0.809   7.404  2.4923  0.1441 -1.2600
 3761SOL     OW22918   0.799   2.545  12.778  0.0230 -0.8194  0.0510
 3761SOL    HW122919   0.834   2.474  12.832  3.0728  1.7224  1.4176
 3761SOL    HW222920   0.884   2.589  12.784 -0.2535 -0.3334  0.3922
 3762SOL     OW22921   2.238   2.237  14.004 -0.4886  0.4755 -0.0681
 3762SOL    HW122922   2.235   2.314  14.060 -1.0850  0.2996  0.1337
 3762SOL    HW222923   2.275   2.175  14.068 -1.1425  0.5197  0.3492
 3763SOL     OW22924   2.612   3.329   2.542  0.0176 -0.7829  0.7066
 3763SOL    HW122925   2.707   3.333   2.544 -0.0696  0.1020  3.2549
 3763SOL    HW222926   2.599   3.235   2.560 -2.1573 -0.4605  0.7954
 3764SOL     OW22927   2.758   2.462  16.741 -0.1138  0.2981 -0.0214
 3764SOL    HW122928   2.696   2.396  16.709  0.4792 -0.1848 -0.1780
 3764SOL    HW222929   2.840   2.434  16.700  0.1523  2.7424 -1.1646
 3765SOL     OW22930   4.112   0.394   4.794  0.0122 -0.2681  0.0895
 3765SOL    HW122931   4.140   0.446   4.870 -2.9576  2.1752 -0.4819
 3765SOL    HW222932   4.184   0.332   4.791 -1.8615 -2.3144 -1.8320
 3766SOL     OW22933   3.019   2.718  10.232 -0.3245  0.2154  0.2212
 3766SOL    HW122934   2.983   2.803  10.258  1.1717  1.3769 -1.4793
 3766SOL    HW222935   3.096   2.717  10.289 -0.8134  0.2421  0.8830
 3767SOL     OW22936   2.478   1.830   4.776  0.5314 -0.3789 -0.7785
 3767SOL    HW122937   2.461   1.746   4.818  1.7831  0.0504  0.5874
 3767SOL    HW222938   2.573   1.819   4.768  0.6808  2.4536 -2.7864
 3768SOL     OW22939   0.354   4.205   3.876  0.0170 -0.0859 -0.2286
 3768SOL    HW122940   0.344   4.131   3.936 -2.7421 -0.9329 -1.7463
 3768SOL    HW222941   0.273   4.255   3.888 -0.4786 -0.8972 -0.2265
 3769SOL     OW22942   0.626   2.803  13.090  0.4393  0.5494 -0.1157
 3769SOL    HW122943   0.548   2.817  13.145 -0.2201 -1.4139 -0.5429
 3769SOL    HW222944   0.591   2.746  13.022 -1.9485  1.1444  0.6039
 3770SOL     OW22945   0.108   4.240   5.235  0.4298 -0.0230 -0.3073
 3770SOL    HW122946   0.073   4.151   5.240 -1.7899  0.9107  0.6647
 3770SOL    HW222947   0.197   4.229   5.202  0.8035  1.4108  0.1946
 3771SOL     OW22948   3.457   2.692   5.405  0.0888  0.3127  0.4785
 3771SOL    HW122949   3.528   2.749   5.374  0.0828  1.1868  2.0350
 3771SOL    HW222950   3.403   2.758   5.448 -1.4803  0.4186 -1.6618
 3772SOL     OW22951   1.422   2.493   4.951  1.0969  0.0711  0.2937
 3772SOL    HW122952   1.469   2.426   5.001  0.2270  0.3379  1.4650
 3772SOL    HW222953   1.489   2.532   4.894 -0.2066  2.2316  0.2275
 3773SOL     OW22954   0.359   3.938   1.458  0.4141 -0.3779 -0.1029
 3773SOL    HW122955   0.414   3.950   1.536 -2.0880 -1.2837  1.7801
 3773SOL    HW222956   0.267   3.942   1.481  0.0579  2.3963 -2.0098
 3774SOL     OW22957   4.677   1.291   4.463  0.6790 -0.0077  0.0176
 3774SOL    HW122958   4.635   1.289   4.377 -0.5029  0.1450  0.5816
 3774SOL    HW222959   4.602   1.272   4.520  0.6726  0.0550  0.0305
 3775SOL     OW22960   1.159   3.698   5.895 -0.3719  0.2409 -0.5702
 3775SOL    HW122961   1.205   3.689   5.811 -1.4660  2.6107 -1.4349
 3775SOL    HW222962   1.175   3.611   5.930 -0.3685  0.1238 -0.8641
 3776SOL     OW22963   3.544   0.762   0.978  0.0316  0.2373 -0.7139
 3776SOL    HW122964   3.471   0.704   0.954  0.3118 -0.6701  0.5869
 3776SOL    HW222965   3.513   0.850   0.956 -1.0412 -0.2252 -1.0698
 3777SOL     OW22966   3.264   4.229   5.607  0.6878  0.1460  0.5228
 3777SOL    HW122967   3.312   4.215   5.526  1.0382 -1.9718  1.0901
 3777SOL    HW222968   3.277   4.323   5.621 -1.0715  0.8003 -2.3250
 3778SOL     OW22969   0.680   2.743   9.506  0.0152  0.1985 -0.4365
 3778SOL    HW122970   0.715   2.744   9.417  0.7864  0.4345 -0.1286
 3778SOL    HW222971   0.670   2.648   9.521 -2.0721  0.9571  3.1804
 3779SOL     OW22972   1.041   3.906   2.950  0.3608 -0.0438 -0.5610
 3779SOL    HW122973   1.047   3.994   2.912 -2.0213  0.7228  0.8173
 3779SOL    HW222974   1.122   3.875   2.911  1.3443  1.5938  0.1892
 3780SOL     OW22975   3.790   2.763   1.786 -0.0442 -0.4832  0.4725
 3780SOL    HW122976   3.863   2.715   1.747  1.4802 -0.3178  3.0940
 3780SOL    HW222977   3.766   2.800   1.701  0.9711 -0.2095  0.3069
 3781SOL     OW22978   1.091   1.311  15.385 -0.6844  0.5902  0.4970
 3781SOL    HW122979   1.132   1.239  15.335  1.0157  2.2334 -0.4739
 3781SOL    HW222980   1.162   1.371  15.408  1.2725 -2.2667  2.0494
 3782SOL     OW22981   3.550   2.791  16.370 -0.8466  0.2155 -0.6681
 3782SOL    HW122982   3.498   2.808  16.449 -1.0619 -0.4024 -0.6811
 3782SOL    HW222983   3.635   2.779  16.412 -1.2793 -0.7501 -0.0723
 3783SOL     OW22984   0.898   2.092   3.215 -0.2348 -0.8638  0.2000
 3783SOL    HW122985   0.807   2.078   3.242  0.2485 -1.6152  1.4625
 3783SOL    HW222986   0.890   2.158   3.146 -1.9518  0.3135  1.4914
 3784SOL     OW22987   0.044   2.517  13.946  0.1987 -0.4760  0.4241
 3784SOL    HW122988   4.729   2.444  13.980  0.8325 -1.4567 -0.6840
 3784SOL    HW222989   4.723   2.591  13.954 -0.8247 -1.3374  0.9091
 3785SOL     OW22990   3.965   2.160   1.569  0.2317  0.0656 -0.2694
 3785SOL    HW122991   3.965   2.102   1.645  0.0722 -1.4951 -1.4607
 3785SOL    HW222992   3.896   2.115   1.520 -0.9556  1.0255  0.5256
 3786SOL     OW22993   3.850   2.995   3.572 -0.0296  0.4117 -0.5779
 3786SOL    HW122994   3.849   3.027   3.662  0.4756  0.2068 -0.5008
 3786SOL    HW222995   3.837   3.083   3.535  5.0285  0.5246 -2.0779
 3787SOL     OW22996   0.775   2.002  15.869  0.3127  0.1227 -0.0054
 3787SOL    HW122997   0.795   1.927  15.925  2.5645  0.3715 -0.4472
 3787SOL    HW222998   0.854   2.056  15.883 -0.3935  1.5784 -1.6153
 3788SOL     OW22999   1.125   0.930   8.515  0.6778 -0.4613 -0.0984
 3788SOL    HW123000   1.033   0.936   8.539  0.9361 -2.3499  1.3437
 3788SOL    HW223001   1.163   0.871   8.580  1.9328 -1.5469 -1.7956
 3789SOL     OW23002   0.159   1.459  16.196  0.1814 -0.1772  0.0061
 3789SOL    HW123003   0.230   1.514  16.229  0.1679  0.6094 -1.3013
 3789SOL    HW223004   0.115   1.518  16.135  1.1240  2.2912  1.7108
 3790SOL     OW23005   3.115   2.456   2.104 -0.6610  0.0720  0.0525
 3790SOL    HW123006   3.169   2.451   2.183 -0.4196  2.0584  0.0150
 3790SOL    HW223007   3.123   2.366   2.071 -1.0841  0.2331 -0.4758
 3791SOL     OW23008   4.042   0.160   4.312  0.2289  0.0054 -0.0996
 3791SOL    HW123009   4.087   0.243   4.329 -0.8333  0.8124 -1.2209
 3791SOL    HW223010   4.058   0.157   4.218  0.0140  0.3209 -0.1484
 3792SOL     OW23011   2.410   2.821   1.670 -0.0924  0.4273  0.2261
 3792SOL    HW123012   2.394   2.848   1.761  0.0637 -1.2290  0.7444
 3792SOL    HW223013   2.447   2.895   1.623 -0.4425 -0.3849 -1.3114
 3793SOL     OW23014   2.313   3.967   8.172 -0.5349  0.1568  0.3057
 3793SOL    HW123015   2.253   3.893   8.180  0.1797 -0.4168  0.3678
 3793SOL    HW223016   2.270   4.005   8.096  1.1351  1.0005 -0.2011
 3794SOL     OW23017   3.192   1.633   7.095  0.0958 -0.1691  0.6851
 3794SOL    HW123018   3.221   1.648   7.185  2.1136 -2.7589  0.4737
 3794SOL    HW223019   3.142   1.710   7.069  0.8318  0.4511  1.0727
 3795SOL     OW23020   2.378   4.681   3.996 -0.0887 -0.2275 -0.1252
 3795SOL    HW123021   2.310   0.007   4.017 -1.8804 -2.5446  1.1282
 3795SOL    HW223022   2.457   4.710   4.041  1.4742 -3.1118 -0.9981
 3796SOL     OW23023   3.524   4.267  10.981  0.2583 -0.2793 -0.1518
 3796SOL    HW123024   3.485   4.212  10.914  0.1683 -1.8027  1.1580
 3796SOL    HW223025   3.458   4.264  11.051 -0.2044 -1.6056 -0.6579
 3797SOL     OW23026   0.387   2.555   9.550 -0.4621  0.4816  0.2521
 3797SOL    HW123027   0.386   2.601   9.634 -0.1380  1.1427 -0.1070
 3797SOL    HW223028   0.473   2.515   9.563 -0.4968 -1.1366 -4.4095
 3798SOL     OW23029   4.682   0.805  16.680  0.5271 -0.0369  0.3054
 3798SOL    HW123030   4.719   0.877  16.629  1.5826 -1.2322 -0.6229
 3798SOL    HW223031   0.023   0.750  16.683 -0.3483 -1.2426  1.1919
 3799SOL     OW23032   4.527   4.147   1.573 -0.0675 -0.2855  0.2414
 3799SOL    HW123033   4.583   4.195   1.635  1.1726  0.5454 -1.5382
 3799SOL    HW223034   4.447   4.197   1.589 -0.5810 -0.5833 -1.4587
 3800SOL     OW23035   3.846   2.620   6.573 -0.2064 -0.1890  0.6721
 3800SOL    HW123036   3.817   2.656   6.657 -0.2925 -1.5263  1.2082
 3800SOL    HW223037   3.794   2.543   6.550  0.6988 -0.4245 -0.5819
 3801SOL     OW23038   3.820   4.503   1.826  0.0418  0.1194 -0.0545
 3801SOL    HW123039   3.855   4.504   1.737  0.1566 -0.3147 -0.0154
 3801SOL    HW223040   3.906   4.510   1.868 -0.8274 -0.6942  1.8453
 3802SOL     OW23041   1.453   0.831  14.891  0.8898  0.3202 -0.3807
 3802SOL    HW123042   1.482   0.740  14.888 -1.2635 -0.4445  2.6659
 3802SOL    HW223043   1.532   0.872  14.855  1.0403 -0.2786 -0.7317
 3803SOL     OW23044   3.949   1.144   2.137 -0.2532  0.1672 -0.2681
 3803SOL    HW123045   4.029   1.187   2.105 -0.3607 -1.0077 -2.1073
 3803SOL    HW223046   3.882   1.183   2.081 -0.0706  0.7807 -0.0663
 3804SOL     OW23047   3.707   0.896  13.077  0.2667 -0.0594  0.0310
 3804SOL    HW123048   3.778   0.839  13.108  0.1243  0.5917  1.5353
 3804SOL    HW223049   3.677   0.855  12.996 -1.0234  2.5132 -0.8032
 3805SOL     OW23050   3.759   4.032  16.305 -0.2139  0.4054  0.2180
 3805SOL    HW123051   3.763   3.950  16.353  0.0943 -0.1400 -0.7425
 3805SOL    HW223052   3.666   4.025  16.285 -0.5838  2.0048  1.3669
 3806SOL     OW23053   4.058   1.026  15.659  0.4701  0.1689  0.0736
 3806SOL    HW123054   4.060   1.074  15.576  0.4510  0.1494  0.0618
 3806SOL    HW223055   3.977   0.976  15.644  1.1141 -1.4040  1.7733
 3807SOL     OW23056   1.918   1.621   4.884  0.4949  0.3252  0.2589
 3807SOL    HW123057   1.905   1.534   4.921  2.5142  0.4467  1.2803
 3807SOL    HW223058   1.915   1.678   4.961 -0.0022  0.3216  0.2413
 3808SOL     OW23059   0.070   3.781   0.095  0.2671 -0.4847  0.2762
 3808SOL    HW123060   0.075   3.720   0.168  2.6839  1.4152  1.6888
 3808SOL    HW223061   0.141   3.746   0.041 -0.3638  0.6643 -1.2966
 3809SOL     OW23062   1.196   0.175   7.170  0.0167  1.0574  0.1592
 3809SOL    HW123063   1.285   0.140   7.159 -0.3985 -0.3067  1.1630
 3809SOL    HW223064   1.208   0.231   7.247 -1.1503  1.7535 -0.1632
 3810SOL     OW23065   1.096   3.173   3.475  0.2931  0.0998 -0.9029
 3810SOL    HW123066   1.085   3.268   3.476 -1.4051 -0.0857 -2.1631
 3810SOL    HW223067   1.145   3.152   3.555 -3.2550 -0.6583  1.0782
 3811SOL     OW23068   0.492   2.239  13.593 -0.3359 -0.5281 -0.3131
 3811SOL    HW123069   0.577   2.224  13.634  0.0344 -1.5244 -1.4297
 3811SOL    HW223070   0.493   2.176  13.521 -2.2548 -1.9515  0.8983
 3812SOL     OW23071   3.891   0.783   9.877  0.2067 -0.0354  0.4036
 3812SOL    HW123072   3.900   0.729   9.956  0.1286  1.5638  1.5051
 3812SOL    HW223073   3.957   0.741   9.822  0.9187  0.3529  0.9695
 3813SOL     OW23074   2.880   0.679   6.292  0.2404 -0.3747 -0.0830
 3813SOL    HW123075   2.940   0.753   6.288  1.1102 -1.0569  0.1136
 3813SOL    HW223076   2.806   0.712   6.343  1.2820  1.8265 -0.0403
 3814SOL     OW23077   2.583   2.540   2.929 -0.0328 -0.2168  0.0796
 3814SOL    HW123078   2.615   2.599   2.860  0.1277  0.8432  1.0556
 3814SOL    HW223079   2.663   2.499   2.962  0.0436 -0.9429 -1.0117
 3815SOL     OW23080   1.206   3.479   4.520  0.3485  0.3680  0.4733
 3815SOL    HW123081   1.266   3.426   4.466  1.0360  2.4009 -0.7571
 3815SOL    HW223082   1.124   3.437   4.496  0.8449 -0.1833 -0.2744
 3816SOL     OW23083   0.566   2.526   3.894  0.2501  0.6098 -0.2101
 3816SOL    HW123084   0.548   2.482   3.811 -2.3339  0.9648  0.1833
 3816SOL    HW223085   0.479   2.549   3.925  0.4629  0.4266  0.5381
 3817SOL     OW23086   0.220   0.073   2.471  0.7748  0.0280  0.3796
 3817SOL    HW123087   0.143   0.115   2.509  0.1212  0.9176 -1.9171
 3817SOL    HW223088   0.278   0.148   2.462  0.5297  0.2130  0.3539
 3818SOL     OW23089   2.808   3.034   3.371  0.1012  0.0747  0.2420
 3818SOL    HW123090   2.786   2.947   3.340 -2.0916  0.6268  0.2659
 3818SOL    HW223091   2.853   3.023   3.455 -0.0488  0.1078  0.3264
 3819SOL     OW23092   2.845   0.938   0.020  0.6088  0.1107 -0.3076
 3819SOL    HW123093   2.764   0.905  17.729  0.5384  0.9974 -0.9149
 3819SOL    HW223094   2.856   1.028  17.737  2.0141  0.7325  1.9934
 3820SOL     OW23095   4.721   2.328   5.008 -0.0382 -0.8387 -0.1244
 3820SOL    HW123096   0.004   2.248   4.959  0.4099 -1.8888  1.7805
 3820SOL    HW223097   4.728   2.389   4.935 -2.8059 -1.1938 -0.6486
 3821SOL     OW23098   4.099   2.237   6.019 -0.8450 -0.5579 -0.0915
 3821SOL    HW123099   4.011   2.233   6.057  0.7592  0.8231  3.7190
 3821SOL    HW223100   4.071   2.250   5.928 -0.3314 -0.4553 -0.2347
 3822SOL     OW23101   4.460   3.770   6.992 -0.1069 -0.2219 -0.1668
 3822SOL    HW123102   4.378   3.818   6.979 -0.4895 -0.7730  0.1902
 3822SOL    HW223103   4.447   3.689   6.941 -0.5103 -0.0162 -0.3953
 3823SOL     OW23104   0.225   1.389   5.732  0.2989 -0.0791 -0.4212
 3823SOL    HW123105   0.149   1.443   5.712  0.7165  1.5332  2.4057
 3823SOL    HW223106   0.199   1.329   5.802 -2.1482 -0.0328 -1.2964
 3824SOL     OW23107   3.418   4.097  10.816  0.3393  0.4252 -0.2448
 3824SOL    HW123108   3.429   4.085  10.721 -2.8469 -1.3588 -0.3859
 3824SOL    HW223109   3.375   4.015  10.841  1.6774 -0.3806 -0.5595
 3825SOL     OW23110   3.768   2.362   6.159  0.3415  0.0195 -0.5597
 3825SOL    HW123111   3.767   2.333   6.068 -1.0543 -2.3766  0.2229
 3825SOL    HW223112   3.785   2.456   6.152 -0.5561  0.0974 -1.8274
 3826SOL     OW23113   3.502   3.561   0.687  0.8977 -0.4762  0.3987
 3826SOL    HW123114   3.426   3.615   0.663  0.4499 -1.9400 -1.4894
 3826SOL    HW223115   3.468   3.506   0.758 -0.0416 -0.7356 -0.2374
 3827SOL     OW23116   2.075   0.929   4.947 -0.0457  0.2348 -0.8968
 3827SOL    HW123117   2.047   0.867   5.014  2.0038  0.1102 -0.1589
 3827SOL    HW223118   1.990   0.955   4.909 -0.5495 -0.3693 -0.1781
 3828SOL     OW23119   4.692   0.935   7.135  0.7823  0.2825  0.0760
 3828SOL    HW123120   0.042   0.896   7.133  0.4055 -0.5211 -0.7260
 3828SOL    HW223121   4.696   0.971   7.224 -1.3476  0.6983  0.0031
 3829SOL     OW23122   0.690   1.657   2.846  0.4880 -0.2985  0.1351
 3829SOL    HW123123   0.701   1.588   2.780  0.0305  0.5145 -0.7964
 3829SOL    HW223124   0.780   1.663   2.879  0.6871  0.2556 -0.5018
 3830SOL     OW23125   3.400   2.254  10.186 -0.1902 -0.3201 -0.1946
 3830SOL    HW123126   3.454   2.214  10.254  0.7855  1.5721  0.1313
 3830SOL    HW223127   3.333   2.186  10.196 -0.7298  0.4952  1.7963
 3831SOL     OW23128   3.062   2.412   5.499  0.0129 -0.2599  1.5474
 3831SOL    HW123129   3.091   2.499   5.525  1.3305 -0.9146  2.2653
 3831SOL    HW223130   3.074   2.373   5.585  2.2092 -0.5903  1.0876
 3832SOL     OW23131   0.819   3.643  11.727 -0.2528 -0.3022 -0.2429
 3832SOL    HW123132   0.851   3.608  11.811 -2.1115 -0.7880  0.2686
 3832SOL    HW223133   0.829   3.569  11.667 -1.8002  0.2303 -1.1321
 3833SOL     OW23134   0.892   3.218  14.712 -0.1600  0.1552  0.8297
 3833SOL    HW123135   0.844   3.139  14.737 -2.2137  0.9562 -0.5868
 3833SOL    HW223136   0.954   3.223  14.784  1.3521  1.1707 -0.5376
 3834SOL     OW23137   2.317   3.541   5.127  0.1717 -0.0186 -0.7655
 3834SOL    HW123138   2.225   3.554   5.148  0.0723 -0.2644 -1.0394
 3834SOL    HW223139   2.345   3.477   5.192 -0.6027  2.5534  2.1024
 3835SOL     OW23140   3.734   3.847  11.199 -0.0740  0.5105 -0.0896
 3835SOL    HW123141   3.657   3.823  11.147 -0.8498  0.0961  1.2753
 3835SOL    HW223142   3.701   3.820  11.284  2.4703  2.0595  1.3835
 3836SOL     OW23143   2.052   2.994   8.614 -0.1388  0.0299 -0.4329
 3836SOL    HW123144   2.041   2.975   8.521 -1.6394 -1.6558  0.1008
 3836SOL    HW223145   2.092   3.081   8.617  1.2939 -0.6272 -0.2772
 3837SOL     OW23146   3.243   0.094   7.774  0.2018  0.2589 -0.0455
 3837SOL    HW123147   3.213   0.058   7.858  2.1636  0.0930  0.5879
 3837SOL    HW223148   3.328   0.051   7.763 -0.1999 -0.3688 -0.7439
 3838SOL     OW23149   0.393   1.961  14.473 -0.1244 -0.1398  0.2061
 3838SOL    HW123150   0.354   1.885  14.515 -0.1935 -0.8300 -1.1215
 3838SOL    HW223151   0.352   1.952  14.387 -1.3946  0.0805  0.7909
 3839SOL     OW23152   3.607   0.149   4.230 -0.6088 -0.5158  0.2125
 3839SOL    HW123153   3.649   0.234   4.240 -0.8477 -0.0806 -2.4586
 3839SOL    HW223154   3.672   0.097   4.277  1.3051  0.2565 -1.5910
 3840SOL     OW23155   3.019   0.526  17.343 -0.3234 -0.1797  0.3286
 3840SOL    HW123156   3.049   0.611  17.311  2.2910 -0.5762  1.7214
 3840SOL    HW223157   3.099   0.491  17.383  0.9568  4.3576  1.6550
 3841SOL     OW23158   2.352   3.233   7.491 -0.1421  0.4717  0.5645
 3841SOL    HW123159   2.389   3.318   7.516  0.7068 -0.0847  1.1856
 3841SOL    HW223160   2.350   3.243   7.396  1.9598 -0.0574  0.4542
 3842SOL     OW23161   1.981   3.249  10.046  0.1849 -0.3124 -0.4604
 3842SOL    HW123162   1.914   3.282  10.105 -0.5973  0.5136 -1.8147
 3842SOL    HW223163   1.954   3.158  10.053 -1.4744  0.3179  1.2798
 3843SOL     OW23164   4.346   2.795  15.314 -0.0009 -0.2339  0.2664
 3843SOL    HW123165   4.273   2.739  15.340 -0.2245  0.0673  0.2820
 3843SOL    HW223166   4.304   2.879  15.298 -1.5574 -0.5453  2.7330
 3844SOL     OW23167   2.966   1.470   6.979 -0.1153  1.0589  0.2167
 3844SOL    HW123168   2.919   1.397   7.020 -0.9494  0.4955 -1.7214
 3844SOL    HW223169   3.004   1.518   7.052 -0.2100  1.3745  0.0574
 3845SOL     OW23170   4.394   0.763  10.698 -1.0263  0.4473 -0.2383
 3845SOL    HW123171   4.457   0.719  10.756 -0.2924  2.3622  0.4120
 3845SOL    HW223172   4.429   0.742  10.611 -1.6458 -1.4278 -0.0418
 3846SOL     OW23173   0.330   4.639  16.880 -0.0664  0.3017 -0.3881
 3846SOL    HW123174   0.393   4.598  16.940  1.0383  1.4962 -0.7150
 3846SOL    HW223175   0.337   4.729  16.912 -1.4005 -0.2056  1.3520
 3847SOL     OW23176   2.710   4.690   9.998  0.5832 -0.1925 -0.1650
 3847SOL    HW123177   2.640   4.672  10.059  1.8609 -1.4571  0.9187
 3847SOL    HW223178   2.795   4.666  10.034 -0.4505  1.6328  3.4181
 3848SOL     OW23179   0.083   0.911   8.718 -0.3198  0.1299 -0.2085
 3848SOL    HW123180   0.083   0.946   8.807  1.5911 -3.1105  1.0486
 3848SOL    HW223181   4.729   0.926   8.692 -0.5372 -0.1865  0.3809
 3849SOL     OW23182   3.293   3.737   1.935 -0.1175  0.4208  0.5338
 3849SOL    HW123183   3.370   3.706   1.981  0.3310  1.6840  0.6437
 3849SOL    HW223184   3.227   3.681   1.977 -0.1290  0.6566  0.8320
 3850SOL     OW23185   3.676   2.672   5.624 -0.0683  0.2739 -0.4599
 3850SOL    HW123186   3.680   2.762   5.655  0.2569 -0.1398  0.7214
 3850SOL    HW223187   3.586   2.668   5.593 -0.2761 -0.1685  0.1984
 3851SOL     OW23188   4.680   2.998   4.608 -0.4326 -0.2039  0.2401
 3851SOL    HW123189   4.624   3.073   4.627 -0.1190  0.0038  0.3489
 3851SOL    HW223190   4.727   3.041   4.536 -0.0373 -0.1880  0.5062
 3852SOL     OW23191   2.843   2.463   6.891  0.4130  0.1643  0.0497
 3852SOL    HW123192   2.784   2.524   6.846  0.1263  0.5757  0.9906
 3852SOL    HW223193   2.800   2.425   6.967  1.0904 -0.5294  0.0913
 3853SOL     OW23194   4.343   3.984   8.845  0.3915 -0.7778  0.3875
 3853SOL    HW123195   4.412   4.048   8.861  0.0732  0.5108 -3.3565
 3853SOL    HW223196   4.364   3.897   8.878 -0.0349 -0.3070  1.8998
 3854SOL     OW23197   1.722   0.164   3.676 -0.4483  0.0525 -0.6763
 3854SOL    HW123198   1.775   0.096   3.636  0.9124  2.4954 -3.0609
 3854SOL    HW223199   1.718   0.139   3.768  0.9994 -0.2524 -0.7089
 3855SOL     OW23200   0.561   2.099  10.524  0.0433  0.2585 -0.1386
 3855SOL    HW123201   0.589   2.008  10.533  2.9946  1.3608  2.1077
 3855SOL    HW223202   0.612   2.140  10.594 -1.3404 -1.6441  1.9782
 3856SOL     OW23203   2.239   3.236   1.010  0.1799 -0.1320 -0.2348
 3856SOL    HW123204   2.264   3.144   1.009 -1.9182 -0.6974 -3.1124
 3856SOL    HW223205   2.321   3.285   1.009  1.0250 -1.5466 -0.6657
 3857SOL     OW23206   4.627   3.303   4.151  0.5215  0.1229 -0.0698
 3857SOL    HW123207   4.568   3.326   4.224  0.4738 -3.5262  1.0599
 3857SOL    HW223208   4.625   3.386   4.103  1.3939 -0.1890 -0.6402
 3858SOL     OW23209   0.415   2.147   5.131  0.0430  0.6450  0.3691
 3858SOL    HW123210   0.464   2.065   5.142  0.8766  0.8553 -1.7252
 3858SOL    HW223211   0.417   2.169   5.038 -0.2619  0.1848  0.2516
 3859SOL     OW23212   0.989   4.553  15.840  0.1848 -0.6032  0.6017
 3859SOL    HW123213   1.032   4.499  15.774  1.2335  2.0559 -0.8787
 3859SOL    HW223214   1.058   4.558  15.906 -0.5199  2.6813  1.0894
 3860SOL     OW23215   4.493   0.985   5.773 -0.1670 -0.4316  0.3039
 3860SOL    HW123216   4.574   0.935   5.769 -1.2873 -2.1997 -0.3377
 3860SOL    HW223217   4.515   1.054   5.836  2.6134 -2.0086  1.0424
 3861SOL     OW23218   2.498   4.709   1.592  0.2416  0.1883 -0.1385
 3861SOL    HW123219   2.525   0.001   1.505 -0.8233 -0.6512 -0.7579
 3861SOL    HW223220   2.544   0.025   1.656 -0.7357  1.9474 -0.9137
 3862SOL     OW23221   2.786   4.415  17.070 -0.1762  0.3965 -0.1453
 3862SOL    HW123222   2.764   4.503  17.099 -1.0360  0.4358 -0.9437
 3862SOL    HW223223   2.699   4.378  17.058 -0.2010 -0.5199  2.7325
 3863SOL     OW23224   0.040   1.668  11.896  0.3192 -0.2665  0.4766
 3863SOL    HW123225   0.063   1.648  11.805 -0.5306 -0.1202  0.2329
 3863SOL    HW223226   4.688   1.696  11.878  0.5522  0.4117  0.3745
 3864SOL     OW23227   0.262   2.994   3.442  0.9790 -0.4018 -0.1648
 3864SOL    HW123228   0.349   2.996   3.403  0.7036  2.1585 -0.6546
 3864SOL    HW223229   0.214   2.933   3.386  1.6801 -0.5019 -0.6517
 3865SOL     OW23230   4.217   3.078  14.546 -0.8019 -0.1624 -0.0889
 3865SOL    HW123231   4.254   3.166  14.556 -0.2123 -0.5668  1.3345
 3865SOL    HW223232   4.272   3.034  14.481  0.2130 -1.3167  1.5298
 3866SOL     OW23233   2.854   0.623   8.850 -0.0126  0.2199 -0.0659
 3866SOL    HW123234   2.878   0.624   8.942  0.1869 -0.3427 -0.1131
 3866SOL    HW223235   2.917   0.561   8.812  0.0222  1.0058 -1.3130
 3867SOL     OW23236   4.211   0.951  10.745  0.3800  0.0119  0.7145
 3867SOL    HW123237   4.253   0.865  10.754 -0.5902 -0.3754  1.6197
 3867SOL    HW223238   4.251   0.983  10.664  3.2087 -0.8277  1.8014
 3868SOL     OW23239   2.953   1.304   6.352  0.2865 -0.3157 -0.1947
 3868SOL    HW123240   2.912   1.266   6.274 -0.5001  1.3867 -0.6135
 3868SOL    HW223241   3.006   1.231   6.382  1.5445  0.9382  0.6666
 3869SOL     OW23242   4.432   2.774   6.668 -0.0902 -0.6930  0.6198
 3869SOL    HW123243   4.486   2.737   6.738 -0.3475  1.5911  2.0277
 3869SOL    HW223244   4.346   2.739   6.692 -1.3843  0.6001 -2.2044
 3870SOL     OW23245   3.163   1.868   8.040 -0.0639 -0.3081 -0.5929
 3870SOL    HW123246   3.190   1.934   8.104  0.9733  0.2042 -1.5651
 3870SOL    HW223247   3.210   1.792   8.073 -0.2427 -0.0439  0.2725
 3871SOL     OW23248   2.558   0.918   3.806 -0.2562 -0.4052 -0.5571
 3871SOL    HW123249   2.621   0.975   3.761 -0.0377 -0.6033 -0.5025
 3871SOL    HW223250   2.523   0.984   3.866  1.4777  0.7205 -0.7886
 3872SOL     OW23251   2.718   2.992   6.597  0.1865 -0.7426 -0.0927
 3872SOL    HW123252   2.780   2.945   6.542  0.3540 -1.0517  0.3566
 3872SOL    HW223253   2.768   3.012   6.676 -0.7563  2.1259 -0.2189
 3873SOL     OW23254   2.244   2.036   7.347  0.4786  0.5672 -0.4986
 3873SOL    HW123255   2.188   2.100   7.304  0.3641  0.1394 -0.9795
 3873SOL    HW223256   2.185   2.018   7.420 -1.2206  1.4134 -1.6570
 3874SOL     OW23257   1.028   2.187   7.868  0.0154  0.4662 -0.3781
 3874SOL    HW123258   1.042   2.129   7.794 -0.5479  2.3300 -1.9451
 3874SOL    HW223259   1.097   2.162   7.930  1.9845  0.4956 -2.5693
 3875SOL     OW23260   3.889   2.000  10.016 -0.0592 -0.1302 -0.2970
 3875SOL    HW123261   3.856   2.085  10.042  1.3674  0.2678  0.2141
 3875SOL    HW223262   3.982   2.016  10.031 -0.2130 -1.5867  2.1951
 3876SOL     OW23263   2.732   3.120   9.136 -0.3157 -0.3194 -0.4750
 3876SOL    HW123264   2.704   3.041   9.089 -0.7213 -0.3120 -0.2430
 3876SOL    HW223265   2.826   3.123   9.118 -0.9199 -1.1664 -3.9056
 3877SOL     OW23266   4.350   4.675  17.307  0.0585  0.1378  0.1621
 3877SOL    HW123267   4.426   4.686  17.364 -0.5827 -1.7021  1.3572
 3877SOL    HW223268   4.336   4.581  17.314  3.1045 -0.3087  0.1259
 3878SOL     OW23269   3.079   3.260  10.644 -0.0585 -0.2116 -0.3282
 3878SOL    HW123270   3.122   3.345  10.650 -1.2735  0.4724 -1.3470
 3878SOL    HW223271   3.089   3.227  10.734 -0.1882  1.0745  0.1663
 3879SOL     OW23272   0.561   0.427   6.102 -0.3596 -0.5669  0.5001
 3879SOL    HW123273   0.649   0.437   6.138 -0.7366 -0.1749  1.2958
 3879SOL    HW223274   0.576   0.473   6.019  0.2984  1.3010  1.6561
 3880SOL     OW23275   2.150   3.383  16.440  0.0264  1.1111 -0.6889
 3880SOL    HW123276   2.197   3.322  16.383 -0.7809  1.2916 -1.5459
 3880SOL    HW223277   2.221   3.433  16.481  0.0371  0.9485 -0.5071
 3881SOL     OW23278   1.088   2.856   7.402 -0.1146  0.5324 -0.3286
 3881SOL    HW123279   1.098   2.780   7.459 -0.7494  0.3353 -0.4794
 3881SOL    HW223280   0.993   2.870   7.397 -0.0367  1.9320  2.0449
 3882SOL     OW23281   0.442   1.519   6.771  0.2669 -0.5980  0.3058
 3882SOL    HW123282   0.385   1.591   6.745  1.4917  0.4427  0.5082
 3882SOL    HW223283   0.445   1.466   6.691  1.0459  0.3049 -0.2461
 3883SOL     OW23284   0.822   3.517   3.314  0.3749  0.2911 -0.5883
 3883SOL    HW123285   0.806   3.611   3.307 -1.0335  0.2635  2.3255
 3883SOL    HW223286   0.830   3.492   3.222 -0.3443 -0.6752 -0.3837
 3884SOL     OW23287   1.456   4.104  17.348 -0.1307 -0.5711  0.9766
 3884SOL    HW123288   1.442   4.127  17.256 -0.0470 -0.6821  0.9367
 3884SOL    HW223289   1.420   4.016  17.364  1.9516 -1.8201 -1.2366
 3885SOL     OW23290   2.575   3.131  12.450 -0.0514 -0.0587 -0.1794
 3885SOL    HW123291   2.542   3.053  12.406 -0.0688 -0.3139  0.2840
 3885SOL    HW223292   2.523   3.198  12.406 -3.0214 -0.8756  2.1204
 3886SOL     OW23293   0.456   0.376   6.979  0.1490 -0.0196 -0.1305
 3886SOL    HW123294   0.462   0.426   7.061 -0.7833 -1.2831  0.7150
 3886SOL    HW223295   0.401   0.300   6.999 -0.5558  0.3659 -0.5720
 3887SOL     OW23296   1.738   4.723   2.915  0.2566 -0.3413 -0.0923
 3887SOL    HW123297   1.790   4.643   2.920  1.1122  0.2904  0.8842
 3887SOL    HW223298   1.802   0.056   2.904 -3.3391  2.9086 -0.4567
 3888SOL     OW23299   4.012   2.270   8.341 -0.0416  0.2188  0.0708
 3888SOL    HW123300   4.072   2.253   8.269  1.0123  0.8160  0.8167
 3888SOL    HW223301   3.969   2.351   8.312  1.1963  0.5842 -0.7304
 3889SOL     OW23302   1.138   2.525   8.633  0.0941 -0.2766  0.2628
 3889SOL    HW123303   1.073   2.595   8.642  1.1594  0.6276  0.9004
 3889SOL    HW223304   1.193   2.561   8.563 -0.6859  2.5106  1.0948
 3890SOL     OW23305   3.971   4.295   3.905  0.4075  0.2497 -0.7121
 3890SOL    HW123306   4.048   4.323   3.955 -0.5692  0.3059  0.7487
 3890SOL    HW223307   4.008   4.254   3.827 -0.8256 -0.8650 -0.6997
 3891SOL     OW23308   3.660   3.628   4.705 -0.0378  0.1459  0.3441
 3891SOL    HW123309   3.718   3.690   4.661 -0.5565  0.7232  0.4786
 3891SOL    HW223310   3.584   3.641   4.648  0.3809 -2.0435 -0.7395
 3892SOL     OW23311   2.397   3.828   2.487  0.6448  0.9257 -0.4926
 3892SOL    HW123312   2.463   3.760   2.500 -0.4189 -0.0835 -0.3511
 3892SOL    HW223313   2.330   3.765   2.461  0.4378  1.2118 -0.6514
 3893SOL     OW23314   4.690   1.083   7.385 -0.6793 -0.0915 -0.1446
 3893SOL    HW123315   4.696   1.085   7.480 -0.9116  0.1440 -0.1329
 3893SOL    HW223316   4.619   1.143   7.362  0.7192  0.6711 -2.4928
 3894SOL     OW23317   0.530   0.907   6.018  0.3521 -0.3262  0.6498
 3894SOL    HW123318   0.507   0.898   5.926 -0.9998  0.5421  0.9095
 3894SOL    HW223319   0.485   0.837   6.066  0.6934 -1.0716 -0.1250
 3895SOL     OW23320   0.481   0.797   7.185 -0.4321 -0.6297 -0.0734
 3895SOL    HW123321   0.513   0.708   7.199  1.5042  0.0407 -0.2366
 3895SOL    HW223322   0.507   0.814   7.094 -0.8375 -1.3737 -0.3267
 3896SOL     OW23323   2.057   2.991  14.096 -0.4227 -0.5840  0.4183
 3896SOL    HW123324   2.004   2.918  14.064 -0.0525 -1.4511  1.7927
 3896SOL    HW223325   2.097   3.010  14.011  0.1586  1.3763  1.1261
 3897SOL     OW23326   1.054   2.451   6.827 -0.2301  0.3462 -0.3312
 3897SOL    HW123327   1.142   2.487   6.815  0.3549 -0.3762  1.8317
 3897SOL    HW223328   1.012   2.495   6.753 -0.3121  0.6522 -0.1053
 3898SOL     OW23329   1.508   1.960   4.345  0.3700 -0.1661 -0.0872
 3898SOL    HW123330   1.596   1.932   4.367 -0.1829 -1.6975  0.1676
 3898SOL    HW223331   1.527   1.976   4.252  1.6872  1.7942  0.5249
 3899SOL     OW23332   3.534   2.140   7.915 -0.2846 -0.3959  0.1166
 3899SOL    HW123333   3.577   2.117   7.833  0.7729  0.1816  0.5040
 3899SOL    HW223334   3.594   2.099   7.978  2.0762  0.9790 -1.2201
 3900SOL     OW23335   1.551   0.441  10.080  0.1166 -0.5790  0.3691
 3900SOL    HW123336   1.497   0.403  10.150  2.3069 -3.1692  0.6692
 3900SOL    HW223337   1.576   0.529  10.106 -1.7512 -0.1116  0.5396
 3901SOL     OW23338   3.770   1.214   1.958  0.6443  0.0422  0.2036
 3901SOL    HW123339   3.697   1.267   1.992 -0.7247 -1.0142 -1.1242
 3901SOL    HW223340   3.784   1.250   1.871 -0.2355 -1.0208 -0.3730
 3902SOL     OW23341   1.037   3.515   1.978  0.7117 -0.1901 -0.4317
 3902SOL    HW123342   1.039   3.530   2.072  1.4497 -2.2272 -0.1354
 3902SOL    HW223343   1.095   3.585   1.947  1.1571  0.7938  2.6678
 3903SOL     OW23344   0.273   0.899   0.228 -0.1131 -0.4067 -0.0685
 3903SOL    HW123345   0.183   0.893   0.258 -0.3013 -0.9486 -0.7295
 3903SOL    HW223346   0.295   0.806   0.226 -0.5739 -0.5422  1.3893
 3904SOL     OW23347   3.237   4.092   0.670  0.2703  0.0441 -0.1406
 3904SOL    HW123348   3.174   4.093   0.742 -0.5605 -2.5612 -0.8061
 3904SOL    HW223349   3.304   4.154   0.699 -2.7499  1.8775  2.9853
 3905SOL     OW23350   1.245   0.191  13.414 -0.2687 -0.3762  0.1737
 3905SOL    HW123351   1.197   0.199  13.331  0.8577 -3.3250 -0.7530
 3905SOL    HW223352   1.317   0.251  13.396 -1.2992  0.7915 -0.0810
 3906SOL     OW23353   4.629   2.907  17.729 -0.0158 -0.1045  0.3427
 3906SOL    HW123354   4.558   2.960  17.691  1.2402  1.1487 -0.2421
 3906SOL    HW223355   4.609   2.820  17.695  1.5521 -0.1918 -0.3409
 3907SOL     OW23356   1.193   4.130  12.787 -0.2873 -0.6022  0.0841
 3907SOL    HW123357   1.158   4.103  12.703 -2.0682  3.1870 -0.4197
 3907SOL    HW223358   1.230   4.053  12.830  1.4262  0.2105  0.0698
 3908SOL     OW23359   0.276   2.172   8.599  0.0547 -0.3507 -0.7363
 3908SOL    HW123360   0.217   2.195   8.671 -0.6173 -1.4885 -0.9245
 3908SOL    HW223361   0.361   2.147   8.637 -0.8103 -1.9256  0.1525
 3909SOL     OW23362   2.569   1.663   3.821  0.9096 -0.0625 -0.2447
 3909SOL    HW123363   2.585   1.586   3.875 -0.1944 -0.2449 -0.1781
 3909SOL    HW223364   2.643   1.714   3.855  0.5245  0.6832 -0.5399
 3910SOL     OW23365   3.884   1.149   7.999  0.2018 -0.3396  0.8957
 3910SOL    HW123366   3.943   1.209   7.954  0.9200 -0.5692  1.5135
 3910SOL    HW223367   3.810   1.173   7.944 -1.5698 -2.1963  2.4441
 3911SOL     OW23368   1.349   1.521   5.583  0.8195  0.1501  0.6391
 3911SOL    HW123369   1.327   1.431   5.560  1.0527  0.6631 -1.5520
 3911SOL    HW223370   1.298   1.563   5.514  0.2836 -0.8365  0.4290
 3912SOL     OW23371   2.142   1.207  10.063  0.3228  0.2375 -0.0633
 3912SOL    HW123372   2.191   1.144  10.011 -2.6715 -1.6775 -0.5669
 3912SOL    HW223373   2.192   1.287  10.051 -1.9316  1.9077  1.5588
 3913SOL     OW23374   3.809   0.907  11.254 -0.3976 -0.1773 -0.3422
 3913SOL    HW123375   3.720   0.889  11.224 -1.3133 -0.6042  2.5471
 3913SOL    HW223376   3.823   0.825  11.301  0.3757 -0.1625 -0.5578
 3914SOL     OW23377   1.678   0.387   6.418  0.0350 -0.1305 -0.1109
 3914SOL    HW123378   1.671   0.456   6.484 -0.6649 -1.2598  1.0000
 3914SOL    HW223379   1.621   0.419   6.349  0.8276 -0.8510 -1.0991
 3915SOL     OW23380   3.527   3.923   2.734  0.3565 -0.1763  1.2823
 3915SOL    HW123381   3.441   3.906   2.696  1.7881 -2.3486 -0.9600
 3915SOL    HW223382   3.541   3.852   2.797 -2.4112  0.3994  2.5681
 3916SOL     OW23383   3.148   1.686   5.876 -0.1467 -0.1496 -0.3551
 3916SOL    HW123384   3.074   1.687   5.815 -0.7887 -1.2630  0.3812
 3916SOL    HW223385   3.221   1.685   5.816  0.7686 -1.7087  0.7809
 3917SOL     OW23386   1.868   3.254   7.627  0.1496  0.0788 -0.5143
 3917SOL    HW123387   1.785   3.246   7.580 -0.2456  4.0764 -0.5203
 3917SOL    HW223388   1.851   3.295   7.712 -0.1855  1.8526 -1.4342
 3918SOL     OW23389   2.563   4.692   4.448  0.0399  0.1386 -0.1868
 3918SOL    HW123390   2.591   4.667   4.537  1.7459  1.8199 -0.2742
 3918SOL    HW223391   2.551   0.046   4.471  2.7471  0.6446 -0.8186
 3919SOL     OW23392   4.610   0.601   5.939 -0.1425  0.3053  0.7016
 3919SOL    HW123393   4.641   0.519   5.901  0.5562  1.2459 -0.7226
 3919SOL    HW223394   4.601   0.563   6.027 -2.3358  0.0766  0.3757
 3920SOL     OW23395   2.629   0.911   5.375  0.3140  0.0787 -0.0859
 3920SOL    HW123396   2.659   0.831   5.419  2.4861  2.1712  2.2117
 3920SOL    HW223397   2.715   0.945   5.347 -0.9940  1.9905 -1.7532
 3921SOL     OW23398   3.000   0.870   1.862 -0.0132 -0.2734 -0.2231
 3921SOL    HW123399   2.922   0.859   1.809 -0.4055  1.0491  0.0730
 3921SOL    HW223400   2.964   0.890   1.949 -1.2564 -1.1964 -0.5279
 3922SOL     OW23401   1.250   2.851   7.163 -0.4201 -0.1965 -0.1733
 3922SOL    HW123402   1.200   2.912   7.109 -0.6109 -1.6574 -1.6506
 3922SOL    HW223403   1.232   2.884   7.251  1.6957  1.5352 -0.4081
 3923SOL     OW23404   0.694   0.531  15.047  0.0366  0.3440 -0.1338
 3923SOL    HW123405   0.614   0.479  15.059  1.0611 -1.4070 -0.8526
 3923SOL    HW223406   0.665   0.620  15.067  0.0573 -0.1641  2.1538
 3924SOL     OW23407   3.217   4.393   2.303  0.1895 -0.3549 -0.0449
 3924SOL    HW123408   3.290   4.370   2.246  0.1651 -0.7142  0.0655
 3924SOL    HW223409   3.225   4.326   2.371 -0.5158 -0.0016  0.3921
 3925SOL     OW23410   1.009   3.737   3.592  0.0008  0.0836  0.2585
 3925SOL    HW123411   0.946   3.760   3.660 -1.5724 -1.2562 -0.7566
 3925SOL    HW223412   1.089   3.746   3.644 -0.0810 -0.2550  0.4440
 3926SOL     OW23413   3.183   4.307   0.319 -0.7221  0.1029  0.2717
 3926SOL    HW123414   3.166   4.214   0.338  0.9025 -0.5173 -1.3428
 3926SOL    HW223415   3.260   4.291   0.264 -0.0553 -1.3444  1.6232
 3927SOL     OW23416   3.633   1.684   0.048 -0.3128 -0.2659 -0.1018
 3927SOL    HW123417   3.653   1.746   0.118  0.9657 -0.2457 -0.4866
 3927SOL    HW223418   3.686   1.708  17.720 -0.2708  0.6198  0.1983
 3928SOL     OW23419   1.781   0.440   8.611 -0.1482 -0.2219 -0.2286
 3928SOL    HW123420   1.859   0.458   8.558  0.6999 -0.2767  1.0229
 3928SOL    HW223421   1.816   0.446   8.699 -0.7110 -2.0818  0.1180
 3929SOL     OW23422   1.227   2.110   4.855  0.6008  0.0944 -0.2300
 3929SOL    HW123423   1.207   2.023   4.889 -1.3423  1.1332  1.3239
 3929SOL    HW223424   1.139   2.124   4.820  0.3022  1.1563  0.9353
 3930SOL     OW23425   1.927   3.154  13.238  0.2069 -0.0696  0.5042
 3930SOL    HW123426   1.967   3.107  13.310  2.1001  1.0264  0.1677
 3930SOL    HW223427   1.977   3.125  13.162 -1.3466  0.1981 -0.6193
 3931SOL     OW23428   0.838   1.803   2.555 -0.3839  0.3668 -0.4942
 3931SOL    HW123429   0.757   1.832   2.596  0.7008  0.0792  1.8532
 3931SOL    HW223430   0.800   1.756   2.481 -1.3260  0.8927 -0.3488
 3932SOL     OW23431   0.038   0.275  15.648 -0.1763  0.0162  0.4139
 3932SOL    HW123432   0.008   0.217  15.579 -1.1945 -2.0471  2.6165
 3932SOL    HW223433   0.058   0.357  15.602  0.1980  0.4216  1.2895
 3933SOL     OW23434   1.320   4.696  16.661  0.4309  0.2526 -0.7536
 3933SOL    HW123435   1.240   4.678  16.613  0.2356 -2.7086  0.6728
 3933SOL    HW223436   1.336   4.608  16.696  2.8276  0.4629 -1.3247
 3934SOL     OW23437   0.069   3.282   3.202 -0.4640  0.2270  0.0071
 3934SOL    HW123438   0.052   3.188   3.211  2.8897 -0.3053  0.8172
 3934SOL    HW223439   0.057   3.274   3.107 -0.1094  0.7442 -0.0827
 3935SOL     OW23440   2.621   0.244  14.839  0.2170  0.2966  0.3192
 3935SOL    HW123441   2.675   0.265  14.915 -0.0845  1.9243  0.0813
 3935SOL    HW223442   2.614   0.149  14.845 -1.5106  0.2704 -2.1281
 3936SOL     OW23443   0.229   4.252   7.347  0.4348  0.0329 -1.0198
 3936SOL    HW123444   0.184   4.295   7.274 -1.6707  2.3765  1.6950
 3936SOL    HW223445   0.160   4.193   7.375  0.6044 -1.0372 -2.8218
 3937SOL     OW23446   0.767   1.476   5.111 -0.0107  0.7217  0.0475
 3937SOL    HW123447   0.763   1.569   5.134  0.5636  1.2160 -1.7967
 3937SOL    HW223448   0.837   1.475   5.046 -1.1635  1.2787 -1.2279
 3938SOL     OW23449   0.856   1.801  14.705 -0.5702 -0.2362  0.0266
 3938SOL    HW123450   0.910   1.749  14.646  0.1572  0.6887 -0.1151
 3938SOL    HW223451   0.770   1.762  14.692  0.1526 -1.7321 -0.2282
 3939SOL     OW23452   0.991   1.132   4.517  0.2978 -0.6222  0.5886
 3939SOL    HW123453   1.026   1.057   4.565 -0.3458 -0.1403  1.7879
 3939SOL    HW223454   0.988   1.102   4.426 -1.2984  3.5619 -0.7624
 3940SOL     OW23455   3.058   2.417  16.980  0.1621  0.0087 -0.1700
 3940SOL    HW123456   3.153   2.425  16.981  0.1765 -0.1103 -0.5276
 3940SOL    HW223457   3.041   2.422  17.074 -0.4008  0.3040 -0.2862
 3941SOL     OW23458   2.044   0.437  10.034 -0.6480  0.9288  0.3814
 3941SOL    HW123459   2.105   0.509  10.048 -0.2193  0.6094  0.1659
 3941SOL    HW223460   2.098   0.371  10.077  0.1550  0.6475 -1.0306
 3942SOL     OW23461   3.822   1.033  15.864 -0.0404 -0.0913  0.1086
 3942SOL    HW123462   3.859   0.990  15.787  1.2065  0.4613  0.3931
 3942SOL    HW223463   3.827   1.125  15.840  1.2667 -0.3019 -0.4249
 3943SOL     OW23464   1.351   2.314   5.399  0.2757  0.1162  0.6082
 3943SOL    HW123465   1.388   2.250   5.459  0.6415  0.1545  0.4269
 3943SOL    HW223466   1.333   2.390   5.454 -3.6508 -0.8619  0.6833
 3944SOL     OW23467   0.134   0.089   6.129 -0.1015  0.6122  0.1526
 3944SOL    HW123468   0.229   0.083   6.122 -0.0297 -1.4364  2.9128
 3944SOL    HW223469   0.115   0.154   6.196  0.8083  0.7040  0.3203
 3945SOL     OW23470   1.658   2.551   1.489  0.1133 -0.7732 -0.6433
 3945SOL    HW123471   1.667   2.529   1.396 -0.7438  0.7021 -1.0789
 3945SOL    HW223472   1.675   2.645   1.480  2.1962 -1.1969 -1.1185
 3946SOL     OW23473   1.193   1.734   1.243 -0.5459  0.3829 -0.0334
 3946SOL    HW123474   1.129   1.695   1.183 -1.8994 -1.6326  2.7092
 3946SOL    HW223475   1.223   1.796   1.176 -1.4429  1.7182  0.8224
 3947SOL     OW23476   2.878   3.517  13.969 -0.2081  0.0711 -0.2955
 3947SOL    HW123477   2.959   3.545  14.010 -0.1900 -2.6070  1.4321
 3947SOL    HW223478   2.812   3.576  14.007 -2.8785 -4.1027  1.5295
 3948SOL     OW23479   3.780   1.808  17.598 -0.1898 -0.2495 -0.0922
 3948SOL    HW123480   3.864   1.854  17.599 -0.2360 -0.1771  1.0205
 3948SOL    HW223481   3.715   1.868  17.561  1.2155  0.3941 -1.4828
 3949SOL     OW23482   1.381   3.295   8.295  0.0647 -0.5429 -0.1026
 3949SOL    HW123483   1.363   3.388   8.283 -0.1039 -0.7686 -1.6167
 3949SOL    HW223484   1.299   3.247   8.301 -0.4999  0.5650  0.8843
 3950SOL     OW23485   1.085   4.540   7.224  0.3661 -0.7031 -0.9235
 3950SOL    HW123486   1.012   4.601   7.240  1.8334  0.8628 -0.2470
 3950SOL    HW223487   1.057   4.459   7.266 -0.1991  0.5053  1.0614
 3951SOL     OW23488   0.210   1.300   9.308  0.1556  0.4450  0.8113
 3951SOL    HW123489   0.193   1.266   9.396  2.5370 -2.5164  0.1246
 3951SOL    HW223490   0.305   1.302   9.313  0.2444 -1.0815 -0.1672
 3952SOL     OW23491   0.802   0.530  10.784 -0.1529 -0.4571  0.5800
 3952SOL    HW123492   0.875   0.509  10.843  1.1027  0.5724 -0.5960
 3952SOL    HW223493   0.728   0.477  10.814  0.0589 -1.2171 -0.2405
 3953SOL     OW23494   1.548   1.826   3.332 -0.3308 -0.1080  0.3011
 3953SOL    HW123495   1.548   1.834   3.237  0.8873 -1.5726  0.1759
 3953SOL    HW223496   1.454   1.816   3.351 -0.2978  0.4368  0.7544
 3954SOL     OW23497   0.392   2.264  16.435  0.1114 -0.1086 -0.0895
 3954SOL    HW123498   0.349   2.179  16.426  1.2030 -0.7761  1.1101
 3954SOL    HW223499   0.353   2.309  16.359 -1.6728 -1.3336  0.1024
 3955SOL     OW23500   4.551   1.110   2.175  0.0549 -0.0475 -0.0646
 3955SOL    HW123501   4.547   1.079   2.266  2.3621 -0.6734 -0.1922
 3955SOL    HW223502   4.465   1.093   2.137 -0.7923  0.8648  1.4579
 3956SOL     OW23503   0.644   3.464   9.115  0.8869 -0.2823  0.0200
 3956SOL    HW123504   0.735   3.453   9.085 -0.6288  1.8078 -5.2044
 3956SOL    HW223505   0.660   3.498   9.203 -0.8777  2.1741 -0.6168
 3957SOL     OW23506   2.290   2.581  14.870 -0.3635  0.3663 -0.7495
 3957SOL    HW123507   2.339   2.537  14.940 -3.5100  0.2889  1.4174
 3957SOL    HW223508   2.217   2.521  14.853 -0.3279 -0.1784  1.0126
 3958SOL     OW23509   3.841   1.683   1.795  0.1337  0.1344  0.5371
 3958SOL    HW123510   3.756   1.653   1.827  0.0074 -0.6361 -0.5070
 3958SOL    HW223511   3.898   1.634   1.855 -0.8554  0.9040  2.0873
 3959SOL     OW23512   0.119   0.539  14.138  0.1593  0.0055 -0.7013
 3959SOL    HW123513   0.029   0.567  14.121  0.6212  0.7867 -1.9023
 3959SOL    HW223514   0.093   0.450  14.161 -1.6901  0.4728 -0.9831
 3960SOL     OW23515   2.174   1.485   5.626 -0.1329 -0.1110 -0.0365
 3960SOL    HW123516   2.252   1.464   5.574 -1.2016 -0.6497 -1.4377
 3960SOL    HW223517   2.203   1.488   5.717 -2.1913 -1.6287  0.6403
 3961SOL     OW23518   1.164   4.517   3.344 -0.2096  0.2614 -0.6408
 3961SOL    HW123519   1.206   4.433   3.360 -1.0939 -0.0901 -0.1781
 3961SOL    HW223520   1.091   4.500   3.284  0.1914 -1.5069 -0.6381
 3962SOL     OW23521   2.246   3.148   9.985  0.3149 -0.3814 -0.1560
 3962SOL    HW123522   2.163   3.177  10.022 -0.1547 -2.0021  0.0978
 3962SOL    HW223523   2.302   3.214  10.025 -1.2716 -0.1771  1.7524
 3963SOL     OW23524   0.403   3.506  17.628  0.0708  0.2479 -0.3460
 3963SOL    HW123525   0.324   3.481  17.675  0.9242  0.6306  1.2792
 3963SOL    HW223526   0.381   3.486  17.537  0.0425  0.9044 -0.4848
 3964SOL     OW23527   0.498   1.478   7.273  0.5897 -0.1019 -0.0328
 3964SOL    HW123528   0.453   1.460   7.190  3.5578 -1.0229 -1.4275
 3964SOL    HW223529   0.533   1.563   7.249  0.2100 -0.4763 -1.8903
 3965SOL     OW23530   1.669   0.849   4.236  0.5835  0.1321 -0.3083
 3965SOL    HW123531   1.634   0.843   4.147 -0.1100 -0.5793  0.0115
 3965SOL    HW223532   1.760   0.826   4.213  0.2436 -0.6311 -0.9055
 3966SOL     OW23533   1.741   3.009   4.290  0.1013 -0.0926  0.4003
 3966SOL    HW123534   1.669   3.044   4.343 -2.1269 -1.2811 -1.8331
 3966SOL    HW223535   1.813   3.041   4.344 -0.3427  0.7590  0.4812
 3967SOL     OW23536   3.867   0.044  14.668 -0.4475  0.0845  1.1098
 3967SOL    HW123537   3.856   4.686  14.673  0.2607 -0.0782 -0.5230
 3967SOL    HW223538   3.782   0.070  14.703  0.0254 -0.9119  3.0067
 3968SOL     OW23539   1.962   1.652   8.231 -0.6132  0.2343  0.1715
 3968SOL    HW123540   1.874   1.663   8.195 -0.6178  1.2716  0.4845
 3968SOL    HW223541   2.011   1.636   8.151 -0.4329  2.0518 -0.0903
 3969SOL     OW23542   4.430   3.331   8.524 -0.5476 -0.3488 -0.0341
 3969SOL    HW123543   4.482   3.411   8.536  1.3855 -1.6263  0.1475
 3969SOL    HW223544   4.367   3.354   8.456  1.3992  1.4574 -1.2365
 3970SOL     OW23545   3.668   0.613   4.462  0.1030 -0.2303 -0.7172
 3970SOL    HW123546   3.731   0.544   4.482  2.6111  2.0171 -0.9099
 3970SOL    HW223547   3.719   0.694   4.463 -0.5432  0.1832 -0.9729
 3971SOL     OW23548   2.506   0.326   5.106  0.0607 -0.3645 -0.3637
 3971SOL    HW123549   2.591   0.368   5.092 -0.1338  0.5356  1.1098
 3971SOL    HW223550   2.486   0.298   5.017  0.7969  1.4908 -1.1105
 3972SOL     OW23551   0.180   3.747   4.823 -0.4152  0.8373 -0.4146
 3972SOL    HW123552   0.192   3.701   4.906 -1.0453 -1.2046 -1.4801
 3972SOL    HW223553   0.089   3.776   4.829 -1.0894 -1.3648 -0.2019
 3973SOL     OW23554   3.231   3.367   4.037 -0.2628 -0.0693 -0.1476
 3973SOL    HW123555   3.221   3.461   4.022  0.4436 -0.1056 -0.8583
 3973SOL    HW223556   3.139   3.342   4.047  0.1751 -1.3580  0.5003
 3974SOL     OW23557   1.197   2.878  10.184 -0.0450  0.1554  0.1266
 3974SOL    HW123558   1.279   2.832  10.199  0.9830  1.3178 -1.9383
 3974SOL    HW223559   1.149   2.809  10.138 -2.1392  0.4747  1.8480
 3975SOL     OW23560   4.248   0.660   6.227  0.2728  0.3854 -0.2809
 3975SOL    HW123561   4.222   0.607   6.152  0.5809 -0.8616  0.5099
 3975SOL    HW223562   4.338   0.629   6.239 -0.0466 -0.1183  0.8080
 3976SOL     OW23563   0.457   4.525   7.188 -0.0140  0.4852  0.1846
 3976SOL    HW123564   0.365   4.498   7.184  0.1534 -0.0415 -0.2223
 3976SOL    HW223565   0.457   4.619   7.206  0.1139  0.2477  1.4207
 3977SOL     OW23566   1.283   2.860   3.603 -0.5621 -0.0359 -0.0421
 3977SOL    HW123567   1.281   2.847   3.698 -1.6147  2.1192  0.2252
 3977SOL    HW223568   1.189   2.869   3.588 -0.8251  1.3322  2.4071
 3978SOL     OW23569   2.020   1.743   3.257 -0.1703  0.4980 -0.1204
 3978SOL    HW123570   1.962   1.784   3.320 -1.6787  0.2786 -1.3674
 3978SOL    HW223571   2.037   1.663   3.307  0.4929  0.9099  0.3038
 3979SOL     OW23572   0.217   2.782   5.750 -0.1641  0.5401 -0.1744
 3979SOL    HW123573   0.279   2.842   5.710 -0.8412  0.3842 -1.4464
 3979SOL    HW223574   0.161   2.830   5.811 -0.5393 -1.3737  0.9844
 3980SOL     OW23575   2.297   0.900   6.050  0.2737  0.2934 -0.2278
 3980SOL    HW123576   2.282   0.914   5.957 -0.8568 -3.0631 -0.5438
 3980SOL    HW223577   2.216   0.863   6.085  1.2981  0.3819  2.2909
 3981SOL     OW23578   1.857   1.336   4.992  0.8632 -0.1661  0.2937
 3981SOL    HW123579   1.779   1.379   5.029  0.2702  0.5533 -1.8186
 3981SOL    HW223580   1.877   1.298   5.078  1.5397  0.1902  0.2869
 3982SOL     OW23581   0.616   0.627  16.005  0.0420  0.0892  0.2038
 3982SOL    HW123582   0.564   0.677  15.942 -1.0331 -0.0913  0.9591
 3982SOL    HW223583   0.631   0.699  16.067  2.7070  1.2142 -1.7142
 3983SOL     OW23584   3.487   0.046  15.317 -0.4315  0.1330 -0.0302
 3983SOL    HW123585   3.499   0.019  15.226  2.6036  1.8621 -0.1501
 3983SOL    HW223586   3.395   0.023  15.327 -1.1424  2.2859 -1.6151
 3984SOL     OW23587   3.423   2.800   8.562 -0.1392 -0.3927  0.7013
 3984SOL    HW123588   3.450   2.772   8.475 -0.6259  0.4825  0.2641
 3984SOL    HW223589   3.428   2.896   8.562  0.0134 -0.4068 -0.4152
 3985SOL     OW23590   1.543   4.287  15.582  0.4397  0.0703 -0.5394
 3985SOL    HW123591   1.602   4.271  15.508  0.0815 -0.4327 -0.7129
 3985SOL    HW223592   1.511   4.200  15.605 -0.9781  0.9922  0.9281
 3986SOL     OW23593   2.974   0.745   9.585  0.2477  0.5342 -0.0829
 3986SOL    HW123594   3.002   0.718   9.673  2.5471 -0.4372 -1.1182
 3986SOL    HW223595   2.957   0.658   9.548 -4.1261  0.6018  1.7488
 3987SOL     OW23596   4.174   2.101   0.559 -0.1942 -0.7182 -0.1436
 3987SOL    HW123597   4.239   2.140   0.501 -0.8458  0.4538 -0.0807
 3987SOL    HW223598   4.088   2.131   0.530  0.5156  1.5943  0.2019
 3988SOL     OW23599   4.244   3.331   5.345  1.2756 -0.3318 -0.4181
 3988SOL    HW123600   4.336   3.321   5.370  1.4943  1.7672 -0.4195
 3988SOL    HW223601   4.206   3.335   5.432  0.0787  1.9243 -1.0396
 3989SOL     OW23602   0.679   0.062  11.595  0.3031 -0.6192  0.6317
 3989SOL    HW123603   0.607   0.108  11.637  2.1715  1.4892  1.5380
 3989SOL    HW223604   0.748   0.129  11.591  0.3920 -0.7562 -0.1534
 3990SOL     OW23605   2.463   1.532  12.938  0.7566  0.4129 -0.3439
 3990SOL    HW123606   2.461   1.445  12.898 -0.3740 -0.2031  1.0634
 3990SOL    HW223607   2.382   1.540  12.988 -0.5072  0.4474 -2.4350
 3991SOL     OW23608   2.886   3.374   7.199  0.2951  1.0414  0.0958
 3991SOL    HW123609   2.956   3.313   7.222 -0.3571 -0.3211 -1.5715
 3991SOL    HW223610   2.807   3.323   7.214  0.9003  0.1078  0.1452
 3992SOL     OW23611   3.495   0.117  15.867  0.6715 -0.7569 -0.0159
 3992SOL    HW123612   3.463   0.082  15.783 -2.3757 -3.2470  2.2097
 3992SOL    HW223613   3.582   0.080  15.851  0.5443 -1.0228 -0.0945
 3993SOL     OW23614   3.612   1.375   9.394  0.2835  0.0895 -0.4201
 3993SOL    HW123615   3.554   1.413   9.460  0.3997 -1.2124  0.4319
 3993SOL    HW223616   3.566   1.296   9.366 -0.5552 -0.1231  1.5626
 3994SOL     OW23617   2.395   0.877  11.491 -0.0790 -0.4384 -0.0841
 3994SOL    HW123618   2.340   0.955  11.483  0.0353 -0.4911 -1.3705
 3994SOL    HW223619   2.430   0.867  11.402  1.2453  2.3540  0.1169
 3995SOL     OW23620   4.040   2.411  12.586 -0.0460  0.7086 -0.2792
 3995SOL    HW123621   4.042   2.504  12.608 -1.4594  0.4402  1.0368
 3995SOL    HW223622   4.068   2.425  12.496  0.3211  1.2479 -0.0849
 3996SOL     OW23623   1.911   1.320   8.579 -0.4157  0.3391 -0.4197
 3996SOL    HW123624   1.987   1.360   8.537 -0.0740 -0.3200 -0.4434
 3996SOL    HW223625   1.836   1.338   8.523  0.0530  0.0195 -1.1564
 3997SOL     OW23626   3.762   4.035  11.799 -0.3231 -0.4339 -0.0004
 3997SOL    HW123627   3.762   4.126  11.826 -3.2149  0.2252 -2.2181
 3997SOL    HW223628   3.831   4.001  11.856 -0.8350 -1.6917 -0.1184
 3998SOL     OW23629   0.251   2.442   8.207 -0.3290 -0.4570  0.0986
 3998SOL    HW123630   0.303   2.369   8.174 -1.0100 -0.8786 -0.0426
 3998SOL    HW223631   0.211   2.404   8.285  0.8271 -1.8527  0.0112
 3999SOL     OW23632   1.014   4.102   8.130  0.1886 -1.0637 -0.3028
 3999SOL    HW123633   1.028   4.196   8.129  1.5009 -1.2520  0.5574
 3999SOL    HW223634   1.067   4.077   8.205  0.7779  0.2538 -0.2851
 4000SOL     OW23635   3.985   0.408   9.951 -0.0948 -0.2836 -0.2124
 4000SOL    HW123636   4.080   0.422   9.955 -0.4229  1.8647  0.6099
 4000SOL    HW223637   3.983   0.320   9.987  0.8672 -0.9380 -1.7576
 4001SOL     OW23638   1.065   4.226   2.515 -0.8971 -0.7028  0.2913
 4001SOL    HW123639   1.147   4.264   2.484 -1.0371 -1.2021 -0.6802
 4001SOL    HW223640   1.082   4.134   2.495  1.4031 -0.1657 -0.2236
 4002SOL     OW23641   2.721   0.170  15.518  0.1418  0.0967 -0.5150
 4002SOL    HW123642   2.715   0.130  15.605  1.0041  1.0771 -0.0200
 4002SOL    HW223643   2.735   0.097  15.457  1.6954  1.8233 -2.1998
 4003SOL     OW23644   2.616   0.511   8.083 -0.3815  0.3961 -0.3169
 4003SOL    HW123645   2.560   0.563   8.142  1.9354 -0.4844  2.6700
 4003SOL    HW223646   2.630   0.574   8.013 -1.0040  0.2322 -0.5876
 4004SOL     OW23647   4.321   1.408   2.904  0.6180  0.8576  0.1413
 4004SOL    HW123648   4.374   1.348   2.956 -0.9213 -0.7987 -0.2385
 4004SOL    HW223649   4.252   1.426   2.968 -0.2759  1.4257 -0.9752
 4005SOL     OW23650   0.671   0.898  13.181 -0.0178  0.0208 -0.0149
 4005SOL    HW123651   0.750   0.948  13.203  0.8226 -0.9477 -0.8462
 4005SOL    HW223652   0.664   0.825  13.242  0.7477 -0.4017 -0.4367
 4006SOL     OW23653   2.498   1.697   7.464  0.9473  0.1899 -0.7300
 4006SOL    HW123654   2.519   1.789   7.449  0.8909  0.3516  0.2111
 4006SOL    HW223655   2.528   1.668   7.377  1.0740 -2.0697  0.0600
 4007SOL     OW23656   2.888   2.010  15.042  0.2345  0.1568 -0.1254
 4007SOL    HW123657   2.797   2.000  15.070  0.8510  0.4459  1.9575
 4007SOL    HW223658   2.884   1.946  14.970  0.0601 -1.8763  1.6665
 4008SOL     OW23659   0.537   3.751   9.419  0.6680 -0.1792 -0.0982
 4008SOL    HW123660   0.590   3.671   9.417  0.1745 -0.4809 -0.9141
 4008SOL    HW223661   0.552   3.775   9.511 -0.2130 -0.4742  0.1178
 4009SOL     OW23662   4.004   0.026   1.521 -0.4035  0.2205  0.2134
 4009SOL    HW123663   3.947   0.102   1.520 -0.2119  0.3573 -0.4222
 4009SOL    HW223664   4.092   0.054   1.547 -0.0595 -0.5782 -0.0672
 4010SOL     OW23665   1.314   1.819   6.716 -0.4452 -0.4689  0.4200
 4010SOL    HW123666   1.318   1.900   6.767  2.9498  0.0572 -0.6487
 4010SOL    HW223667   1.406   1.795   6.732 -0.1026  1.4418  1.2732
 4011SOL     OW23668   2.313   3.719   4.226  0.2764 -0.2467 -0.3961
 4011SOL    HW123669   2.387   3.755   4.274 -0.7340  0.4846  0.6051
 4011SOL    HW223670   2.348   3.635   4.195 -0.5455 -0.7015 -0.0940
 4012SOL     OW23671   3.793   2.053  17.339  0.0570 -0.0607 -0.3253
 4012SOL    HW123672   3.757   2.142  17.340  2.0835  0.7481  0.3843
 4012SOL    HW223673   3.710   2.012  17.314  0.6658 -1.6247  0.2932
 4013SOL     OW23674   2.832   3.572   3.071  0.3215  0.4693  0.3404
 4013SOL    HW123675   2.911   3.551   3.020 -0.2051  1.3094 -0.8316
 4013SOL    HW223676   2.865   3.556   3.160 -0.4783 -0.5047  0.4618
 4014SOL     OW23677   2.445   3.000   7.288 -0.1943 -0.1787  0.0289
 4014SOL    HW123678   2.470   2.946   7.364 -2.5564 -2.5254 -0.8627
 4014SOL    HW223679   2.523   2.986   7.235 -0.9237  0.7211 -1.2754
 4015SOL     OW23680   3.984   1.761   0.615  0.4161 -0.3871  0.2940
 4015SOL    HW123681   3.940   1.690   0.568 -0.8892  0.5036  0.1797
 4015SOL    HW223682   3.913   1.804   0.661 -0.3305  0.1717 -1.3700
 4016SOL     OW23683   0.394   2.808   6.484  0.3530  0.1802  0.2248
 4016SOL    HW123684   0.409   2.715   6.466  3.5396  0.9449 -1.1691
 4016SOL    HW223685   0.354   2.826   6.400 -1.6823 -1.9806  0.7308
 4017SOL     OW23686   1.226   3.854   1.975  0.3683  0.0640 -0.3656
 4017SOL    HW123687   1.312   3.894   1.961  0.3391  0.1788 -0.2116
 4017SOL    HW223688   1.195   3.916   2.041  2.3559  0.6463  0.0128
 4018SOL     OW23689   3.524   0.916   4.688 -0.6053  0.3122 -0.1272
 4018SOL    HW123690   3.533   0.972   4.765  0.5801  1.1354 -0.8488
 4018SOL    HW223691   3.587   0.846   4.705 -0.1158  0.5256 -1.0045
 4019SOL     OW23692   0.585   4.700   4.764 -0.3034 -0.3938  0.3573
 4019SOL    HW123693   0.626   0.017   4.697 -1.3172  1.5272  1.2913
 4019SOL    HW223694   0.542   4.629   4.716 -1.4697  0.5297  0.0160
 4020SOL     OW23695   2.862   4.446   6.776 -0.7351  0.6331  0.2218
 4020SOL    HW123696   2.859   4.539   6.754  0.2031  0.9713  1.4809
 4020SOL    HW223697   2.929   4.439   6.845 -1.3289 -0.6829  0.6756
 4021SOL     OW23698   0.788   0.375  13.444  0.3751 -0.2881 -0.9656
 4021SOL    HW123699   0.838   0.359  13.364  0.5412 -0.8305 -0.7533
 4021SOL    HW223700   0.847   0.341  13.511  0.8097 -1.1225 -1.7734
 4022SOL     OW23701   0.524   0.152   2.193 -0.0479 -0.8576 -0.0046
 4022SOL    HW123702   0.516   0.220   2.126  0.7434  0.2682  1.0529
 4022SOL    HW223703   0.469   0.079   2.165  0.5106 -1.6795  1.0272
 4023SOL     OW23704   0.120   1.448  13.465  0.0089  0.4692 -0.3202
 4023SOL    HW123705   0.107   1.497  13.384  1.7953 -1.4418 -1.7826
 4023SOL    HW223706   0.122   1.519  13.529 -2.1151  1.8774 -1.8271
 4024SOL     OW23707   3.773   0.082  17.257  0.3313 -0.4199  0.2855
 4024SOL    HW123708   3.703   0.058  17.196  1.1573  2.3851 -1.7399
 4024SOL    HW223709   3.812   4.734  17.272 -0.5182 -0.6806  1.0663
 4025SOL     OW23710   4.195   2.205   1.826  0.7752 -0.0907  0.5055
 4025SOL    HW123711   4.135   2.273   1.856  0.0996 -0.9437  1.0931
 4025SOL    HW223712   4.278   2.241   1.856  0.3416 -0.4136  2.0839
 4026SOL     OW23713   4.422   0.279   0.569 -0.6003  0.1823  0.0224
 4026SOL    HW123714   4.516   0.266   0.577 -0.5306 -0.5539 -1.9437
 4026SOL    HW223715   4.403   0.357   0.621 -1.4975  1.7069 -2.5625
 4027SOL     OW23716   2.949   3.865   4.307 -0.1589  0.2757  0.3595
 4027SOL    HW123717   3.004   3.786   4.301  0.4337  0.5979  1.5403
 4027SOL    HW223718   2.954   3.889   4.400  0.1553  1.4558  0.0367
 4028SOL     OW23719   1.252   3.693   5.143  0.2712  0.1091 -0.4526
 4028SOL    HW123720   1.305   3.746   5.083  0.2205  2.3164  1.4672
 4028SOL    HW223721   1.236   3.746   5.220  2.8224 -2.1563  1.6657
 4029SOL     OW23722   4.038   2.614   6.304 -0.2993  0.2353 -0.6402
 4029SOL    HW123723   3.993   2.695   6.327 -0.6063 -0.4242  1.1153
 4029SOL    HW223724   4.037   2.573   6.391  4.3153 -0.5170 -0.9264
 4030SOL     OW23725   2.460   1.634   8.364 -0.5033 -0.3013  0.0092
 4030SOL    HW123726   2.388   1.692   8.390  0.9120  1.7611 -0.6577
 4030SOL    HW223727   2.527   1.695   8.334 -0.1888 -1.4396 -1.5467
 4031SOL     OW23728   0.723   2.422   6.947  0.8052 -0.2689 -0.1974
 4031SOL    HW123729   0.797   2.467   6.905 -1.2430  2.0722 -1.3211
 4031SOL    HW223730   0.718   2.468   7.031  0.8434 -0.5451 -0.0453
 4032SOL     OW23731   4.256   0.744   1.654 -0.5546  0.2817 -0.4365
 4032SOL    HW123732   4.272   0.768   1.746 -0.9906  1.0503 -0.5617
 4032SOL    HW223733   4.165   0.717   1.640  0.0256  0.4424 -4.4413
 4033SOL     OW23734   1.248   0.203   0.816 -0.8922 -0.4366 -0.5114
 4033SOL    HW123735   1.190   0.267   0.857 -1.8755 -0.7176 -1.4636
 4033SOL    HW223736   1.265   0.257   0.739  0.5834 -0.1047  0.0482
 4034SOL     OW23737   0.927   0.740   2.830 -0.6197 -0.4240  0.2473
 4034SOL    HW123738   0.982   0.808   2.869 -2.0634  0.6327  0.4471
 4034SOL    HW223739   0.876   0.721   2.909  0.2423  1.4756  1.2746
 4035SOL     OW23740   1.857   2.825   9.019  0.0777  0.0328  0.5956
 4035SOL    HW123741   1.797   2.863   9.084 -3.3496 -3.0429 -0.7540
 4035SOL    HW223742   1.896   2.904   8.980 -0.6172  0.1234  0.0790
 4036SOL     OW23743   3.230   0.694   5.321  0.1559 -0.0624  0.0184
 4036SOL    HW123744   3.281   0.662   5.396  1.0435  1.8399  0.2387
 4036SOL    HW223745   3.209   0.783   5.350  0.5166 -0.2918  0.9779
 4037SOL     OW23746   3.833   4.064   7.783  0.5447  0.4883  0.4142
 4037SOL    HW123747   3.784   4.146   7.782  0.7242  0.5716 -2.1992
 4037SOL    HW223748   3.838   4.041   7.876  2.0672 -0.9425 -0.0194
 4038SOL     OW23749   3.405   2.761   0.940 -0.4058  0.6419 -0.1642
 4038SOL    HW123750   3.415   2.835   0.999 -1.4574 -0.1814  1.0142
 4038SOL    HW223751   3.492   2.764   0.899 -0.7040 -2.2320 -1.0294
 4039SOL     OW23752   2.015   2.942  10.529  0.0097 -0.5862 -0.1465
 4039SOL    HW123753   2.070   2.992  10.589 -1.8333  0.0799  1.0142
 4039SOL    HW223754   1.932   2.971  10.568  0.8498 -1.9532  2.6664
 4040SOL     OW23755   3.040   3.924   4.876  0.0616 -0.2979  0.1241
 4040SOL    HW123756   3.119   3.913   4.929 -0.2884 -0.7183  0.5731
 4040SOL    HW223757   3.008   4.009   4.907 -4.1872 -2.9352  3.1325
 4041SOL     OW23758   2.302   2.899  11.025 -0.4950  0.5829 -0.0394
 4041SOL    HW123759   2.360   2.969  11.055 -2.0227  0.6561  2.7030
 4041SOL    HW223760   2.363   2.826  11.035  0.5702  1.4728 -0.1254
 4042SOL     OW23761   3.691   2.754  10.695  0.0347 -0.5398 -0.1031
 4042SOL    HW123762   3.664   2.670  10.659 -0.8475 -0.8673  1.3602
 4042SOL    HW223763   3.786   2.747  10.683 -0.1034  0.2416 -1.6308
 4043SOL     OW23764   4.420   1.216   3.055 -0.3753 -0.4930 -0.3014
 4043SOL    HW123765   4.419   1.134   3.005  1.8975 -1.4793  1.2465
 4043SOL    HW223766   4.373   1.182   3.131 -2.1342 -0.6983 -1.4983
 4044SOL     OW23767   4.084   4.200   4.894 -0.6780 -0.3209  0.1399
 4044SOL    HW123768   4.147   4.273   4.890  0.0589 -0.7898  2.9343
 4044SOL    HW223769   4.128   4.138   4.953 -0.8820  0.6158  1.2883
 4045SOL     OW23770   1.284   3.614   0.634  0.2746  0.1594 -0.4529
 4045SOL    HW123771   1.258   3.688   0.689 -2.0786 -0.4879 -0.7069
 4045SOL    HW223772   1.364   3.587   0.680 -0.6050 -2.6936 -0.5944
 4046SOL     OW23773   3.120   4.600   8.198 -0.3709  1.2016 -0.1790
 4046SOL    HW123774   3.039   4.651   8.189  0.2481  2.3175  0.6433
 4046SOL    HW223775   3.081   4.518   8.230  0.9965  0.8030  0.4344
 4047SOL     OW23776   4.001   1.248   0.084 -0.1099 -0.1324 -0.6847
 4047SOL    HW123777   4.062   1.205   0.144 -0.1460  0.2534 -0.3721
 4047SOL    HW223778   3.936   1.179   0.070 -0.4349 -0.1547  0.9615
 4048SOL     OW23779   1.709   2.174  10.509  0.1743 -0.1020  0.3382
 4048SOL    HW123780   1.733   2.083  10.495 -0.3256 -0.2171  0.2531
 4048SOL    HW223781   1.768   2.222  10.450  0.2232 -1.2423 -0.5407
 4049SOL     OW23782   4.705   1.554   3.836  0.5838 -0.9841  0.3738
 4049SOL    HW123783   0.008   1.467   3.842 -1.1156 -1.6074  2.4154
 4049SOL    HW223784   4.623   1.535   3.792  0.4161 -1.1522  0.7619
 4050SOL     OW23785   2.209   3.583   8.089 -0.2356 -0.3639 -0.4380
 4050SOL    HW123786   2.175   3.652   8.145 -1.2980 -1.4284  0.2303
 4050SOL    HW223787   2.272   3.546   8.151 -1.0828  1.3312  1.4238
 4051SOL     OW23788   3.822   2.600   2.528  0.1068 -0.1170 -0.1988
 4051SOL    HW123789   3.907   2.606   2.572  0.7546  0.5202 -1.5301
 4051SOL    HW223790   3.775   2.567   2.605 -1.7979  0.0410 -1.3067
 4052SOL     OW23791   0.453   2.060   2.584 -0.6650  0.2586 -0.6784
 4052SOL    HW123792   0.375   2.042   2.532 -1.2181  0.1896  0.1757
 4052SOL    HW223793   0.487   1.973   2.608  2.4447  2.1998  2.0207
 4053SOL     OW23794   3.102   4.596   2.091 -0.0725 -0.0514  0.6639
 4053SOL    HW123795   3.083   4.541   2.167  3.1728  1.7768  2.7790
 4053SOL    HW223796   3.193   4.616   2.110  0.7546 -0.7664 -2.4648
 4054SOL     OW23797   3.353   0.159  12.442  0.4067 -0.4382 -0.0794
 4054SOL    HW123798   3.356   0.242  12.396 -2.0648 -0.1324  0.3049
 4054SOL    HW223799   3.418   0.107  12.394 -0.1604  0.3793 -1.7258
 4055SOL     OW23800   0.195   2.001   9.783  0.8713 -0.3410  0.0077
 4055SOL    HW123801   0.140   2.070   9.748 -1.3276 -1.4294  1.3595
 4055SOL    HW223802   0.174   1.928   9.725 -2.7660 -1.6049  2.9322
 4056SOL     OW23803   4.123   2.389  15.837  0.0706 -0.0617 -0.0308
 4056SOL    HW123804   4.205   2.350  15.864 -1.0759 -1.8827  0.7757
 4056SOL    HW223805   4.100   2.324  15.771  1.4823  0.8782 -1.4376
 4057SOL     OW23806   3.201   4.630   0.042  0.0622 -0.4647  0.8647
 4057SOL    HW123807   3.133   4.575   0.080 -0.3136  0.8733  2.1112
 4057SOL    HW223808   3.241   4.664   0.123  0.4599  0.0083  0.4733
 4058SOL     OW23809   4.190   4.211  16.519  0.3856  0.6323  0.1126
 4058SOL    HW123810   4.232   4.282  16.471  1.1743  0.9894  1.3174
 4058SOL    HW223811   4.169   4.265  16.595 -2.2677 -0.4359  0.1476
 4059SOL     OW23812   0.294   3.477   4.174  0.0865 -0.0337 -0.6925
 4059SOL    HW123813   0.370   3.427   4.203  0.4777 -0.4937 -2.5155
 4059SOL    HW223814   0.226   3.435   4.227 -1.9428  0.5234 -2.8497
 4060SOL     OW23815   0.732   4.735  13.975 -0.5303  0.3991  0.5844
 4060SOL    HW123816   0.653   4.730  14.028 -0.6090  0.0683  0.4307
 4060SOL    HW223817   0.773   4.648  13.978  1.4459  1.2875 -0.7055
 4061SOL     OW23818   1.093   4.104  14.101 -0.3585 -0.3886 -0.1596
 4061SOL    HW123819   1.141   4.097  14.183  2.1379  3.7677 -1.2510
 4061SOL    HW223820   1.165   4.123  14.040  1.0325  1.4372  2.0644
 4062SOL     OW23821   3.281   0.927   2.705  0.4431 -0.0640  0.2559
 4062SOL    HW123822   3.359   0.983   2.696  2.3353 -2.7192  0.1884
 4062SOL    HW223823   3.223   0.948   2.632 -1.6970  0.6822  2.1825
 4063SOL     OW23824   2.762   2.691   4.542  0.2541  0.0209 -0.8452
 4063SOL    HW123825   2.797   2.651   4.462  2.1336 -1.3515  0.6377
 4063SOL    HW223826   2.761   2.618   4.603  3.1080  0.8893  0.2290
 4064SOL     OW23827   4.594   4.170   2.248  0.5003  0.0916 -0.0403
 4064SOL    HW123828   4.614   4.225   2.173  0.6040  0.3992  0.2121
 4064SOL    HW223829   4.554   4.092   2.210  0.7526  0.1148 -0.3499
 4065SOL     OW23830   0.734   0.029  12.361  0.0404  0.3495  0.1374
 4065SOL    HW123831   0.692   0.035  12.447  2.1865  1.3155  1.1192
 4065SOL    HW223832   0.810   4.710  12.378 -0.2035 -0.3885 -1.2390
 4066SOL     OW23833   1.073   4.345  17.471 -0.3144  0.5262  0.3498
 4066SOL    HW123834   1.082   4.440  17.466  1.2394  0.4177  1.2634
 4066SOL    HW223835   1.159   4.311  17.495  0.5007  2.3327 -0.0216
 4067SOL     OW23836   1.495   4.518   2.724  0.3785 -0.3927  0.1086
 4067SOL    HW123837   1.420   4.459   2.717 -0.1771  0.4508 -1.0561
 4067SOL    HW223838   1.524   4.508   2.815 -0.0291 -0.6000  0.2169
 4068SOL     OW23839   4.590   0.075   6.186  0.0672 -0.0045 -0.4107
 4068SOL    HW123840   4.568   0.004   6.246  2.8418  1.1190  1.9503
 4068SOL    HW223841   4.685   0.058   6.186  0.3698  1.8025 -1.7380
 4069SOL     OW23842   1.498   2.399   2.281  0.5447 -0.0261 -0.2883
 4069SOL    HW123843   1.518   2.307   2.299 -0.1837 -0.5678 -2.2356
 4069SOL    HW223844   1.404   2.393   2.267  0.2042  0.7581  1.6906
 4070SOL     OW23845   1.831   3.020  11.932  0.6147 -0.1947 -0.1585
 4070SOL    HW123846   1.797   3.012  12.021  0.8737  3.1151  0.2305
 4070SOL    HW223847   1.782   3.092  11.894 -1.0175 -0.2926  1.7715
 4071SOL     OW23848   0.842   4.389   5.510 -0.0595 -0.3837  0.0076
 4071SOL    HW123849   0.850   4.322   5.577 -0.0331  1.0375  1.4194
 4071SOL    HW223850   0.760   4.367   5.466  0.6341 -0.3489 -1.3202
 4072SOL     OW23851   1.583   2.158   8.539 -0.0399 -0.5107 -0.2589
 4072SOL    HW123852   1.517   2.222   8.513 -1.5903 -2.2528 -0.6452
 4072SOL    HW223853   1.583   2.114   8.454 -1.3874 -0.4246 -0.3126
 4073SOL     OW23854   0.664   3.453   6.982  0.0869  0.0660 -0.3939
 4073SOL    HW123855   0.638   3.361   6.973  1.3609 -0.2941 -0.3503
 4073SOL    HW223856   0.734   3.464   6.918  1.7131 -0.8883  1.2164
 4074SOL     OW23857   4.577   2.871   8.652 -0.1667  0.0116  0.2238
 4074SOL    HW123858   4.562   2.921   8.732 -1.8754  2.0036 -1.3433
 4074SOL    HW223859   4.557   2.934   8.583  0.6484  0.7871  0.7068
 4075SOL     OW23860   2.376   1.360   4.049 -0.4129 -0.8856 -0.8082
 4075SOL    HW123861   2.344   1.365   4.139  2.3118  0.5540  0.0767
 4075SOL    HW223862   2.304   1.404   4.004  0.1261  0.0585 -0.7483
 4076SOL     OW23863   3.655   2.800   4.555 -0.2066 -0.1839 -0.0992
 4076SOL    HW123864   3.703   2.764   4.480  2.0694 -0.2673  1.4083
 4076SOL    HW223865   3.573   2.752   4.546  0.3363 -1.2055  0.5195
 4077SOL     OW23866   3.508   3.948   1.032 -0.0044 -0.3104 -0.0122
 4077SOL    HW123867   3.532   3.923   1.121 -0.9176 -0.2764  0.2343
 4077SOL    HW223868   3.504   4.043   1.042  2.2180 -0.2979  0.7129
 4078SOL     OW23869   3.809   4.372   7.805  0.3167 -0.1086  0.4757
 4078SOL    HW123870   3.877   4.438   7.789  0.6586 -1.4728 -3.6334
 4078SOL    HW223871   3.788   4.395   7.895 -1.1735 -0.0716  0.1129
 4079SOL     OW23872   4.191   4.258   7.319  0.3926  0.2525  0.0512
 4079SOL    HW123873   4.141   4.330   7.281  1.7153  1.8804  1.3834
 4079SOL    HW223874   4.250   4.233   7.248  0.9391  1.2820  0.1437
 4080SOL     OW23875   3.630   1.505   8.138  0.2242 -0.2328  0.2771
 4080SOL    HW123876   3.610   1.516   8.231 -2.0942  3.9014 -0.7122
 4080SOL    HW223877   3.561   1.442   8.118 -0.3043  0.2614  0.5544
 4081SOL     OW23878   3.507   1.078   2.769  0.5037 -0.2764  0.2126
 4081SOL    HW123879   3.546   1.163   2.789 -1.1404  0.9476 -1.7382
 4081SOL    HW223880   3.577   1.019   2.797  1.3031  1.3604  1.6423
 4082SOL     OW23881   0.870   2.733  10.629 -0.1334  0.1138 -0.1701
 4082SOL    HW123882   0.893   2.765  10.717 -3.3302 -0.6429  0.9303
 4082SOL    HW223883   0.954   2.745  10.584 -0.1309  1.3828  0.1651
 4083SOL     OW23884   3.733   0.259   4.656  0.2546 -0.4877  0.0410
 4083SOL    HW123885   3.692   0.341   4.682  0.5434 -0.3222 -0.0303
 4083SOL    HW223886   3.660   0.216   4.611  1.1062 -0.8704 -0.9897
 4084SOL     OW23887   4.660   0.792   2.142  0.1869 -0.5237 -0.1130
 4084SOL    HW123888   4.672   0.876   2.097 -0.4400  0.9999  2.6068
 4084SOL    HW223889   4.575   0.807   2.184  1.2605  1.9467  1.1398
 4085SOL     OW23890   1.413   2.240  15.030 -0.0841  0.0473 -0.8325
 4085SOL    HW123891   1.320   2.254  15.010 -0.7569 -1.1526  1.4907
 4085SOL    HW223892   1.405   2.199  15.116  0.8805 -0.6954 -1.0975
 4086SOL     OW23893   0.762   2.583   8.451  0.0024 -0.6900  0.2875
 4086SOL    HW123894   0.830   2.537   8.401 -0.3568 -0.2257 -0.6391
 4086SOL    HW223895   0.696   2.589   8.383  0.5188  0.0303 -0.1599
 4087SOL     OW23896   2.361   3.375   6.794  0.6811  0.1047  0.2198
 4087SOL    HW123897   2.301   3.382   6.868 -2.2462  0.8013 -2.2614
 4087SOL    HW223898   2.326   3.437   6.731  0.3758 -0.5201 -0.2239
 4088SOL     OW23899   2.081   0.533  13.609 -0.3931  0.7886  0.0217
 4088SOL    HW123900   2.082   0.598  13.678  0.1931 -0.4501  1.1836
 4088SOL    HW223901   2.014   0.477  13.648 -0.7287  2.3232  1.6273
 4089SOL     OW23902   1.428   3.310   9.406 -0.2112  0.1343  0.2561
 4089SOL    HW123903   1.397   3.397   9.431  0.1609  0.4648 -0.4419
 4089SOL    HW223904   1.344   3.267   9.386  0.0756 -1.2757  2.0467
 4090SOL     OW23905   0.378   1.598   8.293 -0.1420 -0.0024 -0.3554
 4090SOL    HW123906   0.329   1.586   8.374 -0.7390 -1.1570 -0.8995
 4090SOL    HW223907   0.353   1.525   8.237  0.5187  1.0049 -1.9659
 4091SOL     OW23908   0.566   1.899   8.186  0.8836 -0.1220  0.3525
 4091SOL    HW123909   0.546   1.820   8.135  1.5142  1.3283 -2.1470
 4091SOL    HW223910   0.628   1.950   8.134 -2.1254  1.1742 -1.9687
 4092SOL     OW23911   0.134   0.227  13.642  0.4221 -0.3958  0.6601
 4092SOL    HW123912   0.198   0.158  13.657 -0.8215 -1.5025  0.9116
 4092SOL    HW223913   0.188   0.301  13.614  0.1591 -0.3540  0.2516
 4093SOL     OW23914   1.981   1.014   9.331  0.3764  0.4211 -0.2640
 4093SOL    HW123915   1.932   1.039   9.409 -0.2563 -0.8540 -0.2529
 4093SOL    HW223916   1.990   1.100   9.290  1.2212  0.5113  0.1027
 4094SOL     OW23917   2.348   1.257   5.522 -0.5459  0.7820 -0.0694
 4094SOL    HW123918   2.434   1.273   5.482 -0.3762  0.4267  0.1522
 4094SOL    HW223919   2.298   1.219   5.450  1.2090 -1.1557 -0.2788
 4095SOL     OW23920   1.910   2.642   1.979 -0.8154 -0.0666 -0.1903
 4095SOL    HW123921   1.850   2.630   2.053 -4.3773  0.6888 -2.9209
 4095SOL    HW223922   1.846   2.678   1.918 -2.0035  0.3220  1.2914
 4096SOL     OW23923   2.258   2.385   9.727  0.1128  0.2861  0.3178
 4096SOL    HW123924   2.201   2.399   9.651  0.4215  1.3922  0.2780
 4096SOL    HW223925   2.206   2.430   9.794 -1.5219 -0.4471 -0.4512
 4097SOL     OW23926   3.397   3.462  12.422  0.4701  0.1451  0.8644
 4097SOL    HW123927   3.417   3.488  12.332  0.0576  0.3947  0.8427
 4097SOL    HW223928   3.486   3.464  12.456  0.5844 -0.0704  0.5824
 4098SOL     OW23929   1.251   1.947   8.302 -0.3467  0.9970  0.2049
 4098SOL    HW123930   1.268   1.911   8.389  2.1761 -0.7247 -0.9994
 4098SOL    HW223931   1.178   2.003   8.328 -0.2326  1.1695  0.1529
 4099SOL     OW23932   4.483   4.476  14.355 -0.3501 -0.8363  0.3347
 4099SOL    HW123933   4.390   4.495  14.365  0.5415  3.0710  1.2698
 4099SOL    HW223934   4.514   4.470  14.445 -1.3812  0.3942  0.7687
 4100SOL     OW23935   4.309   4.364  13.468 -0.4367 -0.0785 -0.2865
 4100SOL    HW123936   4.399   4.354  13.435 -0.1291  1.2642  0.1482
 4100SOL    HW223937   4.341   4.405  13.548 -0.0336 -1.9534  0.5229
 4101SOL     OW23938   2.230   3.632   2.414  0.0499 -0.0847  0.3460
 4101SOL    HW123939   2.147   3.603   2.375 -0.5922  1.3006  0.6746
 4101SOL    HW223940   2.277   3.549   2.422 -0.9827 -0.8740 -1.6311
 4102SOL     OW23941   2.718   0.568   9.266 -0.3747 -0.4725  0.0726
 4102SOL    HW123942   2.626   0.541   9.272 -0.4249 -0.5204 -0.9599
 4102SOL    HW223943   2.716   0.661   9.290  2.6072 -0.7186  1.2242
 4103SOL     OW23944   0.995   4.626  12.914  0.5100  0.0232  0.2079
 4103SOL    HW123945   0.906   4.638  12.879  0.0628  0.4799  1.5065
 4103SOL    HW223946   0.977   4.593  13.002  0.1173  1.0037  0.5068
 4104SOL     OW23947   1.153   3.892  11.735 -0.3002  0.4632 -0.1768
 4104SOL    HW123948   1.121   3.923  11.820  1.1741  0.2930  0.4517
 4104SOL    HW223949   1.198   3.969  11.700  0.8780  1.6447  3.9467
 4105SOL     OW23950   2.943   1.956  15.439  0.4411 -0.2859  0.6325
 4105SOL    HW123951   3.003   2.007  15.494  1.2533  0.0232 -0.5450
 4105SOL    HW223952   2.901   1.898  15.503  0.1367  1.0085  1.6018
 4106SOL     OW23953   1.987   0.556  17.259  0.1319  0.6713  0.6440
 4106SOL    HW123954   2.015   0.622  17.195 -2.5158 -0.0537 -1.2607
 4106SOL    HW223955   1.902   0.535  17.220 -0.0439 -0.0184  1.3915
 4107SOL     OW23956   0.283   4.534   3.458  0.0479 -0.3387 -0.1543
 4107SOL    HW123957   0.206   4.502   3.505 -0.0445 -0.8144 -0.6329
 4107SOL    HW223958   0.253   4.625   3.458 -0.4798 -0.5181 -0.6360
 4108SOL     OW23959   2.534   2.578   1.203 -0.1841 -0.5508  0.1109
 4108SOL    HW123960   2.625   2.608   1.208 -0.4346  0.3719 -0.8853
 4108SOL    HW223961   2.532   2.551   1.111 -0.3573 -1.6037  0.4262
 4109SOL     OW23962   2.839   2.726   7.064 -0.1079 -0.4334  0.8628
 4109SOL    HW123963   2.856   2.775   7.145  0.6775 -0.1579  0.5331
 4109SOL    HW223964   2.912   2.665   7.074  1.6485  1.4225 -0.4857
 4110SOL     OW23965   0.725   2.638  12.377 -0.0743 -0.4701 -0.1133
 4110SOL    HW123966   0.743   2.732  12.386  0.5195 -0.7451  1.7168
 4110SOL    HW223967   0.701   2.624  12.469  0.3188 -0.7105 -0.0479
 4111SOL     OW23968   0.077   0.685   8.530 -0.4128  0.2072  0.5723
 4111SOL    HW123969   0.080   0.762   8.586  0.1901  1.4433 -1.1542
 4111SOL    HW223970   4.720   0.687   8.513 -0.3940 -0.7441  0.3563
 4112SOL     OW23971   2.550   4.235   4.417 -0.1337  0.4512 -0.1514
 4112SOL    HW123972   2.492   4.206   4.487  2.6887 -3.3519  0.5824
 4112SOL    HW223973   2.557   4.155   4.365 -0.0789 -1.0616  2.1981
 4113SOL     OW23974   3.665   3.970  17.074  0.1730 -0.2864  0.0815
 4113SOL    HW123975   3.595   3.958  17.009 -1.7744  1.2582  1.9185
 4113SOL    HW223976   3.639   4.041  17.133 -0.5137  1.2797 -2.1034
 4114SOL     OW23977   4.596   3.579  13.009 -0.2054 -0.2392  0.3583
 4114SOL    HW123978   4.601   3.674  13.023 -0.7638  0.4059 -4.0221
 4114SOL    HW223979   4.640   3.557  12.927 -4.2129 -0.2629 -1.7939
 4115SOL     OW23980   4.608   2.461   5.619  0.3886 -0.1785 -0.0979
 4115SOL    HW123981   4.615   2.537   5.677 -0.7740  1.1794 -1.7584
 4115SOL    HW223982   4.527   2.427   5.659  0.3149 -0.1260 -0.2036
 4116SOL     OW23983   2.373   0.882   8.518  0.4480  0.1789  0.7419
 4116SOL    HW123984   2.414   0.946   8.460 -0.0480  0.3643  0.5915
 4116SOL    HW223985   2.305   0.847   8.460  0.1298 -0.7333  1.6562
 4117SOL     OW23986   2.645   4.373   7.008 -0.5936  0.3703  0.5898
 4117SOL    HW123987   2.642   4.430   6.931  2.1030 -1.1851 -0.6758
 4117SOL    HW223988   2.651   4.437   7.079  0.7983 -0.6823  1.4195
 4118SOL     OW23989   4.564   2.515   9.037  0.4880  0.1170  0.9394
 4118SOL    HW123990   4.514   2.434   9.049 -0.8534  1.0301  1.5311
 4118SOL    HW223991   4.652   2.492   9.069  1.5165 -0.7018 -2.4723
 4119SOL     OW23992   0.899   3.111   2.646  0.1762  0.3744  0.2738
 4119SOL    HW123993   0.864   3.061   2.573 -0.4436  0.3041  0.6230
 4119SOL    HW223994   0.820   3.137   2.693  0.4330  1.2530  0.2164
 4120SOL     OW23995   1.704   3.609   9.098 -0.2610  0.8256  0.1033
 4120SOL    HW123996   1.796   3.626   9.079  0.2053 -1.6253  0.1757
 4120SOL    HW223997   1.700   3.672   9.171  1.6205 -0.3352  1.1932
 4121SOL     OW23998   3.380   2.924   9.839  0.7265  0.2993  0.0820
 4121SOL    HW123999   3.329   2.867   9.782 -1.1388  0.0580  1.9821
 4121SOL    HW224000   3.448   2.954   9.779 -0.4319  0.0172 -1.3789
 4122SOL     OW24001   4.660   3.703  11.309 -0.1977 -0.2880 -0.5185
 4122SOL    HW124002   4.586   3.642  11.305 -0.4414 -0.0717  0.8012
 4122SOL    HW224003   4.674   3.705  11.214 -0.9348  0.1276 -0.6203
 4123SOL     OW24004   2.590   0.935  10.152  0.0893  0.0072 -0.5525
 4123SOL    HW124005   2.594   0.926  10.057  0.6575  0.6938 -0.5984
 4123SOL    HW224006   2.665   0.880  10.175 -0.7550 -1.5983 -1.6420
 4124SOL     OW24007   0.393   0.340   8.463  0.0856  0.0140 -0.2055
 4124SOL    HW124008   0.480   0.378   8.473 -0.1799  0.6024 -0.1684
 4124SOL    HW224009   0.342   0.405   8.511 -1.4146 -0.5080 -1.0670
 4125SOL     OW24010   0.251   2.620   4.880  0.0440 -0.5662 -0.0068
 4125SOL    HW124011   0.179   2.677   4.904  0.0958  0.0162 -1.2567
 4125SOL    HW224012   0.270   2.582   4.966 -0.1047  0.0803  0.3096
 4126SOL     OW24013   2.152   0.371   8.416  0.4218  0.0845 -0.1501
 4126SOL    HW124014   2.236   0.404   8.447  0.8441 -1.9025  0.8436
 4126SOL    HW224015   2.093   0.422   8.472  0.0607  0.5536 -0.9683
 4127SOL     OW24016   3.717   0.511  12.689 -0.4192 -0.4412  0.1001
 4127SOL    HW124017   3.711   0.417  12.703  0.3400 -1.0419 -3.5574
 4127SOL    HW224018   3.764   0.513  12.606 -0.9799 -2.2036 -0.2456
 4128SOL     OW24019   3.825   0.519  14.144  0.1700  0.4244 -0.0731
 4128SOL    HW124020   3.873   0.598  14.116 -1.1463  0.8789 -1.0633
 4128SOL    HW224021   3.895   0.454  14.148 -2.2107 -2.2412 -1.9714
 4129SOL     OW24022   0.622   0.396   3.049  0.4007  0.4816 -0.3256
 4129SOL    HW124023   0.685   0.377   3.118 -0.1272  1.2610  0.3642
 4129SOL    HW224024   0.585   0.307   3.043  1.3877 -0.0120  1.0831
 4130SOL     OW24025   1.202   4.467   6.982  0.0202 -0.0127 -0.0339
 4130SOL    HW124026   1.140   4.508   7.042 -2.9591 -2.8667 -1.2147
 4130SOL    HW224027   1.151   4.393   6.949 -0.9779  0.3654  0.6805
 4131SOL     OW24028   1.271   0.679   1.431 -0.0930 -0.4164 -0.2126
 4131SOL    HW124029   1.308   0.703   1.516 -0.9536 -0.8691  0.2969
 4131SOL    HW224030   1.222   0.599   1.449 -3.8055  2.5189  3.0380
 4132SOL     OW24031   0.432   2.587   5.361  0.4214 -0.3917 -0.0646
 4132SOL    HW124032   0.464   2.674   5.338 -1.2984 -0.0872 -1.3012
 4132SOL    HW224033   0.347   2.579   5.319  0.3475 -0.8373  0.1698
 4133SOL     OW24034   0.963   2.586   6.627 -0.6580  0.0053  0.0985
 4133SOL    HW124035   0.999   2.669   6.597  0.0141 -0.0152  0.8590
 4133SOL    HW224036   0.938   2.551   6.542  2.7693 -2.6596  0.1734
 4134SOL     OW24037   4.557   3.412   3.227 -0.0114 -0.1133  0.4354
 4134SOL    HW124038   4.646   3.380   3.242 -0.4847 -0.5706  2.3165
 4134SOL    HW224039   4.512   3.336   3.191 -2.4354  1.2549  0.5326
 4135SOL     OW24040   2.556   4.372  11.540  0.3044  0.4366 -0.2201
 4135SOL    HW124041   2.573   4.452  11.490 -0.6227  0.8694  0.1450
 4135SOL    HW224042   2.574   4.416  11.624 -2.0588  2.6107 -0.8410
 4136SOL     OW24043   2.622   1.796   2.599  0.0646 -0.2302 -0.0839
 4136SOL    HW124044   2.528   1.796   2.619  0.0086 -1.3711 -0.3705
 4136SOL    HW224045   2.627   1.710   2.558 -0.3403 -1.5613  2.6550
 4137SOL     OW24046   2.399   1.382   5.162  0.3745  0.0170  0.1460
 4137SOL    HW124047   2.339   1.380   5.088  1.1779 -1.4196 -0.4733
 4137SOL    HW224048   2.480   1.353   5.119 -0.3479  0.2636 -1.3861
 4138SOL     OW24049   0.031   0.343   6.796  0.0558 -0.2433 -0.6183
 4138SOL    HW124050   4.718   0.362   6.875 -0.3338 -1.9457 -0.4504
 4138SOL    HW224051   0.043   0.250   6.817  1.5777 -0.3391 -1.9241
 4139SOL     OW24052   0.295   4.718   3.759  0.0547 -0.0851 -0.3452
 4139SOL    HW124053   0.349   4.671   3.695  0.3363 -0.7583  0.3842
 4139SOL    HW224054   0.232   0.009   3.693 -1.6602 -0.8208  0.9694
 4140SOL     OW24055   0.933   2.053   3.747 -0.3019  0.1564  0.0368
 4140SOL    HW124056   1.020   2.029   3.779 -0.0328 -0.0220 -0.8443
 4140SOL    HW224057   0.898   1.963   3.744 -2.7048  1.1033 -0.7899
 4141SOL     OW24058   3.273   0.110   5.034 -0.1332  0.2272  0.1532
 4141SOL    HW124059   3.285   0.135   4.942 -0.4358  0.2076  0.1093
 4141SOL    HW224060   3.225   0.028   5.035  0.4916 -0.1598 -3.0609
 4142SOL     OW24061   3.630   2.485   9.075 -0.0629  0.2377  0.1385
 4142SOL    HW124062   3.578   2.450   9.148 -1.0893  1.2056 -0.1351
 4142SOL    HW224063   3.712   2.452   9.112 -0.7196 -2.0523 -0.4536
 4143SOL     OW24064   2.799   4.312   7.517 -0.7373 -0.2211 -0.5439
 4143SOL    HW124065   2.741   4.364   7.572 -0.6471  2.1148 -2.6481
 4143SOL    HW224066   2.734   4.267   7.463 -2.0900 -0.3453  1.2016
 4144SOL     OW24067   1.967   2.495   7.941 -0.2974 -0.3377  0.1724
 4144SOL    HW124068   1.912   2.527   7.869  0.4580 -1.5102 -0.9204
 4144SOL    HW224069   2.042   2.552   7.927  0.0674 -0.7500  0.4741
 4145SOL     OW24070   4.163   2.999   8.025 -0.0402  0.2620 -0.5146
 4145SOL    HW124071   4.206   2.953   8.097 -0.2355 -0.6068 -0.9625
 4145SOL    HW224072   4.243   3.049   8.007 -0.3503  0.3005 -1.7970
 4146SOL     OW24073   1.099   3.501   6.656  0.3566 -0.0828  0.1588
 4146SOL    HW124074   1.165   3.434   6.674 -1.5250 -0.8705  4.1349
 4146SOL    HW224075   1.117   3.563   6.727 -0.1077 -0.1481  0.3356
 4147SOL     OW24076   0.736   3.554   5.305 -0.2534  0.0019 -0.2704
 4147SOL    HW124077   0.797   3.491   5.266 -2.2340 -1.5775 -0.8694
 4147SOL    HW224078   0.788   3.633   5.289 -0.8052  0.2710 -0.7245
 4148SOL     OW24079   2.802   4.101   3.443  0.4081  0.6973 -0.5619
 4148SOL    HW124080   2.878   4.108   3.385  0.4203  0.4314 -0.5780
 4148SOL    HW224081   2.755   4.030   3.400 -0.2064 -0.6075  2.2900
 4149SOL     OW24082   1.119   0.147   2.161 -0.1738  0.1942 -0.3149
 4149SOL    HW124083   1.118   0.232   2.116 -2.1233  0.3974  0.1092
 4149SOL    HW224084   1.063   0.091   2.107  0.2865 -2.3348  1.8438
 4150SOL     OW24085   1.086   2.819   6.576 -0.0596 -0.0558  0.0609
 4150SOL    HW124086   1.179   2.841   6.582 -0.7564  2.6472  0.8596
 4150SOL    HW224087   1.054   2.870   6.502 -0.6473 -0.2827  0.1616
 4151SOL     OW24088   3.146   0.960   2.257 -0.5599  0.2415 -0.3039
 4151SOL    HW124089   3.190   1.012   2.190 -1.1010  2.0768  0.7939
 4151SOL    HW224090   3.138   0.882   2.202 -0.8264  0.2676 -0.2987
 4152SOL     OW24091   1.620   4.235   7.043 -0.1192 -0.2864 -0.6040
 4152SOL    HW124092   1.712   4.256   7.058 -0.0810 -0.6939 -0.2576
 4152SOL    HW224093   1.579   4.321   7.044 -1.2265 -0.8098 -0.4354
 4153SOL     OW24094   3.980   0.210   3.418  0.4275  0.3291 -1.0362
 4153SOL    HW124095   3.898   0.164   3.400 -0.8256  2.2606 -0.2489
 4153SOL    HW224096   4.013   0.225   3.330  0.5810  1.1410 -0.8366
 4154SOL     OW24097   0.768   1.931   9.179 -0.0111  0.1569  0.2207
 4154SOL    HW124098   0.829   1.996   9.214  0.0262 -1.7343  3.7542
 4154SOL    HW224099   0.686   1.968   9.210  0.1496 -1.1197  2.1873
 4155SOL     OW24100   2.586   0.194  13.648 -0.2767 -0.8235  0.1915
 4155SOL    HW124101   2.614   0.212  13.558  0.0033  1.4932  0.7477
 4155SOL    HW224102   2.668   0.209  13.694  1.3014 -1.6818 -2.3147
 4156SOL     OW24103   3.878   1.705   6.136  0.1155 -0.0192 -0.5718
 4156SOL    HW124104   3.949   1.643   6.121 -0.4924 -0.5239 -1.3922
 4156SOL    HW224105   3.893   1.765   6.063  0.0981 -0.4704 -0.9459
 4157SOL     OW24106   4.153   3.065   5.611  0.3362  1.0232  0.3241
 4157SOL    HW124107   4.194   3.045   5.527 -0.0235  1.8740 -0.0552
 4157SOL    HW224108   4.116   3.151   5.590  1.3492  1.1483 -0.9378
 4158SOL     OW24109   1.902   2.398  11.848  0.0648  0.0396 -0.5628
 4158SOL    HW124110   1.851   2.441  11.779 -0.7639  0.6214  0.4205
 4158SOL    HW224111   1.892   2.308  11.817  0.0170 -0.5305  1.1105
 4159SOL     OW24112   0.901   1.152  10.082  0.2713  0.4907  0.1356
 4159SOL    HW124113   0.843   1.178  10.153 -0.9419 -1.2663 -0.2072
 4159SOL    HW224114   0.931   1.232  10.038  1.4998 -0.2018 -0.2892
 4160SOL     OW24115   0.198   0.062  10.135  0.3911  0.0723 -0.4047
 4160SOL    HW124116   0.142   0.073  10.212  1.5731  1.4320  0.2822
 4160SOL    HW224117   0.150   0.119  10.075  1.0398  2.4225  1.2888
 4161SOL     OW24118   1.601   3.094   6.613  0.3695  0.0456 -0.0477
 4161SOL    HW124119   1.542   3.136   6.675 -0.2004 -0.7684 -0.0442
 4161SOL    HW224120   1.664   3.057   6.676 -2.7599 -1.6090  2.0944
 4162SOL     OW24121   2.710   2.743   7.718 -0.2520  0.5804 -0.2780
 4162SOL    HW124122   2.648   2.671   7.716  2.1111 -1.4307 -1.5827
 4162SOL    HW224123   2.753   2.737   7.632  0.5481  3.4441 -0.1033
 4163SOL     OW24124   3.042   0.732  16.933 -0.1834  0.2674  0.2779
 4163SOL    HW124125   3.128   0.739  16.891 -1.6743  0.4393 -2.7521
 4163SOL    HW224126   3.034   0.637  16.930  2.3185  0.0202  1.6862
 4164SOL     OW24127   2.186   1.787  11.950  0.2819  0.1814  0.3536
 4164SOL    HW124128   2.205   1.853  11.883 -2.7461  1.8495  1.1203
 4164SOL    HW224129   2.113   1.741  11.910  2.3183 -1.0131 -1.9685
 4165SOL     OW24130   0.772   0.732   5.203  0.2509  0.1032  0.2994
 4165SOL    HW124131   0.851   0.750   5.152 -0.4759 -0.8105 -1.1253
 4165SOL    HW224132   0.762   0.638   5.194 -0.0668 -0.1483  3.3814
 4166SOL     OW24133   1.539   2.333   4.447 -0.0038 -0.0912 -0.3980
 4166SOL    HW124134   1.527   2.259   4.506  1.2173 -0.7194 -0.9359
 4166SOL    HW224135   1.462   2.308   4.395  0.0558 -2.2551  0.5618
 4167SOL     OW24136   0.986   3.839   7.402 -0.1805 -0.2141  0.1725
 4167SOL    HW124137   1.076   3.841   7.434 -0.9750  2.4021  2.2843
 4167SOL    HW224138   0.982   3.745   7.387 -1.4760  0.0214 -0.9666
 4168SOL     OW24139   3.349   4.697   8.363  0.0335 -0.0228 -0.1066
 4168SOL    HW124140   3.300   4.685   8.281 -3.7327 -1.3507  2.3574
 4168SOL    HW224141   3.311   0.043   8.391  0.8821  0.3731 -0.1331
 4169SOL     OW24142   1.640   4.026   2.524 -0.4979 -0.0111  0.8632
 4169SOL    HW124143   1.687   4.043   2.606  1.1588  1.3139 -0.3611
 4169SOL    HW224144   1.680   4.096   2.472 -0.2857  0.1670  1.2633
 4170SOL     OW24145   2.447   2.522   8.006 -0.2830  0.1460 -0.4585
 4170SOL    HW124146   2.510   2.462   7.967  0.3524 -0.1923  1.0885
 4170SOL    HW224147   2.494   2.606   8.002 -1.0084  0.6728  1.8553
 4171SOL     OW24148   1.011   4.477   5.760 -0.1205  0.5827  0.2816
 4171SOL    HW124149   0.966   4.431   5.690  1.1629 -0.1302 -0.0880
 4171SOL    HW224150   1.055   4.402   5.802 -0.9820 -0.3229 -0.4334
 4172SOL     OW24151   1.714   2.060  10.217  0.2687  0.2562  0.2917
 4172SOL    HW124152   1.659   2.101  10.150  0.9200 -0.6872 -0.8100
 4172SOL    HW224153   1.672   1.974  10.222 -2.2645  1.4212 -0.8572
 4173SOL     OW24154   0.155   1.522  13.818  0.2387 -0.6816 -0.4473
 4173SOL    HW124155   0.083   1.464  13.793 -1.8957  1.5175  0.6482
 4173SOL    HW224156   0.163   1.497  13.910 -0.8372 -1.1127 -0.4760
 4174SOL     OW24157   1.374   4.693   5.375 -0.3917  0.7740 -0.1080
 4174SOL    HW124158   1.467   4.674   5.376 -0.6452 -0.4537  0.3145
 4174SOL    HW224159   1.350   4.668   5.465 -0.1653 -1.5005 -0.6872
 4175SOL     OW24160   2.121   2.524   6.732 -0.1632  0.3795 -0.7582
 4175SOL    HW124161   2.185   2.594   6.743 -1.0111  0.9027  0.7966
 4175SOL    HW224162   2.124   2.511   6.637  0.5325  0.1703 -0.7111
 4176SOL     OW24163   3.752   2.855  14.052 -0.1085 -0.4579 -0.1910
 4176SOL    HW124164   3.840   2.869  14.088 -0.1789 -0.2761 -0.0910
 4176SOL    HW224165   3.763   2.856  13.957 -2.7690 -0.2495 -0.4866
 4177SOL     OW24166   1.690   4.472  12.275  0.3267 -0.2388 -0.1869
 4177SOL    HW124167   1.605   4.431  12.261 -1.2717  3.0948 -0.3816
 4177SOL    HW224168   1.683   4.494  12.368 -2.4598  1.6403 -0.8478
 4178SOL     OW24169   1.455   1.952  12.070 -0.6819  0.6390 -0.6584
 4178SOL    HW124170   1.444   1.891  11.997 -1.8791 -1.5121  1.2955
 4178SOL    HW224171   1.416   1.913  12.148  1.8796 -2.7465 -1.0217
 4179SOL     OW24172   2.754   3.200   5.899  0.0602  0.2686 -0.0799
 4179SOL    HW124173   2.786   3.263   5.834  1.2114 -0.4706 -0.2106
 4179SOL    HW224174   2.831   3.145   5.908  0.1055  0.3381 -0.0418
 4180SOL     OW24175   4.048   0.251  15.120  0.5214  0.4598 -0.4447
 4180SOL    HW124176   4.095   0.177  15.158  1.6933  0.4665 -1.8880
 4180SOL    HW224177   4.009   0.299  15.193 -0.8608 -0.3815 -0.6343
 4181SOL     OW24178   3.365   4.725   2.117  0.1544  0.1170  0.7625
 4181SOL    HW124179   3.334   0.065   2.165  1.3598 -0.0865  1.8601
 4181SOL    HW224180   3.429   4.677   2.169  1.2075  0.4174 -0.2387
 4182SOL     OW24181   2.525   0.471   4.118 -0.0845 -0.2359  0.0894
 4182SOL    HW124182   2.579   0.468   4.197 -0.1339  0.8687  0.1556
 4182SOL    HW224183   2.531   0.561   4.088  0.5098  0.8857  3.5200
 4183SOL     OW24184   1.837   2.718   6.758  0.0481  0.3500 -0.0524
 4183SOL    HW124185   1.778   2.713   6.833  0.2756 -0.6332  0.0517
 4183SOL    HW224186   1.908   2.667   6.797  1.8010  1.4612 -1.7835
 4184SOL     OW24187   4.157   2.755   8.630  0.1083  0.8168 -0.3417
 4184SOL    HW124188   4.101   2.742   8.553 -0.6585  0.1722  0.3232
 4184SOL    HW224189   4.147   2.670   8.672  0.4790  0.2398 -1.4016
 4185SOL     OW24190   0.132   4.017   8.318 -0.3190 -0.0395  0.1853
 4185SOL    HW124191   0.221   4.044   8.298 -0.8331  1.3073 -0.2698
 4185SOL    HW224192   0.078   4.096   8.315  0.0752  0.1849 -0.9479
 4186SOL     OW24193   2.747   1.781   9.138  0.6092  0.4962 -0.1772
 4186SOL    HW124194   2.799   1.801   9.060  0.8359  1.0430  0.1144
 4186SOL    HW224195   2.784   1.700   9.173 -0.3784 -0.0363 -0.3863
 4187SOL     OW24196   4.607   3.433   4.633 -0.1159 -0.1811  0.6793
 4187SOL    HW124197   4.596   3.420   4.727 -0.8123  1.0739  0.7777
 4187SOL    HW224198   4.528   3.388   4.605 -0.5414  0.6492  0.5414
 4188SOL     OW24199   3.328   4.626   3.966 -0.0212 -0.0197  0.5168
 4188SOL    HW124200   3.322   4.639   3.872  1.7954  1.7125  0.6328
 4188SOL    HW224201   3.244   4.583   3.981 -0.4407  1.6073  2.9848
 4189SOL     OW24202   2.681   1.191   6.066 -0.2490  0.1168 -0.2409
 4189SOL    HW124203   2.660   1.149   5.982  1.7984  1.1458 -1.2630
 4189SOL    HW224204   2.775   1.173   6.069 -0.8717 -3.0952  0.2499
 4190SOL     OW24205   1.674   4.031   3.858  0.4885 -0.7810 -0.4897
 4190SOL    HW124206   1.711   4.104   3.808 -0.9535  1.5118  1.7362
 4190SOL    HW224207   1.738   3.961   3.864  0.3179 -1.1336 -2.5457
 4191SOL     OW24208   0.770   3.958   6.943 -0.4413  0.1471  0.7192
 4191SOL    HW124209   0.859   3.978   6.973  0.7509 -1.4416 -1.7371
 4191SOL    HW224210   0.732   4.043   6.964 -0.0582  0.2642  0.9486
 4192SOL     OW24211   3.393   0.525   8.565 -0.1484  0.0699  0.0719
 4192SOL    HW124212   3.335   0.449   8.564 -0.3891  0.2676 -1.3744
 4192SOL    HW224213   3.376   0.560   8.477 -1.6633 -0.2181  0.2543
 4193SOL     OW24214   1.434   2.748   9.501 -0.2543 -0.1864 -0.0744
 4193SOL    HW124215   1.357   2.750   9.445 -0.5802 -0.1089  0.3803
 4193SOL    HW224216   1.402   2.812   9.564  0.2732  1.0564 -1.0713
 4194SOL     OW24217   1.708   2.770  17.404  0.1622 -0.4368  0.3514
 4194SOL    HW124218   1.685   2.721  17.324 -1.2808  3.9661 -1.8934
 4194SOL    HW224219   1.802   2.750  17.412  0.3072  0.4430  0.7537
 4195SOL     OW24220   1.368   3.567   8.245 -0.1746  0.0496 -0.1754
 4195SOL    HW124221   1.451   3.545   8.288 -0.4442  0.7738  0.7381
 4195SOL    HW224222   1.358   3.661   8.258  2.0354  0.3186 -0.4338
 4196SOL     OW24223   1.221   2.926   8.110 -0.3978 -0.1638 -0.1552
 4196SOL    HW124224   1.167   2.937   8.032 -0.6718  2.4352  0.3802
 4196SOL    HW224225   1.161   2.871   8.161 -1.6332  0.2576 -1.1586
 4197SOL     OW24226   4.141   1.680   6.774  0.2698 -0.2041  0.4466
 4197SOL    HW124227   4.090   1.608   6.811 -0.4760 -0.7646 -1.6732
 4197SOL    HW224228   4.104   1.683   6.686  0.1698  1.0009  0.5265
 4198SOL     OW24229   3.675   2.956  11.510  0.8320 -0.2172 -0.5187
 4198SOL    HW124230   3.675   2.933  11.417 -1.9253 -0.1792 -0.5307
 4198SOL    HW224231   3.765   2.931  11.530  0.0122 -0.1997  3.2302
 4199SOL     OW24232   4.499   1.803  10.483 -0.6941  0.0256  0.0743
 4199SOL    HW124233   4.505   1.784  10.577 -0.5066  0.5077  0.1612
 4199SOL    HW224234   4.484   1.897  10.488 -0.4537  0.0848 -0.2780
 4200SOL     OW24235   3.105   1.331   4.885  0.3394  0.3247  0.4825
 4200SOL    HW124236   3.033   1.356   4.943 -0.2002 -0.5533  0.1929
 4200SOL    HW224237   3.173   1.322   4.951  0.2432 -1.6468  0.3014
 4201SOL     OW24238   0.978   0.593  13.250 -0.2474 -0.2519  0.4594
 4201SOL    HW124239   0.966   0.596  13.345 -1.9623 -0.6070  0.2541
 4201SOL    HW224240   1.060   0.643  13.247 -1.6170  1.8200 -2.4013
 4202SOL     OW24241   3.092   3.023   9.714 -0.0883  0.0470 -0.4050
 4202SOL    HW124242   3.038   3.001   9.790  0.9717 -0.1331  0.2827
 4202SOL    HW224243   3.137   2.939   9.704 -3.0666 -1.8892  2.3117
 4203SOL     OW24244   1.419   4.398  12.221  0.3016  0.0536 -0.2186
 4203SOL    HW124245   1.370   4.319  12.196 -1.9048  1.3468 -0.0106
 4203SOL    HW224246   1.368   4.460  12.169 -0.5381  1.6149  2.4290
 4204SOL     OW24247   4.288   2.368   3.844 -0.3619 -0.4021  0.0418
 4204SOL    HW124248   4.286   2.459   3.813 -0.5001 -0.3343  0.2439
 4204SOL    HW224249   4.267   2.380   3.937  0.9141 -1.3656  0.4493
 4205SOL     OW24250   0.810   0.741   9.836  0.3005  0.7429 -0.3094
 4205SOL    HW124251   0.871   0.668   9.845 -0.8686 -0.2313 -0.3844
 4205SOL    HW224252   0.779   0.733   9.926  0.1365  0.4058 -0.3988
 4206SOL     OW24253   2.562   3.549   4.040  0.2143 -0.5003 -0.1407
 4206SOL    HW124254   2.514   3.480   3.994  0.3557  0.7463 -2.1535
 4206SOL    HW224255   2.606   3.584   3.962 -1.4110 -0.8690 -1.2222
 4207SOL     OW24256   2.158   1.080  11.883  0.4778 -0.3637  0.3390
 4207SOL    HW124257   2.153   1.165  11.927  0.9944  0.2191 -0.7435
 4207SOL    HW224258   2.148   1.025  11.961 -0.6456 -2.7296 -1.4446
 4208SOL     OW24259   2.610   0.230  14.142  0.7170  0.1872  0.1474
 4208SOL    HW124260   2.670   0.221  14.068 -0.2115  1.6262 -0.7798
 4208SOL    HW224261   2.537   0.261  14.089 -1.0294 -1.6437  1.4740
 4209SOL     OW24262   4.632   2.026   2.577  0.1359  0.0630  0.2759
 4209SOL    HW124263   4.572   2.096   2.552 -1.7122 -1.6409 -0.0555
 4209SOL    HW224264   4.596   1.991   2.658 -0.4254 -2.0253 -0.8703
 4210SOL     OW24265   0.989   3.979   8.763 -0.1366  0.5232 -0.2487
 4210SOL    HW124266   0.949   3.977   8.676 -3.2259 -0.1780  1.1655
 4210SOL    HW224267   1.049   3.906   8.752 -0.7712 -0.5114  2.9773
 4211SOL     OW24268   3.477   3.569   2.663 -0.3317  0.2492 -0.0205
 4211SOL    HW124269   3.445   3.658   2.675  1.6544  1.0514 -0.6476
 4211SOL    HW224270   3.416   3.509   2.707  0.1209 -0.0289  0.2314
 4212SOL     OW24271   2.380   4.010  10.018 -0.5364 -0.1655  0.1969
 4212SOL    HW124272   2.411   3.940   9.960  3.1452  3.3295 -2.0880
 4212SOL    HW224273   2.356   4.083   9.961 -0.8513 -0.7620 -0.4364
 4213SOL     OW24274   1.887   1.065  17.429 -0.7570  0.5362 -0.6465
 4213SOL    HW124275   1.855   1.154  17.446  1.0219  1.1195 -0.3255
 4213SOL    HW224276   1.966   1.098  17.385 -0.6969  1.4158  0.1091
 4214SOL     OW24277   0.791   2.093  14.336  0.0405 -0.2612 -0.0649
 4214SOL    HW124278   0.756   2.080  14.424 -1.0696  1.3969 -0.2455
 4214SOL    HW224279   0.735   2.034  14.285 -0.6696  1.4936 -1.3589
 4215SOL     OW24280   3.997   3.934   5.759 -0.0479 -0.1092  0.5709
 4215SOL    HW124281   4.013   3.846   5.794  0.8098 -0.2137 -0.0982
 4215SOL    HW224282   3.909   3.952   5.792 -0.4480  0.6055 -0.9003
 4216SOL     OW24283   2.000   3.707   8.739  0.3586  0.1455  0.4911
 4216SOL    HW124284   2.021   3.703   8.832  2.9192  0.6755 -0.0396
 4216SOL    HW224285   1.977   3.615   8.726  2.7128 -0.2838 -0.6167
 4217SOL     OW24286   1.039   4.066  17.637 -0.1018 -0.1595  0.6350
 4217SOL    HW124287   0.959   4.101  17.677 -1.2429 -0.5157 -1.3408
 4217SOL    HW224288   1.047   4.119  17.558 -0.0823 -1.1071 -0.0018
 4218SOL     OW24289   3.824   1.382   7.162  0.1937 -0.7282 -1.0759
 4218SOL    HW124290   3.919   1.384   7.176  0.0223 -0.0538 -0.0241
 4218SOL    HW224291   3.805   1.291   7.184  0.7338 -0.6522 -0.2913
 4219SOL     OW24292   0.516   3.350   2.979  0.1119  0.2900  0.3112
 4219SOL    HW124293   0.479   3.387   3.059 -0.8398 -0.2128  0.1043
 4219SOL    HW224294   0.559   3.270   3.011  1.4545  0.8096 -0.1922
 4220SOL     OW24295   3.669   1.723   6.289  0.0982 -0.3014 -0.2289
 4220SOL    HW124296   3.731   1.708   6.218 -1.3207  0.2501 -1.5880
 4220SOL    HW224297   3.658   1.636   6.327  0.1597 -0.2636 -0.1261
 4221SOL     OW24298   2.944   4.249   3.037 -0.3502  0.2354  0.8561
 4221SOL    HW124299   2.867   4.226   3.089 -1.0012 -4.0469 -2.0137
 4221SOL    HW224300   2.961   4.334   3.079  2.5716  0.1595 -0.1765
 4222SOL     OW24301   2.220   4.553   8.156 -0.2728 -0.0867  0.2990
 4222SOL    HW124302   2.221   4.504   8.074  1.2891 -1.0062  0.8748
 4222SOL    HW224303   2.315   4.552   8.167 -0.2961 -0.1420  0.4879
 4223SOL     OW24304   1.326   2.323   2.656 -0.3800  0.0083 -0.4117
 4223SOL    HW124305   1.381   2.401   2.651 -1.3900  0.8178  1.0170
 4223SOL    HW224306   1.392   2.258   2.636 -1.3407 -1.1839  0.2959
 4224SOL     OW24307   0.774   1.914   4.062  0.6318  0.0716 -0.0709
 4224SOL    HW124308   0.838   1.843   4.068  1.5485  0.9769  1.0086
 4224SOL    HW224309   0.715   1.869   4.002 -1.3339 -1.2371  2.8688
 4225SOL     OW24310   3.980   0.259   2.311  0.1641 -0.3951 -0.0588
 4225SOL    HW124311   3.936   0.185   2.271  0.1943  0.9243 -2.5309
 4225SOL    HW224312   4.047   0.286   2.248  1.4679 -3.8655 -0.1211
 4226SOL     OW24313   4.593   0.121   3.517 -0.3883 -0.0729  0.2197
 4226SOL    HW124314   4.540   0.130   3.596 -2.1416 -0.9239 -0.8582
 4226SOL    HW224315   4.581   0.204   3.471  0.3691 -1.0597 -1.7525
 4227SOL     OW24316   4.522   1.408   8.266  0.4321  0.0164 -0.0086
 4227SOL    HW124317   4.589   1.409   8.335 -0.2864  2.6802  0.6427
 4227SOL    HW224318   4.462   1.477   8.293  0.3057 -0.1017  0.0113
 4228SOL     OW24319   0.733   3.267  10.164  0.3466 -0.3550  0.1446
 4228SOL    HW124320   0.790   3.226  10.229  0.3858 -0.2115  0.1996
 4228SOL    HW224321   0.643   3.248  10.191  0.2277  1.3029  0.8852
 4229SOL     OW24322   4.676   2.180   6.576 -0.4029 -0.1046  0.4355
 4229SOL    HW124323   0.020   2.207   6.535  0.2494 -3.1420 -0.2734
 4229SOL    HW224324   4.657   2.104   6.521  1.5260  0.9493 -1.6863
 4230SOL     OW24325   3.274   3.119  12.501 -0.3664 -0.3758  0.0904
 4230SOL    HW124326   3.358   3.090  12.465  0.0158 -0.7978  1.3121
 4230SOL    HW224327   3.223   3.052  12.456 -0.6265  0.2708 -0.5674
 4231SOL     OW24328   3.570   2.557  15.869 -0.2031 -0.4683  0.5095
 4231SOL    HW124329   3.665   2.555  15.878 -0.2069  0.2710  0.6903
 4231SOL    HW224330   3.543   2.631  15.924 -1.7700  0.5339 -1.6032
 4232SOL     OW24331   1.403   3.471   2.326  0.1682  0.0597 -0.1149
 4232SOL    HW124332   1.489   3.436   2.347  0.1679  0.2790  0.2390
 4232SOL    HW224333   1.352   3.390   2.332  0.9640 -0.2871  1.6945
 4233SOL     OW24334   3.586   2.334   8.093  0.1276  0.1592  0.4110
 4233SOL    HW124335   3.560   2.268   8.028 -0.3506 -0.0253  0.7913
 4233SOL    HW224336   3.653   2.374   8.038 -1.2214 -0.1066 -1.4513
 4234SOL     OW24337   3.068   0.327   2.019 -0.3751  0.2228 -0.0346
 4234SOL    HW124338   3.033   0.270   2.087 -1.6139  1.8303  0.6727
 4234SOL    HW224339   3.148   0.363   2.059  1.1992 -2.6919 -0.5473
 4235SOL     OW24340   2.310   3.044   4.015 -0.3780  0.1425  0.4059
 4235SOL    HW124341   2.251   2.999   4.075  0.9195 -0.4786  1.2303
 4235SOL    HW224342   2.274   3.019   3.930 -0.2543 -0.6004  0.5648
 4236SOL     OW24343   4.585   2.808   2.045  0.0285  0.1545  0.0474
 4236SOL    HW124344   4.497   2.787   2.013  0.5379 -1.1205 -0.5225
 4236SOL    HW224345   4.625   2.843   1.965 -0.6494 -0.0545 -0.3898
 4237SOL     OW24346   3.360   0.326  16.476  0.5090 -0.2809 -0.2765
 4237SOL    HW124347   3.437   0.317  16.531  2.2421  3.1788 -2.1487
 4237SOL    HW224348   3.391   0.396  16.419  0.6203  1.2828  1.7120
 4238SOL     OW24349   2.892   4.158   3.936  0.2191 -0.2096 -0.0557
 4238SOL    HW124350   2.919   4.067   3.941  1.9042  0.2703 -0.4133
 4238SOL    HW224351   2.894   4.181   3.842 -0.3624  1.7188  0.3985
 4239SOL     OW24352   4.277   4.077   7.633 -0.3765  0.6758  0.1145
 4239SOL    HW124353   4.195   4.125   7.620 -1.0812 -0.6845 -0.5461
 4239SOL    HW224354   4.279   4.022   7.555  3.6239 -0.4587  1.0489
 4240SOL     OW24355   3.140   1.814   9.772 -0.2277 -0.1248 -0.0369
 4240SOL    HW124356   3.135   1.765   9.855  1.1902  1.9474  1.2663
 4240SOL    HW224357   3.052   1.845   9.753 -0.7488 -1.5364  0.0710
 4241SOL     OW24358   3.698   4.537  16.224 -0.7515  0.5081  0.1658
 4241SOL    HW124359   3.639   4.540  16.148 -0.7335  3.6868  0.2972
 4241SOL    HW224360   3.762   4.473  16.195  0.0399  0.3786  2.2001
 4242SOL     OW24361   4.269   0.761   1.923  0.4275 -0.0429 -0.5059
 4242SOL    HW124362   4.285   0.843   1.971  1.5191 -0.5482 -0.0060
 4242SOL    HW224363   4.322   0.699   1.973 -0.3899  0.8080  1.4215
 4243SOL     OW24364   0.269   3.447  10.583 -0.0143  0.0981  0.0566
 4243SOL    HW124365   0.226   3.449  10.668  1.2038 -0.0973  0.6841
 4243SOL    HW224366   0.245   3.531  10.544 -1.5619  0.2273  1.3304
 4244SOL     OW24367   0.650   1.570   0.417 -0.2543  0.0278 -0.0830
 4244SOL    HW124368   0.631   1.535   0.330  2.4737 -0.7839 -0.3596
 4244SOL    HW224369   0.576   1.629   0.431 -0.2729  0.3019 -1.2761
 4245SOL     OW24370   3.695   0.292  12.475 -0.2824 -0.0931 -0.0149
 4245SOL    HW124371   3.707   0.226  12.406  3.2941  2.3079 -1.6747
 4245SOL    HW224372   3.761   0.252  12.532  1.7553  1.3732 -1.3495
 4246SOL     OW24373   3.994   1.634   5.454  0.1963 -0.7151  0.1648
 4246SOL    HW124374   4.035   1.708   5.500  2.2163 -0.7069 -1.6383
 4246SOL    HW224375   4.035   1.660   5.371  1.2047  2.6205  1.6711
 4247SOL     OW24376   0.062   0.165   7.210 -0.2457 -0.1994  0.2785
 4247SOL    HW124377   0.046   0.252   7.174 -1.0689  0.1574  1.5454
 4247SOL    HW224378   0.098   0.189   7.295  0.5980 -0.7903  0.0877
 4248SOL     OW24379   0.712   1.274   5.721  0.0953 -0.6838  0.0378
 4248SOL    HW124380   0.745   1.334   5.788  1.8507 -0.8181 -0.7179
 4248SOL    HW224381   0.639   1.316   5.674 -0.3822 -1.5069  0.0338
 4249SOL     OW24382   3.396   3.068   8.156  0.0910 -0.3589 -0.2188
 4249SOL    HW124383   3.386   2.977   8.130 -0.4402 -1.3972  3.6208
 4249SOL    HW224384   3.445   3.068   8.238  1.0640 -3.4145 -0.8127
 4250SOL     OW24385   0.918   4.732   5.794 -0.0723  0.3237 -0.7677
 4250SOL    HW124386   0.954   4.644   5.789  0.7805  0.6654 -0.6363
 4250SOL    HW224387   0.910   4.737   5.698 -0.5548 -2.3377 -0.8560
 4251SOL     OW24388   4.032   4.423   3.465 -0.4091  0.3342 -0.1568
 4251SOL    HW124389   4.066   4.490   3.407  0.8758  1.0280  1.3745
 4251SOL    HW224390   3.991   4.365   3.401  1.5993 -2.8095  1.3742
 4252SOL     OW24391   0.643   3.662   1.133 -0.4066  0.3149 -0.2304
 4252SOL    HW124392   0.560   3.673   1.181  0.7642  0.9452  1.6567
 4252SOL    HW224393   0.709   3.661   1.202  0.2362 -3.2958 -0.9343
 4253SOL     OW24394   0.998   3.607  17.293 -0.3759  0.0072  0.2092
 4253SOL    HW124395   1.024   3.693  17.324  1.3969 -0.7078  0.7205
 4253SOL    HW224396   1.087   3.574  17.281 -0.6151  0.0412 -1.8022
 4254SOL     OW24397   2.005   3.246   3.754  0.5227 -0.2003 -0.1480
 4254SOL    HW124398   2.028   3.170   3.808 -0.7909 -0.5733 -0.1189
 4254SOL    HW224399   1.968   3.216   3.671 -1.1108  0.2866  0.3987
 4255SOL     OW24400   3.609   3.574  14.891 -0.0722  0.3732 -0.1429
 4255SOL    HW124401   3.652   3.552  14.973  0.6511  0.3287 -0.5394
 4255SOL    HW224402   3.641   3.663  14.876  1.9326  0.0831  2.4385
 4256SOL     OW24403   0.448   3.770   5.050  0.3862  0.3653 -0.0252
 4256SOL    HW124404   0.399   3.730   5.122 -0.6041  0.5159 -0.6121
 4256SOL    HW224405   0.471   3.699   4.989  2.2407 -1.0860  2.3866
 4257SOL     OW24406   4.579   2.753   0.488 -0.1899 -0.1786 -0.1366
 4257SOL    HW124407   4.664   2.749   0.443  0.6308  3.8659  1.0925
 4257SOL    HW224408   4.524   2.732   0.412 -1.1385  0.5005  0.3783
 4258SOL     OW24409   3.587   0.473   5.079 -0.3144 -0.1398 -0.0197
 4258SOL    HW124410   3.668   0.507   5.118 -0.8379 -0.5762  1.4740
 4258SOL    HW224411   3.534   0.551   5.064 -0.9338 -0.9975 -2.2962
 4259SOL     OW24412   4.402   4.235   5.279 -0.6065 -0.0682  0.2635
 4259SOL    HW124413   4.320   4.228   5.328 -0.5662 -0.2134  0.3123
 4259SOL    HW224414   4.454   4.166   5.320 -0.2828  0.1305  0.1841
 4260SOL     OW24415   2.643   2.407  14.790  0.0203  0.0574 -0.7055
 4260SOL    HW124416   2.676   2.478  14.734 -0.0593  0.4489 -0.2478
 4260SOL    HW224417   2.551   2.389  14.773 -0.6715  2.2093  0.8205
 4261SOL     OW24418   2.078   3.731   5.481  0.1558  0.7968  0.1736
 4261SOL    HW124419   2.052   3.818   5.450  2.1180  0.7951 -1.4926
 4261SOL    HW224420   1.998   3.719   5.531  0.4399  0.8940  0.6494
 4262SOL     OW24421   1.804   1.481   2.144  0.4502  0.1882 -0.4604
 4262SOL    HW124422   1.819   1.400   2.096 -2.4931 -1.0146  0.6204
 4262SOL    HW224423   1.754   1.441   2.215  1.2024 -1.2942 -0.7702
 4263SOL     OW24424   1.337   2.050   2.567  0.2633 -0.6389  0.0328
 4263SOL    HW124425   1.277   2.053   2.492 -0.9126 -0.1875  0.9926
 4263SOL    HW224426   1.268   2.045   2.634  0.5680 -0.1488  0.3735
 4264SOL     OW24427   2.011   2.072   3.585 -0.5858 -0.0347  0.0784
 4264SOL    HW124428   1.937   2.114   3.627 -1.3638 -0.3798 -0.9514
 4264SOL    HW224429   1.976   1.994   3.541  0.4172  0.0681 -0.9169
 4265SOL     OW24430   4.164   2.973   4.434 -0.0791 -0.5193 -0.3988
 4265SOL    HW124431   4.111   2.943   4.360 -1.4599  1.9552 -0.3834
 4265SOL    HW224432   4.148   2.899   4.492 -1.5409 -0.9848 -1.4132
 4266SOL     OW24433   2.586   4.322   5.785  0.6235 -0.5338 -0.3794
 4266SOL    HW124434   2.649   4.390   5.760 -1.3101  1.3765 -0.0275
 4266SOL    HW224435   2.606   4.247   5.729 -2.5683 -0.0987 -2.0784
 4267SOL     OW24436   2.490   0.937   6.453  0.4816 -0.1391  0.1460
 4267SOL    HW124437   2.448   1.004   6.398 -0.9112 -0.1077  1.2379
 4267SOL    HW224438   2.425   0.867   6.459 -0.0837  0.2637 -1.1746
 4268SOL     OW24439   1.868   2.796   9.613  0.4357  0.4097 -0.1874
 4268SOL    HW124440   1.909   2.784   9.527  1.9058  1.3153  0.3903
 4268SOL    HW224441   1.838   2.886   9.611  1.1169  0.6301 -0.4739
 4269SOL     OW24442   2.910   1.872   2.702 -0.0967  0.5772  0.1277
 4269SOL    HW124443   2.956   1.788   2.693 -1.0758  0.1779 -1.1259
 4269SOL    HW224444   2.819   1.853   2.679  0.2290 -0.8278  0.0180
 4270SOL     OW24445   1.530   3.049   2.354  0.0453  0.0748 -0.4213
 4270SOL    HW124446   1.463   3.109   2.389 -2.0240 -0.7657 -2.9412
 4270SOL    HW224447   1.546   2.998   2.434  1.5440 -1.0731 -1.4595
 4271SOL     OW24448   1.703   1.591   5.311  0.1932  0.1393 -0.4109
 4271SOL    HW124449   1.744   1.633   5.386 -3.4514 -0.6291  2.0230
 4271SOL    HW224450   1.636   1.658   5.296  1.1714  1.0072 -0.8337
 4272SOL     OW24451   0.469   4.184  14.607  0.6956  0.5594  0.9833
 4272SOL    HW124452   0.438   4.128  14.535 -1.4817  0.5346  1.9535
 4272SOL    HW224453   0.561   4.191  14.583  0.5864  1.4370  0.8394
 4273SOL     OW24454   3.492   1.671   4.652  0.4432 -0.0716  0.2942
 4273SOL    HW124455   3.404   1.704   4.674  0.4907  0.6695 -0.6379
 4273SOL    HW224456   3.539   1.641   4.730  2.5550 -1.8738 -1.6981
 4274SOL     OW24457   4.673   2.606   3.433 -0.4550  0.7072  0.3579
 4274SOL    HW124458   4.691   2.689   3.389  2.4622 -0.7122 -1.0796
 4274SOL    HW224459   4.668   2.629   3.526  1.5320  1.3089  0.3269
 4275SOL     OW24460   0.945   4.176   2.788  0.0797  0.8837  0.2070
 4275SOL    HW124461   0.934   4.254   2.843  2.7417  1.3317  0.0886
 4275SOL    HW224462   1.003   4.218   2.724 -2.0223  1.3156 -1.4154
 4276SOL     OW24463   1.268   3.110   5.708  0.6524 -0.5703 -0.4434
 4276SOL    HW124464   1.346   3.163   5.725 -2.5699  4.0067  0.0695
 4276SOL    HW224465   1.302   3.021   5.696  0.0566 -1.2738  3.0758
 4277SOL     OW24466   0.433   3.671   8.712 -0.0352  0.2673  0.4187
 4277SOL    HW124467   0.457   3.620   8.790  2.1395 -0.2275 -0.5821
 4277SOL    HW224468   0.342   3.697   8.727  0.1117  0.7339  0.5118
 4278SOL     OW24469   4.139   2.945  16.134  0.2054  0.3013 -0.1569
 4278SOL    HW124470   4.066   3.006  16.123  1.1835  1.3400 -0.8926
 4278SOL    HW224471   4.080   2.870  16.130  1.1537 -0.3840 -1.6082
 4279SOL     OW24472   0.019   1.667   7.359 -0.1116  0.5058  0.5882
 4279SOL    HW124473   4.723   1.685   7.447  1.3427  0.9561  1.0531
 4279SOL    HW224474   0.034   1.575   7.379 -0.5490 -0.0979 -1.9315
 4280SOL     OW24475   4.107   0.569  17.695 -0.1547 -0.1479  0.1368
 4280SOL    HW124476   4.167   0.643  17.710 -0.7505  0.2307  0.6574
 4280SOL    HW224477   4.029   0.621  17.675  1.0385  1.6857  0.1825
 4281SOL     OW24478   3.913   2.167   0.545 -0.0573  0.1947 -0.1069
 4281SOL    HW124479   3.872   2.213   0.618  1.5147  2.2027 -0.5000
 4281SOL    HW224480   3.843   2.174   0.480 -1.5011  1.4087  1.5871
 4282SOL     OW24481   0.733   3.000   5.484  0.4442 -0.2556 -0.2661
 4282SOL    HW124482   0.793   2.981   5.556  1.1510  2.2896 -0.2050
 4282SOL    HW224483   0.730   3.094   5.471 -0.9570 -0.0148  1.9656
 4283SOL     OW24484   2.471   4.554   3.433 -0.4704 -0.2374 -0.0638
 4283SOL    HW124485   2.522   4.558   3.513 -1.1097  0.8452  0.2826
 4283SOL    HW224486   2.388   4.596   3.454 -1.2346 -0.5329 -2.4343
 4284SOL     OW24487   3.769   4.409  12.579 -0.1536 -0.5153  0.6496
 4284SOL    HW124488   3.736   4.482  12.525 -0.8536 -1.2747  0.0584
 4284SOL    HW224489   3.779   4.342  12.513 -1.1539  0.3783 -0.4260
 4285SOL     OW24490   0.173   1.406   4.395  0.4601  0.3656  0.1763
 4285SOL    HW124491   0.163   1.408   4.300 -1.5648 -0.3846  0.3640
 4285SOL    HW224492   0.093   1.358   4.417  1.5016 -0.7468  1.5099
 4286SOL     OW24493   1.337   4.117   9.827  0.2843  0.1778 -0.1008
 4286SOL    HW124494   1.424   4.156   9.818 -0.1003  1.4641  1.7409
 4286SOL    HW224495   1.294   4.158   9.752  0.7774 -0.0990 -0.5367
 4287SOL     OW24496   4.397   0.765   2.254 -0.5090  0.2981 -0.1225
 4287SOL    HW124497   4.338   0.840   2.260 -1.8844 -0.8129  0.3457
 4287SOL    HW224498   4.353   0.692   2.298  1.0678 -0.5648  0.0416
 4288SOL     OW24499   0.001   3.235   8.648  0.3065 -0.6185  0.2418
 4288SOL    HW124500   0.055   3.183   8.707 -0.7578 -2.3834 -0.3307
 4288SOL    HW224501   0.034   3.206   8.563 -1.1803  2.1262 -1.2475
 4289SOL     OW24502   0.763   1.345  13.878 -0.3944  0.2790 -0.3363
 4289SOL    HW124503   0.703   1.295  13.934 -0.4651  1.1426  0.3762
 4289SOL    HW224504   0.720   1.340  13.793  0.5791  1.1369 -0.8748
 4290SOL     OW24505   0.234   3.607   2.146 -0.5952  0.1660 -0.5443
 4290SOL    HW124506   0.151   3.563   2.125  0.0780 -1.5169  0.3254
 4290SOL    HW224507   0.248   3.589   2.239  2.0087  0.9974 -0.7870
 4291SOL     OW24508   3.088   0.448  16.967 -0.2832  0.4358 -0.0065
 4291SOL    HW124509   3.024   0.392  16.923  0.2072  0.0893 -0.2799
 4291SOL    HW224510   3.157   0.386  16.992 -0.7680 -0.0916  0.0383
 4292SOL     OW24511   0.001   1.648  10.904 -0.0902 -0.0294 -0.7146
 4292SOL    HW124512   4.718   1.576  10.964 -2.2794 -0.3845 -1.8979
 4292SOL    HW224513   4.674   1.710  10.938  0.6046  0.6210 -0.5723
 4293SOL     OW24514   1.467   1.123   7.353  0.4211 -0.2460 -0.0746
 4293SOL    HW124515   1.461   1.168   7.437 -2.2483  0.4132 -0.5955
 4293SOL    HW224516   1.376   1.116   7.322  0.7887 -1.2718 -0.9477
 4294SOL     OW24517   0.730   2.023  13.081 -0.1323 -0.5931 -0.0452
 4294SOL    HW124518   0.709   2.058  13.168 -0.6395  1.1359 -0.8802
 4294SOL    HW224519   0.825   2.032  13.081 -0.1426 -0.4879 -0.2776
 4295SOL     OW24520   0.234   4.711  12.353 -0.0788 -0.1397  0.0832
 4295SOL    HW124521   0.253   4.625  12.392  1.7456  0.0034 -0.4572
 4295SOL    HW224522   0.154   4.737  12.398 -0.6529 -0.7604 -0.5871
 4296SOL     OW24523   0.180   2.228  14.004  0.1756  0.3115  0.2912
 4296SOL    HW124524   0.220   2.224  13.917  1.2935  0.8607  0.7778
 4296SOL    HW224525   0.097   2.271  13.984 -0.8006 -0.5464  2.5076
 4297SOL     OW24526   2.263   2.722   9.720 -0.3446  0.7339 -0.2388
 4297SOL    HW124527   2.177   2.732   9.760 -1.6026  1.5191 -3.1374
 4297SOL    HW224528   2.316   2.686   9.791 -0.6258 -1.6275 -1.2158
 4298SOL     OW24529   0.150   2.450   3.505 -0.0376  0.2075 -0.2318
 4298SOL    HW124530   0.205   2.484   3.435 -1.2579  2.8741  0.0878
 4298SOL    HW224531   0.075   2.506   3.481  0.3604  0.8303 -0.0226
 4299SOL     OW24532   1.588   3.739   7.608 -0.0074 -0.3003 -0.3746
 4299SOL    HW124533   1.669   3.698   7.638 -0.9818 -1.3275  0.8694
 4299SOL    HW224534   1.600   3.819   7.658 -3.7230  1.8585 -2.9524
 4300SOL     OW24535   0.382   1.546   5.309  0.0666 -0.2433  0.0498
 4300SOL    HW124536   0.344   1.520   5.225  0.9739 -0.3475 -0.3259
 4300SOL    HW224537   0.299   1.579   5.345 -0.9778 -0.5565 -2.0590
 4301SOL     OW24538   2.816   2.521   9.613 -0.3029 -0.1942  0.2492
 4301SOL    HW124539   2.842   2.545   9.524 -1.2288 -0.4795 -0.0977
 4301SOL    HW224540   2.722   2.538   9.617  0.1536  1.8177  2.4885
 4302SOL     OW24541   2.832   4.542  12.947  0.0422  0.0244  0.3857
 4302SOL    HW124542   2.920   4.565  12.917 -0.1211  1.5742  1.1094
 4302SOL    HW224543   2.784   4.548  12.865  1.7388 -3.1698 -0.8426
 4303SOL     OW24544   0.563   2.576  15.285 -0.3909  0.2157  0.1380
 4303SOL    HW124545   0.563   2.498  15.341 -0.0976 -0.7757 -1.2230
 4303SOL    HW224546   0.633   2.540  15.230 -1.2777 -0.4709 -0.5405
 4304SOL     OW24547   0.153   0.361   3.641 -0.0159 -0.3281 -0.4127
 4304SOL    HW124548   0.093   0.432   3.663 -0.7757 -1.3682  0.9011
 4304SOL    HW224549   0.181   0.340   3.730 -1.2344 -1.6431 -0.3377
 4305SOL     OW24550   1.762   2.042   2.842 -0.0547  0.3170 -0.0785
 4305SOL    HW124551   1.687   2.034   2.783 -0.0234 -0.9835  0.0586
 4305SOL    HW224552   1.727   2.097   2.913 -0.0982  0.7030 -0.3995
 4306SOL     OW24553   1.327   4.311   0.649  0.1727  0.0583 -0.1486
 4306SOL    HW124554   1.234   4.328   0.634  0.2570  1.3810  0.8279
 4306SOL    HW224555   1.324   4.301   0.744 -0.1529 -0.6226 -0.2298
 4307SOL     OW24556   1.040   3.096   9.204  0.1746 -0.7313  0.4676
 4307SOL    HW124557   0.979   3.091   9.278 -1.9932  1.0495 -1.2155
 4307SOL    HW224558   0.987   3.040   9.148  0.1967 -0.7992  0.5143
 4308SOL     OW24559   0.055   0.100  10.360 -0.5382  0.2538  0.4693
 4308SOL    HW124560   0.079   0.175  10.416 -3.2188  0.5469  1.2282
 4308SOL    HW224561   4.708   0.131  10.328 -1.4012  0.9053  3.2878
 4309SOL     OW24562   4.217   1.778   8.472  0.2736  0.0410 -0.0566
 4309SOL    HW124563   4.196   1.872   8.471 -0.0690 -0.0370 -0.2986
 4309SOL    HW224564   4.130   1.742   8.493 -0.7149  0.5395 -3.3873
 4310SOL     OW24565   4.347   3.882   1.289 -0.1904  0.0409  0.1329
 4310SOL    HW124566   4.401   3.909   1.216  0.7196 -0.0568  0.7713
 4310SOL    HW224567   4.264   3.921   1.262  0.7781  0.8345 -1.6410
 4311SOL     OW24568   3.188   4.575   1.019  0.2948 -0.1332  0.0063
 4311SOL    HW124569   3.275   4.572   1.059  1.0066 -2.6027 -1.7163
 4311SOL    HW224570   3.208   4.616   0.935 -0.0803 -0.8054 -0.4201
 4312SOL     OW24571   0.892   0.822   4.453 -0.5098  0.3434 -0.1470
 4312SOL    HW124572   0.928   0.734   4.457  0.2098  0.6751  0.6017
 4312SOL    HW224573   0.798   0.806   4.443 -1.0310  1.1235  3.6243
 4313SOL     OW24574   2.282   1.754   1.241  0.0943 -0.1422 -0.0062
 4313SOL    HW124575   2.223   1.729   1.170  0.2443  0.0876 -0.2092
 4313SOL    HW224576   2.306   1.842   1.212  2.5357 -0.3428  1.4475
 4314SOL     OW24577   3.131   2.597   6.153  0.2688 -0.9794  0.5728
 4314SOL    HW124578   3.168   2.646   6.226 -0.8610 -0.1420  0.5916
 4314SOL    HW224579   3.042   2.575   6.182 -1.4058  2.6160 -1.7283
 4315SOL     OW24580   0.682   2.237  10.742  0.0003  0.0700  0.1232
 4315SOL    HW124581   0.731   2.318  10.742  1.0363 -0.5627 -1.4009
 4315SOL    HW224582   0.592   2.271  10.746  0.8419  1.8492  3.6640
 4316SOL     OW24583   0.132   2.480   5.230  0.0466 -0.8244 -0.9447
 4316SOL    HW124584   0.076   2.417   5.184 -1.0700  0.0933 -0.8227
 4316SOL    HW224585   0.217   2.465   5.187  1.0949  1.6383  0.3147
 4317SOL     OW24586   0.461   0.671   0.064 -0.2527 -0.5651  0.2480
 4317SOL    HW124587   0.377   0.683   0.107 -0.7332 -0.1073 -0.8180
 4317SOL    HW224588   0.443   0.652  17.720 -2.2740 -0.6270  0.6524
 4318SOL     OW24589   1.597   3.598   7.034 -0.1208  0.0314  0.2692
 4318SOL    HW124590   1.560   3.679   7.069 -1.2091 -0.6699  0.7339
 4318SOL    HW224591   1.595   3.535   7.105  3.1374  0.4326  0.7184
 4319SOL     OW24592   4.434   3.457  10.871  0.1104 -0.4681 -0.4860
 4319SOL    HW124593   4.372   3.529  10.859  2.1072  1.5112  1.0909
 4319SOL    HW224594   4.448   3.444  10.777  0.9917  3.1048 -0.8889
 4320SOL     OW24595   1.507   2.333   7.268 -0.0932  0.2946 -0.5609
 4320SOL    HW124596   1.488   2.254   7.218  0.3302 -0.4981  0.5349
 4320SOL    HW224597   1.426   2.382   7.254  0.1942  0.7099 -0.7960
 4321SOL     OW24598   0.238   3.643   8.335 -0.0697  0.0213  0.2246
 4321SOL    HW124599   0.184   3.709   8.292 -0.8035 -0.1899  0.8154
 4321SOL    HW224600   0.175   3.601   8.395  1.2650 -1.5881  0.4997
 4322SOL     OW24601   0.500   3.670   5.354 -0.2254  0.1609  0.3074
 4322SOL    HW124602   0.482   3.604   5.422 -0.1193 -0.4292 -0.2438
 4322SOL    HW224603   0.575   3.620   5.322 -1.0560 -0.4053 -0.7584
 4323SOL     OW24604   2.721   2.933  13.236 -0.6012 -0.5368  0.2076
 4323SOL    HW124605   2.681   2.898  13.315  1.9740  1.3821  2.3521
 4323SOL    HW224606   2.710   3.026  13.253 -1.3450 -0.8488  1.4273
 4324SOL     OW24607   3.735   0.976   8.575 -0.3749 -0.3263 -0.1120
 4324SOL    HW124608   3.727   1.013   8.487 -2.0855 -1.4511 -0.4310
 4324SOL    HW224609   3.806   1.029   8.610 -0.3163  0.2981 -1.1695
 4325SOL     OW24610   4.100   2.375   4.703  0.0916  0.4068 -0.4054
 4325SOL    HW124611   4.179   2.429   4.705 -0.2612  0.9470 -1.4613
 4325SOL    HW224612   4.125   2.288   4.735  0.0955  0.2464 -0.8433
 4326SOL     OW24613   0.182   3.420  13.813  0.6954  0.4995  0.1477
 4326SOL    HW124614   0.244   3.373  13.756  0.8239 -0.7443  1.3251
 4326SOL    HW224615   0.139   3.352  13.865  5.4666 -3.2453 -0.8034
 4327SOL     OW24616   2.347   2.477   2.247 -0.3614 -0.0138 -0.4091
 4327SOL    HW124617   2.422   2.524   2.283 -2.1254  1.3237  1.5325
 4327SOL    HW224618   2.298   2.550   2.209 -1.5682 -1.9465 -2.5493
 4328SOL     OW24619   2.746   2.375  15.858  0.2219  0.0832  0.8498
 4328SOL    HW124620   2.744   2.390  15.953  2.8980  1.5555  0.6594
 4328SOL    HW224621   2.652   2.365  15.839 -0.0307  0.5418  1.8647
 4329SOL     OW24622   2.540   1.516   6.420 -0.1643 -0.3203  0.0717
 4329SOL    HW124623   2.626   1.488   6.453 -0.2548 -0.0027  0.5741
 4329SOL    HW224624   2.543   1.485   6.330 -2.9797  1.9324 -0.7761
 4330SOL     OW24625   3.854   3.073   8.672  0.1482  0.2042  0.1540
 4330SOL    HW124626   3.931   3.129   8.660 -0.9417  2.0909  1.9519
 4330SOL    HW224627   3.881   3.042   8.758  1.3451  0.4360 -0.1321
 4331SOL     OW24628   2.417   4.121  13.765  0.1823  0.0277 -0.4783
 4331SOL    HW124629   2.434   4.086  13.677  1.6702 -1.6467  0.4690
 4331SOL    HW224630   2.332   4.163  13.756  0.1030 -0.0302  0.0097
 4332SOL     OW24631   0.610   2.110   8.589  0.5524  0.4535  0.7567
 4332SOL    HW124632   0.577   2.125   8.678 -2.6827 -0.6635 -0.2498
 4332SOL    HW224633   0.597   2.016   8.579  3.1627  0.1624  0.0828
 4333SOL     OW24634   4.698   3.060   2.793 -0.1655 -0.0205  0.3629
 4333SOL    HW124635   4.679   3.012   2.713  0.9328 -0.3697  0.3111
 4333SOL    HW224636   4.617   3.044   2.842 -0.9829  0.6125 -0.7965
 4334SOL     OW24637   0.260   3.334  10.077  0.2332  0.2817 -0.4461
 4334SOL    HW124638   0.217   3.249  10.087 -1.1232  0.7594 -2.1551
 4334SOL    HW224639   0.249   3.367  10.165  1.8302  0.6922 -0.3964
 4335SOL     OW24640   3.115   2.199   5.332  0.5455  0.2524 -0.0314
 4335SOL    HW124641   3.045   2.238   5.279 -0.3570  0.4178  1.2748
 4335SOL    HW224642   3.106   2.247   5.414  0.5100 -0.4368  0.3703
 4336SOL     OW24643   3.823   1.157  16.294 -0.5331 -0.5121 -0.0386
 4336SOL    HW124644   3.762   1.195  16.230  0.7863 -0.1884 -1.1162
 4336SOL    HW224645   3.862   1.089  16.239  1.5503  1.4382 -0.9435
 4337SOL     OW24646   2.571   3.749   4.862  0.3271 -0.1848 -0.4028
 4337SOL    HW124647   2.569   3.710   4.949  0.9454 -0.8993 -0.7120
 4337SOL    HW224648   2.571   3.668   4.811  0.7894  1.1882 -2.6326
 4338SOL     OW24649   3.798   2.288   4.728 -0.0219 -0.1081  0.0721
 4338SOL    HW124650   3.807   2.232   4.651 -0.0017 -2.2727  1.6579
 4338SOL    HW224651   3.874   2.264   4.782  0.5286 -1.9506 -1.5204
 4339SOL     OW24652   4.256   1.886   4.999 -0.3444 -0.5234  0.5933
 4339SOL    HW124653   4.166   1.872   4.970  0.1271  0.4598 -1.3339
 4339SOL    HW224654   4.302   1.834   4.934 -0.3016 -0.2087  0.3706
 4340SOL     OW24655   4.416   3.357   7.230 -0.0729 -0.6721 -0.0527
 4340SOL    HW124656   4.455   3.374   7.316  1.8838  1.0854 -1.2905
 4340SOL    HW224657   4.404   3.442   7.189  1.6549 -0.9465 -1.1156
 4341SOL     OW24658   0.410   0.848   2.091  0.2710  0.4858  0.7406
 4341SOL    HW124659   0.407   0.838   2.186  1.6809  1.3255  0.8591
 4341SOL    HW224660   0.432   0.759   2.064 -1.5551  0.6185 -1.1944
 4342SOL     OW24661   0.099   1.885   4.345 -0.1919 -0.4410  0.6748
 4342SOL    HW124662   0.164   1.942   4.302  2.4740  0.0709  5.3510
 4342SOL    HW224663   0.088   1.924   4.432 -0.6158 -1.3511  1.0216
 4343SOL     OW24664   3.154   3.750   7.208 -0.3582  0.2565  0.1853
 4343SOL    HW124665   3.081   3.688   7.207 -0.9683  0.9945 -1.9166
 4343SOL    HW224666   3.191   3.721   7.291  0.7615 -0.2696 -0.4931
 4344SOL     OW24667   0.524   3.211  11.809  0.0599  0.1534 -0.1452
 4344SOL    HW124668   0.616   3.227  11.831  0.6071 -0.1365 -2.1551
 4344SOL    HW224669   0.512   3.117  11.793 -0.1971 -0.2797  2.7179
 4345SOL     OW24670   3.468   3.142   5.947  0.0033  0.6404 -0.0987
 4345SOL    HW124671   3.458   3.217   5.889 -2.1722 -1.2055 -2.1428
 4345SOL    HW224672   3.519   3.077   5.898 -0.4932  0.5366 -0.4899
 4346SOL     OW24673   1.072   2.685   7.981  0.3279  0.1507  0.9547
 4346SOL    HW124674   1.061   2.708   8.073  0.7932 -1.3471  1.3848
 4346SOL    HW224675   1.072   2.769   7.937  0.2236 -0.2131  0.2581
 4347SOL     OW24676   3.511   3.664   8.117 -0.5666 -0.8323 -0.0805
 4347SOL    HW124677   3.497   3.626   8.203  0.4100 -0.1814  0.3628
 4347SOL    HW224678   3.493   3.590   8.059  0.1234 -1.0449 -0.0159
 4348SOL     OW24679   2.769   2.072   8.734 -0.1367 -0.1598 -0.3201
 4348SOL    HW124680   2.823   2.119   8.671 -1.6593  0.5496 -1.0989
 4348SOL    HW224681   2.778   1.980   8.707  2.0930  0.3308 -1.2817
 4349SOL     OW24682   2.356   0.876   5.516  0.4691  0.0540 -0.1867
 4349SOL    HW124683   2.444   0.840   5.526 -0.3604 -1.7813  0.4982
 4349SOL    HW224684   2.343   0.850   5.425 -1.6765 -0.8448  0.3790
 4350SOL     OW24685   3.718   4.461  11.063  0.1697  0.4217  0.2398
 4350SOL    HW124686   3.660   4.386  11.048 -0.9169  1.0805  1.1986
 4350SOL    HW224687   3.757   4.440  11.148  0.1580 -1.8879 -0.3276
 4351SOL     OW24688   0.293   0.718   5.502 -0.2599  0.1933  0.0587
 4351SOL    HW124689   0.219   0.748   5.450 -0.2678  0.5552  0.2793
 4351SOL    HW224690   0.327   0.652   5.442 -1.0231  0.0156 -0.1809
 4352SOL     OW24691   3.625   3.241   7.080 -0.1982 -0.4436 -0.2376
 4352SOL    HW124692   3.553   3.182   7.058  0.6817 -0.8683 -2.0184
 4352SOL    HW224693   3.657   3.197   7.158 -0.0614  1.9082  1.0303
 4353SOL     OW24694   4.325   0.903   9.092 -0.1599  0.7395 -0.1803
 4353SOL    HW124695   4.239   0.888   9.052  0.0868 -1.5357  0.1420
 4353SOL    HW224696   4.384   0.919   9.019 -0.5028  0.2217 -0.5744
 4354SOL     OW24697   1.693   1.619   6.121  0.3313  0.1663  0.4110
 4354SOL    HW124698   1.603   1.647   6.141  0.6380  1.9271 -0.6405
 4354SOL    HW224699   1.731   1.699   6.085 -0.2747  1.4906  2.7330
 4355SOL     OW24700   1.045   3.815   6.189 -0.0870 -0.2899 -0.2763
 4355SOL    HW124701   1.045   3.825   6.284 -0.8120 -1.3704 -0.1656
 4355SOL    HW224702   1.111   3.747   6.175  1.3081  0.9255  0.4473
 4356SOL     OW24703   2.045   0.840   0.187 -0.1218 -0.4489  0.3249
 4356SOL    HW124704   2.122   0.790   0.216 -0.3507 -1.5919 -1.0706
 4356SOL    HW224705   1.979   0.774   0.209 -0.3240  0.0191  1.1473
 4357SOL     OW24706   1.513   2.563  10.379 -0.3874 -0.0792  0.3713
 4357SOL    HW124707   1.527   2.506  10.455  3.1169  0.8092  0.4020
 4357SOL    HW224708   1.479   2.506  10.310  1.9980  0.6995 -1.4248
 4358SOL     OW24709   0.757   2.304   3.010  0.3994  0.4243  0.8601
 4358SOL    HW124710   0.708   2.229   3.044  1.4293 -0.9472 -0.6916
 4358SOL    HW224711   0.719   2.334   2.928  1.9026  0.1188  0.0548
 4359SOL     OW24712   4.341   4.449   2.627 -0.3393 -0.3542  0.1597
 4359SOL    HW124713   4.386   4.384   2.573  0.1437 -1.6655  2.1479
 4359SOL    HW224714   4.412   4.501   2.666 -1.1312 -0.5059  1.8218
 4360SOL     OW24715   2.496   1.021   2.637  0.0762  0.4561 -0.2346
 4360SOL    HW124716   2.502   0.975   2.553  1.4874  2.8485 -1.4458
 4360SOL    HW224717   2.586   1.010   2.668 -0.8194 -0.6639  1.9735
 4361SOL     OW24718   2.175   2.883   9.371  0.4416 -0.2978 -0.4086
 4361SOL    HW124719   2.224   2.818   9.421 -0.0802  1.0299  1.8338
 4361SOL    HW224720   2.102   2.826   9.349 -1.1090  1.2466  0.7112
 4362SOL     OW24721   2.878   3.813  10.690  0.3513  0.2208  0.0745
 4362SOL    HW124722   2.950   3.873  10.709 -0.1416  1.1052 -0.8841
 4362SOL    HW224723   2.811   3.881  10.692  0.6558  0.5197  0.1903
 4363SOL     OW24724   2.903   0.396   1.140  0.3948 -0.0377 -0.7090
 4363SOL    HW124725   2.893   0.465   1.073 -1.1874  1.2623  0.8621
 4363SOL    HW224726   2.951   0.443   1.209 -0.8580 -0.8954  0.7335
 4364SOL     OW24727   2.149   1.593   0.981 -0.1541  0.4178  0.4918
 4364SOL    HW124728   2.121   1.685   0.985  0.5910  0.7750 -2.7256
 4364SOL    HW224729   2.124   1.577   0.890  0.6907  0.9742  0.1586
 4365SOL     OW24730   3.173   1.350  12.805 -0.3550  0.3748 -0.1700
 4365SOL    HW124731   3.166   1.318  12.895  1.9139 -0.5266 -0.3135
 4365SOL    HW224732   3.258   1.318  12.776 -0.6758 -0.8568  0.2563
 4366SOL     OW24733   4.177   3.587  17.444  0.1236 -0.5667 -0.2566
 4366SOL    HW124734   4.188   3.500  17.481  0.9252  0.1047  1.0651
 4366SOL    HW224735   4.250   3.634  17.483 -1.0343  0.2054  0.9822
 4367SOL     OW24736   3.797   3.149   6.644 -0.0012  0.4438 -1.1009
 4367SOL    HW124737   3.740   3.218   6.679 -0.8489 -1.1503  0.6353
 4367SOL    HW224738   3.851   3.200   6.583 -0.1905  0.3773 -1.3258
 4368SOL     OW24739   3.446   0.991   3.132 -0.5068 -0.3915 -0.6141
 4368SOL    HW124740   3.431   0.925   3.064  0.1308 -0.3154 -0.8248
 4368SOL    HW224741   3.514   1.044   3.091 -2.0432 -0.9772 -3.8430
 4369SOL     OW24742   3.930   1.327  13.036 -0.2736  0.4579 -0.2891
 4369SOL    HW124743   3.937   1.417  13.005 -1.0437  0.9722  0.9985
 4369SOL    HW224744   3.845   1.337  13.081  0.0067  0.0076  0.3329
 4370SOL     OW24745   3.571   2.530   1.051 -0.3980 -0.0478 -0.0768
 4370SOL    HW124746   3.541   2.569   0.969 -1.6297 -1.1931 -0.1577
 4370SOL    HW224747   3.633   2.598   1.076  1.6533 -1.6584 -0.7638
 4371SOL     OW24748   1.168   3.943   3.916  0.4313  0.1622  0.1558
 4371SOL    HW124749   1.167   4.026   3.868 -2.9748 -0.3230 -0.6103
 4371SOL    HW224750   1.261   3.939   3.938  0.7163 -2.2013 -1.4455
 4372SOL     OW24751   3.186   1.708   4.131 -0.3683 -0.1209 -0.1051
 4372SOL    HW124752   3.220   1.643   4.070  1.7278  2.6688 -1.8509
 4372SOL    HW224753   3.250   1.777   4.115  0.0988 -0.5826 -0.2401
 4373SOL     OW24754   0.096   3.176  10.497 -0.5942  0.4410 -0.6887
 4373SOL    HW124755   0.097   3.091  10.454  1.8032  1.5906 -2.9009
 4373SOL    HW224756   0.189   3.197  10.489 -0.8460  2.5285  1.6931
 4374SOL     OW24757   3.579   3.508  13.719 -0.0867  0.1299  0.2514
 4374SOL    HW124758   3.651   3.457  13.758  0.2938  0.2377 -0.3170
 4374SOL    HW224759   3.617   3.544  13.639 -0.8655  0.0294 -0.1632
 4375SOL     OW24760   0.442   4.429   8.824 -0.2759 -0.3307  0.7275
 4375SOL    HW124761   0.454   4.397   8.914 -0.1389  1.2682  1.2753
 4375SOL    HW224762   0.529   4.422   8.786 -1.4873 -0.0057 -2.0794
 4376SOL     OW24763   4.306   0.283  10.230 -0.4989  0.0390 -0.3091
 4376SOL    HW124764   4.314   0.187  10.230  0.2190  0.0960 -1.5210
 4376SOL    HW224765   4.278   0.299  10.320  3.6634 -1.4843  1.2833
 4377SOL     OW24766   3.834   4.668   2.668 -0.5192 -0.3371 -0.2565
 4377SOL    HW124767   3.868   4.657   2.579 -3.1638  2.3496 -1.6165
 4377SOL    HW224768   3.754   4.616   2.665 -0.1508 -0.8887 -0.5160
 4378SOL     OW24769   3.911   2.681   8.873 -0.1196  0.3188  0.0842
 4378SOL    HW124770   3.862   2.635   8.805  3.3199 -0.6381 -1.7768
 4378SOL    HW224771   4.003   2.659   8.859 -0.3553  0.0444 -1.0198
 4379SOL     OW24772   1.140   2.665  14.024 -0.3658  0.0064 -1.1952
 4379SOL    HW124773   1.066   2.665  14.085 -0.5065 -0.8375 -1.3595
 4379SOL    HW224774   1.213   2.710  14.067 -1.9401  0.8261  0.6019
 4380SOL     OW24775   2.699   1.187   7.894  0.3995 -0.1295  0.3115
 4380SOL    HW124776   2.774   1.246   7.906  1.2611 -0.4419 -3.6941
 4380SOL    HW224777   2.630   1.245   7.862  1.1709 -1.4300 -3.6108
 4381SOL     OW24778   2.181   0.143   2.433 -0.0264  0.6982 -0.1948
 4381SOL    HW124779   2.224   0.120   2.515 -2.3465  1.5385  1.2710
 4381SOL    HW224780   2.115   0.074   2.426  1.9662 -1.2967  0.9088
 4382SOL     OW24781   4.699   2.199  12.486  0.0856 -0.3110  0.2665
 4382SOL    HW124782   4.633   2.153  12.538  1.6785 -0.5393  2.0679
 4382SOL    HW224783   0.028   2.216  12.552  1.2757  1.0204 -1.2568
 4383SOL     OW24784   0.580   1.064   7.758 -0.3220 -0.3723 -0.5709
 4383SOL    HW124785   0.492   1.028   7.746 -0.6973  0.0856  0.7737
 4383SOL    HW224786   0.595   1.024   7.844  1.7309 -2.3194 -1.8438
 4384SOL     OW24787   2.056   1.227  13.582  0.1792 -0.0213 -0.1386
 4384SOL    HW124788   1.997   1.302  13.572  1.8832  1.1429 -1.4422
 4384SOL    HW224789   2.128   1.240  13.519  0.1296  1.5288  0.1292
 4385SOL     OW24790   1.511   2.625   9.090 -0.4024  0.1881  0.1037
 4385SOL    HW124791   1.499   2.587   9.176 -0.0182  2.0308  0.9781
 4385SOL    HW224792   1.602   2.652   9.104 -0.2719 -0.5739  0.7233
 4386SOL     OW24793   3.946   3.913   7.037  0.0031  0.0557 -0.2363
 4386SOL    HW124794   3.926   3.826   7.072  1.6631  0.2848  1.3068
 4386SOL    HW224795   3.881   3.923   6.968  0.4534 -3.7311 -1.2215
 4387SOL     OW24796   2.784   2.802   3.245 -0.4652  0.2866 -0.3297
 4387SOL    HW124797   2.843   2.773   3.175  0.3930 -0.3967  0.6825
 4387SOL    HW224798   2.779   2.722   3.298 -0.1493  0.4730 -0.0190
 4388SOL     OW24799   3.122   2.649   9.472  0.1001  0.0360  0.2471
 4388SOL    HW124800   3.046   2.615   9.424  0.5093 -0.3284 -0.1356
 4388SOL    HW224801   3.181   2.574   9.467  1.8876  1.3444  1.4440
 4389SOL     OW24802   3.046   1.918   8.698 -0.0743 -0.2534 -0.8749
 4389SOL    HW124803   3.129   1.967   8.703  1.1284 -2.4442  0.3535
 4389SOL    HW224804   3.069   1.849   8.637  1.1552 -1.4977  1.0023
 4390SOL     OW24805   4.263   2.149  14.804  0.2865 -0.3052  0.3874
 4390SOL    HW124806   4.168   2.162  14.799  0.0766 -2.1915 -0.5377
 4390SOL    HW224807   4.282   2.165  14.711 -0.8464  4.4826  0.9694
 4391SOL     OW24808   4.397   3.852   5.171  0.1768 -0.1928 -0.0084
 4391SOL    HW124809   4.321   3.909   5.159 -1.1970 -2.1744 -0.7538
 4391SOL    HW224810   4.358   3.764   5.174  1.1050 -0.6136 -0.3380
 4392SOL     OW24811   3.675   0.781   5.051 -0.6274 -0.4901 -0.4044
 4392SOL    HW124812   3.725   0.729   5.114  0.0537 -2.1498 -2.2839
 4392SOL    HW224813   3.663   0.863   5.099  3.2907 -0.5954  0.7039
 4393SOL     OW24814   4.255   4.025   0.503 -0.2105 -0.2260  0.0347
 4393SOL    HW124815   4.232   4.021   0.595 -0.2269  0.5727  0.0667
 4393SOL    HW224816   4.184   3.971   0.468 -1.2948 -0.6351  2.9156
 4394SOL     OW24817   3.792   2.800  12.703 -0.4407 -0.3845  0.4072
 4394SOL    HW124818   3.880   2.835  12.715 -0.4008 -0.9468  1.7923
 4394SOL    HW224819   3.765   2.851  12.626  0.7451  1.6355  1.3365
 4395SOL     OW24820   0.241   0.623   6.886 -0.8530  0.2198  0.4040
 4395SOL    HW124821   0.269   0.531   6.890 -2.6236 -0.2064  2.7689
 4395SOL    HW224822   0.326   0.665   6.873 -0.7760 -0.7031 -2.1974
 4396SOL     OW24823   3.375   4.735   3.688 -0.0098  0.5884 -0.3460
 4396SOL    HW124824   3.470   4.727   3.694 -0.1489 -2.0839 -1.9253
 4396SOL    HW224825   3.369   4.732   3.593  1.0319 -2.5482 -0.3074
 4397SOL     OW24826   0.582   1.269  10.925 -0.5550  0.2679  0.1591
 4397SOL    HW124827   0.655   1.206  10.926 -1.7912 -1.1216  2.0493
 4397SOL    HW224828   0.513   1.227  10.874  0.1920 -0.7475 -0.0402
 4398SOL     OW24829   3.907   0.226   1.363  0.3330  0.0109 -0.4233
 4398SOL    HW124830   3.889   0.292   1.296 -0.3828 -2.6790 -2.8864
 4398SOL    HW224831   3.825   0.236   1.411  1.8291  1.7533  1.7409
 4399SOL     OW24832   1.752   1.646   8.041  0.4330 -0.8398 -0.8717
 4399SOL    HW124833   1.734   1.671   7.950  0.2531  0.5569 -0.4593
 4399SOL    HW224834   1.661   1.620   8.058  1.0329 -2.5017 -0.1890
 4400SOL     OW24835   2.518   2.127   8.648  0.1072  0.2653 -0.4673
 4400SOL    HW124836   2.608   2.126   8.680 -0.0738  2.9358  0.1351
 4400SOL    HW224837   2.471   2.133   8.731 -1.1232 -1.6058 -1.0279
 4401SOL     OW24838   3.929   1.184  11.239  0.0290  0.3319  0.4138
 4401SOL    HW124839   3.906   1.091  11.246  4.2815 -0.8536 -1.4487
 4401SOL    HW224840   3.874   1.228  11.303  2.2601  0.2937  2.3427
 4402SOL     OW24841   2.147   2.974   4.412  0.2534  0.3286 -0.5857
 4402SOL    HW124842   2.207   2.945   4.480  0.8156 -0.7118 -1.5302
 4402SOL    HW224843   2.176   2.927   4.334 -0.5298  0.6509 -1.0782
 4403SOL     OW24844   0.422   0.684   6.169  0.1646  0.5041  0.0580
 4403SOL    HW124845   0.490   0.644   6.224 -0.5204  0.7282  1.0687
 4403SOL    HW224846   0.372   0.605   6.150 -1.7136  1.7206 -0.0072
 4404SOL     OW24847   4.357   4.397  13.724 -0.3460 -0.7099 -0.0484
 4404SOL    HW124848   4.363   4.456  13.799 -1.6853  0.2126 -0.6680
 4404SOL    HW224849   4.299   4.325  13.749  0.3653 -1.7924 -1.5369
 4405SOL     OW24850   2.888   2.242   8.510  0.2571 -0.0525  0.3524
 4405SOL    HW124851   2.863   2.267   8.421 -0.1455  1.2171  0.8179
 4405SOL    HW224852   2.865   2.323   8.557 -3.3100 -2.1770  2.2812
 4406SOL     OW24853   0.093   4.511   2.110 -0.4888 -0.1598 -0.2076
 4406SOL    HW124854   0.042   4.573   2.059  2.7478  1.6256 -1.2673
 4406SOL    HW224855   0.177   4.557   2.106  0.0571 -1.0149  1.6539
 4407SOL     OW24856   2.070   2.696   2.343  0.5989  0.0160  0.7823
 4407SOL    HW124857   2.014   2.769   2.314  0.2406 -0.2095  0.9052
 4407SOL    HW224858   2.123   2.749   2.402  1.3330  0.8072 -0.5860
 4408SOL     OW24859   4.512   2.104   4.233 -0.6679  0.4384 -0.2590
 4408SOL    HW124860   4.519   2.078   4.324 -3.7536 -0.0315 -0.1535
 4408SOL    HW224861   4.478   2.192   4.248  0.9659  0.9201  0.5694
 4409SOL     OW24862   1.417   0.190  15.687 -0.0202  0.2835 -0.0025
 4409SOL    HW124863   1.415   0.182  15.782 -0.1601  0.7797  0.0331
 4409SOL    HW224864   1.473   0.264  15.667  0.4855 -0.0916  0.0326
 4410SOL     OW24865   4.418   1.384   4.068  0.1743  0.0565  0.2818
 4410SOL    HW124866   4.365   1.446   4.017 -1.1354 -0.6508  0.7638
 4410SOL    HW224867   4.345   1.326   4.091 -0.1519  0.3392 -0.0426
 4411SOL     OW24868   0.928   0.631  13.523  0.1575 -0.3925 -1.1413
 4411SOL    HW124869   0.928   0.672  13.610 -1.1175 -0.1213 -1.2648
 4411SOL    HW224870   0.880   0.549  13.535 -1.4420  0.9099  1.5976
 4412SOL     OW24871   2.006   2.908   5.965 -0.4628 -0.0570  0.1168
 4412SOL    HW124872   2.028   2.990   5.920 -0.8640  1.4088  2.5321
 4412SOL    HW224873   1.949   2.950   6.031 -2.2669 -0.3827 -1.2530
 4413SOL     OW24874   0.716   0.801   1.827 -0.1691 -0.2351  0.3417
 4413SOL    HW124875   0.707   0.740   1.899 -0.5326  0.3308  0.7789
 4413SOL    HW224876   0.631   0.787   1.784  0.4808 -3.5530  0.1892
 4414SOL     OW24877   0.158   4.610   0.618  0.3417  0.0692 -0.2136
 4414SOL    HW124878   0.124   4.521   0.626  0.6552 -0.0398 -0.0537
 4414SOL    HW224879   0.215   4.623   0.694  0.8588 -1.6563 -0.3030
 4415SOL     OW24880   1.316   2.591   8.416  0.4627  0.0793  0.0324
 4415SOL    HW124881   1.359   2.667   8.377 -0.8890  1.2201  0.7358
 4415SOL    HW224882   1.275   2.548   8.341 -0.3434  1.2336 -0.2026
 4416SOL     OW24883   4.413   0.445  12.022 -0.2514 -0.0244  0.2406
 4416SOL    HW124884   4.487   0.448  12.082 -0.4731  0.0367  0.5121
 4416SOL    HW224885   4.446   0.386  11.955  1.2061  0.7716  0.2818
 4417SOL     OW24886   3.607   4.498  17.546 -0.4732  0.2593 -0.0211
 4417SOL    HW124887   3.513   4.490  17.530 -0.5344  1.3545 -0.2232
 4417SOL    HW224888   3.627   4.425  17.604  0.2412  0.7525  0.3512
 4418SOL     OW24889   3.353   0.564  15.558 -0.0208 -0.0871 -0.0495
 4418SOL    HW124890   3.296   0.605  15.492 -0.0523 -2.8155 -1.6938
 4418SOL    HW224891   3.327   0.473  15.549  2.5905 -0.7676 -0.5336
 4419SOL     OW24892   3.361   4.561   6.679  0.1024 -0.2996  0.8472
 4419SOL    HW124893   3.407   4.638   6.711  1.5845 -1.4410  1.4395
 4419SOL    HW224894   3.430   4.518   6.629  0.4190  0.0930  0.9495
 4420SOL     OW24895   0.726   1.664  13.732  0.6199  0.6891  0.3857
 4420SOL    HW124896   0.776   1.582  13.732  1.6951  1.3578 -2.2857
 4420SOL    HW224897   0.727   1.679  13.827 -2.2540  0.4869  0.4374
 4421SOL     OW24898   2.365   0.019   7.164  0.0132 -0.1887  0.3147
 4421SOL    HW124899   2.423   4.700   7.215 -1.5334  0.0250  2.3250
 4421SOL    HW224900   2.426   0.088   7.139 -0.7831  0.3689 -0.0991
 4422SOL     OW24901   3.261   0.958   1.698 -0.1098 -0.3615 -0.3210
 4422SOL    HW124902   3.166   0.963   1.708  0.1158 -0.6727  2.0818
 4422SOL    HW224903   3.293   1.043   1.667  0.7489 -0.7502 -0.5035
 4423SOL     OW24904   2.520   2.366   0.737 -0.5487 -0.4964  0.1286
 4423SOL    HW124905   2.521   2.355   0.642 -0.0023  1.8120 -0.1368
 4423SOL    HW224906   2.565   2.282   0.751 -2.6033 -1.9166 -1.9411
 4424SOL     OW24907   0.903   4.125   1.672  0.5424  0.0784  0.0396
 4424SOL    HW124908   0.899   4.203   1.617  0.8212  0.5468  0.6790
 4424SOL    HW224909   0.898   4.174   1.754  1.0879 -0.7324  0.5530
 4425SOL     OW24910   4.092   0.567  12.373  0.1342 -0.3342 -0.1438
 4425SOL    HW124911   4.008   0.604  12.401  0.1635  0.5992 -1.2939
 4425SOL    HW224912   4.074   0.521  12.292  1.7939 -1.7798  0.3161
 4426SOL     OW24913   0.280   2.628   4.607  0.0097 -0.2034 -0.3874
 4426SOL    HW124914   0.337   2.576   4.550  0.4090 -0.9991  0.7512
 4426SOL    HW224915   0.292   2.592   4.694 -0.0235 -1.5627 -0.9480
 4427SOL     OW24916   2.348   4.485   3.810  0.0982  0.2780  0.0501
 4427SOL    HW124917   2.380   4.552   3.871 -0.3533  0.8865 -0.3857
 4427SOL    HW224918   2.333   4.413   3.872 -2.3642 -0.0156 -0.9028
 4428SOL     OW24919   0.029   4.340  16.507 -0.0016  0.1812  0.3595
 4428SOL    HW124920   0.045   4.381  16.592 -0.2124  4.4916 -1.6413
 4428SOL    HW224921   0.054   4.250  16.525 -0.3573  0.6557  3.1893
 4429SOL     OW24922   4.146   1.522   5.060 -0.2092 -0.0515  0.4030
 4429SOL    HW124923   4.242   1.523   5.067 -0.2196  1.0816  0.4053
 4429SOL    HW224924   4.123   1.580   5.132 -0.1596  0.5789 -0.0915
 4430SOL     OW24925   2.918   0.193   6.257 -0.3394  0.1681 -0.7820
 4430SOL    HW124926   2.869   0.111   6.253  2.0978 -1.3460  0.2251
 4430SOL    HW224927   2.915   0.221   6.165 -1.3568  0.2732 -0.7163
 4431SOL     OW24928   0.888   2.981   8.578  0.1187 -0.3671 -0.9256
 4431SOL    HW124929   0.901   3.021   8.664 -1.0888  2.3044 -1.9943
 4431SOL    HW224930   0.908   2.889   8.594  0.0448 -0.5101 -1.6457
 4432SOL     OW24931   1.133   3.400   0.681 -0.0208 -0.0092  0.7517
 4432SOL    HW124932   1.077   3.406   0.604  1.3945 -1.3811 -0.3815
 4432SOL    HW224933   1.189   3.476   0.663 -0.9288  1.0794  2.4583
 4433SOL     OW24934   1.754   3.911   9.153 -0.2130 -0.2095  0.3983
 4433SOL    HW124935   1.783   4.000   9.131  0.1997 -1.2761 -3.3700
 4433SOL    HW224936   1.827   3.874   9.203  0.7492  0.6949 -0.3254
 4434SOL     OW24937   1.486   2.352   6.846 -0.1796  0.5931 -0.7521
 4434SOL    HW124938   1.464   2.302   6.925  0.5254  3.0619  0.9810
 4434SOL    HW224939   1.459   2.294   6.774  0.7010  0.2467 -0.8012
 4435SOL     OW24940   3.402   3.222  10.402  0.0661 -0.4743 -0.1693
 4435SOL    HW124941   3.443   3.160  10.342 -0.0130 -2.1594  1.5506
 4435SOL    HW224942   3.378   3.293  10.343  0.6666  0.7203  1.0087
 4436SOL     OW24943   3.862   0.321   2.605 -0.3435  0.1076 -0.0931
 4436SOL    HW124944   3.892   0.259   2.539 -3.4054 -2.6941  1.1525
 4436SOL    HW224945   3.857   0.400   2.551 -1.5673  0.0975  0.0009
 4437SOL     OW24946   1.988   4.008   7.214  0.2266 -0.1152  0.0802
 4437SOL    HW124947   2.082   4.009   7.232  0.2352  1.9314 -0.1011
 4437SOL    HW224948   1.981   4.074   7.145 -4.2868  0.3186  0.9797
 4438SOL     OW24949   1.964   2.355   1.339  0.1572 -0.3510 -0.5836
 4438SOL    HW124950   1.954   2.447   1.314 -0.0291 -0.0181  0.7162
 4438SOL    HW224951   2.044   2.349   1.391  0.8594 -2.0978 -1.8573
 4439SOL     OW24952   2.348   0.294   1.819 -0.1500  0.2896  0.1815
 4439SOL    HW124953   2.412   0.334   1.878  1.5461 -3.2579  0.7799
 4439SOL    HW224954   2.385   0.303   1.731 -0.2227 -2.9673 -0.2020
 4440SOL     OW24955   2.656   3.350  17.409 -0.3337 -0.4776  0.7117
 4440SOL    HW124956   2.651   3.412  17.482  1.6169  1.4092 -0.7797
 4440SOL    HW224957   2.665   3.265  17.454 -0.6889 -0.0634  1.5654
 4441SOL     OW24958   3.611   4.439   3.488 -0.2272  0.2492  0.2155
 4441SOL    HW124959   3.688   4.447   3.544 -0.0988  0.0177  0.0738
 4441SOL    HW224960   3.580   4.526   3.462  1.3620  0.5717 -0.5977
 4442SOL     OW24961   3.307   0.264   3.996 -0.0431  0.6192  0.0173
 4442SOL    HW124962   3.279   0.307   3.915  2.9930 -1.2973 -2.0393
 4442SOL    HW224963   3.310   0.169   3.986  1.4419  0.5126  1.4921
 4443SOL     OW24964   3.775   0.860   7.027 -0.0522 -0.2800  0.2200
 4443SOL    HW124965   3.793   0.876   7.120 -1.9982 -2.1551  0.9106
 4443SOL    HW224966   3.723   0.779   7.032 -0.4057 -0.0609  0.1028
 4444SOL     OW24967   4.697   2.970   0.632  0.2626 -0.0148  1.1343
 4444SOL    HW124968   4.665   2.887   0.597 -0.5608  0.5751  0.4999
 4444SOL    HW224969   4.643   2.968   0.711 -0.8548 -0.5626  0.3525
 4445SOL     OW24970   0.755   3.980   7.366 -0.2339 -0.0904 -0.2889
 4445SOL    HW124971   0.689   3.922   7.328 -0.0854  1.1416 -2.4448
 4445SOL    HW224972   0.831   3.925   7.381 -2.1438 -2.6160  0.1457
 4446SOL     OW24973   0.611   1.297  13.638 -0.2967  0.1670 -0.7029
 4446SOL    HW124974   0.600   1.258  13.551  0.1063 -1.2554 -0.1181
 4446SOL    HW224975   0.535   1.355  13.640  0.6433  1.3598  0.2345
 4447SOL     OW24976   4.271   2.770  12.975  0.0850  0.6538  0.3487
 4447SOL    HW124977   4.351   2.731  12.940  0.0623  1.0668 -0.1631
 4447SOL    HW224978   4.246   2.840  12.915 -0.0305 -0.2646 -0.6813
 4448SOL     OW24979   4.040   3.923   7.309  0.2917 -0.3668  0.6563
 4448SOL    HW124980   4.012   3.916   7.218  4.4642 -3.5194 -0.4131
 4448SOL    HW224981   3.994   3.997   7.349 -1.0068 -0.0353 -1.4847
 4449SOL     OW24982   4.339   2.768   0.049 -0.3799 -0.1175 -0.1762
 4449SOL    HW124983   4.266   2.790  17.739 -0.5013 -1.2484 -0.4399
 4449SOL    HW224984   4.404   2.751  17.729  0.0299  2.9384 -0.5773
 4450SOL     OW24985   0.433   0.776   7.809 -0.6331  0.0304  0.2628
 4450SOL    HW124986   0.528   0.763   7.810 -0.6856 -0.4822 -1.5954
 4450SOL    HW224987   0.412   0.748   7.899  0.1573 -1.9616 -0.1573
 4451SOL     OW24988   2.951   2.425  15.190  0.1755  0.5874 -0.3126
 4451SOL    HW124989   2.957   2.483  15.266  0.6490  0.8515 -0.5510
 4451SOL    HW224990   2.955   2.336  15.224 -0.6086  0.3528 -0.8306
 4452SOL     OW24991   4.484   3.104   7.167  0.2776  0.2125 -0.2648
 4452SOL    HW124992   4.457   3.195   7.176 -1.0855 -0.4194  1.9876
 4452SOL    HW224993   4.554   3.090   7.232 -1.0365  1.2537  1.3793
 4453SOL     OW24994   0.207   2.327   7.742  0.3489  0.6113 -0.2097
 4453SOL    HW124995   0.272   2.386   7.779  1.7410  0.0901 -1.7919
 4453SOL    HW224996   0.206   2.256   7.806 -1.6939 -0.2116 -1.1604
 4454SOL     OW24997   2.222   3.873   6.366 -0.4794  0.7063  0.7847
 4454SOL    HW124998   2.270   3.851   6.446 -2.9544 -0.3954  1.9901
 4454SOL    HW224999   2.219   3.968   6.373 -2.9371  0.6857  0.1984
 4455SOL     OW25000   4.604   2.983   8.964  0.1232  0.1672  0.0153
 4455SOL    HW125001   4.686   2.950   8.927  1.1389 -0.5341  2.9184
 4455SOL    HW225002   4.586   2.923   9.035  0.8606  0.3881  0.3829
 4456SOL     OW25003   3.661   2.881   5.365 -0.6061 -0.0354  0.0676
 4456SOL    HW125004   3.665   2.934   5.285 -2.3063  0.2234  0.1674
 4456SOL    HW225005   3.748   2.875   5.405  0.3496  1.3431 -1.8004
 4457SOL     OW25006   2.157   0.948  17.458  0.2187  0.0935 -0.0857
 4457SOL    HW125007   2.168   0.853  17.447 -0.2240  0.1403 -0.9065
 4457SOL    HW225008   2.090   0.949  17.527  2.1921 -0.7852  1.8383
 4458SOL     OW25009   4.166   4.468  14.008 -0.3088 -0.2627 -0.0068
 4458SOL    HW125010   4.170   4.374  13.990  1.3541  0.1581 -1.7616
 4458SOL    HW225011   4.259   4.491  14.000 -0.8426  0.9268 -2.5975
 4459SOL     OW25012   4.705   4.653  16.600  0.1367 -0.1910 -0.2756
 4459SOL    HW125013   0.049   4.664  16.550 -2.3973  0.5933 -4.2543
 4459SOL    HW225014   0.005   4.602  16.672 -0.8814 -0.6193 -0.0586
 4460SOL     OW25015   4.386   3.678  15.443 -0.0085  0.2264  0.0042
 4460SOL    HW125016   4.469   3.718  15.417  0.0802  1.0268  1.5086
 4460SOL    HW225017   4.399   3.669  15.537  2.6250  2.4048 -0.1428
 4461SOL     OW25018   2.713   3.440   3.542  0.7878 -0.3325  0.1796
 4461SOL    HW125019   2.666   3.364   3.507  0.7335 -0.7616  1.1886
 4461SOL    HW225020   2.779   3.406   3.602  0.5467 -2.9260 -1.0244
 4462SOL     OW25021   0.227   4.696   4.789 -0.1710  0.2723 -0.5452
 4462SOL    HW125022   0.240   4.612   4.744 -2.7694 -0.8468  0.7971
 4462SOL    HW225023   0.276   0.007   4.723 -1.7118  1.4206 -0.8340
 4463SOL     OW25024   4.290   3.285  17.275  0.1529 -0.2910  0.5445
 4463SOL    HW125025   4.358   3.352  17.268 -2.0500  1.7496 -1.2532
 4463SOL    HW225026   4.235   3.321  17.345 -1.2546 -1.0161 -0.1910
 4464SOL     OW25027   4.131   2.039   6.554  0.3983  0.6178  0.1917
 4464SOL    HW125028   4.148   2.010   6.644 -2.0925  0.5249  0.6522
 4464SOL    HW225029   4.199   2.002   6.498 -1.5390  0.3768 -1.9722
 4465SOL     OW25030   0.429   0.622  12.470  0.3946 -0.1041  0.4536
 4465SOL    HW125031   0.432   0.717  12.481  0.3766 -0.0711  0.1530
 4465SOL    HW225032   0.350   0.594  12.425  0.5031 -0.3411  0.4119
 4466SOL     OW25033   3.247   0.205  14.463 -0.6309 -0.3748 -0.6328
 4466SOL    HW125034   3.205   0.270  14.519 -0.4858 -1.3467  0.5983
 4466SOL    HW225035   3.331   0.248  14.451 -0.3882 -0.4096  0.9285
 4467SOL     OW25036   4.269   0.059   0.412  0.3193 -0.6005  0.5682
 4467SOL    HW125037   4.309   0.129   0.463  0.0135  0.3594 -0.5027
 4467SOL    HW225038   4.322   0.050   0.332  1.2568 -2.4122  1.3892
 4468SOL     OW25039   3.078   3.343  13.530 -0.1982 -0.4824  0.3697
 4468SOL    HW125040   3.044   3.386  13.608 -0.9399  1.1717 -0.8739
 4468SOL    HW225041   3.051   3.252  13.531  2.0324 -1.1462 -0.4666
 4469SOL     OW25042   1.798   3.419   2.131  0.2782 -0.3316 -0.3478
 4469SOL    HW125043   1.744   3.365   2.189  0.9148  0.2526  0.8006
 4469SOL    HW225044   1.845   3.360   2.073  2.0398 -1.3608  2.1263
 4470SOL     OW25045   1.031   2.904   3.521 -0.7657  0.5191 -0.4322
 4470SOL    HW125046   0.951   2.884   3.569 -1.4935  3.1900 -0.5150
 4470SOL    HW225047   1.017   2.989   3.480  0.2003  1.0088  0.2457
 4471SOL     OW25048   4.502   1.215   8.064 -0.1694  0.2199  0.4024
 4471SOL    HW125049   4.585   1.250   8.032 -0.0660 -0.2406  0.1610
 4471SOL    HW225050   4.498   1.259   8.149 -0.1023  0.8354  0.0832
 4472SOL     OW25051   0.342   4.562   5.423  0.5203 -0.5692 -0.0536
 4472SOL    HW125052   0.321   4.652   5.451 -2.5625 -2.0971  2.5617
 4472SOL    HW225053   0.276   4.509   5.468 -0.7800  2.6398  1.8077
 4473SOL     OW25054   0.059   3.495  15.220 -0.7767  0.3314  0.4169
 4473SOL    HW125055   4.727   3.452  15.170 -0.7433 -1.4876  1.9207
 4473SOL    HW225056   0.107   3.419  15.252  1.0977  1.2702 -0.2238
 4474SOL     OW25057   2.610   3.086  12.898  0.5446 -0.3333 -0.0327
 4474SOL    HW125058   2.626   3.163  12.953 -3.5064  2.1857 -2.4499
 4474SOL    HW225059   2.610   3.127  12.812 -2.2115 -0.3718 -0.0369
 4475SOL     OW25060   1.931   1.156   6.068 -0.0761 -0.0541  0.0054
 4475SOL    HW125061   1.841   1.160   6.100 -0.0974  1.9210 -0.2921
 4475SOL    HW225062   1.960   1.071   6.102 -2.3901 -0.8848 -0.0724
 4476SOL     OW25063   1.448   1.481   1.111  0.3197 -0.1614  0.5456
 4476SOL    HW125064   1.363   1.467   1.152  0.8502  0.2626  1.7806
 4476SOL    HW225065   1.438   1.558   1.056  0.4278  0.3276  1.2103
 4477SOL     OW25066   3.061   4.159  17.702 -1.2016 -0.4105 -0.2594
 4477SOL    HW125067   3.014   4.162   0.038  0.7140  4.1603  0.6786
 4477SOL    HW225068   3.086   4.067  17.704 -2.6006 -0.8007 -0.9013
 4478SOL     OW25069   3.917   4.081  10.350 -0.3781 -0.4607  0.0124
 4478SOL    HW125070   3.959   4.106  10.267  1.0358 -1.0787  0.5453
 4478SOL    HW225071   3.858   4.156  10.364 -2.9172 -2.8521  2.2194
 4479SOL     OW25072   4.119   0.882   4.967 -0.2830 -0.7541 -0.9380
 4479SOL    HW125073   4.079   0.929   4.894  0.2069  1.3142  0.1342
 4479SOL    HW225074   4.181   0.952   4.989  0.1012 -0.7365 -2.0815
 4480SOL     OW25075   1.936   3.142   1.317 -0.1727  0.0674 -0.6762
 4480SOL    HW125076   1.935   3.079   1.245  0.9106 -1.4287  0.6146
 4480SOL    HW225077   1.893   3.216   1.274  1.4234  1.2845 -0.1789
 4481SOL     OW25078   0.486   0.549   7.570 -0.4628 -0.1565  0.1722
 4481SOL    HW125079   0.538   0.611   7.620  0.3572 -2.7434  2.5290
 4481SOL    HW225080   0.399   0.559   7.608 -0.2273 -1.5767  1.0700
 4482SOL     OW25081   3.145   0.441   6.819  0.2149 -0.4406 -0.3238
 4482SOL    HW125082   3.058   0.436   6.858  0.9255 -0.2393  1.2763
 4482SOL    HW225083   3.114   0.486   6.741  1.1393  0.4924 -0.1572
 4483SOL     OW25084   3.916   1.370  10.651 -0.2953 -0.2981 -0.2615
 4483SOL    HW125085   3.834   1.322  10.652 -0.9221  0.7830  0.3622
 4483SOL    HW225086   3.981   1.312  10.691  0.5603  0.2179 -0.8830
 4484SOL     OW25087   4.449   1.080   9.259 -0.0560  0.4468  0.4483
 4484SOL    HW125088   4.377   1.143   9.251  1.3418  2.1415  1.2884
 4484SOL    HW225089   4.416   1.012   9.201  1.2729 -0.5822  0.9173
 4485SOL     OW25090   4.359   2.484  15.626 -0.8786  0.2774 -1.0170
 4485SOL    HW125091   4.349   2.500  15.720  2.3862 -0.9719 -0.4790
 4485SOL    HW225092   4.373   2.389  15.631 -0.8833  0.2786 -0.9799
 4486SOL     OW25093   2.796   2.730  16.783 -0.0678  0.1846 -0.1720
 4486SOL    HW125094   2.723   2.792  16.781  0.8072  1.1703 -1.4283
 4486SOL    HW225095   2.754   2.645  16.768  0.3640 -0.3762  1.8011
 4487SOL     OW25096   3.754   1.438   0.143  0.1766  0.5871  0.7872
 4487SOL    HW125097   3.705   1.520   0.136  1.1573  0.9986 -1.4448
 4487SOL    HW225098   3.825   1.444   0.079 -0.3394 -0.5927  0.1114
 4488SOL     OW25099   0.927   3.496   7.590  0.0075 -0.3823  0.1731
 4488SOL    HW125100   0.997   3.501   7.655 -0.9057 -1.9404  1.2877
 4488SOL    HW225101   0.894   3.406   7.592 -0.6601 -0.1408 -0.2664
 4489SOL     OW25102   4.022   0.243   7.510 -0.2701 -0.3041  0.4642
 4489SOL    HW125103   4.098   0.220   7.456  0.2033 -0.6629  1.2983
 4489SOL    HW225104   4.057   0.312   7.565 -0.2478  0.4541 -0.4907
 4490SOL     OW25105   4.389   0.764   5.965 -0.0024 -0.2268  0.4078
 4490SOL    HW125106   4.462   0.707   5.940  0.6352  0.7405  0.0374
 4490SOL    HW225107   4.407   0.836   5.904  0.0715  0.1308  0.8464
 4491SOL     OW25108   3.315   0.061   1.685 -0.1298  1.2472  0.3254
 4491SOL    HW125109   3.219   0.066   1.692 -0.1451 -0.3071  1.2495
 4491SOL    HW225110   3.326   0.120   1.611 -2.8763 -0.1174 -1.1823
 4492SOL     OW25111   4.168   3.652   3.209 -0.7546 -0.0067 -0.1179
 4492SOL    HW125112   4.237   3.694   3.260 -2.5938  0.6896  1.8416
 4492SOL    HW225113   4.152   3.723   3.148 -0.7541 -0.1095 -0.2372
 4493SOL     OW25114   4.019   2.350  16.866 -0.3971  0.5955 -0.2066
 4493SOL    HW125115   4.060   2.268  16.836 -0.0992 -0.1604  2.2842
 4493SOL    HW225116   3.971   2.310  16.938  1.6073  1.1540  1.4443
 4494SOL     OW25117   0.946   2.475   3.014  1.2853  0.1670  0.0996
 4494SOL    HW125118   0.997   2.421   2.954 -1.7607 -2.3318 -0.2010
 4494SOL    HW225119   0.874   2.413   3.025  0.2265  1.3751 -0.0322
 4495SOL     OW25120   2.159   3.066   9.745 -0.6213  0.8693  0.2415
 4495SOL    HW125121   2.064   3.065   9.754 -1.0020  0.8516 -3.8867
 4495SOL    HW225122   2.189   3.081   9.835 -2.3535  0.9386  0.7987
 4496SOL     OW25123   4.171   4.082   4.287 -0.6675 -0.5827  0.6547
 4496SOL    HW125124   4.163   4.019   4.359  1.1237  0.1632  1.5260
 4496SOL    HW225125   4.155   4.161   4.339 -0.0839 -2.5575  3.8360
 4497SOL     OW25126   4.423   1.864  15.844  0.4773 -0.3733 -0.6037
 4497SOL    HW125127   4.475   1.860  15.925 -1.6310 -0.2955  0.7747
 4497SOL    HW225128   4.481   1.926  15.801  0.1704  0.7419  0.5852
 4498SOL     OW25129   2.548   3.013  10.492  0.3706  0.2649 -0.3652
 4498SOL    HW125130   2.537   3.069  10.568  0.5448 -1.0759  0.6445
 4498SOL    HW225131   2.485   2.942  10.503  0.3172  0.1539 -1.3494
 4499SOL     OW25132   4.246   3.373   8.340 -0.1666  0.1617  0.0577
 4499SOL    HW125133   4.242   3.365   8.245 -0.0688 -1.3472  0.1787
 4499SOL    HW225134   4.234   3.467   8.353  2.8329  0.6572 -0.8240
 4500SOL     OW25135   3.582   3.697   6.957 -0.3120  0.6608  0.7327
 4500SOL    HW125136   3.669   3.663   6.974 -0.4242  1.3243  2.6491
 4500SOL    HW225137   3.551   3.626   6.900  1.3591 -0.8159  1.6761
 4501SOL     OW25138   1.606   0.296  16.450  0.1765 -0.3177 -0.0602
 4501SOL    HW125139   1.651   0.213  16.458  2.1898  0.7376 -0.5696
 4501SOL    HW225140   1.528   0.273  16.500 -0.4943  1.3206 -0.3439
 4502SOL     OW25141   0.982   0.034   5.207  0.1411  0.1035 -0.5554
 4502SOL    HW125142   1.069   0.015   5.242 -0.2650 -0.1872  0.3086
 4502SOL    HW225143   0.941   4.686   5.216 -4.3229  2.3550  0.5880
 4503SOL     OW25144   4.665   2.093   3.940 -0.1548 -0.2249  0.4301
 4503SOL    HW125145   4.585   2.124   3.898  0.0517 -0.7869 -0.3726
 4503SOL    HW225146   4.650   2.108   4.033 -0.3481 -2.0685  0.6912
 4504SOL     OW25147   2.666   1.561   5.137  0.3733 -0.1708 -0.2828
 4504SOL    HW125148   2.645   1.642   5.089 -2.2318 -0.3623  0.5238
 4504SOL    HW225149   2.723   1.590   5.207  0.2729 -3.5057  1.1774
 4505SOL     OW25150   1.251   1.543   7.462  0.0526  0.6234 -0.2370
 4505SOL    HW125151   1.198   1.612   7.421  0.0668 -0.8041 -2.6836
 4505SOL    HW225152   1.333   1.591   7.465  0.0925  0.5402 -0.0297
 4506SOL     OW25153   3.067   1.410   0.901  0.6191  0.5106 -0.4724
 4506SOL    HW125154   3.099   1.335   0.951 -1.7970 -1.4516 -1.8298
 4506SOL    HW225155   3.002   1.435   0.967  0.0354 -1.9520 -0.1044
 4507SOL     OW25156   2.729   1.531   8.854  0.8025  0.8095  0.1435
 4507SOL    HW125157   2.668   1.573   8.915 -0.8465  0.4626 -1.2790
 4507SOL    HW225158   2.809   1.516   8.904  1.2381 -1.8206 -1.3203
 4508SOL     OW25159   1.163   4.537  15.483 -0.5214 -0.1943  0.4877
 4508SOL    HW125160   1.172   4.619  15.533 -0.6726  0.9924 -1.4045
 4508SOL    HW225161   1.245   4.547  15.434 -0.8607 -1.9501 -0.4002
 4509SOL     OW25162   3.652   0.918  13.432  0.0849  0.3438 -0.0160
 4509SOL    HW125163   3.571   0.967  13.413 -0.5797 -1.0712 -0.8178
 4509SOL    HW225164   3.662   0.845  13.371  0.6562  0.4559 -0.0497
 4510SOL     OW25165   1.762   1.127   1.369  0.2068 -0.2468 -0.5643
 4510SOL    HW125166   1.737   1.183   1.442  3.2554 -0.3897  0.6073
 4510SOL    HW225167   1.732   1.175   1.293 -0.7032  0.7449  0.4343
 4511SOL     OW25168   1.579   0.908   3.873  0.6816 -0.1363 -0.4306
 4511SOL    HW125169   1.631   0.839   3.914  0.4805 -0.1574 -0.2130
 4511SOL    HW225170   1.641   0.929   3.804  0.8373  1.9092  0.3235
 4512SOL     OW25171   2.577   2.765   8.841  0.8766 -0.4501  0.2439
 4512SOL    HW125172   2.617   2.850   8.861 -1.2871  0.7987 -0.7754
 4512SOL    HW225173   2.530   2.751   8.924  1.6403  0.8886  0.9092
 4513SOL     OW25174   0.366   0.204   4.247  0.2287 -1.3269 -0.1544
 4513SOL    HW125175   0.426   0.189   4.174  1.5590  0.8499  0.4867
 4513SOL    HW225176   0.369   0.119   4.291 -0.0518 -1.8636 -1.1539
 4514SOL     OW25177   0.628   2.735   3.376 -0.1537  0.0941  0.1003
 4514SOL    HW125178   0.627   2.660   3.317  2.0112 -0.4067  0.6919
 4514SOL    HW225179   0.548   2.716   3.424 -0.8279  1.4915 -0.4684
 4515SOL     OW25180   4.493   1.256   5.940 -0.2140 -0.7160  0.2062
 4515SOL    HW125181   4.401   1.268   5.914 -0.6712 -1.1678  1.6514
 4515SOL    HW225182   4.529   1.333   5.895 -0.3946  0.5252  2.1836
 4516SOL     OW25183   4.037   4.024   6.382  1.0260  0.2481 -0.2769
 4516SOL    HW125184   4.116   4.072   6.360  1.8227 -0.6438  0.6574
 4516SOL    HW225185   4.069   3.939   6.413  0.1817  0.1797  0.4093
 4517SOL     OW25186   2.411   0.809   9.415  0.0322 -0.4348 -0.2007
 4517SOL    HW125187   2.331   0.808   9.469 -0.2168 -0.6045 -0.5746
 4517SOL    HW225188   2.379   0.766   9.336 -1.3150 -0.4335  0.3366
 4518SOL     OW25189   1.822   2.713   5.924  0.1878  1.1887  0.0748
 4518SOL    HW125190   1.766   2.779   5.882 -0.6992 -0.2963 -1.0552
 4518SOL    HW225191   1.899   2.768   5.937  0.0876  1.6362 -1.2787
 4519SOL     OW25192   2.175   0.814   9.210 -0.2272 -0.0026 -0.3730
 4519SOL    HW125193   2.129   0.881   9.261  0.6093 -0.5869  1.1343
 4519SOL    HW225194   2.255   0.862   9.189 -0.0181  0.6017  1.8297
 4520SOL     OW25195   2.975   3.781  13.485  0.1614  0.4471  0.9088
 4520SOL    HW125196   2.906   3.739  13.537 -0.8619  0.3363 -0.5352
 4520SOL    HW225197   3.037   3.710  13.493 -1.6667 -1.1311  1.1497
 4521SOL     OW25198   1.255   1.201   2.975 -0.0674  0.0230 -0.5458
 4521SOL    HW125199   1.251   1.290   2.939  0.2860  0.9112  1.5806
 4521SOL    HW225200   1.261   1.224   3.068  1.6042 -0.0903 -0.6211
 4522SOL     OW25201   4.497   0.847   3.829 -0.6183 -0.2741  0.4465
 4522SOL    HW125202   4.526   0.926   3.874  2.3362  0.0797 -2.0528
 4522SOL    HW225203   4.489   0.783   3.899  1.9639 -1.9466 -0.7522
 4523SOL     OW25204   1.743   2.703   4.614 -0.4458  0.7265  0.0168
 4523SOL    HW125205   1.701   2.662   4.539 -0.2717 -0.7810  0.7362
 4523SOL    HW225206   1.693   2.783   4.625  1.2594  1.9917 -1.5294
 4524SOL     OW25207   3.908   0.568   1.776 -0.3535 -0.1065 -0.5544
 4524SOL    HW125208   3.945   0.641   1.727  0.2457 -0.1542 -0.1682
 4524SOL    HW225209   3.958   0.563   1.858 -1.2240 -2.0411 -0.1416
 4525SOL     OW25210   1.090   1.118   6.214  0.4300  0.5109  0.4255
 4525SOL    HW125211   1.174   1.150   6.246  0.8527 -2.0218  1.8486
 4525SOL    HW225212   1.119   1.099   6.125  1.8592 -0.0523  1.0014
 4526SOL     OW25213   2.108   2.503   0.684  0.1445 -0.3261  0.1915
 4526SOL    HW125214   2.061   2.460   0.756 -2.6717  2.2504 -0.0943
 4526SOL    HW225215   2.140   2.424   0.640  0.6337 -0.3906  0.6640
 4527SOL     OW25216   3.737   1.488   6.679 -0.2718 -0.0591 -0.1608
 4527SOL    HW125217   3.726   1.394   6.696  0.3924 -0.0567  0.2818
 4527SOL    HW225218   3.663   1.500   6.620 -0.5863  0.4454  0.3375
 4528SOL     OW25219   3.550   1.338   7.089  0.0336  0.1710  0.7208
 4528SOL    HW125220   3.640   1.369   7.096 -0.0582  0.2757  1.4209
 4528SOL    HW225221   3.541   1.270   7.156  0.1700  1.0527  1.6313
 4529SOL     OW25222   0.186   1.829   6.987  0.6502 -0.1222  0.4671
 4529SOL    HW125223   0.252   1.840   7.055  1.5992 -1.9510 -0.1429
 4529SOL    HW225224   0.181   1.916   6.947 -0.0934 -0.3721  0.0045
 4530SOL     OW25225   2.921   0.652   3.267  0.4555  0.2478 -0.5154
 4530SOL    HW125226   2.966   0.576   3.304  1.4135  0.8568 -0.4243
 4530SOL    HW225227   2.833   0.616   3.264  0.0333  1.2283  0.3687
 4531SOL     OW25228   3.031   3.438   2.936 -0.5088  0.4561  0.1645
 4531SOL    HW125229   3.062   3.392   3.014  1.8810  1.0751 -0.4199
 4531SOL    HW225230   3.094   3.409   2.870 -0.3582  0.9036  0.1110
 4532SOL     OW25231   2.750   4.192   6.613  0.0463 -0.1822 -0.2303
 4532SOL    HW125232   2.777   4.112   6.659  1.1076 -0.9884 -2.2686
 4532SOL    HW225233   2.797   4.257   6.666  0.2563 -2.1756  2.0319
 4533SOL     OW25234   3.178   1.258   7.742 -0.1066  0.1219  0.2523
 4533SOL    HW125235   3.156   1.343   7.705 -0.6929  0.0270  0.3697
 4533SOL    HW225236   3.255   1.235   7.691 -1.2488  1.2455 -1.9890
 4534SOL     OW25237   0.472   1.702   2.304  0.6630 -0.3475  0.0213
 4534SOL    HW125238   0.472   1.684   2.210  2.3969  1.1703 -0.2792
 4534SOL    HW225239   0.458   1.796   2.306 -1.5924 -0.7419  2.1916
 4535SOL     OW25240   0.059   3.939   1.495 -0.2131 -0.1832 -0.0234
 4535SOL    HW125241   0.069   3.870   1.561 -2.2579 -0.2300  0.2341
 4535SOL    HW225242   4.703   3.957   1.495 -0.8184 -3.3751 -0.3344
 4536SOL     OW25243   4.585   1.690  10.219 -0.5424  1.1232 -0.1352
 4536SOL    HW125244   4.526   1.615  10.213 -0.7190  1.2843 -0.4064
 4536SOL    HW225245   4.551   1.733  10.298  0.4485  0.9961  0.3585
 4537SOL     OW25246   2.845   3.875   3.043 -0.0418 -0.0140  0.4271
 4537SOL    HW125247   2.932   3.888   3.006 -0.5761  1.0027 -0.4811
 4537SOL    HW225248   2.805   3.811   2.983 -0.2120 -0.1570  0.6955
 4538SOL     OW25249   1.748   4.465  16.927 -0.1592 -0.6234  0.4974
 4538SOL    HW125250   1.663   4.486  16.966  1.0024  1.3773  2.0057
 4538SOL    HW225251   1.730   4.376  16.896 -0.6601  0.7110 -2.9911
 4539SOL     OW25252   1.248   3.609   7.179  0.1612  0.4470 -0.0381
 4539SOL    HW125253   1.189   3.618   7.253 -0.8714 -0.1699 -0.7900
 4539SOL    HW225254   1.269   3.702   7.169  1.8244  0.0075 -0.6594
 4540SOL     OW25255   3.307   2.871   6.021 -0.6571  0.3676 -0.5242
 4540SOL    HW125256   3.377   2.856   6.085 -0.8436  2.4648  0.1620
 4540SOL    HW225257   3.318   2.961   5.990 -2.7893  0.5113 -0.8759
 4541SOL     OW25258   0.628   3.102   9.109  0.3129 -0.3881  0.1634
 4541SOL    HW125259   0.566   3.171   9.085  1.1575 -0.5229 -2.3844
 4541SOL    HW225260   0.603   3.021   9.065 -1.9677  1.3133 -1.6730
 4542SOL     OW25261   3.621   0.667   3.375  0.0393  0.2846  0.2258
 4542SOL    HW125262   3.709   0.641   3.402  0.7223 -0.8951 -3.1071
 4542SOL    HW225263   3.620   0.665   3.279  2.7215  2.0517  0.1683
 4543SOL     OW25264   0.114   0.669  10.010  0.0965  0.2070 -0.0281
 4543SOL    HW125265   0.043   0.656  10.073  0.2344  0.6372  0.2134
 4543SOL    HW225266   0.161   0.748  10.038 -2.4164  1.5840  0.2372
 4544SOL     OW25267   2.749   1.835  14.856  0.2129 -0.0024 -0.6864
 4544SOL    HW125268   2.672   1.888  14.836  1.4135  1.7004 -0.7767
 4544SOL    HW225269   2.754   1.776  14.781 -2.9089 -0.5790 -0.4238
 4545SOL     OW25270   3.032   1.970  16.118  0.5262  0.2713  0.5207
 4545SOL    HW125271   3.027   1.898  16.180 -1.7857 -0.6467 -0.7386
 4545SOL    HW225272   3.107   2.019  16.154 -0.5685  1.3376  1.3324
 4546SOL     OW25273   3.879   0.355   6.531 -0.1219  0.2306  0.1885
 4546SOL    HW125274   3.825   0.280   6.508 -1.7651  1.8702 -1.2913
 4546SOL    HW225275   3.868   0.406   6.451  1.7030 -0.2847 -0.3904
 4547SOL     OW25276   1.668   4.365   2.907  0.6938 -0.4055 -0.1746
 4547SOL    HW125277   1.757   4.400   2.909  0.7660 -0.8028  3.6698
 4547SOL    HW225278   1.686   4.284   2.955 -1.1759 -1.6591 -1.5885
 4548SOL     OW25279   0.176   4.493  12.609 -0.4368 -0.0278  0.0529
 4548SOL    HW125280   0.101   4.550  12.592  0.4570  1.9334  2.6607
 4548SOL    HW225281   0.243   4.552  12.643  0.2149 -0.0969 -1.1117
 4549SOL     OW25282   4.648   4.439   6.082  0.6260  0.6276  0.0391
 4549SOL    HW125283   4.591   4.491   6.137 -2.0434 -1.7290 -0.5212
 4549SOL    HW225284   4.633   4.350   6.113  0.6774  0.0505 -1.5687
 4550SOL     OW25285   2.772   3.846   9.875 -0.7695 -0.3020 -0.9297
 4550SOL    HW125286   2.786   3.753   9.859 -1.3762 -0.6350  0.4824
 4550SOL    HW225287   2.677   3.850   9.863 -0.6559 -0.1674 -1.8117
 4551SOL     OW25288   2.992   0.679   9.850  0.2553  0.3631 -0.6522
 4551SOL    HW125289   3.061   0.724   9.898 -1.3703  2.1015  0.0765
 4551SOL    HW225290   2.957   0.619   9.915  0.1552  0.6471 -0.4436
 4552SOL     OW25291   2.169   4.011   2.453  0.2609 -0.2601 -0.0574
 4552SOL    HW125292   2.181   4.100   2.487  0.4919  0.0585 -0.9714
 4552SOL    HW225293   2.258   3.976   2.461  1.0826  2.4388  2.6199
 4553SOL     OW25294   1.488   1.130  15.204  0.3795 -0.8037  0.6108
 4553SOL    HW125295   1.450   1.148  15.117 -0.4785 -3.5099  0.4335
 4553SOL    HW225296   1.419   1.083  15.251  0.0052 -0.0826  0.7782
 4554SOL     OW25297   1.578   0.359   3.566  0.6632 -0.5927 -0.1807
 4554SOL    HW125298   1.626   0.296   3.618  1.3853 -0.0071 -0.1344
 4554SOL    HW225299   1.585   0.315   3.481  0.5896 -0.5534 -0.2075
 4555SOL     OW25300   3.386   0.273   7.546  0.6818  0.0244 -0.2608
 4555SOL    HW125301   3.398   0.192   7.497 -0.8267 -0.2662 -0.1451
 4555SOL    HW225302   3.470   0.320   7.548  1.4820 -1.5826  2.5124
 4556SOL     OW25303   0.710   0.087  11.179  0.5583  0.3390  0.0583
 4556SOL    HW125304   0.646   0.157  11.172 -0.2233 -0.3477  0.4154
 4556SOL    HW225305   0.762   0.097  11.099 -1.0979 -0.7688 -1.1582
 4557SOL     OW25306   4.657   0.283  15.146  0.5944 -0.2027  0.4082
 4557SOL    HW125307   4.641   0.288  15.240 -0.4943 -1.9336  0.3120
 4557SOL    HW225308   4.630   0.193  15.129  3.6180 -0.8609 -0.9891
 4558SOL     OW25309   3.859   3.647   7.047  0.2262  0.1255  0.7736
 4558SOL    HW125310   3.942   3.612   7.079  0.5859  0.7864  0.5653
 4558SOL    HW225311   3.869   3.647   6.952 -0.1131  0.2500  0.7392
 4559SOL     OW25312   1.617   0.902   2.614  0.7228 -0.2228  0.4750
 4559SOL    HW125313   1.617   0.998   2.618 -0.3202 -0.1574 -1.3477
 4559SOL    HW225314   1.624   0.866   2.702  1.0970  0.6177  0.7823
 4560SOL     OW25315   4.159   0.683   7.276  0.2281  0.0979  0.0480
 4560SOL    HW125316   4.170   0.727   7.360  1.1784 -0.3009  0.1383
 4560SOL    HW225317   4.231   0.620   7.268  0.3427  0.3766 -1.1931
 4561SOL     OW25318   3.923   4.473   4.872  0.1678 -0.1762 -0.3068
 4561SOL    HW125319   4.001   4.433   4.834 -0.8111  0.2942 -2.8130
 4561SOL    HW225320   3.941   4.566   4.855  3.2191 -0.4315  1.5516
 4562SOL     OW25321   0.613   1.563   3.171  0.6551 -0.0930 -0.2400
 4562SOL    HW125322   0.613   1.601   3.259  2.1381 -3.9370  1.3931
 4562SOL    HW225323   0.699   1.520   3.168  0.9893  0.6985 -2.4910
 4563SOL     OW25324   0.364   2.252  13.198  0.5946  0.0453 -0.3680
 4563SOL    HW125325   0.273   2.254  13.169  1.1650 -2.0402 -2.3160
 4563SOL    HW225326   0.410   2.281  13.119 -2.3048 -0.9648 -2.4221
 4564SOL     OW25327   3.692   3.321  12.750  0.3634  0.6055  0.2363
 4564SOL    HW125328   3.757   3.269  12.798 -0.7126 -1.6858 -0.8455
 4564SOL    HW225329   3.619   3.260  12.743 -0.4650  1.3622  2.4599
 4565SOL     OW25330   1.050   1.077   3.646 -0.0561 -0.1373 -0.1213
 4565SOL    HW125331   0.991   1.121   3.584 -0.5291  0.2697  0.6243
 4565SOL    HW225332   1.037   1.125   3.728 -0.5172 -0.6215  0.0900
 4566SOL     OW25333   3.201   1.270  16.858 -0.1682  0.9270  0.4908
 4566SOL    HW125334   3.151   1.350  16.840 -2.6512 -0.8058 -0.1731
 4566SOL    HW225335   3.144   1.201  16.824  0.5982 -0.2614  1.6137
 4567SOL     OW25336   4.120   0.411   3.710 -0.0280 -0.4789 -0.0477
 4567SOL    HW125337   4.146   0.328   3.668  1.5247  0.1920 -0.4119
 4567SOL    HW225338   4.026   0.405   3.699  0.0182 -0.5288 -0.4300
 4568SOL     OW25339   3.394   3.430   4.635  0.0199  0.2956  0.0193
 4568SOL    HW125340   3.409   3.343   4.671  0.8867 -0.6512 -2.6127
 4568SOL    HW225341   3.467   3.439   4.574 -0.5969  1.4013 -0.5575
 4569SOL     OW25342   0.877   0.913  13.376 -0.3142 -0.1285  0.7379
 4569SOL    HW125343   0.913   0.833  13.414  1.1999 -0.0919 -0.6472
 4569SOL    HW225344   0.943   0.982  13.377 -0.3682 -0.0698 -0.5982
 4570SOL     OW25345   1.859   3.951   2.309 -0.1120  0.0252 -1.0611
 4570SOL    HW125346   1.830   4.038   2.338 -2.5098 -1.3262  0.5727
 4570SOL    HW225347   1.846   3.908   2.393  0.3794 -1.7347 -1.9003
 4571SOL     OW25348   3.484   2.981  12.331  0.0878  0.1966 -0.2369
 4571SOL    HW125349   3.574   2.971  12.363 -0.1778  0.4027  0.5593
 4571SOL    HW225350   3.483   2.947  12.241 -0.3156 -0.3300 -0.0301
 4572SOL     OW25351   4.228   1.763   6.423  0.1189 -0.5825 -0.1855
 4572SOL    HW125352   4.159   1.815   6.381  3.3378  1.5524 -2.7963
 4572SOL    HW225353   4.190   1.676   6.410 -1.1472 -0.0133 -0.3020
 4573SOL     OW25354   4.173   2.812   4.115  0.4741 -0.3006  0.5819
 4573SOL    HW125355   4.191   2.879   4.049  2.5767 -2.0579 -0.6101
 4573SOL    HW225356   4.102   2.851   4.167  0.4823  0.2389  0.1903
 4574SOL     OW25357   2.869   2.509   3.630 -0.3159 -0.1566 -0.1052
 4574SOL    HW125358   2.950   2.530   3.677 -0.1396  0.3857 -0.6528
 4574SOL    HW225359   2.874   2.413   3.634 -1.7003 -0.2323 -0.0662
 4575SOL     OW25360   3.579   1.820   2.867  0.3799 -0.3896 -0.4036
 4575SOL    HW125361   3.489   1.853   2.866 -0.0597 -1.4937  2.9913
 4575SOL    HW225362   3.607   1.835   2.957  1.1612  1.5972 -0.9878
 4576SOL     OW25363   4.161   0.527  17.293  0.1288  0.4865  0.1919
 4576SOL    HW125364   4.183   0.546  17.202 -0.9108  0.5574 -0.0488
 4576SOL    HW225365   4.235   0.488  17.339 -0.8515 -1.2392  0.3019
 4577SOL     OW25366   4.517   0.647   9.891  0.7555 -0.4064 -0.4082
 4577SOL    HW125367   4.470   0.650   9.974  1.9532  1.1285  0.2127
 4577SOL    HW225368   4.535   0.739   9.869 -1.3359  0.0176 -0.3420
 4578SOL     OW25369   0.126   2.449   1.216 -0.1838 -0.4670 -0.3055
 4578SOL    HW125370   0.197   2.395   1.252  0.4210  0.9824  0.6751
 4578SOL    HW225371   0.050   2.391   1.219 -0.3292 -0.3081 -1.0424
 4579SOL     OW25372   3.963   2.790  10.654  0.3820 -0.7712 -0.3395
 4579SOL    HW125373   3.972   2.807  10.560  0.7262 -2.1361 -0.5556
 4579SOL    HW225374   4.051   2.758  10.674  0.3751 -1.2447 -1.0935
 4580SOL     OW25375   1.769   3.382  10.175 -0.3304 -0.7387  0.3475
 4580SOL    HW125376   1.721   3.308  10.138 -1.0378  0.9397 -2.1075
 4580SOL    HW225377   1.698   3.421  10.225 -0.0923  0.2250 -0.0644
 4581SOL     OW25378   3.430   4.737   2.912  0.6054 -0.1938 -0.4700
 4581SOL    HW125379   3.357   0.051   2.944  1.3895  0.8234 -0.3125
 4581SOL    HW225380   3.487   0.057   2.861 -0.1558 -0.0168 -1.1080
 4582SOL     OW25381   2.155   4.056   5.943  0.5841 -0.5075 -0.6378
 4582SOL    HW125382   2.163   4.036   5.849 -0.1642 -1.2193 -0.5576
 4582SOL    HW225383   2.209   4.131   5.969 -0.7726 -0.5364  2.1723
 4583SOL     OW25384   3.523   0.239   2.500 -0.0938 -0.2584  0.0613
 4583SOL    HW125385   3.436   0.272   2.475  0.2950 -0.1959 -1.2403
 4583SOL    HW225386   3.496   0.161   2.548 -3.5485  2.6270  2.8312
 4584SOL     OW25387   4.036   3.634   7.740  0.7479  0.6695 -0.3013
 4584SOL    HW125388   3.955   3.673   7.708 -0.5247 -1.7978 -0.1304
 4584SOL    HW225389   4.105   3.693   7.710  0.6320  0.4827 -0.9528
 4585SOL     OW25390   1.296   4.191  13.972 -0.4942 -0.6301 -0.4452
 4585SOL    HW125391   1.321   4.145  13.892  2.3054 -0.0682  0.0940
 4585SOL    HW225392   1.242   4.264  13.944  1.0494  2.1577  3.9560
 4586SOL     OW25393   1.083   4.524  12.672 -0.2655 -0.9876  0.1562
 4586SOL    HW125394   1.176   4.503  12.680  0.0817  1.0306  1.4842
 4586SOL    HW225395   1.079   4.552  12.764  0.7728  1.0667 -0.4096
 4587SOL     OW25396   0.375   3.989   6.486 -0.0269  0.0412  0.6418
 4587SOL    HW125397   0.317   4.061   6.464 -2.1784 -2.1757 -0.9085
 4587SOL    HW225398   0.311   3.945   6.543 -0.2681  0.6402  0.8386
 4588SOL     OW25399   2.846   2.625   4.286 -0.2461  0.0112  0.4266
 4588SOL    HW125400   2.920   2.632   4.226 -1.7816 -1.5754 -1.6837
 4588SOL    HW225401   2.777   2.651   4.225  0.7263 -0.8128 -1.0335
 4589SOL     OW25402   0.102   3.865  10.047 -0.0984 -0.1563 -0.1622
 4589SOL    HW125403   0.115   3.770  10.042 -0.0341 -0.2289  1.3256
 4589SOL    HW225404   0.055   3.884   9.966 -1.6820  2.9181  1.5090
 4590SOL     OW25405   0.774   0.780   1.018  0.2543  0.2485 -0.2568
 4590SOL    HW125406   0.693   0.731   1.029  0.0323  1.0985  1.8127
 4590SOL    HW225407   0.744   0.822   0.937  1.9967 -1.0276 -1.5572
 4591SOL     OW25408   3.156   3.450  12.284 -0.1990 -0.0233  0.0282
 4591SOL    HW125409   3.089   3.395  12.324  0.5123  0.1411  1.4360
 4591SOL    HW225410   3.217   3.460  12.357 -1.3575  1.3929  0.7993
 4592SOL     OW25411   3.563   0.568  15.312  0.2085  0.1181 -0.3896
 4592SOL    HW125412   3.589   0.476  15.307  2.2781  0.7628 -1.6330
 4592SOL    HW225413   3.500   0.550  15.382  1.5182 -1.2668  0.4620
 4593SOL     OW25414   3.830   4.455   3.672 -0.6026 -0.3810 -0.1724
 4593SOL    HW125415   3.871   4.400   3.739  1.5628  2.2874  0.7192
 4593SOL    HW225416   3.896   4.439   3.604  0.4628  0.3944  0.6648
 4594SOL     OW25417   0.387   4.486  16.100 -0.4968  0.2232  0.1917
 4594SOL    HW125418   0.385   4.571  16.144  0.6236  0.9227 -1.0898
 4594SOL    HW225419   0.424   4.507  16.014  1.3960  1.1095  1.2424
 4595SOL     OW25420   3.969   4.481  16.538  0.0328 -0.6969 -0.2529
 4595SOL    HW125421   4.044   4.477  16.597 -0.3226 -2.2503  0.0875
 4595SOL    HW225422   3.934   4.392  16.535 -0.4045 -0.5861  1.5743
 4596SOL     OW25423   0.715   3.420   4.945 -0.6138 -0.2970  0.7841
 4596SOL    HW125424   0.626   3.450   4.961 -1.5159 -1.4373 -2.0163
 4596SOL    HW225425   0.754   3.507   4.941  1.9818 -1.4531  0.9035
 4597SOL     OW25426   4.223   0.318   7.008 -0.0058 -1.0782 -0.1804
 4597SOL    HW125427   4.179   0.395   7.045  0.6981 -0.7647  0.0046
 4597SOL    HW225428   4.188   0.245   7.060  0.2591 -1.5726 -0.7040
 4598SOL     OW25429   3.968   1.287   5.036  0.1490 -0.2484  0.0643
 4598SOL    HW125430   4.016   1.227   5.093 -0.4357  0.3789  1.2148
 4598SOL    HW225431   4.011   1.371   5.048 -0.9313  0.4740 -1.0327
 4599SOL     OW25432   2.142   0.114   8.637  0.5182 -0.1145  0.7012
 4599SOL    HW125433   2.080   0.042   8.648 -0.5755  0.6567 -0.3424
 4599SOL    HW225434   2.117   0.156   8.554  0.2021 -0.0046  0.8487
 4600SOL     OW25435   3.364   0.543   7.425  0.4545  0.3109 -0.3735
 4600SOL    HW125436   3.416   0.493   7.362  1.6182  1.9638 -0.7466
 4600SOL    HW225437   3.318   0.469   7.464 -2.4985  2.2558 -0.1646
 4601SOL     OW25438   3.311   3.353   5.498 -0.0349  0.1665  0.2488
 4601SOL    HW125439   3.247   3.282   5.500  0.6542 -0.4499  0.0708
 4601SOL    HW225440   3.256   3.411   5.445  0.6358  0.5387 -0.0269
 4602SOL     OW25441   0.900   3.885   0.515 -0.5446 -0.9258 -0.0326
 4602SOL    HW125442   0.995   3.890   0.517 -0.6120  0.1852  0.6394
 4602SOL    HW225443   0.891   3.837   0.433 -0.1819 -0.4712 -0.3368
 4603SOL     OW25444   3.851   4.502  11.341 -0.6791 -0.3957 -0.1719
 4603SOL    HW125445   3.785   4.572  11.333 -0.5782 -0.0358  2.1492
 4603SOL    HW225446   3.918   4.566  11.318  0.5083 -1.0383  1.5161
 4604SOL     OW25447   3.134   0.749   3.028  0.6200  0.3568 -0.1102
 4604SOL    HW125448   3.128   0.658   3.059 -1.1747 -0.1129 -1.9160
 4604SOL    HW225449   3.224   0.751   2.994  0.6450 -1.0424 -0.1558
 4605SOL     OW25450   0.774   0.098   0.129  0.4623  0.8044 -0.0969
 4605SOL    HW125451   0.691   0.054   0.114  0.9753 -0.2487  0.0891
 4605SOL    HW225452   0.745   0.187   0.109  2.4396  1.9738  2.1707
 4606SOL     OW25453   1.314   1.821  10.977  0.3447 -0.4008  0.0134
 4606SOL    HW125454   1.261   1.818  11.057 -0.2058 -1.2509 -0.3862
 4606SOL    HW225455   1.398   1.786  11.007  0.7314  1.4777  1.0978
 4607SOL     OW25456   3.017   1.352  12.212  0.4944  0.0507  0.5773
 4607SOL    HW125457   3.080   1.424  12.213 -2.3643  2.5165  1.5721
 4607SOL    HW225458   2.989   1.353  12.120  0.5923 -0.7375  0.5366
 4608SOL     OW25459   2.705   0.221   8.338 -0.6571 -0.4236  0.3119
 4608SOL    HW125460   2.739   0.302   8.378 -2.3873 -0.3550  1.6199
 4608SOL    HW225461   2.718   0.236   8.245 -1.1441  2.8083  0.7516
 4609SOL     OW25462   1.651   2.793   7.336  1.5194  0.4680  0.0556
 4609SOL    HW125463   1.718   2.803   7.268  1.7193 -2.2599 -0.1647
 4609SOL    HW225464   1.597   2.868   7.311 -1.6833 -1.6116  0.7904
 4610SOL     OW25465   4.602   4.436   5.525 -0.0829  0.2834 -0.1901
 4610SOL    HW125466   4.587   4.530   5.527 -0.8984  0.1355  0.7764
 4610SOL    HW225467   4.519   4.410   5.485  0.8656 -0.4286 -1.6929
 4611SOL     OW25468   2.909   1.187   2.642 -0.3388  0.0012  0.0881
 4611SOL    HW125469   2.962   1.161   2.566  0.1482  2.9088 -0.5592
 4611SOL    HW225470   2.856   1.106   2.642  0.9432 -0.8295  1.6917
 4612SOL     OW25471   1.364   3.897  13.446  0.1619  0.3219 -0.5245
 4612SOL    HW125472   1.374   3.896  13.350  0.2195  1.1302 -0.5263
 4612SOL    HW225473   1.306   3.822  13.458 -0.5427  0.7578 -1.2115
 4613SOL     OW25474   0.204   1.828   5.258  0.1718  0.6611  0.4333
 4613SOL    HW125475   0.138   1.818   5.189  0.4244 -1.1435  0.4717
 4613SOL    HW225476   0.191   1.917   5.292 -1.4184 -0.0715  1.7394
 4614SOL     OW25477   4.038   2.715  14.869 -0.0251  0.1129 -0.5762
 4614SOL    HW125478   4.122   2.743  14.905  0.3021 -2.9001  0.9721
 4614SOL    HW225479   3.980   2.780  14.911  1.1633  0.8404 -0.0703
 4615SOL     OW25480   3.107   2.784   7.418  0.0799 -0.1870  0.4530
 4615SOL    HW125481   3.149   2.844   7.479 -0.1835  2.0235 -1.5481
 4615SOL    HW225482   3.180   2.738   7.376  0.2248  0.7390 -0.3163
 4616SOL     OW25483   3.197   3.884   5.973  0.1772  0.3768  0.4483
 4616SOL    HW125484   3.215   3.913   6.062  2.5303 -1.0709  0.4456
 4616SOL    HW225485   3.251   3.949   5.928 -0.7202 -0.8687 -2.4556
 4617SOL     OW25486   3.508   2.634  11.889  0.2543 -0.0674 -0.1351
 4617SOL    HW125487   3.434   2.593  11.846  0.8290 -1.8834  0.6040
 4617SOL    HW225488   3.470   2.689  11.958 -0.5654  1.0943 -1.5291
 4618SOL     OW25489   4.020   4.183   7.024 -0.3644  0.3222 -0.6098
 4618SOL    HW125490   4.074   4.262   7.028 -0.3781  0.2017  1.7946
 4618SOL    HW225491   4.088   4.117   7.016 -2.5645 -1.5046 -4.2882
 4619SOL     OW25492   0.990   0.942   2.008 -0.0955  0.4297  0.1490
 4619SOL    HW125493   1.036   0.906   2.084  3.0033  2.9263 -0.5576
 4619SOL    HW225494   0.899   0.920   2.029 -0.2529  0.1853 -0.8349
 4620SOL     OW25495   4.194   2.068  14.545 -0.0177 -0.3894  0.4037
 4620SOL    HW125496   4.251   1.993  14.530 -1.8731 -1.6970 -0.0864
 4620SOL    HW225497   4.204   2.108  14.458 -3.5500 -2.0021 -0.7293
 4621SOL     OW25498   3.224   2.373   7.790 -0.1666  0.0457 -0.1847
 4621SOL    HW125499   3.317   2.378   7.766  0.0861 -1.4566  0.4742
 4621SOL    HW225500   3.202   2.466   7.780  0.8952  0.3282  0.1014
 4622SOL     OW25501   4.099   4.222  16.155  0.6874  0.1883 -0.7302
 4622SOL    HW125502   4.179   4.273  16.147  0.5670  0.9770  3.0558
 4622SOL    HW225503   4.137   4.134  16.154  0.9611  0.2808  1.0798
 4623SOL     OW25504   1.504   2.143   7.085 -0.9083  0.2467 -0.0231
 4623SOL    HW125505   1.489   2.084   7.012  0.9388 -1.0925  0.6818
 4623SOL    HW225506   1.528   2.080   7.153 -0.2073 -1.1167 -1.5300
 4624SOL     OW25507   0.760   4.216   8.452 -0.2941  0.3910 -0.6878
 4624SOL    HW125508   0.724   4.173   8.374  0.4679  0.4410 -1.0597
 4624SOL    HW225509   0.689   4.271   8.485 -1.5409 -1.9353  0.5417
 4625SOL     OW25510   1.844   3.469  16.198 -0.5706  0.2088 -0.5529
 4625SOL    HW125511   1.927   3.477  16.152  0.2885 -0.6326  0.8678
 4625SOL    HW225512   1.859   3.521  16.277  2.6469  0.2216 -1.1796
 4626SOL     OW25513   3.977   3.612   3.553 -0.0646 -0.6801 -0.1005
 4626SOL    HW125514   3.903   3.593   3.611  1.0751 -1.0310  1.2649
 4626SOL    HW225515   3.947   3.589   3.465  2.5474  0.3778 -1.2690
 4627SOL     OW25516   0.725   3.408  13.295  0.3545  0.3961  0.5342
 4627SOL    HW125517   0.707   3.383  13.385 -2.1593  0.1567 -0.0561
 4627SOL    HW225518   0.760   3.326  13.261  1.8425  1.5662 -0.7861
 4628SOL     OW25519   3.424   2.511   6.741  0.2687 -0.1271 -0.0289
 4628SOL    HW125520   3.514   2.531   6.768 -0.2708  2.2016  0.0648
 4628SOL    HW225521   3.403   2.588   6.687  1.3370 -0.5429 -1.0255
 4629SOL     OW25522   3.633   0.695   3.111  0.0833 -0.2364  0.3504
 4629SOL    HW125523   3.728   0.699   3.106  0.1070 -1.3012 -0.1236
 4629SOL    HW225524   3.602   0.732   3.028  0.5570 -1.4116 -0.3431
 4630SOL     OW25525   0.578   0.994  10.364 -0.3833  0.1831 -0.0758
 4630SOL    HW125526   0.487   1.020  10.347 -0.4222  0.3781  0.4431
 4630SOL    HW225527   0.560   0.906  10.328  0.2126  0.4555 -1.0374
 4631SOL     OW25528   0.351   4.128   2.198  0.4151 -0.9441 -0.4285
 4631SOL    HW125529   0.315   4.162   2.280  0.2769  0.6654 -1.1472
 4631SOL    HW225530   0.306   4.044   2.194 -2.5501  0.5930  0.4306
 4632SOL     OW25531   0.308   4.030   4.248 -0.6827  0.4083  0.0539
 4632SOL    HW125532   0.296   4.011   4.155  1.7443  0.6222 -0.3195
 4632SOL    HW225533   0.274   4.120   4.244 -2.5189 -0.2739  0.4285
 4633SOL     OW25534   3.159   0.529   0.732  0.0554 -0.1879  0.0396
 4633SOL    HW125535   3.066   0.544   0.715 -0.3922 -1.0303  1.7455
 4633SOL    HW225536   3.199   0.587   0.668 -0.8774 -0.1360 -0.4929
 4634SOL     OW25537   3.236   4.484   9.194  0.2179  0.7763 -0.3260
 4634SOL    HW125538   3.277   4.454   9.113 -2.1343 -0.5189 -1.0599
 4634SOL    HW225539   3.169   4.416   9.203  0.0287  1.2503  1.7864
 4635SOL     OW25540   2.438   1.589   5.354 -0.2976  0.2765 -0.4802
 4635SOL    HW125541   2.532   1.572   5.346 -0.3399 -0.0180 -0.3651
 4635SOL    HW225542   2.396   1.522   5.299 -1.8472 -0.0644  1.1181
 4636SOL     OW25543   2.506   2.018   9.645 -0.0603  0.4973  0.5141
 4636SOL    HW125544   2.528   2.110   9.632  2.4574  0.0845  1.8736
 4636SOL    HW225545   2.590   1.993   9.684 -0.5121 -1.1952  0.4050
 4637SOL     OW25546   2.889   3.395   1.593  0.8441 -0.2008 -0.0252
 4637SOL    HW125547   2.835   3.400   1.671  0.5346  0.5790 -0.2875
 4637SOL    HW225548   2.882   3.483   1.557 -2.0317 -1.0334 -1.5290
 4638SOL     OW25549   4.311   1.569   8.316  0.1051 -0.1264  0.4522
 4638SOL    HW125550   4.309   1.625   8.393  0.4725  0.1681  0.2482
 4638SOL    HW225551   4.248   1.503   8.346 -1.6304  1.1041 -0.4916
 4639SOL     OW25552   2.870   2.239   7.986  0.7581 -0.2014 -0.1685
 4639SOL    HW125553   2.948   2.203   7.945  0.2871 -3.1471  1.4797
 4639SOL    HW225554   2.863   2.176   8.058 -1.8628 -1.3281 -1.3976
 4640SOL     OW25555   0.173   0.254   2.229  0.6229  0.7318 -0.2902
 4640SOL    HW125556   0.252   0.227   2.275  0.2171 -3.8169 -2.1976
 4640SOL    HW225557   0.147   0.324   2.288  2.2085  0.8106  0.3116
 4641SOL     OW25558   4.286   0.496   8.090  0.4760 -0.4080  0.1801
 4641SOL    HW125559   4.204   0.449   8.078 -0.1465  0.8476 -0.4187
 4641SOL    HW225560   4.307   0.443   8.168  1.8712 -0.7002 -0.3961
 4642SOL     OW25561   4.022   0.144   0.763 -0.7563  0.1438 -0.0700
 4642SOL    HW125562   4.027   0.233   0.729  1.3832  1.0078  2.4785
 4642SOL    HW225563   4.109   0.109   0.742 -0.3150  0.0641  1.8935
 4643SOL     OW25564   2.443   4.645   5.707  0.5708  0.5741  0.5646
 4643SOL    HW125565   2.389   4.609   5.636  0.8722  2.3308 -0.5761
 4643SOL    HW225566   2.490   4.707   5.651  1.3376  0.1770  0.7792
 4644SOL     OW25567   4.716   1.025  11.665 -0.4020  0.1290 -0.2701
 4644SOL    HW125568   0.005   1.045  11.575 -0.7180  0.1215 -0.3654
 4644SOL    HW225569   4.622   1.010  11.654 -0.5363 -1.7805  3.5265
 4645SOL     OW25570   3.176   4.056  15.535 -0.4700 -0.3842  0.5877
 4645SOL    HW125571   3.095   4.077  15.581 -0.7987 -2.6637  1.0107
 4645SOL    HW225572   3.176   4.109  15.455  1.7114 -1.3197 -0.0165
 4646SOL     OW25573   4.227   3.610   5.638 -0.6135 -0.2849 -0.0685
 4646SOL    HW125574   4.283   3.588   5.713 -0.4830  2.5826  0.7072
 4646SOL    HW225575   4.277   3.680   5.597 -1.0449 -0.6847 -1.2542
 4647SOL     OW25576   3.789   3.753   8.368 -0.2079  0.2458 -0.1275
 4647SOL    HW125577   3.872   3.786   8.402 -1.1638  1.4614  0.9963
 4647SOL    HW225578   3.809   3.735   8.276  0.1808  1.0558 -0.2018
 4648SOL     OW25579   0.094   2.065   5.382  1.2142 -0.0029  0.1691
 4648SOL    HW125580   4.736   2.061   5.382  1.2023  0.1714  1.6594
 4648SOL    HW225581   0.104   2.160   5.393 -1.9589  0.2695  0.4718
 4649SOL     OW25582   2.316   0.025   6.864 -0.2853 -0.1795  0.0367
 4649SOL    HW125583   2.383   4.732   6.926 -0.0183  0.0934 -0.1153
 4649SOL    HW225584   2.239   4.726   6.907  0.3264 -2.3548 -0.6896
 4650SOL     OW25585   0.615   1.334   4.373  0.1289 -0.3150 -0.0655
 4650SOL    HW125586   0.557   1.361   4.445 -0.2323  0.9891 -0.8411
 4650SOL    HW225587   0.572   1.257   4.336 -0.0614 -0.7723  1.1005
 4651SOL     OW25588   2.865   3.536   0.043 -0.5767  0.5887  0.3978
 4651SOL    HW125589   2.834   3.620   0.079  0.6115  0.7211  1.1105
 4651SOL    HW225590   2.913   3.495   0.115 -1.0559  0.2158  0.5045
 4652SOL     OW25591   2.890   2.891   8.310 -0.1645  0.0980  0.0702
 4652SOL    HW125592   2.933   2.914   8.228  2.2717 -0.8312  1.0762
 4652SOL    HW225593   2.892   2.796   8.306  4.5151  0.2079 -0.4971
 4653SOL     OW25594   3.281   0.699   0.560  0.5996 -0.1216  0.0046
 4653SOL    HW125595   3.295   0.638   0.488 -0.3618  1.0231 -1.1504
 4653SOL    HW225596   3.276   0.781   0.512 -1.2350 -0.3309 -0.1728
 4654SOL     OW25597   1.525   4.314   4.949 -0.2742  0.2406 -0.2696
 4654SOL    HW125598   1.505   4.226   4.982 -0.3947  0.1175 -0.6776
 4654SOL    HW225599   1.509   4.294   4.857 -1.1602 -0.5240  0.0554
 4655SOL     OW25600   0.968   4.698   3.112 -0.0979 -0.6913  0.3986
 4655SOL    HW125601   1.041   4.639   3.095 -1.4828 -2.7518  1.4961
 4655SOL    HW225602   0.910   4.639   3.161 -1.4309  1.1310  1.0132
 4656SOL     OW25603   2.359   4.008   3.543 -0.0211  0.0895  0.1282
 4656SOL    HW125604   2.319   4.055   3.470  2.0195  0.2511 -0.8860
 4656SOL    HW225605   2.340   3.916   3.529 -0.9671  0.7275 -2.8021
 4657SOL     OW25606   4.115   4.366   1.507  0.8003  0.1134  0.3491
 4657SOL    HW125607   4.175   4.408   1.445  0.7023 -0.8622 -0.3948
 4657SOL    HW225608   4.174   4.335   1.576  0.3474  0.3656  0.8488
 4658SOL     OW25609   1.210   2.423  12.893 -0.3379 -0.3483 -0.3453
 4658SOL    HW125610   1.255   2.374  12.824 -1.4792 -1.1536 -0.5074
 4658SOL    HW225611   1.189   2.513  12.868  0.2600  0.0596  0.6076
 4659SOL     OW25612   4.211   0.367  12.516  0.2255 -0.1386  0.1412
 4659SOL    HW125613   4.155   0.440  12.493  1.1201  0.1117 -1.2332
 4659SOL    HW225614   4.218   0.376  12.611  0.4576  2.6391 -0.1319
 4660SOL     OW25615   2.874   4.400   5.227  0.3106  0.8941  0.1574
 4660SOL    HW125616   2.856   4.485   5.188  1.1802  1.3438  0.7484
 4660SOL    HW225617   2.807   4.396   5.296 -0.7158 -1.8744 -0.9861
 4661SOL     OW25618   3.532   4.082   8.829 -0.0410  0.1701  0.5437
 4661SOL    HW125619   3.605   4.029   8.798 -0.7133  0.0230 -0.7885
 4661SOL    HW225620   3.488   4.118   8.752 -0.9338  1.7932  1.7958
 4662SOL     OW25621   1.713   4.736  16.912 -0.0669 -0.1386 -0.0390
 4662SOL    HW125622   1.665   4.724  16.829 -1.8341  0.9213  0.8413
 4662SOL    HW225623   1.771   4.660  16.903  0.2086 -0.2623  3.0444
 4663SOL     OW25624   2.198   3.917   1.865 -0.2442 -0.0829  0.5320
 4663SOL    HW125625   2.186   3.934   1.958 -0.1244 -1.3843  0.7930
 4663SOL    HW225626   2.116   3.909   1.816  0.5214 -0.9954 -0.6291
 4664SOL     OW25627   2.837   0.946  16.081 -0.0465  0.3594 -0.4952
 4664SOL    HW125628   2.910   1.003  16.104  0.3695 -0.5784  0.5508
 4664SOL    HW225629   2.763   1.002  16.104  0.2953  1.6325 -2.5621
 4665SOL     OW25630   4.541   1.948   5.063  0.7389  0.3022  0.3134
 4665SOL    HW125631   4.454   1.941   5.024  0.3507  1.8503  0.8881
 4665SOL    HW225632   4.536   2.040   5.088 -0.6585  0.2482  0.2352
 4666SOL     OW25633   3.406   2.824   5.110  0.8079  0.1408  0.1579
 4666SOL    HW125634   3.489   2.871   5.107  1.2270 -0.5861  0.5636
 4666SOL    HW225635   3.383   2.794   5.022  0.5532  1.3334 -0.1927
 4667SOL     OW25636   1.757   1.937  11.412 -0.4236 -0.5228  0.1444
 4667SOL    HW125637   1.808   1.905  11.337 -0.7729 -0.7212 -0.0102
 4667SOL    HW225638   1.672   1.898  11.391 -0.2711  1.6872 -4.6306
 4668SOL     OW25639   0.196   4.160   6.293  0.2607  0.5976 -0.3747
 4668SOL    HW125640   0.111   4.198   6.269 -0.7792 -0.0577  2.3213
 4668SOL    HW225641   0.224   4.201   6.374 -0.4502  0.9247 -0.2994
 4669SOL     OW25642   3.351   2.711   2.823 -0.0516 -0.0573  0.8262
 4669SOL    HW125643   3.294   2.732   2.897  1.0291  2.5406  0.9357
 4669SOL    HW225644   3.438   2.735   2.855  0.2135  1.0640 -0.7231
 4670SOL     OW25645   1.673   2.362   5.416 -0.0775 -0.0460 -0.1571
 4670SOL    HW125646   1.758   2.322   5.398  0.4120  0.2764  1.4295
 4670SOL    HW225647   1.670   2.340   5.509 -1.9640  0.5067 -0.0909
 4671SOL     OW25648   0.187   0.813   7.718 -0.8664 -0.3679  0.2214
 4671SOL    HW125649   0.127   0.821   7.793  0.6274  0.5575  1.3134
 4671SOL    HW225650   0.278   0.812   7.748 -1.1641  3.5222  1.2272
 4672SOL     OW25651   1.411   3.367   6.147  0.3234  0.2115 -0.4277
 4672SOL    HW125652   1.344   3.300   6.165  0.7586 -0.0154  0.3477
 4672SOL    HW225653   1.410   3.416   6.229  1.8669  0.4066 -0.5251
 4673SOL     OW25654   1.566   0.850   6.247  0.2996 -0.4394 -0.2591
 4673SOL    HW125655   1.497   0.824   6.308 -0.0376  0.2759 -0.3353
 4673SOL    HW225656   1.524   0.834   6.162 -0.9536 -1.8933  0.6216
 4674SOL     OW25657   3.956   2.879   6.272 -0.1069  0.2655 -0.3186
 4674SOL    HW125658   4.036   2.881   6.220  0.8792  0.4077  1.2041
 4674SOL    HW225659   3.910   2.949   6.227 -2.8319 -2.1229 -1.2679
 4675SOL     OW25660   2.204   3.760  14.556 -0.1118  0.1224  0.0387
 4675SOL    HW125661   2.265   3.732  14.487  0.2496  0.8607  0.0568
 4675SOL    HW225662   2.197   3.685  14.615  1.0365  0.8002  1.0350
 4676SOL     OW25663   4.590   0.439  13.894 -0.1047  0.0049  0.2041
 4676SOL    HW125664   4.641   0.509  13.855  1.3317 -1.1255  0.0776
 4676SOL    HW225665   4.572   0.372  13.828 -0.8385 -1.0890  1.5113
 4677SOL     OW25666   3.512   1.602   3.475 -0.0500  0.1186  0.2588
 4677SOL    HW125667   3.528   1.608   3.381  1.0877  3.1027  0.6747
 4677SOL    HW225668   3.416   1.607   3.470  0.0846  2.0658 -0.1738
 4678SOL     OW25669   2.982   1.151  13.643  0.6242  0.0737  0.1574
 4678SOL    HW125670   3.057   1.116  13.691 -0.4124 -1.5966  0.5412
 4678SOL    HW225671   2.974   1.073  13.589  0.6103  0.7817 -0.8755
 4679SOL     OW25672   0.613   1.845  10.581  0.1595  0.5118 -0.4506
 4679SOL    HW125673   0.594   1.807  10.667  0.6113 -0.2567 -0.6819
 4679SOL    HW225674   0.528   1.834  10.539  0.9786  0.2041 -2.0073
 4680SOL     OW25675   2.092   1.316   9.702  0.8447 -0.1868 -0.6301
 4680SOL    HW125676   2.087   1.374   9.777 -2.7947 -1.1107 -0.1296
 4680SOL    HW225677   2.019   1.348   9.649 -0.9629 -2.3412  0.5696
 4681SOL     OW25678   1.583   1.825   0.798  0.4651  0.0023  0.1751
 4681SOL    HW125679   1.582   1.915   0.763  1.2049 -0.1121 -0.1390
 4681SOL    HW225680   1.569   1.766   0.724 -1.2407  0.4314  0.1642
 4682SOL     OW25681   2.932   1.155  12.500 -0.0956 -0.1480  0.3966
 4682SOL    HW125682   2.885   1.115  12.573 -2.1176 -1.4694 -1.6028
 4682SOL    HW225683   2.975   1.086  12.449  0.0002  1.6255 -1.9460
 4683SOL     OW25684   1.817   1.260   7.685 -0.3605 -0.0066 -0.4772
 4683SOL    HW125685   1.862   1.175   7.690  2.1812  1.3272 -0.9773
 4683SOL    HW225686   1.862   1.318   7.746 -1.8548  0.4317  0.2093
 4684SOL     OW25687   3.161   3.852   8.740  0.4536 -0.4142  0.5761
 4684SOL    HW125688   3.246   3.836   8.699  2.1171 -1.4700  4.4841
 4684SOL    HW225689   3.173   3.939   8.778  3.2955 -0.4288 -0.3358
 4685SOL     OW25690   4.162   1.422   2.498 -0.8539  0.0190  0.8456
 4685SOL    HW125691   4.106   1.368   2.442  0.7727 -0.3467 -0.4088
 4685SOL    HW225692   4.219   1.357   2.537  2.1619  0.9667 -2.0587
 4686SOL     OW25693   3.346   1.358  10.473  0.3083  0.1845 -0.2063
 4686SOL    HW125694   3.262   1.365  10.519  1.6980  1.6044  2.1125
 4686SOL    HW225695   3.420   1.350  10.532  0.5078  1.0290 -0.3331
 4687SOL     OW25696   3.393   3.650   2.222  0.3424  0.3562 -0.4980
 4687SOL    HW125697   3.354   3.563   2.210 -1.0980  0.8730  0.4451
 4687SOL    HW225698   3.470   3.644   2.166 -0.4908 -1.0284 -1.4984
 4688SOL     OW25699   2.406   1.353   7.996  0.0551 -0.4575  0.1255
 4688SOL    HW125700   2.344   1.424   8.009  1.6925  0.9828  0.0174
 4688SOL    HW225701   2.467   1.384   7.929  0.0741  0.4542  0.5711
 4689SOL     OW25702   1.973   4.312   2.208 -0.7103  0.5942  0.1282
 4689SOL    HW125703   1.963   4.287   2.116  1.7229  0.2459 -0.0419
 4689SOL    HW225704   1.978   4.407   2.194  1.3841  0.0936 -2.4879
 4690SOL     OW25705   4.338   2.632  13.573  0.7017  0.3534  0.4612
 4690SOL    HW125706   4.324   2.637  13.479 -0.8336 -0.2484  0.6539
 4690SOL    HW225707   4.368   2.542  13.576  0.3861  0.2616  0.9680
 4691SOL     OW25708   3.160   0.401   8.139  0.0965  0.1672  0.0651
 4691SOL    HW125709   3.248   0.371   8.157  0.3233  2.0305  2.0689
 4691SOL    HW225710   3.115   0.344   8.201 -0.4492  1.4206  0.8244
 4692SOL     OW25711   0.310   0.909   5.104 -0.0373  0.2142 -0.4967
 4692SOL    HW125712   0.318   0.855   5.025 -0.7289  0.4373 -0.7123
 4692SOL    HW225713   0.359   0.848   5.161  0.5382  0.7061 -0.4652
 4693SOL     OW25714   4.211   0.117  11.515 -0.1695 -0.6509  0.3008
 4693SOL    HW125715   4.204   0.024  11.496  0.3789 -0.6880  0.2778
 4693SOL    HW225716   4.262   0.145  11.440 -0.3125  0.5594  0.6485
 4694SOL     OW25717   1.956   3.156  15.536 -0.0491 -0.9123 -0.3179
 4694SOL    HW125718   1.948   3.061  15.525 -0.7510 -0.6192 -2.2125
 4694SOL    HW225719   1.953   3.192  15.448 -2.0441  0.4899  0.3283
 4695SOL     OW25720   4.716   2.381   6.794 -0.2804  0.4996  0.0446
 4695SOL    HW125721   0.065   2.361   6.829 -0.0067 -2.3937 -2.2186
 4695SOL    HW225722   4.704   2.288   6.773  1.8056  0.1697  0.3157
 4696SOL     OW25723   0.627   1.383   4.014 -0.3260  0.3600 -0.6560
 4696SOL    HW125724   0.622   1.322   3.940  2.0894  2.3981 -2.4766
 4696SOL    HW225725   0.538   1.379   4.050 -0.6411 -2.1817 -1.6852
 4697SOL     OW25726   1.694   1.372   2.374  0.1913 -0.2827 -0.0648
 4697SOL    HW125727   1.748   1.300   2.404  0.2457 -0.2621 -0.1145
 4697SOL    HW225728   1.608   1.342   2.404  0.2709  0.3516  0.8101
 4698SOL     OW25729   3.239   0.884   5.827 -0.7466  0.2538 -0.1076
 4698SOL    HW125730   3.294   0.947   5.874  0.2282 -1.8427  1.5500
 4698SOL    HW225731   3.207   0.955   5.771 -0.4374  0.7649  0.3647
 4699SOL     OW25732   3.455   0.347   8.107 -0.6282 -0.2405 -0.8902
 4699SOL    HW125733   3.469   0.267   8.057  0.6291  0.8392 -2.3037
 4699SOL    HW225734   3.532   0.353   8.164 -0.4367  1.1607 -1.2784
 4700SOL     OW25735   2.176   4.467  16.001 -0.1246  0.2990  0.5385
 4700SOL    HW125736   2.091   4.447  15.961  0.0122  0.0900  0.3528
 4700SOL    HW225737   2.159   4.478  16.095 -0.5730  0.5366  0.4324
 4701SOL     OW25738   0.929   0.178  13.930  0.1422 -0.0452 -0.2235
 4701SOL    HW125739   0.863   0.114  13.957 -0.6143  0.1308 -1.6581
 4701SOL    HW225740   0.922   0.177  13.834  2.7092 -0.9663 -0.3931
 4702SOL     OW25741   0.940   2.198   6.629  0.1016  0.0025  0.1348
 4702SOL    HW125742   0.946   2.207   6.724 -3.1563 -0.1084  0.3685
 4702SOL    HW225743   0.848   2.177   6.612  0.3817  0.2500 -1.6320
 4703SOL     OW25744   4.120   0.464   2.739  0.0391 -0.5430 -0.2373
 4703SOL    HW125745   4.188   0.425   2.794  0.4412  0.7052  0.1342
 4703SOL    HW225746   4.081   0.381   2.711 -1.6333  0.5497 -1.1268
 4704SOL     OW25747   0.314   3.261   3.943  0.4164  0.3153 -0.2913
 4704SOL    HW125748   0.315   3.356   3.938 -1.3852  0.4715  2.3189
 4704SOL    HW225749   0.278   3.239   3.857  0.6916  0.7827 -0.5228
 4705SOL     OW25750   3.925   2.855   5.394 -0.6744  0.3524  0.4475
 4705SOL    HW125751   3.978   2.903   5.330 -2.3613  0.3681 -0.9341
 4705SOL    HW225752   3.989   2.800   5.439 -0.0303  1.0792  0.4274
 4706SOL     OW25753   0.742   2.828   6.560  0.4726 -0.0475 -0.0303
 4706SOL    HW125754   0.745   2.760   6.492  0.3788  1.4490 -1.5483
 4706SOL    HW225755   0.649   2.852   6.559  0.1981 -1.1332 -1.6176
 4707SOL     OW25756   2.490   4.710  10.680 -0.5924 -0.2233  0.1077
 4707SOL    HW125757   2.396   4.696  10.666 -0.8243  0.6244  0.8136
 4707SOL    HW225758   2.520   4.628  10.641  0.6347 -0.0856  0.7438
 4708SOL     OW25759   3.942   3.114   7.303  0.5016  1.0125  0.4087
 4708SOL    HW125760   3.954   3.188   7.362 -2.3926  1.2529  0.7299
 4708SOL    HW225761   3.988   3.155   7.231 -1.0564  0.7008 -0.7793
 4709SOL     OW25762   3.138   1.835   3.725 -0.1972 -0.6948 -0.0695
 4709SOL    HW125763   3.107   1.918   3.689  0.3825 -0.4954 -0.0938
 4709SOL    HW225764   3.056   1.787   3.710 -0.1306 -1.0220  0.5856
 4710SOL     OW25765   0.550   0.491   7.210 -0.3689  0.0487  0.3790
 4710SOL    HW125766   0.637   0.529   7.206  0.2677 -1.4606 -0.3089
 4710SOL    HW225767   0.567   0.435   7.287  1.4208  0.5555  0.3442
 4711SOL     OW25768   2.640   2.104   1.759 -0.1726 -0.1581 -0.3383
 4711SOL    HW125769   2.547   2.100   1.781 -0.0502  3.5451  0.8341
 4711SOL    HW225770   2.664   2.190   1.795 -0.1349  0.1423 -1.0666
 4712SOL     OW25771   2.512   1.994   2.018  0.8370  0.1412  0.4383
 4712SOL    HW125772   2.597   2.013   1.977  0.3863  0.7077 -0.2209
 4712SOL    HW225773   2.506   2.067   2.080 -1.3306 -0.3193  0.7582
 4713SOL     OW25774   4.242   1.501   9.097 -0.5222  0.4200  0.1292
 4713SOL    HW125775   4.246   1.453   9.179  1.4780  1.5960  0.7436
 4713SOL    HW225776   4.236   1.588   9.138  0.9918  0.7384 -0.3136
 4714SOL     OW25777   1.757   0.034   4.876  0.4923  0.7728 -0.4386
 4714SOL    HW125778   1.667   0.017   4.849  0.2471 -2.5876  2.5694
 4714SOL    HW225779   1.801   0.062   4.796  1.5126 -0.7179 -0.4020
 4715SOL     OW25780   1.429   4.283   8.949  0.2609  0.1229 -0.4238
 4715SOL    HW125781   1.519   4.303   8.974  0.7058 -0.7383 -1.3360
 4715SOL    HW225782   1.447   4.202   8.902 -0.6030  0.7867 -1.8985
 4716SOL     OW25783   2.135   3.354   1.973 -0.2142 -0.1077  0.4015
 4716SOL    HW125784   2.056   3.369   1.920 -0.3097  1.2609  0.9387
 4716SOL    HW225785   2.187   3.434   1.969 -1.3887  0.6523  0.2389
 4717SOL     OW25786   1.125   3.273   2.783  0.2451 -0.3547  0.2034
 4717SOL    HW125787   1.044   3.287   2.832  0.6419  2.1930  0.1393
 4717SOL    HW225788   1.184   3.257   2.857  0.5948  0.2767  0.0595
 4718SOL     OW25789   3.189   1.511   1.654 -0.5141 -0.5295 -0.5443
 4718SOL    HW125790   3.283   1.515   1.635 -0.6142 -0.1363 -0.9506
 4718SOL    HW225791   3.174   1.576   1.722  2.1052 -0.2370 -0.2227
 4719SOL     OW25792   2.821   1.248   7.054  0.1036 -0.1108 -0.6305
 4719SOL    HW125793   2.821   1.208   7.141  1.6211  0.7420 -0.2559
 4719SOL    HW225794   2.725   1.249   7.045 -0.1584 -0.3949  2.2023
 4720SOL     OW25795   3.309   4.183  15.809 -0.2179  0.5938  0.0494
 4720SOL    HW125796   3.275   4.270  15.789 -0.7818  0.4145  0.2209
 4720SOL    HW225797   3.361   4.169  15.730 -2.6373 -0.4875 -1.3826
 4721SOL     OW25798   3.549   2.469   2.135  0.4848  0.5082  0.6802
 4721SOL    HW125799   3.486   2.520   2.187 -1.8209 -1.1139 -0.5006
 4721SOL    HW225800   3.610   2.444   2.205  1.8222  2.5718  0.2351
 4722SOL     OW25801   0.651   0.668   6.671  0.0985 -0.4553  0.4987
 4722SOL    HW125802   0.738   0.707   6.659 -0.9970  1.8502  0.0680
 4722SOL    HW225803   0.664   0.583   6.712 -0.9869 -1.5226 -1.3958
 4723SOL     OW25804   1.311   3.343   7.255 -0.0840  0.2801 -0.2122
 4723SOL    HW125805   1.343   3.353   7.345  1.0421 -0.0927 -0.5729
 4723SOL    HW225806   1.289   3.433   7.231  1.4369  0.8659  0.5591
 4724SOL     OW25807   4.166   2.372   4.412  0.3192 -0.3936  0.0564
 4724SOL    HW125808   4.158   2.376   4.508  0.5954  0.7389  0.0331
 4724SOL    HW225809   4.145   2.463   4.388 -0.2154 -0.8076 -1.0074
 4725SOL     OW25810   4.646   2.148  12.224  0.3237 -0.2256  0.3446
 4725SOL    HW125811   4.713   2.213  12.202  1.4660 -1.4555  0.1862
 4725SOL    HW225812   4.649   2.164  12.319 -0.5834 -1.4498  0.5820
 4726SOL     OW25813   2.849   1.454   2.471  0.2924 -0.2178 -0.5875
 4726SOL    HW125814   2.939   1.487   2.462  0.3339 -0.1370  0.1150
 4726SOL    HW225815   2.851   1.444   2.566 -2.3561  1.3164 -0.3845
 4727SOL     OW25816   4.251   1.031  15.024 -0.2891  0.3175 -0.7908
 4727SOL    HW125817   4.157   1.032  15.044 -0.1020  0.6337  0.0558
 4727SOL    HW225818   4.250   1.060  14.933 -2.2740  1.4205 -0.4340
 4728SOL     OW25819   3.474   1.122   0.697 -0.5226  0.0976 -0.2304
 4728SOL    HW125820   3.506   1.209   0.721 -3.2735  0.7454  1.0029
 4728SOL    HW225821   3.472   1.129   0.601 -1.9834  0.4540 -0.1646
 4729SOL     OW25822   2.659   2.114   3.423  0.3261 -0.5749  0.3561
 4729SOL    HW125823   2.576   2.091   3.381  0.6839  0.0136 -0.6841
 4729SOL    HW225824   2.624   2.195   3.460  2.2304 -0.8878  2.7977
 4730SOL     OW25825   1.375   4.183   2.565 -0.0081 -0.0798 -0.0814
 4730SOL    HW125826   1.406   4.116   2.504 -0.4005  1.7730 -2.3125
 4730SOL    HW225827   1.365   4.259   2.507 -0.3770  0.3436  0.5461
 4731SOL     OW25828   0.801   0.115  10.560  0.0348 -0.2136 -0.3376
 4731SOL    HW125829   0.890   0.151  10.562 -0.6987  1.4112  2.8661
 4731SOL    HW225830   0.812   0.042  10.499  1.4676  1.4682 -2.0833
 4732SOL     OW25831   4.143   4.551   7.987 -0.1266 -0.1141  0.5821
 4732SOL    HW125832   4.199   4.490   7.938 -0.1558  1.3040 -1.2136
 4732SOL    HW225833   4.078   4.578   7.921  1.0514  1.4788  0.0777
 4733SOL     OW25834   3.054   2.376   5.851  0.0471 -0.2001 -0.1325
 4733SOL    HW125835   3.005   2.456   5.868 -2.5147 -1.1941 -2.8160
 4733SOL    HW225836   2.995   2.317   5.898  1.1631  0.6366  2.3014
 4734SOL     OW25837   2.219   4.584   2.010  0.1334  0.3008 -0.2376
 4734SOL    HW125838   2.227   4.636   1.930 -0.6039 -1.6007 -1.5448
 4734SOL    HW225839   2.214   4.496   1.973 -0.5945 -0.1046  0.8192
 4735SOL     OW25840   2.124   2.433   9.457 -0.4655 -0.1606 -0.9482
 4735SOL    HW125841   2.144   2.400   9.369  1.2671  2.2627 -1.4839
 4735SOL    HW225842   2.171   2.516   9.454  0.5231 -0.6960 -0.4729
 4736SOL     OW25843   3.343   1.828   0.961  0.1471  0.1288  0.1364
 4736SOL    HW125844   3.259   1.784   0.973  0.4967 -0.6766 -0.3811
 4736SOL    HW225845   3.316   1.920   0.955  1.5060  0.4403 -1.3718
 4737SOL     OW25846   3.002   2.253   3.771  0.0019 -0.4150 -0.1107
 4737SOL    HW125847   3.080   2.204   3.797  0.7841  1.6680  1.4584
 4737SOL    HW225848   3.033   2.338   3.803  0.7220  0.3431 -2.7903
 4738SOL     OW25849   1.081   3.075   9.610  0.6582  0.0032 -0.5162
 4738SOL    HW125850   1.175   3.056   9.613  0.8731  1.2374  0.5275
 4738SOL    HW225851   1.061   3.079   9.703 -1.0769 -0.0632 -0.8729
 4739SOL     OW25852   0.434   3.931   3.745 -0.4292  0.3379 -0.4249
 4739SOL    HW125853   0.475   3.925   3.831 -2.1658 -1.2272  0.2970
 4739SOL    HW225854   0.512   3.961   3.698 -0.5333  0.8660 -0.2608
 4740SOL     OW25855   2.353   2.550   2.621  0.0580  0.2248  0.0303
 4740SOL    HW125856   2.430   2.532   2.675  0.1353  2.6927  0.7428
 4740SOL    HW225857   2.347   2.463   2.582  3.0067 -0.6985  1.6891
 4741SOL     OW25858   0.642   2.867   4.163 -0.5381 -0.1361  0.3051
 4741SOL    HW125859   0.585   2.942   4.152 -0.6431 -0.0818  1.1956
 4741SOL    HW225860   0.721   2.909   4.197 -0.6971  0.4200 -0.0242
 4742SOL     OW25861   3.148   4.189   3.479  0.1285  0.1919 -0.0387
 4742SOL    HW125862   3.129   4.222   3.391  0.9995 -0.3578 -0.4246
 4742SOL    HW225863   3.190   4.267   3.513 -2.0764  0.6937  1.4857
 4743SOL     OW25864   2.118   2.123  12.327 -0.5442  0.4930 -0.6335
 4743SOL    HW125865   2.086   2.213  12.317 -0.8561  0.4507  0.0089
 4743SOL    HW225866   2.161   2.127  12.412 -0.8667 -2.5833 -0.3567
 4744SOL     OW25867   2.167   2.079   0.293  0.1601  0.4136 -0.6021
 4744SOL    HW125868   2.249   2.032   0.304 -0.7436 -0.9434  0.2388
 4744SOL    HW225869   2.164   2.071   0.197 -1.1382 -1.3178 -0.4089
 4745SOL     OW25870   4.365   2.041   8.613  0.1118 -0.1233  0.2294
 4745SOL    HW125871   4.279   2.049   8.572  0.2469 -0.6286 -0.1618
 4745SOL    HW225872   4.358   2.113   8.676  0.6657  0.2747 -0.1619
 4746SOL     OW25873   4.619   4.102  14.433  0.1477 -0.7271  0.8848
 4746SOL    HW125874   4.554   4.045  14.474  0.4006  0.0023  2.2919
 4746SOL    HW225875   4.690   4.106  14.497  1.3570 -1.3695 -0.4019
 4747SOL     OW25876   0.425   0.902  13.426 -0.1765  0.0985 -0.3879
 4747SOL    HW125877   0.474   0.918  13.507 -0.3116  3.5243 -0.9757
 4747SOL    HW225878   0.489   0.851  13.376 -0.6939 -1.5238  0.6149
 4748SOL     OW25879   4.501   3.293   5.418  0.2839  0.4009  0.8527
 4748SOL    HW125880   4.544   3.321   5.499  0.5499  1.1118  0.4635
 4748SOL    HW225881   4.551   3.214   5.395  0.8149  0.5880  1.3443
 4749SOL     OW25882   0.605   1.269   6.826 -0.3533  0.0518 -0.4548
 4749SOL    HW125883   0.583   1.359   6.803 -1.0054  0.3335  1.2738
 4749SOL    HW225884   0.526   1.216   6.815  0.6132 -1.8513  1.8055
 4750SOL     OW25885   1.908   0.094   7.996  0.3990  0.2970  0.1974
 4750SOL    HW125886   1.895   0.126   8.085  0.5886 -1.5402  0.8847
 4750SOL    HW225887   1.880   0.167   7.940  2.1270 -0.6980 -1.9452
 4751SOL     OW25888   2.583   4.193   5.346 -0.2489 -0.0534 -0.1143
 4751SOL    HW125889   2.568   4.286   5.365  1.2636 -0.1384  1.4157
 4751SOL    HW225890   2.604   4.179   5.438 -0.7767  2.2668  0.3528
 4752SOL     OW25891   4.515   1.502   7.204 -0.6687 -0.1383 -0.1621
 4752SOL    HW125892   4.454   1.488   7.132 -0.0880  1.6068 -0.9985
 4752SOL    HW225893   4.586   1.550   7.161 -0.8310 -0.7980 -1.1334
 4753SOL     OW25894   3.954   1.622   6.575  0.2374 -0.3330  0.6508
 4753SOL    HW125895   3.886   1.583   6.629  0.3199  0.5019  1.3554
 4753SOL    HW225896   3.949   1.563   6.500  0.3169  0.3521  0.1065
 4754SOL     OW25897   3.078   2.546   7.131  0.5397 -0.6049 -0.2557
 4754SOL    HW125898   3.136   2.591   7.192  2.4429 -1.8582 -1.1440
 4754SOL    HW225899   3.097   2.582   7.044  4.4690  0.2277  0.9314
 4755SOL     OW25900   2.384   1.158   9.350 -0.4367 -0.1889 -0.6018
 4755SOL    HW125901   2.392   1.078   9.299 -0.9006  0.0988 -1.1214
 4755SOL    HW225902   2.336   1.218   9.294 -0.5460 -0.4274 -0.7637
 4756SOL     OW25903   0.599   0.799   2.737 -0.4901 -0.1594 -0.0563
 4756SOL    HW125904   0.634   0.731   2.679 -0.1455  0.4715 -0.5830
 4756SOL    HW225905   0.569   0.742   2.808 -0.1853 -0.8138 -0.4493
 4757SOL     OW25906   4.002   2.301   9.918 -0.2740  0.2401 -0.3444
 4757SOL    HW125907   3.928   2.300   9.858 -0.2319  0.1779 -0.3952
 4757SOL    HW225908   3.950   2.299   9.998  1.6777  1.6214  0.9765
 4758SOL     OW25909   0.687   0.537   4.897  0.4436  0.0780  0.8273
 4758SOL    HW125910   0.770   0.576   4.869 -0.1869  1.5563  1.0762
 4758SOL    HW225911   0.713   0.445   4.902  1.0675  0.0117 -3.0677
 4759SOL     OW25912   2.131   3.132   9.478 -0.3790 -0.0298 -0.1686
 4759SOL    HW125913   2.133   3.041   9.447  0.4190  0.5143 -1.7493
 4759SOL    HW225914   2.156   3.109   9.567  0.9267 -2.2499 -1.1023
 4760SOL     OW25915   1.750   2.325   8.036 -0.0429  0.2604 -0.3590
 4760SOL    HW125916   1.697   2.379   8.093  2.0119  2.4521 -0.5299
 4760SOL    HW225917   1.790   2.396   7.986 -0.8429  0.8861 -0.1041
 4761SOL     OW25918   4.321   2.229   5.436 -0.0734  0.4551 -0.0877
 4761SOL    HW125919   4.264   2.156   5.412  0.1304 -0.2737  1.6323
 4761SOL    HW225920   4.322   2.277   5.353 -1.6061  0.0549 -0.3298
 4762SOL     OW25921   0.974   2.123  12.711  0.7809 -0.0131  0.0812
 4762SOL    HW125922   0.986   2.130  12.616  1.6254 -3.2266 -0.0630
 4762SOL    HW225923   0.895   2.175  12.722  0.1409 -1.0896  0.5485
 4763SOL     OW25924   1.337   0.474   9.381 -0.3699  0.3734 -0.1012
 4763SOL    HW125925   1.352   0.448   9.472 -1.1798  1.6982  0.4089
 4763SOL    HW225926   1.247   0.502   9.395 -0.9888 -0.3443 -2.7413
 4764SOL     OW25927   1.264   1.694   4.674  0.1012 -0.1860 -0.3943
 4764SOL    HW125928   1.292   1.706   4.583  0.2880  1.5162 -0.0972
 4764SOL    HW225929   1.192   1.631   4.665 -1.0949  1.1005  0.2321
 4765SOL     OW25930   2.949   0.620   7.123 -0.1519  0.3135  0.8850
 4765SOL    HW125931   2.946   0.715   7.107  1.6794 -0.2813 -3.0532
 4765SOL    HW225932   3.009   0.620   7.197  1.9161  2.2153 -0.7568
 4766SOL     OW25933   0.766   1.777   6.247  0.2969 -0.0146  0.0319
 4766SOL    HW125934   0.685   1.827   6.250  0.2347 -0.0300 -1.5304
 4766SOL    HW225935   0.802   1.805   6.163  0.1623 -0.1115 -0.0571
 4767SOL     OW25936   0.823   4.597   9.863  0.4229 -0.7168  0.1472
 4767SOL    HW125937   0.879   4.672   9.843 -2.8670  1.0740 -2.2391
 4767SOL    HW225938   0.736   4.636   9.876  1.1133  1.1589 -0.8021
 4768SOL     OW25939   3.527   4.726   7.152 -0.0933 -0.4465  0.3102
 4768SOL    HW125940   3.535   4.730   7.248 -0.6500 -2.1402  0.4365
 4768SOL    HW225941   3.436   0.016   7.141 -0.6480 -2.0205  0.8741
 4769SOL     OW25942   2.905   2.893   2.467 -0.6344 -0.0984  0.5123
 4769SOL    HW125943   2.838   2.876   2.401  1.1744  0.4846 -1.4704
 4769SOL    HW225944   2.957   2.816   2.444  0.5762  0.7144  0.5452
 4770SOL     OW25945   1.679   1.532  13.170  0.3256  0.1523  0.6673
 4770SOL    HW125946   1.594   1.570  13.192  1.0290  2.2576 -0.3020
 4770SOL    HW225947   1.664   1.438  13.176 -0.4509  0.2447  0.2463
 4771SOL     OW25948   4.596   3.351  15.083 -0.3320  0.2199  0.3241
 4771SOL    HW125949   4.637   3.280  15.033 -0.6625  0.5149 -0.3697
 4771SOL    HW225950   4.582   3.417  15.016  0.0051  0.4734  0.5057
 4772SOL     OW25951   1.837   1.087  15.820  0.2635 -0.0535  0.9966
 4772SOL    HW125952   1.776   1.015  15.801  0.7077  0.0188 -0.6909
 4772SOL    HW225953   1.811   1.133  15.900  1.1248  0.6196  0.8926
 4773SOL     OW25954   1.905   0.463   8.913 -0.4378 -0.7971 -0.3404
 4773SOL    HW125955   1.863   0.438   8.996  2.1003 -0.3734  1.0583
 4773SOL    HW225956   1.939   0.550   8.934 -0.2466 -1.2158  1.0938
 4774SOL     OW25957   1.230   3.635   0.324 -0.0969 -0.0355  0.2492
 4774SOL    HW125958   1.191   3.651   0.409  0.0295 -1.8431  0.6471
 4774SOL    HW225959   1.266   3.546   0.328 -0.2102 -0.0719  0.4459
 4775SOL     OW25960   2.473   2.987   2.423 -0.2135 -0.2585  0.3679
 4775SOL    HW125961   2.547   3.004   2.481  1.3486 -1.8709 -1.1248
 4775SOL    HW225962   2.510   3.026   2.344  1.0877 -0.4588  0.8647
 4776SOL     OW25963   3.767   4.329   9.653 -0.6070  0.0693  0.0727
 4776SOL    HW125964   3.686   4.286   9.680 -0.3865  0.9858  2.1246
 4776SOL    HW225965   3.746   4.421   9.669 -1.0962  0.1846 -1.2254
 4777SOL     OW25966   1.727   1.914   4.808  0.1110  0.8041 -0.3563
 4777SOL    HW125967   1.664   1.979   4.839 -1.1712 -0.2985 -0.6311
 4777SOL    HW225968   1.689   1.887   4.725 -0.7251 -0.4528  0.4236
 4778SOL     OW25969   1.046   1.108   7.055 -0.0104 -0.2760 -0.2663
 4778SOL    HW125970   0.954   1.131   7.068 -0.1277 -0.1167 -1.3627
 4778SOL    HW225971   1.058   1.127   6.961  0.8730 -0.6336 -0.2267
 4779SOL     OW25972   2.675   1.935   7.687  0.4508  0.0715 -0.1208
 4779SOL    HW125973   2.595   1.891   7.659  0.2051  0.1981  0.3749
 4779SOL    HW225974   2.727   1.941   7.607 -1.6406  0.2114 -1.4511
 4780SOL     OW25975   2.516   4.424  10.608 -0.3477  0.2108  0.2964
 4780SOL    HW125976   2.554   4.354  10.554 -2.0065  0.3133 -1.0228
 4780SOL    HW225977   2.442   4.379  10.648 -1.3280 -0.1466 -1.9471
 4781SOL     OW25978   3.896   2.959   8.907  0.4533  0.3792 -0.1779
 4781SOL    HW125979   3.927   2.869   8.919  0.1451  0.4899  1.3519
 4781SOL    HW225980   3.922   3.004   8.987  0.8689  0.6830 -0.4755
 4782SOL     OW25981   2.939   2.106   4.229  0.1298  0.0384 -0.3360
 4782SOL    HW125982   2.950   2.046   4.302  1.7316  0.6903 -0.0485
 4782SOL    HW225983   2.995   2.178   4.259  0.0478  0.1974 -0.5620
 4783SOL     OW25984   2.469   2.865   6.683 -0.6119  0.3102  0.2040
 4783SOL    HW125985   2.558   2.892   6.663 -0.6311  0.4515  0.3102
 4783SOL    HW225986   2.425   2.889   6.602 -0.5118 -0.1132  0.0201
 4784SOL     OW25987   2.082   1.695   2.737 -0.0939  0.6777 -0.2434
 4784SOL    HW125988   2.045   1.783   2.730 -0.2284  0.6014 -0.4833
 4784SOL    HW225989   2.104   1.687   2.830 -1.2998 -0.9555 -0.0978
 4785SOL     OW25990   3.566   3.296   8.846  0.4936 -0.0315 -0.0088
 4785SOL    HW125991   3.519   3.373   8.815 -0.7078 -0.7120  0.1222
 4785SOL    HW225992   3.651   3.330   8.875  2.3562 -2.7541 -2.1477
 4786SOL     OW25993   1.271   2.514   7.277 -0.6342 -0.2339 -0.3619
 4786SOL    HW125994   1.235   2.570   7.346 -2.6020  1.4112 -2.7263
 4786SOL    HW225995   1.197   2.453   7.278 -1.3494  0.6142 -1.2337
 4787SOL     OW25996   1.433   1.125   1.741 -0.5240  0.3404  0.0920
 4787SOL    HW125997   1.506   1.170   1.783 -0.0746 -1.3729  1.1204
 4787SOL    HW225998   1.358   1.179   1.767 -1.9793 -0.9281 -1.5000
 4788SOL     OW25999   2.327   2.320  13.329 -0.4150  0.6684  0.2774
 4788SOL    HW126000   2.304   2.404  13.289 -0.7149  0.5208  0.1478
 4788SOL    HW226001   2.263   2.262  13.289 -0.8111  0.8086  0.7092
 4789SOL     OW26002   3.918   1.140   7.446 -0.5960  0.2821 -0.3582
 4789SOL    HW126003   3.934   1.053   7.484  0.4004  0.2589 -0.8440
 4789SOL    HW226004   3.947   1.123   7.356 -1.9146  0.1620 -0.7589
 4790SOL     OW26005   1.793   4.257  15.414 -0.2704  0.3212  0.4215
 4790SOL    HW126006   1.782   4.217  15.327 -1.5547 -0.3872  0.9005
 4790SOL    HW226007   1.877   4.300  15.399  0.3911 -1.7065 -1.7394
 4791SOL     OW26008   4.264   0.229   0.954 -0.1183 -0.2390 -0.0062
 4791SOL    HW126009   4.206   0.227   1.029  1.6123 -1.0476  1.3040
 4791SOL    HW226010   4.221   0.185   0.880  1.7647 -1.1098 -0.5998
 4792SOL     OW26011   2.576   1.213   3.694  0.7855  0.1070 -0.1118
 4792SOL    HW126012   2.536   1.155   3.759  2.3983 -0.4138  0.4136
 4792SOL    HW226013   2.494   1.259   3.679  2.9032  3.8176 -0.3467
 4793SOL     OW26014   4.023   4.143   8.256  0.4427 -0.1669  0.2684
 4793SOL    HW126015   3.975   4.155   8.338  0.8852 -2.2473  0.8318
 4793SOL    HW226016   4.056   4.053   8.253  0.0048 -0.3641  1.1730
 4794SOL     OW26017   0.469   0.739   5.214  0.0537 -0.1912  0.1459
 4794SOL    HW126018   0.477   0.671   5.147  1.1508 -1.2773  1.3846
 4794SOL    HW226019   0.557   0.742   5.252  0.7016  1.5560 -1.5040
 4795SOL     OW26020   1.763   3.001  10.323  0.9142  0.0341 -0.1362
 4795SOL    HW126021   1.816   2.926  10.295  2.2764  1.4690 -1.3969
 4795SOL    HW226022   1.825   3.074  10.321  0.7432  0.1399 -1.2366
 4796SOL     OW26023   0.897   1.506   7.954 -0.7827 -0.3706  0.7131
 4796SOL    HW126024   0.886   1.525   8.047 -0.6971 -3.2166  1.3133
 4796SOL    HW226025   0.978   1.455   7.955 -0.2732  0.4819  2.2274
 4797SOL     OW26026   4.262   1.830   7.865 -0.0379  0.0750  0.0124
 4797SOL    HW126027   4.275   1.925   7.856  0.0507 -0.1078 -1.8083
 4797SOL    HW226028   4.252   1.819   7.959 -1.6835  1.0147 -0.0530
 4798SOL     OW26029   2.394   3.386  11.827 -0.3345 -0.2593 -0.4902
 4798SOL    HW126030   2.423   3.461  11.776 -1.3133  0.5962  0.2223
 4798SOL    HW226031   2.377   3.433  11.909  1.5601 -1.8051  0.7803
 4799SOL     OW26032   3.406   3.418   6.274 -0.0138  0.1357 -0.2996
 4799SOL    HW126033   3.359   3.488   6.231  0.9212  0.5319 -0.6781
 4799SOL    HW226034   3.386   3.438   6.366  1.2450 -0.9267  0.2142
 4800SOL     OW26035   4.157   1.390   3.118  0.4655 -0.2487 -0.1444
 4800SOL    HW126036   4.204   1.350   3.191 -3.3618  0.2028  2.4962
 4800SOL    HW226037   4.123   1.467   3.162  1.0437  0.0032 -0.1425
 4801SOL     OW26038   1.813   4.029   2.871 -0.0342  0.2756 -0.5285
 4801SOL    HW126039   1.851   3.943   2.888  2.2793  0.8754 -2.7612
 4801SOL    HW226040   1.779   4.041   2.960 -1.8573 -1.0743 -1.0335
 4802SOL     OW26041   4.250   2.868  11.943 -0.0092  0.0635 -0.8912
 4802SOL    HW126042   4.328   2.912  11.909  0.3684  0.0711 -0.0105
 4802SOL    HW226043   4.279   2.777  11.938  0.3613  0.1466 -0.0668
 4803SOL     OW26044   0.751   4.642  16.728  0.0327  0.0914  0.4934
 4803SOL    HW126045   0.692   4.704  16.686  0.8838  0.5276 -0.0650
 4803SOL    HW226046   0.686   4.594  16.780 -0.5831  2.5460  1.9682
 4804SOL     OW26047   1.119   0.547   8.397 -0.1043  0.0395  0.2917
 4804SOL    HW126048   1.111   0.451   8.401  0.5496 -0.0063  0.5955
 4804SOL    HW226049   1.106   0.554   8.302  0.3888 -1.2007  0.1281
 4805SOL     OW26050   0.786   0.130   7.041 -0.4384 -0.8125  0.1051
 4805SOL    HW126051   0.739   0.145   6.959 -1.0138  2.7007  1.0718
 4805SOL    HW226052   0.819   0.219   7.056 -2.7562 -0.0404  0.7408
 4806SOL     OW26053   3.493   0.366  17.103 -0.2603  0.3379  0.4429
 4806SOL    HW126054   3.463   0.364  17.012  2.2496  0.0215 -0.3886
 4806SOL    HW226055   3.588   0.373  17.096 -0.2460 -0.5551 -0.2812
 4807SOL     OW26056   0.027   0.562   4.539  0.2209  0.1878  0.0127
 4807SOL    HW126057   4.720   0.518   4.467 -1.2696  0.7798  0.5825
 4807SOL    HW226058   0.059   0.648   4.510 -0.4576  0.5489  0.3573
 4808SOL     OW26059   1.325   2.791  10.624  0.5999 -0.5502 -0.4004
 4808SOL    HW126060   1.326   2.697  10.641  2.2103 -0.7757 -1.8059
 4808SOL    HW226061   1.365   2.836  10.699 -0.7110 -1.3500  0.7843
 4809SOL     OW26062   2.474   2.501   5.417 -0.4222 -0.3503  0.7639
 4809SOL    HW126063   2.444   2.590   5.435  1.2320  0.4718 -0.5896
 4809SOL    HW226064   2.568   2.509   5.429 -0.5617  1.4059  0.6365
 4810SOL     OW26065   2.238   4.062   5.310 -0.9603  0.1291 -0.0972
 4810SOL    HW126066   2.328   4.027   5.314 -1.3131 -0.8740 -0.7263
 4810SOL    HW226067   2.249   4.141   5.362 -1.6047  1.4780 -2.0257
 4811SOL     OW26068   3.907   4.529   1.560  0.6269  0.4247 -0.0816
 4811SOL    HW126069   3.975   4.465   1.537 -2.6845 -2.6239 -1.3491
 4811SOL    HW226070   3.959   4.606   1.535  0.2251  0.5879 -0.4004
 4812SOL     OW26071   1.809   3.170   5.614  0.2289 -0.4818  0.0270
 4812SOL    HW126072   1.846   3.215   5.690  0.2687 -2.3764  1.1283
 4812SOL    HW226073   1.729   3.221   5.602  0.3277 -0.3394 -0.0209
 4813SOL     OW26074   0.889   2.414   2.031  0.1871  0.3842  0.0486
 4813SOL    HW126075   0.972   2.376   2.060 -0.0496 -1.5541 -1.8379
 4813SOL    HW226076   0.831   2.347   2.069 -0.7865  0.1614 -1.8530
 4814SOL     OW26077   1.335   2.886   6.543  0.6897  0.3213  0.2057
 4814SOL    HW126078   1.366   2.922   6.460 -0.6995  1.2607  0.0848
 4814SOL    HW226079   1.418   2.878   6.589  0.0130  0.4505  1.4405
 4815SOL     OW26080   2.454   2.015   6.198  0.4396  0.8296 -0.1036
 4815SOL    HW126081   2.423   2.106   6.199 -3.2017 -0.4008  1.1151
 4815SOL    HW226082   2.372   1.973   6.224  0.7037 -0.5760 -1.5504
 4816SOL     OW26083   2.052   1.034   3.488  0.0081 -0.4623  0.1264
 4816SOL    HW126084   2.112   1.108   3.497  0.6976 -1.3008  2.5435
 4816SOL    HW226085   1.971   1.082   3.470  0.5059  0.5821  0.6660
 4817SOL     OW26086   0.014   2.913  17.457  0.1029  0.5564 -0.0303
 4817SOL    HW126087   0.040   2.829  17.417  0.2476  0.7442 -0.3296
 4817SOL    HW226088   4.706   2.894  17.539 -1.1709  2.2606 -0.3434
 4818SOL     OW26089   1.693   0.762   5.773  0.1646  0.2981 -0.6917
 4818SOL    HW126090   1.617   0.806   5.811  1.0725  1.4520 -0.2414
 4818SOL    HW226091   1.684   0.670   5.798  0.2628  0.4339 -0.1435
 4819SOL     OW26092   0.400   0.355   0.876 -0.1857  0.3486 -0.4220
 4819SOL    HW126093   0.472   0.335   0.936  1.9601  1.8887 -2.5074
 4819SOL    HW226094   0.384   0.271   0.835 -0.7707  0.2685 -0.0356
 4820SOL     OW26095   2.767   1.950   3.625 -0.1620  0.3328 -0.7049
 4820SOL    HW126096   2.753   2.001   3.545 -0.6426  1.2010 -0.0738
 4820SOL    HW226097   2.697   1.985   3.680  0.3973  1.6650 -0.8454
 4821SOL     OW26098   0.493   4.252  15.662  0.0556 -0.2994 -0.0302
 4821SOL    HW126099   0.519   4.232  15.572  1.8440  1.0148  0.1842
 4821SOL    HW226100   0.528   4.171  15.699  0.5924  1.2153  2.7835
 4822SOL     OW26101   0.502   2.521   6.230 -0.7212 -0.0559 -0.2360
 4822SOL    HW126102   0.534   2.611   6.238 -0.6468 -0.0115 -1.0640
 4822SOL    HW226103   0.508   2.489   6.320  0.6520 -2.8001 -1.2989
 4823SOL     OW26104   1.408   3.867   0.703 -0.1975 -0.1281  0.2710
 4823SOL    HW126105   1.399   3.845   0.795  0.6776 -4.4162 -0.6682
 4823SOL    HW226106   1.478   3.933   0.699  0.7452 -1.0766  1.0658
 4824SOL     OW26107   2.073   2.022   5.334 -0.7659  0.3806  0.1162
 4824SOL    HW126108   2.020   2.099   5.313 -0.3855  0.0642 -2.0704
 4824SOL    HW226109   2.092   2.052   5.422  0.9334  2.0276 -0.8144
 4825SOL     OW26110   0.682   3.061   3.068 -0.1980  0.3561 -0.4038
 4825SOL    HW126111   0.711   3.033   3.155 -0.2785  1.8108  0.0862
 4825SOL    HW226112   0.626   2.986   3.046  0.5640 -0.2770 -0.1811
 4826SOL     OW26113   2.543   1.429  11.018  0.3960  0.3563  0.0125
 4826SOL    HW126114   2.569   1.438  10.927 -1.6187  0.7298 -0.5292
 4826SOL    HW226115   2.530   1.336  11.040 -1.3262  0.2738 -1.3685
 4827SOL     OW26116   1.127   1.797   1.512  0.1094  0.0642 -0.8102
 4827SOL    HW126117   1.047   1.746   1.526  0.4690 -1.2103 -3.4667
 4827SOL    HW226118   1.147   1.782   1.420  1.5462  0.5205 -0.5850
 4828SOL     OW26119   1.714   1.828  16.262 -0.8121  0.2303 -0.4713
 4828SOL    HW126120   1.682   1.882  16.334  0.1750  0.5258 -0.2604
 4828SOL    HW226121   1.673   1.881  16.193 -1.6000  0.0829 -0.1093
 4829SOL     OW26122   1.779   1.590   2.502  0.3216  0.2214 -0.1007
 4829SOL    HW126123   1.805   1.562   2.590 -1.3110 -0.2003  0.2439
 4829SOL    HW226124   1.752   1.508   2.460  1.2627  1.5764 -3.3548
 4830SOL     OW26125   1.301   0.053   5.660  0.5424  0.1177  0.3046
 4830SOL    HW126126   1.339   0.122   5.605  1.3666  0.6889  1.5956
 4830SOL    HW226127   1.280   0.110   5.734  2.2893  0.4406  0.5640
 4831SOL     OW26128   2.978   3.244   6.148 -0.1914  1.3122 -0.4573
 4831SOL    HW126129   2.986   3.280   6.060 -0.8162 -1.5381 -1.7112
 4831SOL    HW226130   3.068   3.232   6.176 -0.4426 -0.9264 -0.6014
 4832SOL     OW26131   0.609   3.054   9.945 -0.0103  0.2255  0.1815
 4832SOL    HW126132   0.523   3.036   9.983 -0.4941 -0.2458 -1.1142
 4832SOL    HW226133   0.605   3.003   9.864  0.1561  0.5917 -0.0529
 4833SOL     OW26134   3.173   0.293   6.196  0.5505 -0.1628  0.0861
 4833SOL    HW126135   3.091   0.248   6.217  0.1221 -0.8944 -3.2704
 4833SOL    HW226136   3.242   0.232   6.222  0.2543 -0.2606  0.6543
 4834SOL     OW26137   3.025   1.670  10.268 -0.1565 -0.1171 -0.2077
 4834SOL    HW126138   3.104   1.667  10.322 -1.1711 -0.8461  1.2152
 4834SOL    HW226139   2.962   1.708  10.328 -1.3509  0.4294 -1.7969
 4835SOL     OW26140   4.201   2.933  17.564  0.5703 -0.0419  0.4797
 4835SOL    HW126141   4.249   2.956  17.485  0.0743  0.3614  0.2926
 4835SOL    HW226142   4.109   2.924  17.538  0.2494  2.9079  0.7089
 4836SOL     OW26143   4.675   0.305  14.856 -0.3405 -0.0056  0.0487
 4836SOL    HW126144   4.723   0.223  14.843 -0.0694 -0.3127  2.9727
 4836SOL    HW226145   4.676   0.313  14.951 -0.6949  2.4375 -0.1598
 4837SOL     OW26146   2.311   3.320  15.439  0.3292  0.1159  0.0671
 4837SOL    HW126147   2.403   3.317  15.415  0.6042 -2.1779  1.4441
 4837SOL    HW226148   2.267   3.304  15.355 -0.4309 -1.5592  0.7731
 4838SOL     OW26149   3.246   3.146   8.816 -0.8073  0.4488 -0.7123
 4838SOL    HW126150   3.288   3.062   8.835  0.9601  1.8989  1.6567
 4838SOL    HW226151   3.296   3.210   8.865  1.6489 -1.6340 -0.5304
 4839SOL     OW26152   1.572   0.656   7.345 -0.5432 -0.1338  0.6009
 4839SOL    HW126153   1.651   0.604   7.329  0.8821  2.1450  0.2997
 4839SOL    HW226154   1.610   0.726   7.398 -0.8358 -0.2374  0.9471
 4840SOL     OW26155   0.608   3.451   3.711 -0.4573 -0.3873 -0.1809
 4840SOL    HW126156   0.563   3.532   3.734 -1.6122 -0.3522 -2.4885
 4840SOL    HW226157   0.602   3.437   3.616 -0.6906 -1.0385 -0.0725
 4841SOL     OW26158   1.012   3.541   8.759 -0.1175 -0.7497 -0.8488
 4841SOL    HW126159   0.918   3.551   8.769  0.1712  0.3066  0.9408
 4841SOL    HW226160   1.016   3.510   8.669  0.8147 -1.0659 -0.6995
 4842SOL     OW26161   1.096   0.202   2.840  0.2337  0.2751 -0.1961
 4842SOL    HW126162   1.155   0.277   2.831  1.0472 -0.3747 -0.2723
 4842SOL    HW226163   1.041   0.208   2.918  2.5038 -0.4457  1.4497
 4843SOL     OW26164   0.798   2.394  15.311 -0.7286  0.1218 -1.1226
 4843SOL    HW126165   0.806   2.298  15.311 -1.5851  0.0474  0.0551
 4843SOL    HW226166   0.787   2.416  15.219 -1.9403 -0.3803 -1.1074
 4844SOL     OW26167   2.241   2.531  10.872  0.4028  0.4124  0.1634
 4844SOL    HW126168   2.244   2.626  10.858  0.2518  0.4375  0.3069
 4844SOL    HW226169   2.176   2.514  10.804  0.3778 -0.9764  0.5365
 4845SOL     OW26170   1.233   0.429   8.701 -0.7661  0.0748  0.6024
 4845SOL    HW126171   1.224   0.345   8.657 -2.9314 -0.0249  1.2195
 4845SOL    HW226172   1.325   0.424   8.725 -0.1708  0.3653 -1.6877
 4846SOL     OW26173   1.070   4.187  15.073 -0.4537 -0.0479  0.1264
 4846SOL    HW126174   1.084   4.108  15.021 -1.1032 -0.4873  0.6127
 4846SOL    HW226175   0.974   4.195  15.076 -0.5141 -1.1719  1.1979
 4847SOL     OW26176   2.331   4.353   3.154  0.3989 -0.0275  0.4700
 4847SOL    HW126177   2.354   4.357   3.062 -1.4972  0.3707  0.0211
 4847SOL    HW226178   2.345   4.448   3.161  1.9936 -0.3915  2.3176
 4848SOL     OW26179   1.699   1.602   1.188  0.7908  0.2588  0.9547
 4848SOL    HW126180   1.608   1.577   1.174  0.8830 -0.0382  0.8811
 4848SOL    HW226181   1.743   1.554   1.118 -1.6278 -0.7339  0.1168
 4849SOL     OW26182   1.547   0.781   0.026 -0.5539 -0.9228 -0.1646
 4849SOL    HW126183   1.568   0.836  17.698  0.6674 -2.0890 -0.6485
 4849SOL    HW226184   1.610   0.813   0.090  0.2729 -1.8156 -0.5489
 4850SOL     OW26185   0.274   2.935   9.875 -0.2574  0.8003 -0.6620
 4850SOL    HW126186   0.251   2.853   9.919  2.5059  0.4274  0.1341
 4850SOL    HW226187   0.299   2.990   9.949 -1.9664  1.2393 -0.4139
 4851SOL     OW26188   4.444   4.672  12.523 -0.5848 -0.1050  0.2473
 4851SOL    HW126189   4.432   4.578  12.514  1.8124 -0.4341  0.4923
 4851SOL    HW226190   4.361   4.719  12.533 -0.6912  0.0650 -1.3462
 4852SOL     OW26191   1.212   4.040   8.325  0.3200  0.1503 -0.1001
 4852SOL    HW126192   1.296   4.086   8.328 -0.8993  2.3840  0.2123
 4852SOL    HW226193   1.170   4.072   8.405 -0.2307  0.3026 -0.4555
 4853SOL     OW26194   0.225   0.246   5.717 -0.1071  0.3347  0.2112
 4853SOL    HW126195   0.233   0.164   5.766 -0.5118  1.2803  1.8257
 4853SOL    HW226196   0.163   0.299   5.766 -1.6492 -1.8880  0.6770
 4854SOL     OW26197   1.139   1.740   7.292  0.7390 -0.0762 -0.7135
 4854SOL    HW126198   1.121   1.828   7.324 -0.4327 -0.5316 -0.1044
 4854SOL    HW226199   1.202   1.766   7.225 -0.7350  1.4557 -1.4870
 4855SOL     OW26200   1.980   4.669  16.741 -0.2888  0.1802 -0.5560
 4855SOL    HW126201   2.035   4.723  16.683  0.2126  3.3527  2.8566
 4855SOL    HW226202   2.002   4.703  16.828 -1.7949 -0.7909  0.1977
 4856SOL     OW26203   2.491   3.420   5.518 -0.2740  0.2458  0.7942
 4856SOL    HW126204   2.576   3.456   5.493 -0.6284 -0.8421 -1.9381
 4856SOL    HW226205   2.436   3.497   5.502 -1.2565 -1.0332 -1.8183
 4857SOL     OW26206   2.095   3.114   5.824 -0.0799 -0.3220  0.4186
 4857SOL    HW126207   2.067   3.101   5.733 -1.5338  1.2922  0.6612
 4857SOL    HW226208   2.190   3.122   5.812  0.1735  0.5686  3.0904
 4858SOL     OW26209   1.197   2.389   7.733  0.2492  0.1573 -0.1940
 4858SOL    HW126210   1.130   2.370   7.799  2.3414 -2.3758  1.1963
 4858SOL    HW226211   1.153   2.357   7.654 -0.4392 -1.2562  0.7525
 4859SOL     OW26212   4.406   4.197   4.951 -0.1840  0.1925 -0.1856
 4859SOL    HW126213   4.437   4.179   4.863 -1.1403 -1.8477 -0.1133
 4859SOL    HW226214   4.487   4.232   4.988 -0.3968 -0.3937  0.8508
 4860SOL     OW26215   1.496   2.002   8.023 -0.1031 -0.5046  0.0607
 4860SOL    HW126216   1.475   2.079   7.971  2.9044  0.6063  0.4884
 4860SOL    HW226217   1.465   1.931   7.967 -0.5221  1.0641 -1.7097
 4861SOL     OW26218   2.187   0.896   7.200 -0.2984 -0.6756  0.2738
 4861SOL    HW126219   2.205   0.929   7.112 -1.1320  2.9354  1.4491
 4861SOL    HW226220   2.124   0.957   7.239 -0.1487 -0.1832 -0.2560
 4862SOL     OW26221   3.282   0.696  16.814  0.0290 -0.1603  0.2098
 4862SOL    HW126222   3.277   0.629  16.746  0.8370  0.5254 -0.5111
 4862SOL    HW226223   3.367   0.672  16.851  0.0936  0.3884  0.4173
 4863SOL     OW26224   2.695   4.012  10.665 -0.6250 -0.1084 -0.5466
 4863SOL    HW126225   2.677   4.080  10.600  1.6255  1.9715  1.0262
 4863SOL    HW226226   2.687   4.063  10.746 -0.8513 -0.5212 -0.3139
 4864SOL     OW26227   4.545   4.318  16.349 -0.2942  0.0909 -0.5128
 4864SOL    HW126228   4.631   4.314  16.391 -0.5372 -2.1666 -0.2263
 4864SOL    HW226229   4.500   4.380  16.406  0.2545  1.0967 -1.1850
 4865SOL     OW26230   3.161   2.996   7.012 -0.3576 -0.2003  0.4903
 4865SOL    HW126231   3.171   3.088   7.036  0.9359 -0.5894  1.4673
 4865SOL    HW226232   3.121   2.948   7.084  0.4563 -2.0917 -0.3032
 4866SOL     OW26233   1.647   4.216  16.847 -0.4113  0.3140 -0.1191
 4866SOL    HW126234   1.729   4.166  16.845 -0.0453  0.8981  0.1272
 4866SOL    HW226235   1.585   4.157  16.804  0.1686  1.4595 -2.5187
 4867SOL     OW26236   1.069   0.593   6.838  0.0375  0.6749 -0.2923
 4867SOL    HW126237   1.125   0.636   6.903 -0.2215  0.5990 -0.0196
 4867SOL    HW226238   1.022   0.666   6.799  0.7799  0.7589 -1.0382
 4868SOL     OW26239   2.348   1.079   6.270  0.0149  0.2384  0.0572
 4868SOL    HW126240   2.362   1.018   6.197 -0.2439  0.4758 -0.1910
 4868SOL    HW226241   2.255   1.061   6.278  0.3666 -0.8212  1.8126
 4869SOL     OW26242   3.197   3.647   3.295  0.0412  0.3273 -0.8382
 4869SOL    HW126243   3.119   3.598   3.269  0.4589 -0.7710 -0.0255
 4869SOL    HW226244   3.248   3.574   3.332 -0.0642 -0.1299 -1.5894
 4870SOL     OW26245   4.631   0.596  10.162  0.1589 -0.2366  0.7565
 4870SOL    HW126246   4.628   0.550  10.246  1.5912 -0.1620  0.8476
 4870SOL    HW226247   4.553   0.651  10.158 -1.2150 -2.0967  2.2854
 4871SOL     OW26248   0.771   2.813   7.447 -0.1766  0.6796  0.3456
 4871SOL    HW126249   0.792   2.723   7.473 -1.2665  0.6310  1.0483
 4871SOL    HW226250   0.751   2.801   7.354  0.9686 -2.2919  0.4499
 4872SOL     OW26251   4.515   1.669  14.397  0.8787  0.1787 -0.0601
 4872SOL    HW126252   4.515   1.638  14.306 -0.1099  1.6735 -0.5676
 4872SOL    HW226253   4.552   1.595  14.445  1.0208 -1.2289 -2.3111
 4873SOL     OW26254   1.259   0.392   3.647 -0.2634  0.2345 -0.2106
 4873SOL    HW126255   1.345   0.369   3.613 -0.3033  1.1512 -0.9222
 4873SOL    HW226256   1.192   0.331   3.615  0.2158 -0.3138 -0.1791
 4874SOL     OW26257   0.301   1.208   6.205 -0.3969 -0.2590 -0.2762
 4874SOL    HW126258   0.300   1.160   6.288  0.9588  0.5330  0.2133
 4874SOL    HW226259   0.393   1.234   6.200 -0.3534 -0.4461 -0.4241
 4875SOL     OW26260   4.010   4.278   3.038 -0.0608 -0.2884  0.1677
 4875SOL    HW126261   4.102   4.251   3.039  0.5082  1.5886 -0.5309
 4875SOL    HW226262   3.974   4.229   2.964  4.3147 -0.2973 -1.9391
 4876SOL     OW26263   1.358   1.639   4.188  0.2130  0.2256 -0.2646
 4876SOL    HW126264   1.378   1.686   4.107  0.0789 -0.5009 -0.7133
 4876SOL    HW226265   1.439   1.590   4.197 -0.5671 -0.9378  0.4710
 4877SOL     OW26266   0.912   0.587  17.170  0.5483 -0.4422 -0.3349
 4877SOL    HW126267   0.986   0.530  17.149  1.9705  0.6203  1.7586
 4877SOL    HW226268   0.850   0.517  17.191  1.8309 -1.3883  0.2926
 4878SOL     OW26269   1.367   2.344   8.533 -0.2383 -0.2601  0.2648
 4878SOL    HW126270   1.350   2.432   8.499 -1.3815 -0.9203 -0.8409
 4878SOL    HW226271   1.285   2.305   8.504  0.2329 -1.8370  1.0429
 4879SOL     OW26272   4.096   4.479   0.038 -0.3816  0.2375  0.0813
 4879SOL    HW126273   4.005   4.507   0.048 -0.9318 -1.8550  0.8624
 4879SOL    HW226274   4.135   4.565   0.025 -1.0062  0.6842  1.2317
 4880SOL     OW26275   0.844   3.275   7.346 -0.6388  0.3026 -0.6044
 4880SOL    HW126276   0.871   3.267   7.255 -0.5725  0.3557 -0.5899
 4880SOL    HW226277   0.815   3.366   7.342 -0.1869  0.5424  1.4498
 4881SOL     OW26278   1.979   1.427   7.842 -0.6622 -0.1287 -0.2226
 4881SOL    HW126279   2.071   1.415   7.820 -1.4027 -3.6765 -1.3477
 4881SOL    HW226280   1.992   1.510   7.888  2.8903 -0.7642 -0.0425
 4882SOL     OW26281   4.314   3.933   3.177  0.7965  0.3457 -0.5680
 4882SOL    HW126282   4.316   3.937   3.081 -0.6746 -0.6538 -0.6422
 4882SOL    HW226283   4.403   3.930   3.211  0.8256  0.3772 -0.6400
 4883SOL     OW26284   2.850   1.848  17.251 -0.1664  0.3063  0.4610
 4883SOL    HW126285   2.823   1.893  17.171 -2.5813  0.0403  1.1230
 4883SOL    HW226286   2.917   1.783  17.228 -1.7290 -1.1887  0.0589
 4884SOL     OW26287   2.663   3.474  13.611  0.3606 -0.0461  0.1919
 4884SOL    HW126288   2.706   3.523  13.541  0.9326 -1.3226 -0.3586
 4884SOL    HW226289   2.585   3.440  13.567 -0.0997 -0.1746  1.1028
 4885SOL     OW26290   4.054   2.033  17.332  0.2884  0.4225  0.2675
 4885SOL    HW126291   4.089   1.982  17.405  2.4340  0.4310 -0.7775
 4885SOL    HW226292   3.959   2.029  17.342  0.0717  0.3497 -1.7513
 4886SOL     OW26293   0.811   2.591   7.156  0.1970 -0.0881 -0.2904
 4886SOL    HW126294   0.738   2.590   7.218 -1.2556 -0.9488 -2.0092
 4886SOL    HW226295   0.825   2.685   7.151 -2.2168  0.2500 -0.4622
 4887SOL     OW26296   4.132   4.341   2.393  0.6007 -0.1175  0.2863
 4887SOL    HW126297   4.060   4.289   2.428  0.3404  0.6682  0.9235
 4887SOL    HW226298   4.187   4.346   2.471  0.8675 -1.3040  0.1734
 4888SOL     OW26299   1.084   0.124   6.177  0.0519 -0.1789 -0.4826
 4888SOL    HW126300   1.108   0.052   6.236 -0.6664  1.5939  1.9411
 4888SOL    HW226301   0.993   0.140   6.199 -0.1181  0.9215 -2.0282
 4889SOL     OW26302   2.705   3.491   8.211 -0.4111  1.1052 -0.5364
 4889SOL    HW126303   2.702   3.569   8.155  0.3855  2.4633  1.2766
 4889SOL    HW226304   2.794   3.462   8.191 -1.2755 -1.0981 -1.0788
 4890SOL     OW26305   3.118   2.181  13.316 -0.4854  0.3959  0.3518
 4890SOL    HW126306   3.023   2.194  13.311 -0.4818 -0.1305 -1.3730
 4890SOL    HW226307   3.141   2.149  13.229 -1.6330  1.4013 -0.3286
 4891SOL     OW26308   0.714   2.744   6.831  0.3135  0.5659  0.1288
 4891SOL    HW126309   0.729   2.782   6.744 -1.1454  1.1586  0.1378
 4891SOL    HW226310   0.782   2.789   6.879 -1.1688  0.8279  1.9816
 4892SOL     OW26311   1.782   0.466   3.392 -0.2577  0.2186  0.0353
 4892SOL    HW126312   1.719   0.397   3.371 -0.0560  0.4852 -1.4801
 4892SOL    HW226313   1.755   0.529   3.325  1.4413  0.3438 -0.5337
 4893SOL     OW26314   1.383   3.576   4.154  0.1557  0.1439  0.7870
 4893SOL    HW126315   1.433   3.549   4.232 -2.0185  0.5233  2.3219
 4893SOL    HW226316   1.317   3.507   4.163  1.3158 -0.8610  1.6138
 4894SOL     OW26317   1.481   1.143  15.697 -0.4257  0.4491  0.0462
 4894SOL    HW126318   1.499   1.071  15.758 -3.4536  0.1109  0.5621
 4894SOL    HW226319   1.478   1.215  15.761  3.6874  1.0770 -0.4722
 4895SOL     OW26320   1.033   0.877   5.332  0.4379 -0.3383  0.5055
 4895SOL    HW126321   0.980   0.934   5.388 -0.1440 -0.0396 -0.3522
 4895SOL    HW226322   1.077   0.947   5.282 -0.7365  0.4888  0.6427
 4896SOL     OW26323   3.537   4.004   4.030 -0.2640  0.3114  0.2349
 4896SOL    HW126324   3.603   4.073   4.022 -1.4564  1.0729 -2.8790
 4896SOL    HW226325   3.567   3.953   4.105 -2.8266  2.3773  2.6862
 4897SOL     OW26326   2.400   1.975   7.624 -0.2185  0.0672  0.4859
 4897SOL    HW126327   2.306   1.978   7.605 -0.4286  1.2890  1.7066
 4897SOL    HW226328   2.422   2.067   7.640  0.6708  0.2827 -1.9563
 4898SOL     OW26329   3.385   0.284   1.484 -0.2493  0.4263 -0.1560
 4898SOL    HW126330   3.477   0.263   1.499 -0.0215  1.4724 -0.1476
 4898SOL    HW226331   3.376   0.373   1.516 -1.0491  0.2274  0.1790
 4899SOL     OW26332   2.413   1.096  16.197 -0.5794  0.0294  0.2843
 4899SOL    HW126333   2.497   1.057  16.218 -1.5009 -1.9573  0.2659
 4899SOL    HW226334   2.397   1.049  16.116 -1.4277 -0.0803  0.5130
 4900SOL     OW26335   3.300   1.441   9.044 -0.1671 -0.5659 -0.1395
 4900SOL    HW126336   3.335   1.488   9.120 -1.4182 -1.4615  0.9765
 4900SOL    HW226337   3.315   1.511   8.981  0.2147  0.3099  0.9270
 4901SOL     OW26338   3.131   1.284   4.639 -0.8748 -0.1610  0.2445
 4901SOL    HW126339   3.181   1.204   4.654  2.6091  2.1437  0.7523
 4901SOL    HW226340   3.126   1.319   4.729 -0.4781  1.1567 -0.2499
 4902SOL     OW26341   1.790   4.463   7.603 -0.6095  0.7118 -0.6518
 4902SOL    HW126342   1.802   4.527   7.533 -1.4517  1.7449  0.1474
 4902SOL    HW226343   1.835   4.512   7.672  0.3808 -0.8591 -0.1756
 4903SOL     OW26344   4.568   2.093  15.778  0.4487  0.0096 -0.0829
 4903SOL    HW126345   4.604   2.089  15.689  0.8916  0.1993  0.0856
 4903SOL    HW226346   4.633   2.061  15.840 -1.4470 -0.8221  1.4558
 4904SOL     OW26347   0.124   2.135   2.634  0.3344  0.1890 -0.3563
 4904SOL    HW126348   0.040   2.089   2.631  0.2540  0.5318 -3.2675
 4904SOL    HW226349   0.170   2.090   2.564 -1.9199 -0.1639 -1.6002
 4905SOL     OW26350   3.477   0.319  17.505  0.2109  0.4695  0.2963
 4905SOL    HW126351   3.486   0.243  17.448  1.5695  2.0946 -1.6779
 4905SOL    HW226352   3.451   0.273  17.585  2.1026  3.3932  2.5959
 4906SOL     OW26353   2.081   1.300   0.395  0.2604 -0.5686 -0.3479
 4906SOL    HW126354   2.104   1.229   0.455  1.2520  0.6728  0.7516
 4906SOL    HW226355   2.067   1.251   0.315  1.1162  0.7455 -1.3035
 4907SOL     OW26356   2.420   4.572   2.507  0.6485 -0.5875 -0.2774
 4907SOL    HW126357   2.396   4.520   2.430 -1.7757 -0.0597  0.0898
 4907SOL    HW226358   2.481   4.514   2.551 -1.8621 -1.8665  1.5207
 4908SOL     OW26359   3.784   2.495   7.626  0.0928 -0.3518  0.2778
 4908SOL    HW126360   3.760   2.410   7.589  1.3659 -0.6349  0.0786
 4908SOL    HW226361   3.868   2.503   7.581  0.4007  2.4919  1.3843
 4909SOL     OW26362   4.245   4.060   2.608 -0.4561  0.2050 -0.1337
 4909SOL    HW126363   4.309   3.992   2.631 -1.4957  0.2501  2.9224
 4909SOL    HW226364   4.193   4.006   2.548 -1.0377  1.8334 -1.0729
 4910SOL     OW26365   0.138   2.760   5.322  0.4034 -0.6126  0.2743
 4910SOL    HW126366   0.076   2.765   5.394 -0.3103 -0.3368 -0.3598
 4910SOL    HW226367   0.111   2.672   5.297 -0.4438  0.2955 -2.0215
 4911SOL     OW26368   3.762   4.656   8.760  0.3511  0.3288 -0.2784
 4911SOL    HW126369   3.749   4.592   8.829 -1.4407 -1.0899 -1.9428
 4911SOL    HW226370   3.796   4.732   8.807 -0.3563  0.0044  0.7497
 4912SOL     OW26371   0.135   1.268  10.923  0.0904  0.0332 -0.2181
 4912SOL    HW126372   0.160   1.360  10.929 -0.4202  0.1234  0.6778
 4912SOL    HW226373   0.219   1.222  10.924  0.9498  1.5736 -2.1279
 4913SOL     OW26374   2.775   1.753   3.942 -0.3093 -0.0496  0.1502
 4913SOL    HW126375   2.819   1.837   3.950 -0.3949 -0.0451  0.5830
 4913SOL    HW226376   2.832   1.699   3.997  0.9317  0.6585 -0.4516
 4914SOL     OW26377   0.008   1.647   7.088  0.0408 -0.1878  0.4091
 4914SOL    HW126378   0.025   1.643   7.182 -0.0195  2.3117  0.5133
 4914SOL    HW226379   0.053   1.729   7.071 -1.3713  0.7715  1.2873
 4915SOL     OW26380   2.355   4.652  13.551  0.3488 -0.1653  0.7572
 4915SOL    HW126381   2.449   4.671  13.555  0.4612 -0.7061  0.6286
 4915SOL    HW226382   2.338   4.675  13.459 -0.2707  0.1046  0.9421
 4916SOL     OW26383   0.801   0.432   3.694  0.3040 -0.3001 -0.2249
 4916SOL    HW126384   0.873   0.486   3.662  1.2585 -2.0355 -0.9764
 4916SOL    HW226385   0.835   0.403   3.779  0.3490  1.4814  0.3691
 4917SOL     OW26386   1.519   2.789   3.268  0.5094  0.0923 -0.6124
 4917SOL    HW126387   1.540   2.854   3.335 -0.4051  0.3641 -0.5848
 4917SOL    HW226388   1.446   2.740   3.305  2.0894 -2.4153 -0.8403
 4918SOL     OW26389   2.827   0.150  11.588 -0.6716 -0.1755 -0.3599
 4918SOL    HW126390   2.779   0.227  11.620 -0.8812 -0.2315 -0.5418
 4918SOL    HW226391   2.886   0.195  11.528  1.2240 -1.0566  0.8196
 4919SOL     OW26392   0.732   3.005   4.968  0.2472 -0.0992  0.0498
 4919SOL    HW126393   0.760   2.983   5.057  0.4181 -2.2928 -0.5354
 4919SOL    HW226394   0.755   3.097   4.956  0.8619 -0.1554  0.7852
 4920SOL     OW26395   1.279   3.109  14.719 -0.0517 -0.2348  0.2274
 4920SOL    HW126396   1.311   3.193  14.686 -0.4628 -0.3478 -0.4597
 4920SOL    HW226397   1.270   3.063  14.635  0.3133 -1.0311  0.6235
 4921SOL     OW26398   3.501   0.983   5.566 -0.2822  0.7644 -0.7775
 4921SOL    HW126399   3.549   0.900   5.574 -2.6596 -0.5703 -0.1238
 4921SOL    HW226400   3.562   1.042   5.609 -0.1519 -0.6641  1.0254
 4922SOL     OW26401   3.269   1.308  13.857 -0.1419  0.2454 -0.0497
 4922SOL    HW126402   3.223   1.224  13.854 -0.2841  0.3805 -1.5889
 4922SOL    HW226403   3.207   1.363  13.808  2.1843  3.4508  0.6607
 4923SOL     OW26404   4.177   0.394   4.404  0.3531  0.0995 -0.1445
 4923SOL    HW126405   4.240   0.358   4.467  0.1236 -1.1013 -0.6097
 4923SOL    HW226406   4.212   0.482   4.389 -0.7650  0.5727  0.0729
 4924SOL     OW26407   3.523   4.098   2.164  0.2662  0.3135 -0.1291
 4924SOL    HW126408   3.483   4.185   2.164 -0.5142 -0.0444 -0.9890
 4924SOL    HW226409   3.535   4.088   2.070 -2.5319 -1.3735 -0.3111
 4925SOL     OW26410   2.143   0.577   7.078  0.1866 -0.6452 -0.5125
 4925SOL    HW126411   2.129   0.522   7.002  1.3027 -0.4913 -0.8317
 4925SOL    HW226412   2.108   0.655   7.034 -0.2674  0.0551  1.0872
 4926SOL     OW26413   4.709   2.718   0.999  0.2203 -0.1051  0.0623
 4926SOL    HW126414   4.650   2.783   1.036 -2.7905 -1.9550 -1.4485
 4926SOL    HW226415   4.664   2.698   0.917  2.8587 -2.2785 -0.8841
 4927SOL     OW26416   0.741   4.161   4.152 -0.2633  0.3232 -0.8063
 4927SOL    HW126417   0.690   4.213   4.213 -0.8554 -1.1749 -0.0203
 4927SOL    HW226418   0.749   4.218   4.075  0.5671 -0.5988 -1.4118
 4928SOL     OW26419   1.162   1.033   2.255 -0.0005 -0.6193 -0.5203
 4928SOL    HW126420   1.110   0.961   2.291  0.9603 -0.3530  1.3932
 4928SOL    HW226421   1.131   1.111   2.301 -1.2089 -1.3782 -0.0810
 4929SOL     OW26422   3.849   2.443   5.635 -0.4732  0.1289 -0.2763
 4929SOL    HW126423   3.810   2.413   5.553  1.2442  2.1234 -1.8365
 4929SOL    HW226424   3.778   2.501   5.662  0.2654  0.2965  1.2864
 4930SOL     OW26425   0.809   0.757  14.189  0.2202  0.0362 -0.2455
 4930SOL    HW126426   0.857   0.686  14.231 -0.5581 -1.1223 -1.2801
 4930SOL    HW226427   0.841   0.747  14.099  1.8953 -0.6750  0.4439
 4931SOL     OW26428   1.438   3.529   3.818 -0.1135  0.1319 -0.3288
 4931SOL    HW126429   1.491   3.563   3.890  0.7191 -2.5706  0.3692
 4931SOL    HW226430   1.470   3.576   3.742  0.7713 -0.2503 -0.1896
 4932SOL     OW26431   4.015   2.401   8.049 -0.3547 -0.3440  0.1360
 4932SOL    HW126432   3.983   2.345   7.978  3.3364  2.2844 -3.5854
 4932SOL    HW226433   4.026   2.480   7.995 -1.7852 -0.7387 -0.7389
 4933SOL     OW26434   3.776   4.267   9.168 -0.1614  0.2041 -0.2662
 4933SOL    HW126435   3.695   4.221   9.188  0.3812 -0.2699  0.8588
 4933SOL    HW226436   3.807   4.283   9.258 -0.7773  2.0459 -0.3897
 4934SOL     OW26437   2.987   2.138  16.841 -0.1641 -0.0496  0.6886
 4934SOL    HW126438   3.083   2.141  16.847 -0.1211 -1.5584  0.8389
 4934SOL    HW226439   2.952   2.211  16.891 -0.6889  0.1846 -0.0152
 4935SOL     OW26440   3.662   4.573  12.387 -0.0398  0.1084 -0.0460
 4935SOL    HW126441   3.601   4.585  12.314 -0.2931  3.1422  0.6752
 4935SOL    HW226442   3.702   4.659  12.388  3.0798 -1.3507  1.0352
 4936SOL     OW26443   2.668   2.736  12.622 -0.1073 -0.6769 -0.2275
 4936SOL    HW126444   2.589   2.750  12.674 -0.6127  0.3547 -1.2737
 4936SOL    HW226445   2.633   2.718  12.534  0.7839  0.1335 -0.7507
 4937SOL     OW26446   4.330   2.618  11.912  0.0371  0.1837  0.0993
 4937SOL    HW126447   4.350   2.549  11.849  2.1047  1.1155 -0.2678
 4937SOL    HW226448   4.365   2.578  11.992 -0.8748  1.1459  0.9693
 4938SOL     OW26449   3.898   2.900   2.892 -0.0290  0.2020 -0.4167
 4938SOL    HW126450   3.961   2.883   2.822  0.4091 -1.2194  0.3143
 4938SOL    HW226451   3.943   2.957   2.955 -1.3634  1.3665 -0.5153
 4939SOL     OW26452   2.853   3.696  12.777  0.9178  0.7432 -0.2623
 4939SOL    HW126453   2.915   3.650  12.720  0.1735 -0.9164  0.2668
 4939SOL    HW226454   2.871   3.789  12.767  0.2474  0.5913 -2.9964
 4940SOL     OW26455   4.282   0.095   3.913 -0.5820  0.0576 -0.1318
 4940SOL    HW126456   4.220   0.145   3.967  0.6752  0.9385  0.4770
 4940SOL    HW226457   4.311   0.033   3.979 -2.3779 -0.9313 -0.2679
 4941SOL     OW26458   4.715   1.570  15.502  0.5768  0.6749 -0.1769
 4941SOL    HW126459   4.676   1.655  15.479 -2.4456 -0.8858 -0.7465
 4941SOL    HW226460   4.672   1.516  15.436 -0.3548  0.9996  0.1596
 4942SOL     OW26461   1.797   1.912   6.365  0.3744  0.6103 -0.0507
 4942SOL    HW126462   1.863   1.961   6.414  1.9262 -0.4718 -1.0776
 4942SOL    HW226463   1.799   1.833   6.419 -0.2093  1.6894  1.5831
 4943SOL     OW26464   2.321   3.843   9.554 -0.2926 -0.5811 -0.2685
 4943SOL    HW126465   2.321   3.748   9.540  0.5386 -0.4479 -1.1904
 4943SOL    HW226466   2.357   3.876   9.471  0.0477 -1.1666 -0.3553
 4944SOL     OW26467   0.087   1.436   7.530  0.4158 -0.0450 -0.1395
 4944SOL    HW126468   0.134   1.467   7.608 -0.6194  1.6322 -0.1667
 4944SOL    HW226469   0.040   1.363   7.570  2.2837 -2.4744 -2.4006
 4945SOL     OW26470   0.470   3.070   4.380 -0.6193 -0.0314  0.0876
 4945SOL    HW126471   0.442   2.980   4.398 -1.0482 -0.1571 -1.2261
 4945SOL    HW226472   0.521   3.086   4.459 -0.1045 -2.3243  0.2353
 4946SOL     OW26473   4.190   0.849  12.289 -0.6081 -0.1370 -0.2746
 4946SOL    HW126474   4.182   0.757  12.314 -0.8765  0.3922  1.5500
 4946SOL    HW226475   4.286   0.848  12.287 -0.5333  0.0212  4.4808
 4947SOL     OW26476   2.576   2.894  15.050 -0.5244  0.9020  0.7331
 4947SOL    HW126477   2.590   2.827  14.984 -1.2198 -1.2280  2.7344
 4947SOL    HW226478   2.654   2.883  15.105  2.3665  0.0838 -3.5300
 4948SOL     OW26479   2.616   3.613   9.253  0.2242 -0.4987  0.7297
 4948SOL    HW126480   2.665   3.533   9.232 -0.8120 -0.4800 -1.7944
 4948SOL    HW226481   2.670   3.680   9.212  0.8400 -0.5008  1.5310
 4949SOL     OW26482   0.455   3.753   6.385 -0.0550  0.2268  0.2446
 4949SOL    HW126483   0.427   3.837   6.422 -1.6076 -0.3871  0.4773
 4949SOL    HW226484   0.549   3.754   6.403  0.3196  1.1913 -1.7115
 4950SOL     OW26485   1.060   0.396  13.702  0.2971  0.4297  0.7999
 4950SOL    HW126486   0.988   0.337  13.683  0.1386  0.4636  1.3120
 4950SOL    HW226487   1.058   0.389  13.797  1.2241  0.3153  0.8121
 4951SOL     OW26488   4.073   2.215   3.723  0.1101  0.0215 -0.0052
 4951SOL    HW126489   4.005   2.258   3.775  0.1293  0.9447 -0.7537
 4951SOL    HW226490   4.140   2.193   3.788  1.2943  1.3268 -0.7839
 4952SOL     OW26491   3.002   0.190   8.890 -0.6719  0.0415 -0.3412
 4952SOL    HW126492   3.095   0.209   8.903 -0.3674 -0.4653 -1.7628
 4952SOL    HW226493   2.963   0.268   8.929 -0.2464  0.4722 -0.7744
 4953SOL     OW26494   2.011   2.220  10.415  0.1277  0.1001  0.2555
 4953SOL    HW126495   2.101   2.237  10.390 -0.4204  1.8007 -0.5921
 4953SOL    HW226496   1.965   2.303  10.400  1.1610  1.0105  2.1345
 4954SOL     OW26497   0.325   2.977   9.049  0.6179 -0.4334 -0.2017
 4954SOL    HW126498   0.247   2.995   9.102  0.9299  0.2587  0.0183
 4954SOL    HW226499   0.363   2.908   9.103  1.5100 -0.8550 -1.3660
 4955SOL     OW26500   0.536   4.696   1.798 -0.0173 -0.3298 -0.1221
 4955SOL    HW126501   0.599   4.663   1.862  0.7432 -2.1817 -1.8200
 4955SOL    HW226502   0.458   4.644   1.815 -0.6460  0.9911  1.0428
 4956SOL     OW26503   2.018   1.076   1.311  0.1824 -0.0865 -0.1987
 4956SOL    HW126504   2.066   1.074   1.394  2.3252  3.2498 -1.3869
 4956SOL    HW226505   1.928   1.093   1.339  0.4547  0.7548  0.1437
 4957SOL     OW26506   4.060   0.209  14.558 -0.5192  0.1587  0.1714
 4957SOL    HW126507   3.995   0.142  14.582 -3.5872  2.1073 -2.7835
 4957SOL    HW226508   4.032   0.220  14.467  3.4519 -1.0668 -1.1814
 4958SOL     OW26509   1.929   3.436   8.728 -0.0898  0.3895  0.9802
 4958SOL    HW126510   1.839   3.434   8.696  0.2986  1.8337 -0.1897
 4958SOL    HW226511   1.916   3.387   8.809 -1.8227 -1.6822 -0.5428
 4959SOL     OW26512   0.511   1.813  13.646 -0.2993 -0.2145 -0.1674
 4959SOL    HW126513   0.442   1.750  13.626 -1.3148  0.6237  0.6469
 4959SOL    HW226514   0.586   1.754  13.654  1.5234  2.1318  0.3017
 4960SOL     OW26515   1.628   4.533  12.000 -0.2581  0.1179 -0.0052
 4960SOL    HW126516   1.541   4.565  11.974 -0.9265 -2.6950 -1.2609
 4960SOL    HW226517   1.637   4.535  12.095  1.0676  0.4920 -0.1430
 4961SOL     OW26518   2.605   2.338   9.049 -0.2800 -0.0764  0.1916
 4961SOL    HW126519   2.665   2.395   9.097 -0.9276  0.1762  0.6966
 4961SOL    HW226520   2.680   2.294   9.010  1.1971  2.5244  0.1122
 4962SOL     OW26521   2.378   0.148  10.307  0.0684 -0.4142  0.3380
 4962SOL    HW126522   2.432   0.182  10.378 -0.3466  0.6470  0.1427
 4962SOL    HW226523   2.433   0.083  10.264 -0.8079 -0.9761  0.0784
 4963SOL     OW26524   3.977   1.260   1.087  0.0441 -0.4013 -0.3059
 4963SOL    HW126525   3.996   1.333   1.027 -1.9963  1.0181  0.7886
 4963SOL    HW226526   3.884   1.255   1.066  0.2010 -3.8978 -0.0766
 4964SOL     OW26527   0.978   0.961   1.600  0.5132  0.3385 -0.5952
 4964SOL    HW126528   1.071   0.981   1.608  0.6495 -0.3940 -0.3208
 4964SOL    HW226529   0.975   0.866   1.615  1.4063  0.5022  0.6575
 4965SOL     OW26530   2.285   0.199   1.341  0.0160  0.0680  0.0218
 4965SOL    HW126531   2.208   0.206   1.399 -1.0786 -0.7146 -1.3318
 4965SOL    HW226532   2.355   0.227   1.400  0.7175  0.9008 -1.2180
 4966SOL     OW26533   4.606   2.435  16.573 -0.3586  0.0197 -0.4594
 4966SOL    HW126534   4.570   2.410  16.488 -2.0155  0.5579  0.0765
 4966SOL    HW226535   4.638   2.522  16.550  0.8430 -0.8029 -1.8976
 4967SOL     OW26536   1.949   1.511  16.753 -0.2533 -0.7847 -0.2208
 4967SOL    HW126537   2.002   1.446  16.799  0.7397  0.2568  0.1058
 4967SOL    HW226538   1.941   1.465  16.670  0.8946 -1.4889  0.0523
 4968SOL     OW26539   1.045   3.789  17.589 -0.2651  0.3915 -0.1668
 4968SOL    HW126540   1.019   3.874  17.624 -2.0056 -0.5035  0.6991
 4968SOL    HW226541   1.118   3.820  17.534  0.6041 -0.8465  0.2739
 4969SOL     OW26542   1.799   1.223  10.286 -0.0145  0.0624 -0.4608
 4969SOL    HW126543   1.793   1.216  10.191  1.7528 -0.2360 -0.5570
 4969SOL    HW226544   1.894   1.229  10.295 -0.2613  3.0237  0.1642
 4970SOL     OW26545   3.298   1.528  10.253 -0.1423  0.0186  0.1098
 4970SOL    HW126546   3.353   1.606  10.240  1.2455 -0.5846  2.4432
 4970SOL    HW226547   3.329   1.494  10.336 -1.3622 -0.8146  0.2198
 4971SOL     OW26548   4.312   1.947   2.731 -0.0605 -0.5578 -0.0713
 4971SOL    HW126549   4.407   1.948   2.745 -0.2774  0.4014  1.3016
 4971SOL    HW226550   4.292   1.856   2.753 -1.0236 -0.4420 -0.4823
 4972SOL     OW26551   2.707   2.085  12.244  0.3077  0.0151  0.0672
 4972SOL    HW126552   2.774   2.055  12.182  1.3050 -0.2458  1.2762
 4972SOL    HW226553   2.761   2.084  12.322  0.9203  0.5249 -0.3464
 4973SOL     OW26554   3.842   3.975   4.377  0.4220 -0.7675 -0.1786
 4973SOL    HW126555   3.851   4.069   4.390 -0.9805 -0.4349 -1.5211
 4973SOL    HW226556   3.776   3.964   4.308  3.2582 -1.3982 -2.7749
 4974SOL     OW26557   1.284   0.961   1.548 -0.2528  0.0433  0.1318
 4974SOL    HW126558   1.341   0.946   1.472 -2.8262  0.5362 -1.8969
 4974SOL    HW226559   1.335   1.022   1.601 -0.5406  0.3608  0.0379
 4975SOL     OW26560   0.236   2.297   3.028 -0.2474 -0.1495  0.0775
 4975SOL    HW126561   0.285   2.380   3.037  1.8921 -1.4486  0.3897
 4975SOL    HW226562   0.197   2.285   3.114 -2.2237 -0.1000 -0.8036
 4976SOL     OW26563   3.302   1.368   0.305 -0.7610  0.7362 -0.0432
 4976SOL    HW126564   3.222   1.322   0.332 -0.0039 -0.8854 -0.5758
 4976SOL    HW226565   3.373   1.319   0.346  1.6099  3.2890 -1.0971
 4977SOL     OW26566   2.321   3.836  11.281 -0.1798  0.6333  0.0746
 4977SOL    HW126567   2.286   3.847  11.370  2.0264 -0.7896  1.1204
 4977SOL    HW226568   2.413   3.851  11.300 -0.3206  2.4049 -0.6581
 4978SOL     OW26569   2.113   0.791  12.614  0.4402  0.5782  0.0737
 4978SOL    HW126570   2.076   0.792  12.702 -0.9992 -1.9608 -0.5153
 4978SOL    HW226571   2.099   0.883  12.588 -0.5694 -0.0315 -1.5372
 4979SOL     OW26572   2.659   0.478   4.372 -0.6868  0.0899 -0.2685
 4979SOL    HW126573   2.655   0.553   4.430 -0.1321  0.9590 -1.3655
 4979SOL    HW226574   2.749   0.479   4.340 -1.1647  2.0463 -1.5108
 4980SOL     OW26575   4.154   4.238   2.793 -0.0875  0.3416 -0.4240
 4980SOL    HW126576   4.165   4.176   2.721 -1.3485  0.1305 -0.4514
 4980SOL    HW226577   4.231   4.292   2.781  0.1140  0.3192  0.7554
 4981SOL     OW26578   3.031   0.519  12.395 -0.0541 -0.3174  0.0212
 4981SOL    HW126579   2.994   0.511  12.483 -1.5270 -1.4080 -0.7125
 4981SOL    HW226580   3.002   0.440  12.349  0.1592 -1.0253  1.0947
 4982SOL     OW26581   4.574   3.322   4.869 -0.4638 -0.0119 -0.3543
 4982SOL    HW126582   4.629   3.243   4.873  1.9796  1.7499  1.0002
 4982SOL    HW226583   4.584   3.349   4.960  0.3745 -0.1962 -0.3847
 4983SOL     OW26584   2.305   2.664   9.473 -0.0328 -0.2944 -0.0439
 4983SOL    HW126585   2.283   2.687   9.563  3.0966 -0.0155  0.6386
 4983SOL    HW226586   2.396   2.642   9.495 -0.8327 -1.5388  2.0055
 4984SOL     OW26587   3.240   0.927   6.674  0.0687 -0.4697 -0.2685
 4984SOL    HW126588   3.173   0.985   6.639  0.5675 -0.1086 -0.6349
 4984SOL    HW226589   3.210   0.918   6.764 -0.6348 -2.2950 -0.6733
 4985SOL     OW26590   4.608   1.447   2.375  0.3070 -0.7726  0.1019
 4985SOL    HW126591   4.634   1.539   2.379 -2.4764 -0.1237  2.6899
 4985SOL    HW226592   4.678   1.406   2.426 -0.3983  0.8761  2.3779
 4986SOL     OW26593   0.264   1.177   9.544  0.2725  0.2903 -0.5155
 4986SOL    HW126594   0.265   1.219   9.630  0.1062 -1.4298  0.3305
 4986SOL    HW226595   0.341   1.127   9.570 -0.9436 -1.1030  0.4094
 4987SOL     OW26596   2.039   1.722   5.635  0.2120  0.1216 -0.0969
 4987SOL    HW126597   2.084   1.758   5.712  1.0991 -0.4962 -0.3363
 4987SOL    HW226598   2.070   1.631   5.634  0.7987  0.3195  0.1811
 4988SOL     OW26599   0.847   4.314   6.075  0.0181  0.3753  0.0560
 4988SOL    HW126600   0.781   4.383   6.085  0.8764  1.3017 -0.6390
 4988SOL    HW226601   0.929   4.362   6.081  1.1203 -1.3408 -1.3487
 4989SOL     OW26602   3.445   3.022   7.026 -0.1042  0.5871 -0.2773
 4989SOL    HW126603   3.363   2.973   7.022  0.2914 -0.0461 -0.4935
 4989SOL    HW226604   3.463   3.031   6.933  1.4405 -0.5937 -0.0940
 4990SOL     OW26605   1.546   4.552   6.088 -0.0263 -0.3154 -0.1660
 4990SOL    HW126606   1.487   4.605   6.033 -0.7646  0.1487  1.0656
 4990SOL    HW226607   1.599   4.615   6.137  0.2050 -1.3151  0.8531
 4991SOL     OW26608   3.251   2.116   8.835 -0.1727  0.1312 -0.8044
 4991SOL    HW126609   3.203   2.160   8.905  2.6759 -1.3424  2.1379
 4991SOL    HW226610   3.190   2.137   8.765 -1.4655  0.0273  0.2878
 4992SOL     OW26611   2.168   3.522   9.085 -0.4212  0.1105 -0.9422
 4992SOL    HW126612   2.261   3.541   9.098 -0.3614 -0.5654 -0.4250
 4992SOL    HW226613   2.162   3.461   9.158 -1.3518  0.7911 -0.4490
 4993SOL     OW26614   4.223   0.864   2.667 -0.5176 -0.7262  0.4502
 4993SOL    HW126615   4.201   0.949   2.705  2.1743 -0.0505  0.4793
 4993SOL    HW226616   4.145   0.812   2.687 -0.4416 -1.3155 -0.8371
 4994SOL     OW26617   0.752   3.553   7.277  0.1552 -0.1398  0.0630
 4994SOL    HW126618   0.684   3.614   7.304  0.7957  1.0640 -0.9962
 4994SOL    HW226619   0.752   3.567   7.182  0.2122  0.3727  0.1379
 4995SOL     OW26620   4.391   3.665   0.379 -0.1599  0.0636 -0.1226
 4995SOL    HW126621   4.414   3.757   0.364  1.5192 -0.3983 -0.3841
 4995SOL    HW226622   4.386   3.628   0.291  2.7493  0.9252 -0.6657
 4996SOL     OW26623   4.437   1.130  12.298 -0.1476 -0.0584  0.0305
 4996SOL    HW126624   4.471   1.086  12.375  1.6142  1.5600  0.1697
 4996SOL    HW226625   4.492   1.095  12.228 -1.4478 -1.9375 -0.0502
 4997SOL     OW26626   3.446   1.569  15.313 -0.2346  0.1296  0.3168
 4997SOL    HW126627   3.361   1.584  15.356  1.2105  0.4374  3.0435
 4997SOL    HW226628   3.467   1.481  15.342  0.3801  0.4510  0.8387
 4998SOL     OW26629   4.549   4.174   4.345  0.3113 -0.6997  0.0314
 4998SOL    HW126630   4.629   4.225   4.355  0.0221  0.2882 -2.6046
 4998SOL    HW226631   4.504   4.221   4.415 -1.7747 -0.6775 -1.3182
 4999SOL     OW26632   2.758   1.511  13.848 -0.3069  0.0655  0.2990
 4999SOL    HW126633   2.715   1.427  13.865  2.0387 -1.1234  0.3790
 4999SOL    HW226634   2.827   1.511  13.914 -0.4481  1.1309  0.4387
 5000SOL     OW26635   4.519   3.934  14.668  0.1025 -0.5472  0.0236
 5000SOL    HW126636   4.522   4.016  14.719  0.7658  0.0033 -0.8996
 5000SOL    HW226637   4.465   3.882  14.727  1.4243 -0.9453  0.8893
 5001SOL     OW26638   2.869   2.909   5.946  0.6095  0.2596 -0.9358
 5001SOL    HW126639   2.916   2.907   5.863  0.4320 -2.2683 -0.9596
 5001SOL    HW226640   2.782   2.878   5.919 -0.0545  0.5132  0.9003
 5002SOL     OW26641   1.816   2.976   6.739  0.1562  0.6018  0.5113
 5002SOL    HW126642   1.894   2.998   6.788 -0.4219 -1.4045  2.3322
 5002SOL    HW226643   1.835   2.882   6.739  1.2638  0.8344 -0.8092
 5003SOL     OW26644   2.014   4.395  15.076  0.7496  0.2342  0.0006
 5003SOL    HW126645   2.055   4.366  15.157 -1.6393  1.7874  1.7797
 5003SOL    HW226646   2.002   4.311  15.031 -0.1740 -0.1454  0.9454
 5004SOL     OW26647   1.721   4.364   8.093  0.2733  0.0080  0.2179
 5004SOL    HW126648   1.660   4.414   8.146  0.1461  2.2104 -2.0094
 5004SOL    HW226649   1.682   4.377   8.006 -2.3407 -0.9823  1.2412
 5005SOL     OW26650   0.622   1.364   8.682 -0.0211  0.2967  0.2059
 5005SOL    HW126651   0.589   1.445   8.642 -2.0460  0.1569  1.5674
 5005SOL    HW226652   0.606   1.382   8.774  0.7070 -0.5221  0.4907
 5006SOL     OW26653   1.657   1.992   3.591  0.1923 -0.0601 -0.5959
 5006SOL    HW126654   1.588   2.050   3.559 -1.1992 -0.3101  1.9002
 5006SOL    HW226655   1.732   2.051   3.597 -0.2972  0.5716 -0.6261
 5007SOL     OW26656   2.114   4.307   2.455 -0.7654 -0.2670  0.4354
 5007SOL    HW126657   2.076   4.292   2.368 -3.1609  0.4025  1.3636
 5007SOL    HW226658   2.177   4.378   2.446 -1.3872  0.5767  2.6952
 5008SOL     OW26659   3.036   0.187   4.086 -0.0884  0.7374 -0.1250
 5008SOL    HW126660   3.110   0.242   4.110  0.0583  0.5133 -0.0650
 5008SOL    HW226661   3.058   0.162   3.996 -0.3795 -0.6359  0.1812
 5009SOL     OW26662   2.975   3.891   3.548  0.2321 -1.0140  0.1174
 5009SOL    HW126663   2.932   3.974   3.565 -1.2686 -1.7483 -0.0617
 5009SOL    HW226664   2.941   3.868   3.462  2.8826 -0.2630 -1.1185
 5010SOL     OW26665   0.943   4.184   0.737 -0.2451  0.7181  0.6416
 5010SOL    HW126666   0.847   4.187   0.738 -0.2229  1.7939 -2.2479
 5010SOL    HW226667   0.964   4.253   0.675 -3.5490  0.9425 -0.2484
 5011SOL     OW26668   1.002   2.809   8.216  0.2786 -0.2917  0.2777
 5011SOL    HW126669   0.917   2.836   8.180  1.1205 -0.2838 -1.7004
 5011SOL    HW226670   1.011   2.876   8.285  1.4276  0.0695 -0.2310
 5012SOL     OW26671   3.779   3.941   5.512  0.3111  0.4141 -0.1474
 5012SOL    HW126672   3.868   3.974   5.521  0.2905  0.3784  0.1835
 5012SOL    HW226673   3.788   3.860   5.562  0.9037  1.5178  1.5128
 5013SOL     OW26674   1.478   4.520   6.698  0.1220  0.0794 -0.5897
 5013SOL    HW126675   1.433   4.528   6.613  0.8973  1.0199 -0.9129
 5013SOL    HW226676   1.451   4.434   6.732  0.9494 -0.8740 -2.3158
 5014SOL     OW26677   2.434   2.240   2.119 -0.2595  0.0570  0.3437
 5014SOL    HW126678   2.421   2.319   2.172 -1.1911  0.8653 -1.0879
 5014SOL    HW226679   2.349   2.221   2.078 -1.3112  0.8252  2.1286
 5015SOL     OW26680   3.432   3.677   5.543 -0.3057 -0.1839 -0.0466
 5015SOL    HW126681   3.395   3.724   5.469  0.0611  1.3375  0.7420
 5015SOL    HW226682   3.378   3.713   5.613 -0.9588  1.5317 -1.4483
 5016SOL     OW26683   3.470   3.220   9.355  0.0805 -0.3751 -0.2907
 5016SOL    HW126684   3.414   3.228   9.432 -0.7574 -2.9388 -0.6417
 5016SOL    HW226685   3.450   3.300   9.306  1.4779  0.0404 -0.2023
 5017SOL     OW26686   2.271   1.471  14.422  0.3113 -0.3430  0.3104
 5017SOL    HW126687   2.295   1.378  14.420 -0.2959 -0.4479 -1.8331
 5017SOL    HW226688   2.216   1.484  14.345 -0.0601  0.4648  0.7170
 5018SOL     OW26689   4.373   3.752   3.440 -0.0397  0.5081  0.1130
 5018SOL    HW126690   4.427   3.831   3.433 -0.8302  0.9353 -1.3577
 5018SOL    HW226691   4.288   3.795   3.454 -0.5992 -0.0746 -1.4989
 5019SOL     OW26692   1.313   3.243   6.460  0.2711 -0.2518  0.2737
 5019SOL    HW126693   1.388   3.191   6.431  0.3227 -0.0723  0.0915
 5019SOL    HW226694   1.246   3.226   6.394 -0.2335 -0.8423  0.9252
 5020SOL     OW26695   2.969   3.409   9.232  0.0905  0.2732  0.2407
 5020SOL    HW126696   3.022   3.341   9.273  1.3837 -0.7828 -3.1400
 5020SOL    HW226697   2.894   3.416   9.291  0.2596  0.5712  0.4155
 5021SOL     OW26698   1.802   1.590   1.443  0.1452 -0.5660  0.4913
 5021SOL    HW126699   1.854   1.510   1.444  1.3894  0.2067 -1.1425
 5021SOL    HW226700   1.768   1.593   1.353  0.8736  2.0497  0.3030
 5022SOL     OW26701   0.643   0.825  12.539 -0.2965 -0.2620  0.1595
 5022SOL    HW126702   0.670   0.798  12.626 -1.1999 -0.7219  0.3000
 5022SOL    HW226703   0.622   0.916  12.560  2.3636  0.9863 -2.5902
 5023SOL     OW26704   0.555   4.428   7.410 -0.5188  0.2925  0.2053
 5023SOL    HW126705   0.511   4.466   7.334 -0.1247  1.7211  0.7090
 5023SOL    HW226706   0.620   4.377   7.362  0.3251  1.8608 -0.2940
 5024SOL     OW26707   2.349   3.287   2.164  0.2681 -0.5209  0.8712
 5024SOL    HW126708   2.336   3.205   2.118 -0.4721 -0.7772  1.5324
 5024SOL    HW226709   2.319   3.347   2.096 -2.3162 -0.5562  1.9854
 5025SOL     OW26710   1.080   0.206   1.727 -0.4574  0.0070 -0.3319
 5025SOL    HW126711   1.170   0.176   1.735 -0.9409 -1.9649 -2.1353
 5025SOL    HW226712   1.056   0.144   1.658 -0.3064 -1.7505  1.1668
 5026SOL     OW26713   0.880   4.707   2.150 -0.6318  0.1812 -0.3906
 5026SOL    HW126714   0.821   0.035   2.186  0.5376  1.4845 -0.8365
 5026SOL    HW226715   0.906   0.015   2.070  0.9644  0.9903  0.5958
 5027SOL     OW26716   2.477   0.204   9.028  0.2623  0.0613 -0.1262
 5027SOL    HW126717   2.544   0.207   8.959 -0.2112 -3.5750 -0.7572
 5027SOL    HW226718   2.474   0.108   9.030 -1.2685  0.1617  1.6114
 5028SOL     OW26719   1.253   4.351   1.835  0.3745 -0.3992  1.0218
 5028SOL    HW126720   1.336   4.332   1.879  1.4567  1.5609 -0.2098
 5028SOL    HW226721   1.217   4.418   1.893 -2.1938 -0.0748 -0.9661
 5029SOL     OW26722   0.230   2.519   5.819  0.3243  0.2300 -0.6534
 5029SOL    HW126723   0.240   2.531   5.914 -4.4241 -0.2689 -0.0667
 5029SOL    HW226724   0.215   2.611   5.796 -1.9845 -0.3992 -1.6209
 5030SOL     OW26725   2.453   4.100   2.567  0.1523 -0.0444 -0.1092
 5030SOL    HW126726   2.454   4.006   2.551 -1.0125  0.1734 -1.4497
 5030SOL    HW226727   2.499   4.128   2.488 -1.0719  0.0121 -0.7997
 5031SOL     OW26728   3.884   1.293   5.795  0.6864  0.5602  0.4485
 5031SOL    HW126729   3.828   1.221   5.824  0.2082  1.1658  1.0079
 5031SOL    HW226730   3.867   1.351   5.869  2.0371  0.0508  1.1619
 5032SOL     OW26731   4.200   2.569  16.760 -0.7203 -0.8703 -0.3825
 5032SOL    HW126732   4.120   2.517  16.748 -0.4966 -1.4614  0.6698
 5032SOL    HW226733   4.265   2.509  16.796 -0.2801 -0.6607 -0.8348
 5033SOL     OW26734   3.736   0.158  16.807  0.0183 -0.1876 -0.4362
 5033SOL    HW126735   3.811   0.198  16.851  3.1513 -3.5225 -2.8079
 5033SOL    HW226736   3.774   0.073  16.787  0.6458  0.1603 -0.6956
 5034SOL     OW26737   2.015   2.512   5.815  0.3720 -0.2230 -0.2733
 5034SOL    HW126738   2.108   2.488   5.817  0.6459  0.9205  0.2859
 5034SOL    HW226739   2.017   2.594   5.766  0.5773 -1.1643 -1.8428
 5035SOL     OW26740   1.894   3.608   6.701  0.1875  0.0643 -0.4264
 5035SOL    HW126741   1.831   3.554   6.748 -1.3261  0.1786 -2.2890
 5035SOL    HW226742   1.935   3.546   6.641 -0.0077 -2.3492  1.9491
 5036SOL     OW26743   2.582   0.274  17.207 -0.2468 -0.1450 -0.7533
 5036SOL    HW126744   2.575   0.221  17.128 -0.0497  0.0791 -0.9228
 5036SOL    HW226745   2.676   0.286  17.213 -0.1322 -0.1582 -2.6022
 5037SOL     OW26746   3.676   2.833   7.085  0.0821 -0.7757 -0.3863
 5037SOL    HW126747   3.635   2.914   7.056  0.7836 -0.7909 -1.4434
 5037SOL    HW226748   3.696   2.852   7.177  2.1767 -0.0094 -0.9964
 5038SOL     OW26749   0.470   4.677  15.574 -0.3583  0.0038 -0.0862
 5038SOL    HW126750   0.495   4.620  15.647  1.3687  2.7220  1.4471
 5038SOL    HW226751   0.477   0.022  15.622  1.7354 -0.2613  0.0523
 5039SOL     OW26752   0.885   0.691   1.641  0.1275 -0.5097 -0.6229
 5039SOL    HW126753   0.821   0.750   1.681  0.7756 -1.4190  1.7253
 5039SOL    HW226754   0.826   0.620   1.615  0.4594 -0.3933 -1.7114
 5040SOL     OW26755   3.649   1.102   7.578 -0.1968  0.5003  0.1249
 5040SOL    HW126756   3.719   1.153   7.538  0.0243 -0.3585 -0.5796
 5040SOL    HW226757   3.690   1.037   7.635  0.2064 -0.3853 -1.1755
 5041SOL     OW26758   2.108   1.340   7.153  0.2686  0.0253 -0.2442
 5041SOL    HW126759   2.162   1.287   7.211  1.3708  1.3689 -0.0485
 5041SOL    HW226760   2.144   1.310   7.070  1.2900  2.0831 -0.5456
 5042SOL     OW26761   2.052   2.647  13.129  0.1865 -0.3401 -0.2628
 5042SOL    HW126762   2.000   2.567  13.130  0.2043 -0.3513  0.0276
 5042SOL    HW226763   2.098   2.636  13.046  1.1264 -1.4966  0.4138
 5043SOL     OW26764   2.637   2.553  16.424  0.3585  0.2522 -0.1500
 5043SOL    HW126765   2.652   2.646  16.404 -0.4991  0.6876  1.2449
 5043SOL    HW226766   2.725   2.518  16.435 -0.1453 -1.6282 -2.0074
 5044SOL     OW26767   0.029   4.246   9.058  0.6658 -0.0335  0.7248
 5044SOL    HW126768   0.052   4.178   9.121  1.5849 -0.5415 -0.1729
 5044SOL    HW226769   0.113   4.258   9.015  0.3235  0.6265  0.2340
 5045SOL     OW26770   3.191   1.210  14.698 -0.1189  0.2374  0.2481
 5045SOL    HW126771   3.156   1.273  14.762 -0.5575  1.7837 -1.4960
 5045SOL    HW226772   3.117   1.179  14.645  0.3206  0.6731 -0.6304
 5046SOL     OW26773   4.449   0.416   9.751 -0.6596 -0.2183 -0.3223
 5046SOL    HW126774   4.528   0.385   9.795 -0.8052 -1.6501 -1.0806
 5046SOL    HW226775   4.433   0.492   9.808  1.6570  0.4646 -0.5786
 5047SOL     OW26776   1.549   3.091  10.467 -0.1212  0.2617 -0.2680
 5047SOL    HW126777   1.623   3.053  10.421 -1.8280 -2.0315 -1.1252
 5047SOL    HW226778   1.482   3.024  10.453 -1.1864  1.5702 -1.4008
 5048SOL     OW26779   2.402   2.429  13.609  0.2494 -0.2830 -0.4389
 5048SOL    HW126780   2.340   2.361  13.636 -0.6308  0.3657 -0.8268
 5048SOL    HW226781   2.419   2.390  13.524 -1.2993 -0.2906 -0.7441
 5049SOL     OW26782   2.635   4.286   2.857 -0.3068 -0.2108  0.2941
 5049SOL    HW126783   2.660   4.251   2.942 -0.0278 -2.4710 -0.6976
 5049SOL    HW226784   2.557   4.236   2.831 -0.4586 -0.1715  0.6765
 5050SOL     OW26785   4.055   2.174  16.040  0.1803 -0.0860  0.0680
 5050SOL    HW126786   4.149   2.160  16.049  0.3184  0.9485  0.2152
 5050SOL    HW226787   4.036   2.101  15.982 -2.7320  0.2615  0.5493
 5051SOL     OW26788   2.520   3.104   5.947 -0.0579  0.5665 -0.1831
 5051SOL    HW126789   2.600   3.148   5.917  1.1384 -0.5153  1.4486
 5051SOL    HW226790   2.512   3.047   5.870  0.7185  1.1635 -0.6990
 5052SOL     OW26791   0.051   0.445  16.051  0.0057 -0.2492  0.3061
 5052SOL    HW126792   4.705   0.448  16.098 -0.4206 -0.3198 -0.4396
 5052SOL    HW226793   0.112   0.457  16.123 -0.0380 -0.0984  0.3184
 5053SOL     OW26794   0.683   2.391   4.812 -0.1418 -0.0485  0.3754
 5053SOL    HW126795   0.707   2.479   4.782  1.3696  0.1094  2.0563
 5053SOL    HW226796   0.762   2.377   4.864  0.7648  0.2220 -0.9248
 5054SOL     OW26797   3.567   0.995   3.685 -0.3800 -0.7533  0.1543
 5054SOL    HW126798   3.479   1.007   3.722 -0.4402 -1.2114  0.1563
 5054SOL    HW226799   3.554   0.947   3.603  1.0691  1.0262 -1.1114
 5055SOL     OW26800   1.006   0.065  11.784  0.1081  0.2486  0.1054
 5055SOL    HW126801   0.998   4.731  11.720 -0.9723 -0.0077  0.5295
 5055SOL    HW226802   0.949   0.033  11.854  0.9974 -0.0195  0.7065
 5056SOL     OW26803   4.618   2.211   3.406 -0.1459  0.0606 -0.1133
 5056SOL    HW126804   4.529   2.216   3.441  0.4724  1.2357  1.2763
 5056SOL    HW226805   4.665   2.230   3.487 -2.1688 -0.3718  1.1715
 5057SOL     OW26806   2.818   0.632   7.551 -0.0862 -0.2982  0.2889
 5057SOL    HW126807   2.910   0.642   7.573  0.1435 -0.1373 -0.7458
 5057SOL    HW226808   2.796   0.584   7.631 -0.6382 -1.1337 -0.3587
 5058SOL     OW26809   3.869   4.105   7.431 -0.1042  0.5561  0.3609
 5058SOL    HW126810   3.874   4.140   7.342  0.7768 -0.1125  0.1442
 5058SOL    HW226811   3.828   4.180   7.472 -1.0184  0.3272 -0.1170
 5059SOL     OW26812   2.831   0.166   7.368 -0.2515 -0.3954 -0.0144
 5059SOL    HW126813   2.835   0.256   7.334 -0.7097 -0.7205 -0.9347
 5059SOL    HW226814   2.916   0.134   7.339 -0.5647  0.0044 -1.3753
 5060SOL     OW26815   0.229   1.233  16.062 -0.2734  0.0796 -0.2078
 5060SOL    HW126816   0.154   1.196  16.015 -1.1898 -0.5505  1.7374
 5060SOL    HW226817   0.202   1.325  16.071 -1.8589 -0.6694  2.5957
 5061SOL     OW26818   3.616   2.575   3.143 -0.5689  0.6343  0.6082
 5061SOL    HW126819   3.547   2.524   3.099  0.8633 -0.5201 -0.3103
 5061SOL    HW226820   3.695   2.548   3.095 -2.0977 -2.8979  0.0517
 5062SOL     OW26821   1.223   1.492   0.885 -0.1190  0.2056 -0.6221
 5062SOL    HW126822   1.277   1.561   0.847  1.5565  0.0414  1.4602
 5062SOL    HW226823   1.270   1.421   0.841  0.7245  0.6044 -0.3550
 5063SOL     OW26824   0.005   3.032   3.210 -0.6908 -0.2425 -0.7227
 5063SOL    HW126825   0.004   2.966   3.140  0.8334  0.8802 -1.8098
 5063SOL    HW226826   4.695   2.981   3.276 -2.5625  1.6976 -0.5636
 5064SOL     OW26827   1.925   4.472  16.465  0.4151 -0.1031  0.1835
 5064SOL    HW126828   1.834   4.460  16.491  1.0664 -1.5990  1.7280
 5064SOL    HW226829   1.980   4.422  16.525  1.4659  1.0639  0.1959
 5065SOL     OW26830   4.480   0.799  16.488  1.0236  0.3479 -0.2026
 5065SOL    HW126831   4.419   0.833  16.552  2.2053  1.4409  0.3435
 5065SOL    HW226832   4.558   0.798  16.544  0.6014 -2.5776  0.3463
 5066SOL     OW26833   4.567   3.977   3.718  0.4150 -0.4122  0.0189
 5066SOL    HW126834   4.522   3.907   3.671  0.3022 -0.5009  0.2553
 5066SOL    HW226835   4.609   3.924   3.787  1.2770 -1.5526 -1.3866
 5067SOL     OW26836   3.518   0.887   6.168  0.5037 -0.0328  0.2035
 5067SOL    HW126837   3.433   0.854   6.198  0.5842 -0.1901  0.2637
 5067SOL    HW226838   3.569   0.805   6.164  0.4109 -0.1212  0.8081
 5068SOL     OW26839   4.696   3.816   6.332  0.0983  0.5887 -0.0840
 5068SOL    HW126840   4.640   3.872   6.278 -1.6994 -2.6188 -1.5703
 5068SOL    HW226841   0.041   3.818   6.282  1.6938 -1.7032  2.4918
 5069SOL     OW26842   1.640   4.449   6.368 -0.7388  0.4779  0.2100
 5069SOL    HW126843   1.674   4.534   6.341  1.7526 -0.7631 -0.5563
 5069SOL    HW226844   1.699   4.420   6.438  0.7340 -1.5957 -1.8907
 5070SOL     OW26845   1.560   3.214   1.970 -0.0858  0.0418 -0.4241
 5070SOL    HW126846   1.470   3.214   2.002 -0.3060  0.2255 -1.0339
 5070SOL    HW226847   1.551   3.204   1.875  1.6482 -1.0448 -0.4628
 5071SOL     OW26848   4.211   3.917   7.002  0.3048 -0.3588  0.1289
 5071SOL    HW126849   4.119   3.904   7.027  0.1300  2.8095  1.1150
 5071SOL    HW226850   4.195   3.931   6.908  1.4300 -0.2263 -0.0359
 5072SOL     OW26851   3.448   2.681   2.006 -0.0789 -0.1197  0.0697
 5072SOL    HW126852   3.476   2.605   2.057  1.7796 -0.1258 -0.9388
 5072SOL    HW226853   3.406   2.726   2.080 -1.4758  1.5447 -1.7334
 5073SOL     OW26854   2.372   2.434  17.650 -0.4908 -0.1859  0.1636
 5073SOL    HW126855   2.318   2.443  17.571 -0.0009  0.0901 -0.1382
 5073SOL    HW226856   2.319   2.444  17.729  3.0891  1.1926  2.3621
 5074SOL     OW26857   0.694   0.999   5.775 -0.2068  0.3917  0.2686
 5074SOL    HW126858   0.678   1.001   5.869  0.9950  2.2287  0.4127
 5074SOL    HW226859   0.712   1.089   5.747  2.2039 -0.3904 -0.7218
 5075SOL     OW26860   4.433   2.321   8.329 -0.3480  0.3843 -0.0582
 5075SOL    HW126861   4.434   2.229   8.353  1.0523  0.6223  0.7819
 5075SOL    HW226862   4.379   2.329   8.250  0.6476  1.7004 -0.6032
 5076SOL     OW26863   1.852   1.186  15.380  0.2849 -0.1354 -0.0652
 5076SOL    HW126864   1.906   1.106  15.380 -1.8468 -1.5733 -2.7726
 5076SOL    HW226865   1.817   1.197  15.468 -1.4663 -0.4040 -0.7381
 5077SOL     OW26866   3.201   2.562  11.220 -0.0189  0.0968  0.1055
 5077SOL    HW126867   3.113   2.582  11.250 -1.0671 -2.5175 -1.1757
 5077SOL    HW226868   3.179   2.500  11.150 -0.0942  0.5665 -0.2930
 5078SOL     OW26869   2.672   0.424  12.798  0.7298 -0.4563  0.4608
 5078SOL    HW126870   2.657   0.403  12.890 -0.0891  1.8478  0.8546
 5078SOL    HW226871   2.665   0.519  12.811 -0.2692 -0.5905  0.9245
 5079SOL     OW26872   0.138   1.077   2.845  0.3597  0.5512 -0.3954
 5079SOL    HW126873   0.138   1.027   2.927  2.3866 -0.9845 -1.3250
 5079SOL    HW226874   0.232   1.085   2.826  0.3968 -2.2489 -1.3814
 5080SOL     OW26875   2.158   1.394  10.301  0.6119  0.0922  0.3686
 5080SOL    HW126876   2.234   1.426  10.350 -0.0399 -1.0773  2.1375
 5080SOL    HW226877   2.185   1.420  10.213 -1.1516  1.6267  0.2660
 5081SOL     OW26878   3.099   3.113   7.416 -0.4249 -0.0963 -0.2529
 5081SOL    HW126879   3.184   3.156   7.428 -1.0952  1.0182  0.5532
 5081SOL    HW226880   3.066   3.148   7.499 -1.3435  3.4151 -2.0801
 5082SOL     OW26881   1.207   3.757  15.521 -0.2254  0.2216  0.2177
 5082SOL    HW126882   1.160   3.833  15.488 -1.3489 -0.6898 -0.2883
 5082SOL    HW226883   1.246   3.793  15.601  1.0166 -0.1915 -0.2028
 5083SOL     OW26884   0.877   4.498   2.410  0.0541 -0.3211 -0.1537
 5083SOL    HW126885   0.829   4.529   2.487 -1.6229  0.3283 -1.4511
 5083SOL    HW226886   0.808   4.454   2.360 -1.5215  1.0305  0.8180
 5084SOL     OW26887   2.581   0.450   2.368 -0.2795  1.0116  0.0159
 5084SOL    HW126888   2.500   0.433   2.321 -0.8754  0.5747  1.1957
 5084SOL    HW226889   2.569   0.492   2.454 -0.7900  0.1409  0.3675
 5085SOL     OW26890   2.667   3.971   8.879  0.2281 -0.2179 -0.1021
 5085SOL    HW126891   2.589   3.915   8.876  0.0177  0.0583  0.1615
 5085SOL    HW226892   2.720   3.927   8.944 -1.9979 -0.0972  1.8028
 5086SOL     OW26893   0.778   3.682   0.352  0.5489  0.8734  0.4060
 5086SOL    HW126894   0.851   3.707   0.297 -0.9622 -2.0454 -2.9461
 5086SOL    HW226895   0.712   3.745   0.325 -0.6681 -0.8029 -0.5705
 5087SOL     OW26896   2.687   4.671   2.204 -0.2840  0.4738 -0.4494
 5087SOL    HW126897   2.629   0.001   2.239 -0.0715  0.7561 -0.6338
 5087SOL    HW226898   2.752   4.666   2.274  0.2824  1.8089 -0.8646
 5088SOL     OW26899   4.509   3.094   4.039 -0.2122  0.1258 -0.4382
 5088SOL    HW126900   4.569   3.154   4.083  1.8203 -0.8307 -1.9029
 5088SOL    HW226901   4.521   3.021   4.100  2.1812  0.2870 -0.7367
 5089SOL     OW26902   0.861   3.453  15.343  0.1187 -0.2047  0.7174
 5089SOL    HW126903   0.867   3.542  15.307 -1.4137 -0.6368 -0.6012
 5089SOL    HW226904   0.795   3.407  15.291  2.4391 -1.9165 -0.7085
 5090SOL     OW26905   4.721   3.851   4.364 -0.4564 -0.3044 -0.0472
 5090SOL    HW126906   4.667   3.903   4.303  0.2170  0.3411 -0.0941
 5090SOL    HW226907   4.689   3.762   4.351  0.1182 -0.1607 -2.4257
 5091SOL     OW26908   4.646   4.046  12.850 -0.1418  0.6312  0.0588
 5091SOL    HW126909   4.651   4.139  12.872  2.7300  0.5649 -0.2939
 5091SOL    HW226910   4.595   4.062  12.770  0.6710  1.7161 -0.2461
 5092SOL     OW26911   2.918   2.256  14.793  0.3992 -0.2761 -0.5465
 5092SOL    HW126912   2.836   2.306  14.788  2.4063  3.1978  1.4777
 5092SOL    HW226913   2.900   2.185  14.731  1.6739 -2.3602  1.4844
 5093SOL     OW26914   0.681   3.187   8.375 -0.7361 -0.4646 -0.2034
 5093SOL    HW126915   0.645   3.145   8.453  1.2585  0.1993  1.0534
 5093SOL    HW226916   0.713   3.271   8.406 -1.7713 -0.0487 -0.2776
 5094SOL     OW26917   1.352   0.298  14.492 -0.1728 -0.7490  0.9106
 5094SOL    HW126918   1.391   0.264  14.573 -1.1442 -1.1463  1.2159
 5094SOL    HW226919   1.382   0.231  14.431 -0.8043 -1.2480  1.1437
 5095SOL     OW26920   3.890   0.265  17.397  0.4559  0.6836 -0.3846
 5095SOL    HW126921   3.851   0.194  17.347  0.7048  0.9721 -0.9920
 5095SOL    HW226922   3.979   0.236  17.413 -0.3655 -2.0307 -0.8069
 5096SOL     OW26923   1.447   4.644  14.827 -0.4369 -0.0744  0.5794
 5096SOL    HW126924   1.462   4.619  14.736  3.1792 -0.7687  1.3524
 5096SOL    HW226925   1.368   4.599  14.855 -1.2742 -1.7334 -4.5531
 5097SOL     OW26926   2.676   0.329   1.921 -0.3095  0.0370 -0.1643
 5097SOL    HW126927   2.678   0.311   2.015 -2.0137 -2.2428 -0.5731
 5097SOL    HW226928   2.620   0.406   1.917  0.1892  0.4568  0.7917
 5098SOL     OW26929   4.283   0.247   2.538  0.0721  0.6667  0.5513
 5098SOL    HW126930   4.252   0.160   2.515 -1.1142  0.9956  0.8758
 5098SOL    HW226931   4.376   0.244   2.517  0.7142 -1.4189  3.6705
 5099SOL     OW26932   3.552   3.607   8.825 -0.2500 -0.0296  0.0412
 5099SOL    HW126933   3.616   3.655   8.878 -0.0879 -2.1601  1.8163
 5099SOL    HW226934   3.592   3.601   8.739  0.0822 -2.1438  0.3523
 5100SOL     OW26935   4.086   3.882   4.663  0.8072  0.2035 -0.2512
 5100SOL    HW126936   4.054   3.972   4.649  1.1539  0.3056 -0.4066
 5100SOL    HW226937   4.148   3.900   4.734  1.3385 -0.1513 -0.6195
 5101SOL     OW26938   2.243   0.693   3.034 -0.2814 -0.2487 -0.1532
 5101SOL    HW126939   2.223   0.719   2.944  1.1042 -0.3777 -0.5002
 5101SOL    HW226940   2.197   0.761   3.083  0.6494  0.9931 -1.0171
 5102SOL     OW26941   0.729   0.686   3.468 -0.1464 -0.1038 -0.0699
 5102SOL    HW126942   0.796   0.646   3.523  0.0627  0.8803  0.3929
 5102SOL    HW226943   0.666   0.616   3.449 -1.3567  1.0124 -0.2089
 5103SOL     OW26944   1.468   4.667   2.422 -0.4003  0.7092  0.2274
 5103SOL    HW126945   1.443   4.734   2.358 -0.1363  0.4223 -0.1770
 5103SOL    HW226946   1.380   4.628   2.432  0.2146 -0.3470  1.5160
 5104SOL     OW26947   2.212   1.471   1.706  0.0009 -0.0392 -0.0275
 5104SOL    HW126948   2.139   1.531   1.725 -1.0938 -1.6917  0.9640
 5104SOL    HW226949   2.264   1.482   1.786  1.8957  0.4531 -1.3166
 5105SOL     OW26950   1.361   3.045   2.619 -0.2490  0.2151  0.2993
 5105SOL    HW126951   1.288   3.041   2.681 -0.1994 -2.1143  0.2225
 5105SOL    HW226952   1.408   2.967   2.647 -0.3237 -0.5226 -1.6178
 5106SOL     OW26953   0.568   2.186   7.832  0.5134 -0.5496 -0.6206
 5106SOL    HW126954   0.624   2.254   7.796 -0.1167 -0.7289 -1.9381
 5106SOL    HW226955   0.621   2.134   7.892 -0.8939 -0.2798  0.8827
 5107SOL     OW26956   4.599   0.530   7.984  0.1153  0.4849  0.2558
 5107SOL    HW126957   4.512   0.552   7.950  1.2654  2.2474 -1.5195
 5107SOL    HW226958   4.597   0.514   8.078 -2.4910  0.7279  0.2270
 5108SOL     OW26959   4.150   4.586  11.378 -0.1347  0.3970  0.0089
 5108SOL    HW126960   4.223   4.528  11.357  1.1600  1.7101  0.8959
 5108SOL    HW226961   4.176   4.664  11.329 -0.7462 -0.9556 -2.4848
 5109SOL     OW26962   1.705   3.520  14.334 -0.3523 -0.0561 -0.2037
 5109SOL    HW126963   1.764   3.470  14.390 -3.0600 -2.6446  0.3410
 5109SOL    HW226964   1.669   3.463  14.265  1.8984 -1.2897 -0.3713
 5110SOL     OW26965   4.463   3.276   6.624 -0.3860  0.0358  0.4186
 5110SOL    HW126966   4.511   3.193   6.615 -0.4290  0.0457  0.0919
 5110SOL    HW226967   4.419   3.264   6.708 -0.9039  0.2578  0.1807
 5111SOL     OW26968   0.251   3.431   6.587  0.5437 -0.4434  0.1694
 5111SOL    HW126969   0.252   3.422   6.682  0.6029  2.6162  0.4583
 5111SOL    HW226970   0.336   3.390   6.576  1.1705  0.6990  0.7704
 5112SOL     OW26971   1.319   1.534  13.055 -0.2779  0.0541  0.4132
 5112SOL    HW126972   1.282   1.616  13.023 -0.5713 -0.3422 -0.2660
 5112SOL    HW226973   1.400   1.538  13.004 -0.5289 -1.8430 -0.1616
 5113SOL     OW26974   1.227   3.447   9.671 -0.0882 -0.7027  0.3475
 5113SOL    HW126975   1.155   3.441   9.733 -0.3635 -1.3711 -0.0379
 5113SOL    HW226976   1.308   3.426   9.718 -0.4419  0.6405  1.5555
 5114SOL     OW26977   1.479   3.897   4.661 -0.0196  0.5245  0.8875
 5114SOL    HW126978   1.468   3.943   4.578 -0.0173 -0.2848  0.4372
 5114SOL    HW226979   1.403   3.839   4.654  0.3964  0.1199 -0.3090
 5115SOL     OW26980   2.285   1.247   0.059  0.3137  0.1622  0.2943
 5115SOL    HW126981   2.193   1.243   0.034 -0.4027  0.1004  2.9235
 5115SOL    HW226982   2.282   1.177   0.124  1.2303  0.0032  0.1734
 5116SOL     OW26983   2.011   4.563   5.253  0.1987  0.3740 -0.0912
 5116SOL    HW126984   1.944   4.496   5.258  3.0656 -2.2955  2.1435
 5116SOL    HW226985   2.011   4.606   5.338  0.8592  3.2115 -1.5026
 5117SOL     OW26986   1.440   0.490   7.522  0.0388 -0.4865  0.2276
 5117SOL    HW126987   1.523   0.444   7.535  0.4615  0.2432  0.0876
 5117SOL    HW226988   1.483   0.557   7.468 -0.7783  0.4869  0.7949
 5118SOL     OW26989   3.348   4.161   4.145  0.0975  0.0092 -0.3876
 5118SOL    HW126990   3.327   4.209   4.065  0.9280  0.6527 -0.2170
 5118SOL    HW226991   3.404   4.093   4.106  0.1471 -2.6964  4.3223
 5119SOL     OW26992   4.038   0.954   2.934  0.5072  0.0695  0.3269
 5119SOL    HW126993   4.114   0.957   2.992  0.4596 -0.1117  0.3998
 5119SOL    HW226994   4.029   0.865   2.899 -1.7515  0.4624 -0.0938
 5120SOL     OW26995   0.435   0.987  11.706 -0.4133 -0.5251  0.3241
 5120SOL    HW126996   0.522   1.018  11.729 -0.3582  0.7773 -1.6112
 5120SOL    HW226997   0.421   1.054  11.639 -0.1051 -1.4046 -0.6257
 5121SOL     OW26998   2.017   2.210   9.611  0.0217  0.0037  0.1397
 5121SOL    HW126999   2.027   2.300   9.578  1.8231 -0.4719 -0.6031
 5121SOL    HW227000   2.099   2.172   9.580 -1.2922 -2.7923  0.1024
 5122SOL     OW27001   0.850   4.671   5.529  0.0247 -0.0854  0.0619
 5122SOL    HW127002   0.829   4.578   5.532  1.8542 -0.5221 -1.0120
 5122SOL    HW227003   0.769   4.710   5.496  0.3573  0.7158  0.2066
 5123SOL     OW27004   0.518   0.681   4.315 -0.1397  0.9758  0.1348
 5123SOL    HW127005   0.511   0.625   4.393  0.1071 -1.6261 -1.6921
 5123SOL    HW227006   0.453   0.749   4.329 -0.0971  1.2265 -0.8916
 5124SOL     OW27007   3.168   3.673   2.381 -0.5788  0.6278  0.0886
 5124SOL    HW127008   3.084   3.696   2.342 -0.4708 -0.9763 -1.1385
 5124SOL    HW227009   3.218   3.675   2.299 -0.7556  0.8498 -0.0109
 5125SOL     OW27010   3.398   2.226  15.865  0.3920  0.5513  0.5016
 5125SOL    HW127011   3.339   2.202  15.936  1.8644  0.3649  1.6677
 5125SOL    HW227012   3.477   2.212  15.917 -0.1997  0.8866  1.4757
 5126SOL     OW27013   1.188   4.546   2.653  0.3234  0.2349 -0.4372
 5126SOL    HW127014   1.157   4.532   2.563  3.4492  1.2031 -1.6850
 5126SOL    HW227015   1.169   4.639   2.651  3.0362  0.8171  1.3773
 5127SOL     OW27016   4.592   2.914  17.193 -0.1973  0.0402 -0.0338
 5127SOL    HW127017   4.629   2.830  17.168  0.1372  0.7492 -1.9236
 5127SOL    HW227018   4.649   2.948  17.262 -0.1812  0.0085 -0.0315
 5128SOL     OW27019   4.487   0.068  10.132  0.1415 -0.8690 -0.7761
 5128SOL    HW127020   4.546   4.733  10.155 -0.3727 -0.3655  2.2001
 5128SOL    HW227021   4.535   0.148  10.154  1.3799 -1.7616 -0.1979
 5129SOL     OW27022   3.488   4.129   9.449 -0.0493  0.1037  0.5536
 5129SOL    HW127023   3.453   4.209   9.410 -1.7764 -1.3337 -0.8772
 5129SOL    HW227024   3.489   4.155   9.541 -0.3879  2.3406 -0.0834
 5130SOL     OW27025   4.651   2.281  16.808  0.1199  0.5483 -0.0023
 5130SOL    HW127026   4.664   2.327  16.725  2.6589 -0.4283 -0.1327
 5130SOL    HW227027   4.695   2.197  16.801 -0.2566  0.3964 -0.5867
 5131SOL     OW27028   1.265   2.106   8.869  0.0159 -0.4779 -0.4502
 5131SOL    HW127029   1.356   2.133   8.858  0.1181 -0.5179  0.2742
 5131SOL    HW227030   1.288   2.015   8.892  0.8771  0.0094  0.6107
 5132SOL     OW27031   0.573   1.867   5.481 -0.2495  0.2614  0.1830
 5132SOL    HW127032   0.490   1.905   5.508  1.9285  3.3314  2.5015
 5132SOL    HW227033   0.558   1.861   5.386  2.2517 -1.0669 -0.1273
 5133SOL     OW27034   3.750   4.712   7.896 -0.9019  0.2338 -0.5346
 5133SOL    HW127035   3.826   0.032   7.909 -1.2710  0.5472  0.2193
 5133SOL    HW227036   3.767   4.663   7.976 -0.7476  0.4518 -0.4351
 5134SOL     OW27037   0.765   4.231  15.319 -0.3844  0.3976 -0.0265
 5134SOL    HW127038   0.794   4.204  15.233 -1.5500  2.5009 -1.0888
 5134SOL    HW227039   0.836   4.292  15.337  1.3201 -1.3270 -0.9626
 5135SOL     OW27040   1.987   4.003   1.682 -0.3386  0.0696 -0.1456
 5135SOL    HW127041   2.046   4.061   1.633  0.6747 -1.5708 -0.8396
 5135SOL    HW227042   1.910   3.987   1.627  0.3198 -0.8900 -0.7754
 5136SOL     OW27043   2.280   1.393   9.514 -0.4728  0.4710  0.1522
 5136SOL    HW127044   2.286   1.329   9.443 -2.4857  3.2842 -2.5752
 5136SOL    HW227045   2.231   1.354   9.587 -0.1240 -1.9083 -0.9254
 5137SOL     OW27046   3.073   0.051   7.367 -0.2293  0.1333  0.1641
 5137SOL    HW127047   3.122   4.734   7.306  0.4350  0.6902  0.1938
 5137SOL    HW227048   3.050   4.720   7.430  0.5434  1.1875  1.5999
 5138SOL     OW27049   2.377   1.258   1.891  0.1375 -0.4849 -0.3000
 5138SOL    HW127050   2.446   1.317   1.860  0.9912 -1.3868 -0.1305
 5138SOL    HW227051   2.367   1.291   1.981  1.4615 -2.2338  0.5105
 5139SOL     OW27052   2.629   2.749   5.842  0.0080 -0.6809 -0.3205
 5139SOL    HW127053   2.635   2.820   5.779 -1.2503 -1.0235 -0.8207
 5139SOL    HW227054   2.534   2.753   5.845 -0.0317 -1.9522  0.2306
 5140SOL     OW27055   4.399   0.598   2.719  0.1295 -0.8219 -0.0201
 5140SOL    HW127056   4.387   0.693   2.713  1.1194 -0.7601 -1.1998
 5140SOL    HW227057   4.480   0.603   2.770 -1.5292  0.3105  2.4852
 5141SOL     OW27058   2.378   4.308   8.562 -0.0708  0.2229 -0.4732
 5141SOL    HW127059   2.370   4.389   8.512  1.6532  0.4365 -0.4055
 5141SOL    HW227060   2.359   4.237   8.500  0.4344  1.9354 -2.5843
 5142SOL     OW27061   2.238   1.547   2.546  0.6074 -0.5665 -0.0367
 5142SOL    HW127062   2.184   1.614   2.503 -0.2666 -2.0765 -1.2682
 5142SOL    HW227063   2.206   1.557   2.636 -0.8715 -1.0271 -0.5235
 5143SOL     OW27064   2.993   3.550  15.977  0.5255  0.2851  0.6743
 5143SOL    HW127065   3.004   3.479  16.040 -0.3802  1.1726  1.8338
 5143SOL    HW227066   3.041   3.625  16.011 -0.4324  1.0886  0.2793
 5144SOL     OW27067   3.288   2.828   8.813  0.0309 -0.2114  0.0058
 5144SOL    HW127068   3.316   2.842   8.723 -0.7406  1.8761  0.0850
 5144SOL    HW227069   3.367   2.798   8.859  0.5102  2.1017  0.6888
 5145SOL     OW27070   0.947   1.773   8.823  0.3437 -0.1614  0.3055
 5145SOL    HW127071   0.991   1.841   8.771 -0.5140 -1.7961 -2.5635
 5145SOL    HW227072   0.937   1.690   8.777  0.0613  0.7447 -1.2637
 5146SOL     OW27073   2.298   2.283   7.936  0.1208 -0.0843  0.4825
 5146SOL    HW127074   2.209   2.268   7.968  0.5247 -1.9167  0.7415
 5146SOL    HW227075   2.323   2.364   7.981  1.0296  0.4738 -1.0169
 5147SOL     OW27076   0.687   4.573  14.658  0.1598 -0.6907  0.2228
 5147SOL    HW127077   0.683   4.511  14.731 -0.7392  0.9349  1.5650
 5147SOL    HW227078   0.684   4.513  14.583 -1.6272 -0.5258  0.1463
 5148SOL     OW27079   1.869   0.655   0.268 -0.4396 -0.2802 -0.6562
 5148SOL    HW127080   1.798   0.713   0.295 -0.4443 -1.1316  1.1781
 5148SOL    HW227081   1.852   0.578   0.322 -1.1241  0.4218  0.1306
 5149SOL     OW27082   0.419   1.449   4.517 -0.5412 -0.2610 -0.2122
 5149SOL    HW127083   0.341   1.429   4.465 -0.0083 -3.0021  0.0320
 5149SOL    HW227084   0.445   1.532   4.477 -2.5645  0.1401 -0.7282
 5150SOL     OW27085   0.228   0.790   9.759  0.7918  0.1638 -0.3594
 5150SOL    HW127086   0.174   0.804   9.681  0.6493  0.5736 -0.1864
 5150SOL    HW227087   0.171   0.833   9.823  2.3052  0.9784  0.4357
 5151SOL     OW27088   3.142   4.079   7.660 -0.5041  0.4768  0.5029
 5151SOL    HW127089   3.222   4.113   7.621 -1.9635  3.1201 -0.1376
 5151SOL    HW227090   3.084   4.074   7.584  2.2283 -0.1247 -1.5524
 5152SOL     OW27091   2.151   2.275   0.524 -0.5288  0.7936  0.1015
 5152SOL    HW127092   2.136   2.199   0.580 -1.9536  1.9485  1.2675
 5152SOL    HW227093   2.143   2.242   0.434 -0.7818  0.6866  0.1628
 5153SOL     OW27094   3.237   0.492  14.206  0.0361 -0.1358 -0.1713
 5153SOL    HW127095   3.205   0.402  14.212 -0.8789  0.3188  1.8458
 5153SOL    HW227096   3.223   0.519  14.296 -2.3827 -1.7167 -0.0684
 5154SOL     OW27097   1.621   4.556   5.383  0.4358  0.2948 -0.2776
 5154SOL    HW127098   1.691   4.534   5.322 -0.6094  0.2815 -1.4576
 5154SOL    HW227099   1.621   4.482   5.443  0.2490 -0.0164 -0.6641
 5155SOL     OW27100   1.633   0.682   8.854 -0.7600  0.1177 -0.6310
 5155SOL    HW127101   1.701   0.745   8.876  2.3153 -3.5799  0.5734
 5155SOL    HW227102   1.566   0.689   8.922  2.8187  2.0434  2.7320
 5156SOL     OW27103   0.213   4.250  11.585 -0.0921 -0.0202 -0.3022
 5156SOL    HW127104   0.290   4.270  11.639 -0.7219  0.9661  0.2447
 5156SOL    HW227105   0.236   4.276  11.496 -2.4490  0.3510 -0.7940
 5157SOL     OW27106   2.255   0.864   5.259 -0.1375 -0.0101  0.0054
 5157SOL    HW127107   2.196   0.939   5.261  0.1794  0.1977  1.5104
 5157SOL    HW227108   2.194   0.809   5.210  0.3123 -0.1510 -0.3957
 5158SOL     OW27109   0.974   4.259  13.145  0.3349 -0.4173 -0.0125
 5158SOL    HW127110   1.016   4.302  13.071  1.4578 -0.6646  0.4764
 5158SOL    HW227111   1.030   4.291  13.216  1.0110 -0.1850 -0.6501
 5159SOL     OW27112   0.527   4.268   9.056  0.3586 -0.3537  0.1809
 5159SOL    HW127113   0.470   4.320   9.113  1.0167  1.0554 -0.4378
 5159SOL    HW227114   0.583   4.237   9.127 -0.0082 -1.0071  0.1757
 5160SOL     OW27115   4.034   2.913  12.687  0.0994  0.1999 -0.2141
 5160SOL    HW127116   4.036   3.004  12.657 -1.9073  0.2601 -0.1512
 5160SOL    HW227117   4.120   2.909  12.728 -0.8857 -3.2406  1.5019
 5161SOL     OW27118   4.681   2.065   7.197  0.2694 -0.8403  0.4060
 5161SOL    HW127119   4.705   2.158   7.187  1.0162 -1.1153 -0.3537
 5161SOL    HW227120   4.644   2.040   7.113  0.8065 -2.3258  0.6165
 5162SOL     OW27121   3.536   1.809   5.653 -0.0346 -0.1558  0.3452
 5162SOL    HW127122   3.594   1.737   5.629  0.3350 -0.9301  3.4843
 5162SOL    HW227123   3.460   1.761   5.687 -0.1616  0.2158  0.5905
 5163SOL     OW27124   0.382   3.755  10.789 -0.0725  0.1352  0.1545
 5163SOL    HW127125   0.318   3.780  10.856 -0.3187  0.5123 -0.2177
 5163SOL    HW227126   0.399   3.664  10.813  0.4008  0.3344  0.5819
 5164SOL     OW27127   2.022   0.322   8.167  0.4974  0.4980 -0.0508
 5164SOL    HW127128   2.104   0.341   8.212  1.1624 -0.5131 -0.8410
 5164SOL    HW227129   2.049   0.317   8.075  0.1401 -2.5105  0.0053
 5165SOL     OW27130   1.939   2.403  13.182  0.1689  0.5502 -0.6149
 5165SOL    HW127131   1.958   2.383  13.274 -0.1436 -0.8467 -0.8527
 5165SOL    HW227132   1.845   2.385  13.177 -0.0268  1.5638 -0.6233
 5166SOL     OW27133   3.808   2.009   3.547  0.9860  0.0412  0.0085
 5166SOL    HW127134   3.901   1.992   3.560  1.2021  1.6839  0.5140
 5166SOL    HW227135   3.815   2.047   3.460 -0.1507 -1.5228 -0.7673
 5167SOL     OW27136   1.705   2.155   2.595  0.3033 -0.4974  0.1167
 5167SOL    HW127137   1.619   2.119   2.572  0.9788 -0.9621 -1.6613
 5167SOL    HW227138   1.761   2.130   2.522  0.1435  0.7274 -0.4196
 5168SOL     OW27139   4.222   1.715  11.667 -0.7613  0.9792 -0.2654
 5168SOL    HW127140   4.128   1.714  11.684 -0.8594  3.6925 -0.6244
 5168SOL    HW227141   4.247   1.752  11.752  0.0584  0.6515 -0.3552
 5169SOL     OW27142   2.725   2.332   2.390  0.1969  0.0962  0.0206
 5169SOL    HW127143   2.779   2.387   2.446  0.1971  0.8417 -0.7091
 5169SOL    HW227144   2.639   2.362   2.420  0.4648  2.0262 -1.1268
 5170SOL     OW27145   0.544   0.549   6.460  0.0144  0.3019  0.3350
 5170SOL    HW127146   0.607   0.597   6.406 -0.4974  1.2646  0.5819
 5170SOL    HW227147   0.572   0.586   6.544 -1.4056 -2.7910  2.1762
 5171SOL     OW27148   0.067   4.359   0.682 -0.1194 -0.2300 -0.6179
 5171SOL    HW127149   0.016   4.281   0.704  2.4903 -2.2630 -1.7252
 5171SOL    HW227150   0.077   4.391   0.772  1.8849 -3.6105  0.3517
 5172SOL     OW27151   1.103   1.700  13.375 -0.5814  0.2805  0.1399
 5172SOL    HW127152   1.112   1.795  13.386  0.7835  0.1702 -0.0197
 5172SOL    HW227153   1.018   1.687  13.418 -1.8719  1.7832 -1.9293
 5173SOL     OW27154   4.585   0.063  11.177 -0.0571  0.7334  0.0340
 5173SOL    HW127155   4.515   0.063  11.112 -0.8594 -2.3558  0.8759
 5173SOL    HW227156   4.564   0.144  11.224 -2.1145  0.4987 -0.4815
 5174SOL     OW27157   0.079   2.043  13.152 -0.0188  0.5519 -0.0041
 5174SOL    HW127158   0.054   2.129  13.185  1.2654  1.3403 -1.0644
 5174SOL    HW227159   0.098   2.057  13.059 -1.0314 -1.2398 -0.4898
 5175SOL     OW27160   1.804   4.155  11.496  0.4535  0.2304 -0.5926
 5175SOL    HW127161   1.899   4.154  11.485  0.5925  2.7503  0.2983
 5175SOL    HW227162   1.793   4.250  11.495 -1.4352  0.0437  2.4450
 5176SOL     OW27163   0.225   3.105   4.198 -0.0045  0.0454 -0.3014
 5176SOL    HW127164   0.253   3.118   4.107  2.0727 -1.6172  0.1059
 5176SOL    HW227165   0.310   3.115   4.241 -0.5708 -0.6904  0.9817
 5177SOL     OW27166   3.656   1.654   6.940  0.5694  0.0162 -0.2846
 5177SOL    HW127167   3.669   1.596   6.865  1.1461 -0.7192  0.3812
 5177SOL    HW227168   3.561   1.640   6.944  0.1645  2.7498 -0.6268
 5178SOL     OW27169   0.870   0.102   2.520  0.7416 -0.2322  0.4219
 5178SOL    HW127170   0.783   0.141   2.515  1.1442  0.9773  3.3554
 5178SOL    HW227171   0.857   0.021   2.470 -1.4420  1.6274 -2.0083
 5179SOL     OW27172   2.871   1.485   7.288  0.1106  0.1264 -0.0193
 5179SOL    HW127173   2.937   1.417   7.270 -0.8244 -0.3029 -1.7869
 5179SOL    HW227174   2.837   1.449   7.370 -0.8817 -0.5042 -0.7110
 5180SOL     OW27175   2.136   1.622   4.747 -0.0261  0.3260 -0.0784
 5180SOL    HW127176   2.120   1.529   4.734  0.9852  0.1930 -0.3368
 5180SOL    HW227177   2.057   1.646   4.797  0.1579  0.3004  0.2260
 5181SOL     OW27178   2.485   4.145   6.428 -0.0208  0.2457 -0.2936
 5181SOL    HW127179   2.532   4.066   6.454 -0.9693 -0.5494 -1.0150
 5181SOL    HW227180   2.538   4.179   6.357  0.3549 -2.5412 -1.3273
 5182SOL     OW27181   2.088   3.916  12.433  0.2575  0.5959 -0.1548
 5182SOL    HW127182   2.129   3.985  12.381 -0.4038  0.0185 -1.4206
 5182SOL    HW227183   2.030   3.866  12.376 -0.2758  0.1827  0.7465
 5183SOL     OW27184   4.016   2.145  17.094  0.6539 -0.0489  0.0064
 5183SOL    HW127185   3.950   2.075  17.095 -0.3071  0.8408 -0.6861
 5183SOL    HW227186   4.042   2.137  17.186  1.6083  0.3330 -0.2413
 5184SOL     OW27187   2.246   0.289   1.084  0.6487  0.7650  0.0472
 5184SOL    HW127188   2.269   0.256   1.171  1.9552  0.6697 -0.3271
 5184SOL    HW227189   2.241   0.205   1.038 -0.7630  0.3836  0.9181
 5185SOL     OW27190   3.458   2.516  10.246  0.4485 -0.4402  0.5103
 5185SOL    HW127191   3.448   2.433  10.199  1.4982 -0.6965  0.7379
 5185SOL    HW227192   3.419   2.578  10.184  0.1509 -0.9996  0.1370
 5186SOL     OW27193   0.681   2.462   9.590  0.3030 -0.6985 -0.0483
 5186SOL    HW127194   0.771   2.447   9.562  0.0604 -0.6395 -0.8559
 5186SOL    HW227195   0.693   2.460   9.685 -2.7829 -0.3234  0.3273
 5187SOL     OW27196   2.850   2.291   2.862  0.3870  0.3497 -0.0157
 5187SOL    HW127197   2.828   2.201   2.838  1.7947  0.7417 -2.6569
 5187SOL    HW227198   2.798   2.301   2.942  3.2019  2.9594  1.4804
 5188SOL     OW27199   1.472   1.774   3.065 -0.4530 -0.4305  0.2084
 5188SOL    HW127200   1.414   1.716   3.014  0.0543 -0.8903  0.1492
 5188SOL    HW227201   1.438   1.857   3.034 -0.9395 -0.3695  0.9035
 5189SOL     OW27202   1.116   0.629  10.163 -0.0632 -0.3419 -0.0182
 5189SOL    HW127203   1.146   0.593  10.080 -0.5759 -1.4933  0.2952
 5189SOL    HW227204   1.085   0.711  10.124 -1.0066 -0.1039  1.1990
 5190SOL     OW27205   4.045   4.223   5.776  1.2241 -0.6950 -0.2200
 5190SOL    HW127206   3.998   4.262   5.850  0.2546 -0.7251 -0.8176
 5190SOL    HW227207   4.047   4.130   5.801  0.0350 -0.6328  0.0983
 5191SOL     OW27208   0.154   1.844   7.657 -0.2883  0.3295  0.4910
 5191SOL    HW127209   0.183   1.806   7.741 -0.9904 -1.5357 -0.1057
 5191SOL    HW227210   0.062   1.861   7.677 -1.1895 -1.5877 -1.9702
 5192SOL     OW27211   0.240   4.358   5.736 -0.4647 -0.0292 -0.6868
 5192SOL    HW127212   0.174   4.361   5.666 -1.8129  1.1043  0.6348
 5192SOL    HW227213   0.231   4.266   5.761  0.5073  0.4377  1.3444
 5193SOL     OW27214   3.449   2.387   3.055 -0.2883 -0.0023 -0.2159
 5193SOL    HW127215   3.355   2.373   3.063 -0.8158  3.1241 -0.7613
 5193SOL    HW227216   3.475   2.298   3.032  0.9077 -0.0789  1.4021
 5194SOL     OW27217   0.174   0.202  12.615  0.4452 -0.3691  0.4365
 5194SOL    HW127218   0.157   0.296  12.616  2.2510 -0.0487  1.4441
 5194SOL    HW227219   0.247   0.204  12.553  0.1821 -0.5323  0.1190
 5195SOL     OW27220   4.097   2.021  10.357 -0.2197  0.1736  0.2849
 5195SOL    HW127221   4.126   1.930  10.362  0.5300  0.5340  2.5715
 5195SOL    HW227222   4.089   2.043  10.265 -2.3425 -3.0353 -0.3099
 5196SOL     OW27223   2.272   3.119   1.955  0.6814 -0.3956  0.1638
 5196SOL    HW127224   2.207   3.188   1.949  2.3249  1.3311  2.0035
 5196SOL    HW227225   2.294   3.112   1.862 -0.7266  0.0102 -0.1898
 5197SOL     OW27226   4.677   1.512   8.036  0.1274 -0.1189  0.0856
 5197SOL    HW127227   4.604   1.542   7.984  0.4733 -0.6330 -0.6902
 5197SOL    HW227228   4.632   1.466   8.108 -1.9517  0.8852 -0.5880
 5198SOL     OW27229   0.149   0.163   7.865  0.0843 -0.5077 -0.2564
 5198SOL    HW127230   0.226   0.141   7.917  1.9034  3.9588 -1.0971
 5198SOL    HW227231   0.181   0.173   7.775 -1.1239  0.3039 -0.5875
 5199SOL     OW27232   1.192   1.622   6.581  0.0793  0.3579 -0.1281
 5199SOL    HW127233   1.226   1.699   6.626 -0.4300 -0.2779  1.3564
 5199SOL    HW227234   1.097   1.635   6.590  1.0272  5.2308  2.7499
 5200SOL     OW27235   4.038   3.530   2.857 -0.2174  0.8700  0.1367
 5200SOL    HW127236   3.953   3.557   2.822 -0.8406 -1.4529 -0.1545
 5200SOL    HW227237   4.079   3.608   2.894 -0.0977  1.0237 -0.3174
 5201SOL     OW27238   4.421   1.414   6.773  0.5275  0.9530  0.3990
 5201SOL    HW127239   4.427   1.505   6.744  1.4958  0.2807 -1.5092
 5201SOL    HW227240   4.488   1.379   6.714 -0.6577  2.6238 -1.9271
 5202SOL     OW27241   4.495   2.610  17.356  0.1160  0.2028  0.0323
 5202SOL    HW127242   4.467   2.675  17.291 -0.6840 -0.0557  0.1130
 5202SOL    HW227243   4.470   2.529  17.310  3.0557  0.3475 -1.7917
 5203SOL     OW27244   4.222   1.698   2.804  0.2555 -0.0972  0.7124
 5203SOL    HW127245   4.264   1.688   2.890  3.3082 -2.3092 -1.0213
 5203SOL    HW227246   4.133   1.668   2.819 -0.1354  0.1731 -1.0970
 5204SOL     OW27247   2.574   1.912   6.669 -0.1302  0.3020 -0.4005
 5204SOL    HW127248   2.545   1.902   6.760  1.6919 -3.6710 -0.2345
 5204SOL    HW227249   2.520   1.844   6.630 -0.7527  0.4267  0.2490
 5205SOL     OW27250   3.368   1.422   3.195 -0.1881 -0.1624 -0.2483
 5205SOL    HW127251   3.343   1.333   3.220 -2.1495 -0.2427 -2.5190
 5205SOL    HW227252   3.333   1.416   3.107 -0.7597 -1.4928  0.0728
 5206SOL     OW27253   0.331   3.825  11.779 -0.1648 -0.5459 -0.0634
 5206SOL    HW127254   0.240   3.822  11.752 -0.3074  1.1740  0.2275
 5206SOL    HW227255   0.334   3.794  11.870  0.1275 -1.6537 -0.4567
 5207SOL     OW27256   4.236   0.774   4.025  0.0213 -0.2445  0.5392
 5207SOL    HW127257   4.256   0.867   4.020  0.4554 -0.4253 -0.9844
 5207SOL    HW227258   4.142   0.779   4.009 -0.4804  1.4119  3.9345
 5208SOL     OW27259   0.456   3.930   4.458  0.7027  0.7697 -0.3598
 5208SOL    HW127260   0.394   3.941   4.386 -0.0591 -1.1380  0.0062
 5208SOL    HW227261   0.396   3.899   4.526  0.3580  0.2709 -0.8950
 5209SOL     OW27262   4.371   0.529   7.252 -0.1914 -0.1265 -0.3377
 5209SOL    HW127263   4.439   0.591   7.279  1.2934 -1.4140 -1.0608
 5209SOL    HW227264   4.424   0.483   7.187  0.4976 -0.3310  0.3730
 5210SOL     OW27265   0.297   3.224   3.665  0.2729 -0.5531  0.2734
 5210SOL    HW127266   0.298   3.139   3.620 -3.3737  0.7850 -2.3197
 5210SOL    HW227267   0.230   3.276   3.621 -1.0558 -1.0887  1.6499
 5211SOL     OW27268   3.570   1.281  11.610  0.1002  0.3462 -0.5378
 5211SOL    HW127269   3.579   1.268  11.704 -0.4857 -1.3989 -0.7223
 5211SOL    HW227270   3.479   1.311  11.619  0.0472  0.0278  0.0009
 5212SOL     OW27271   1.998   0.421  10.383  0.4631  0.5080 -0.2064
 5212SOL    HW127272   1.938   0.478  10.336  0.4351  1.4058  0.9121
 5212SOL    HW227273   2.031   0.366  10.312  2.5097  2.2719 -0.6332
 5213SOL     OW27274   0.550   0.656   1.003 -0.0822  0.3954  0.3698
 5213SOL    HW127275   0.491   0.637   1.076 -2.1185 -0.9269 -1.6463
 5213SOL    HW227276   0.495   0.661   0.925 -0.9215  2.4476  1.0909
 5214SOL     OW27277   2.877   0.642   2.092 -0.7145  0.6376  0.0304
 5214SOL    HW127278   2.867   0.604   2.005 -0.9295 -0.2821  0.4545
 5214SOL    HW227279   2.790   0.617   2.123 -0.7368 -1.5303 -1.7776
 5215SOL     OW27280   0.431   4.663   2.504  0.1997  0.1465 -0.5131
 5215SOL    HW127281   0.345   4.692   2.535 -0.2471 -1.1136 -0.5752
 5215SOL    HW227282   0.405   4.579   2.467 -0.4806  0.2366 -0.2438
 5216SOL     OW27283   3.726   4.677  10.079 -0.3808 -0.4744  0.1286
 5216SOL    HW127284   3.631   4.691  10.081 -0.5591 -1.7336  0.5836
 5216SOL    HW227285   3.751   4.635  10.161 -1.2579 -0.7012  0.2844
 5217SOL     OW27286   2.994   2.147   2.436  0.1523 -0.7354  0.4955
 5217SOL    HW127287   2.899   2.157   2.429  0.2634  0.4524  0.7544
 5217SOL    HW227288   3.011   2.211   2.505  0.8054 -0.6566  0.2550
 5218SOL     OW27289   3.281   3.387  10.189 -0.1930 -0.8878  0.3226
 5218SOL    HW127290   3.301   3.315  10.128  0.3016 -0.7086  0.2736
 5218SOL    HW227291   3.185   3.393  10.193 -0.1274 -0.8967  1.7862
 5219SOL     OW27292   0.443   1.556   6.268  0.0849  0.7616  0.1964
 5219SOL    HW127293   0.355   1.586   6.249  0.3490  1.0471 -0.5779
 5219SOL    HW227294   0.496   1.547   6.189  1.4592  0.1203  1.1721
 5220SOL     OW27295   1.805   0.805   8.156 -0.1170  0.2763  0.1755
 5220SOL    HW127296   1.802   0.711   8.177 -0.3178  0.6006  1.5990
 5220SOL    HW227297   1.717   0.835   8.180 -0.7892 -1.6872  0.2487
 5221SOL     OW27298   3.936   0.072   6.773  0.2775  0.3282  0.0446
 5221SOL    HW127299   4.004   0.132   6.742 -0.9762 -0.1764 -3.6935
 5221SOL    HW227300   3.877   0.138   6.810  1.0073  0.6685  0.5900
 5222SOL     OW27301   1.900   4.506   2.883  0.4032  0.5489  0.1098
 5222SOL    HW127302   1.962   4.445   2.924 -0.6043  0.0499  0.8678
 5222SOL    HW227303   1.935   4.500   2.794  0.9716 -0.6286  0.4049
 5223SOL     OW27304   3.659   0.117   5.475 -0.5150 -0.7466  0.4400
 5223SOL    HW127305   3.623   0.043   5.426 -0.4463 -0.2065 -0.4350
 5223SOL    HW227306   3.692   0.169   5.401  1.1548 -0.1583  1.6093
 5224SOL     OW27307   3.220   3.411   2.433 -0.7063  0.1072  0.1050
 5224SOL    HW127308   3.231   3.506   2.424  0.0571  0.1548  1.6043
 5224SOL    HW227309   3.223   3.384   2.341 -0.5842  0.6758 -0.0581
 5225SOL     OW27310   4.709   0.528   5.164 -0.2914 -0.9247 -0.5519
 5225SOL    HW127311   4.706   0.609   5.113  2.9420 -0.7001 -0.3922
 5225SOL    HW227312   0.057   0.494   5.140  1.0388  2.3921 -0.5050
 5226SOL     OW27313   3.758   1.549   2.458  0.2709  0.1887  0.1775
 5226SOL    HW127314   3.738   1.458   2.435  0.5205 -0.0477  0.9253
 5226SOL    HW227315   3.670   1.584   2.447  0.6563  2.0225  2.9696
 5227SOL     OW27316   3.754   4.316  17.699 -0.1025  0.1215 -0.0282
 5227SOL    HW127317   3.797   4.248   0.003 -1.2829 -0.3577  0.3219
 5227SOL    HW227318   3.805   4.394  17.722 -0.1655 -1.4881  5.6156
 5228SOL     OW27319   4.331   2.312   0.018 -0.3681 -0.7889  0.5512
 5228SOL    HW127320   4.347   2.312  17.672  0.1318 -1.9973  0.6448
 5228SOL    HW227321   4.414   2.340   0.058 -1.4048 -0.3289  2.3831
 5229SOL     OW27322   2.352   4.309  10.813  0.5141 -0.2593 -0.4329
 5229SOL    HW127323   2.362   4.320  10.908  0.7875  0.5093 -0.5492
 5229SOL    HW227324   2.299   4.230  10.808  0.3373  0.0705 -3.9441
 5230SOL     OW27325   2.201   2.093  15.426 -0.4833  0.0091 -0.2902
 5230SOL    HW127326   2.207   2.017  15.485  0.0395  0.2230 -0.0675
 5230SOL    HW227327   2.231   2.058  15.342  2.7422  0.2448  0.7643
 5231SOL     OW27328   1.811   3.513   1.805 -0.1867 -0.0377  0.1680
 5231SOL    HW127329   1.807   3.596   1.758  0.6591 -0.1953 -0.1833
 5231SOL    HW227330   1.790   3.446   1.739  0.5370 -0.0783 -0.0179
 5232SOL     OW27331   0.919   3.763   5.300  0.0837 -0.1445 -0.1016
 5232SOL    HW127332   1.006   3.735   5.271  0.3663 -0.7055  1.2890
 5232SOL    HW227333   0.934   3.856   5.319 -0.0936  0.2250 -1.8033
 5233SOL     OW27334   2.247   4.164   2.187  0.3285 -0.4098 -0.1376
 5233SOL    HW127335   2.173   4.168   2.249  1.5765 -2.1232  1.4580
 5233SOL    HW227336   2.253   4.070   2.173 -1.6930 -0.7886  1.4872
 5234SOL     OW27337   3.785   1.831  13.131  0.4054 -0.0274  0.4594
 5234SOL    HW127338   3.763   1.904  13.073  1.7851  0.8720  1.0621
 5234SOL    HW227339   3.788   1.886  13.209 -1.1897 -0.6582  0.9617
 5235SOL     OW27340   0.261   0.406  15.833  0.1553  0.2665  0.0153
 5235SOL    HW127341   0.319   0.365  15.897 -0.3448 -0.4675 -0.0082
 5235SOL    HW227342   0.325   0.433  15.766 -0.2796  2.0657  0.3186
 5236SOL     OW27343   0.147   1.788  16.668  0.1914 -0.1455 -0.2090
 5236SOL    HW127344   0.173   1.729  16.738 -0.3469 -0.9806 -0.7153
 5236SOL    HW227345   0.143   1.720  16.601 -1.2417 -0.7725  0.5034
 5237SOL     OW27346   3.794   2.494   3.854 -0.4544  0.3007 -0.1783
 5237SOL    HW127347   3.815   2.587   3.847  1.2156 -0.0824 -0.1903
 5237SOL    HW227348   3.786   2.458   3.766 -1.5193 -3.8937  1.6280
 5238SOL     OW27349   2.026   0.218   6.169 -0.2947 -0.2179 -0.3354
 5238SOL    HW127350   2.001   0.254   6.255  0.0977  0.8505 -0.6655
 5238SOL    HW227351   1.940   0.194   6.135 -1.2555  1.8923  0.5854
 5239SOL     OW27352   1.196   3.147  11.001 -0.5703 -0.2833  0.4088
 5239SOL    HW127353   1.283   3.182  10.980  0.2312 -2.2028  0.5569
 5239SOL    HW227354   1.136   3.214  10.967  0.5453  1.0089  0.9598
 5240SOL     OW27355   4.156   3.968  10.498 -0.1908 -0.7862 -0.2950
 5240SOL    HW127356   4.077   3.998  10.452  0.7837  2.4825  0.1250
 5240SOL    HW227357   4.222   4.033  10.473 -0.0423 -1.0829 -0.6846
 5241SOL     OW27358   1.130   4.603  15.122  0.3452  0.4790 -0.3483
 5241SOL    HW127359   1.077   4.653  15.060 -1.0234  1.6654  1.7507
 5241SOL    HW227360   1.170   4.546  15.057 -2.6079 -2.4271  0.4198
 5242SOL     OW27361   2.470   1.991  12.124 -0.0372  0.1828 -0.0059
 5242SOL    HW127362   2.435   2.080  12.114 -0.5948  0.0032  0.3048
 5242SOL    HW227363   2.547   2.017  12.175 -1.4490  1.6551  1.3854
 5243SOL     OW27364   2.632   0.225   4.463 -0.3040  0.3210  0.6143
 5243SOL    HW127365   2.716   0.223   4.509  0.4167  0.0045 -0.7148
 5243SOL    HW227366   2.643   0.314   4.429 -0.7760  0.0580 -0.2231
 5244SOL     OW27367   1.787   3.751   3.853 -0.4923  0.4419  0.1902
 5244SOL    HW127368   1.835   3.676   3.817 -0.9513  0.0416  0.4075
 5244SOL    HW227369   1.715   3.705   3.897  0.0072 -1.1602 -0.6800
 5245SOL     OW27370   0.398   4.529  11.867 -0.3374 -0.7127 -0.1707
 5245SOL    HW127371   0.422   4.445  11.827  1.1201 -0.1281 -0.5220
 5245SOL    HW227372   0.473   4.584  11.848 -1.3164 -0.0947 -2.2329
 5246SOL     OW27373   2.590   0.690  10.507  0.1714 -0.2474  0.2751
 5246SOL    HW127374   2.680   0.699  10.478 -0.1065  1.6074 -0.0259
 5246SOL    HW227375   2.544   0.767  10.472 -0.2804 -0.8299 -0.4187
 5247SOL     OW27376   2.102   2.946   2.653  0.2020  0.2447  0.2190
 5247SOL    HW127377   2.182   2.898   2.630  1.2796  1.6045  1.1494
 5247SOL    HW227378   2.130   3.036   2.639  1.8338  0.3111  3.8928
 5248SOL     OW27379   2.434   0.728   4.986 -0.2143  0.3432  0.1499
 5248SOL    HW127380   2.404   0.657   5.044  1.4064 -0.9360 -0.5820
 5248SOL    HW227381   2.449   0.801   5.045  2.9667 -0.5428  0.4095
 5249SOL     OW27382   3.925   0.190   4.842 -0.1022 -0.4387  0.0465
 5249SOL    HW127383   3.865   0.207   4.770 -2.1042  0.3403  1.9002
 5249SOL    HW227384   3.991   0.259   4.830 -1.0388  0.1054 -1.9299
 5250SOL     OW27385   3.911   4.219   8.924  0.4100  0.1720  0.6030
 5250SOL    HW127386   3.850   4.255   8.859  1.4047  1.1907  0.2474
 5250SOL    HW227387   3.863   4.230   9.006  1.2071 -1.4091  1.2861
 5251SOL     OW27388   2.260   4.261   6.090  0.4573  0.1706 -0.1940
 5251SOL    HW127389   2.355   4.252   6.097  0.6118  1.7149 -0.1893
 5251SOL    HW227390   2.244   4.349   6.125 -0.9306 -0.1633 -0.0017
 5252SOL     OW27391   0.061   4.155   8.729  0.0256 -0.0496 -0.1022
 5252SOL    HW127392   0.135   4.175   8.787 -0.0716  2.0306 -0.7015
 5252SOL    HW227393   0.112   4.146   8.649  1.6751  2.3606  0.6889
 5253SOL     OW27394   4.213   0.946  14.021  0.6097  0.0171 -0.0431
 5253SOL    HW127395   4.157   1.005  13.971  1.1609 -1.0867 -1.9501
 5253SOL    HW227396   4.214   0.985  14.109 -1.2014  1.1044 -0.5128
 5254SOL     OW27397   4.472   0.258   2.147  0.2130  0.0615  0.0951
 5254SOL    HW127398   4.507   0.207   2.221  0.5035 -1.0906 -0.8293
 5254SOL    HW227399   4.552   0.287   2.103  0.4382 -0.3434  0.2338
 5255SOL     OW27400   3.528   3.538   1.756 -0.4939  0.1084 -0.4003
 5255SOL    HW127401   3.533   3.580   1.842 -0.9423 -1.8929  0.5827
 5255SOL    HW227402   3.499   3.618   1.711  2.1082  0.6632 -1.1257
 5256SOL     OW27403   0.078   3.616   0.579  0.6341  0.0084  0.0157
 5256SOL    HW127404   4.722   3.603   0.597  0.9858 -2.1255  0.3958
 5256SOL    HW227405   0.111   3.545   0.635  0.9258  1.8573  2.1683
 5257SOL     OW27406   0.340   1.105   8.000  0.1332 -0.1830  0.1157
 5257SOL    HW127407   0.412   1.041   7.998  2.8179  2.6627  4.0710
 5257SOL    HW227408   0.290   1.075   8.076 -1.4164 -0.1143 -0.8773
 5258SOL     OW27409   4.733   1.298   8.621 -0.1568 -0.0564  0.2099
 5258SOL    HW127410   0.032   1.327   8.705  0.2951  0.2761 -0.1039
 5258SOL    HW227411   4.678   1.373   8.597  0.5208 -0.1943 -1.7143
 5259SOL     OW27412   0.882   2.771  15.280  0.0670 -0.1527 -0.1183
 5259SOL    HW127413   0.812   2.815  15.329 -1.0665 -1.0030 -0.9964
 5259SOL    HW227414   0.943   2.745  15.350 -0.8335 -0.5360  0.5337
 5260SOL     OW27415   1.746   4.498   3.816 -0.0358  0.3351  0.0656
 5260SOL    HW127416   1.657   4.530   3.800 -0.9759 -3.4480 -2.4074
 5260SOL    HW227417   1.760   4.527   3.906 -1.8169 -1.0321  0.7812
 5261SOL     OW27418   0.341   3.489   6.867 -0.5413 -0.4196 -0.4873
 5261SOL    HW127419   0.386   3.545   6.803 -0.9593  2.1705  1.4938
 5261SOL    HW227420   0.412   3.455   6.920 -0.7439  1.6841  1.1338
 5262SOL     OW27421   1.028   2.621  15.918 -0.0184  0.0625 -0.0510
 5262SOL    HW127422   1.064   2.585  16.000  0.1938  1.8199  0.6288
 5262SOL    HW227423   1.095   2.690  15.916  1.4014 -1.2887  0.1065
 5263SOL     OW27424   1.378   0.767   6.451  0.2867  0.1258 -0.3261
 5263SOL    HW127425   1.292   0.802   6.428  1.1299  1.3000 -1.6371
 5263SOL    HW227426   1.396   0.776   6.544  0.3408  1.2834 -0.4525
 5264SOL     OW27427   1.977   1.928   8.008  0.2416  0.2157  0.0075
 5264SOL    HW127428   1.917   1.988   7.963  1.2157  0.1558 -1.3860
 5264SOL    HW227429   1.939   1.929   8.095 -1.0602  0.7273 -0.5715
 5265SOL     OW27430   3.751   3.475   7.897 -0.2455  0.4215 -0.1560
 5265SOL    HW127431   3.660   3.483   7.924  0.2810 -2.1984  2.4198
 5265SOL    HW227432   3.773   3.567   7.904 -1.0200  0.3268  3.4970
 5266SOL     OW27433   4.295   1.549  16.340 -0.1610  0.5961 -0.3771
 5266SOL    HW127434   4.252   1.593  16.414  0.4242  2.0084 -0.8774
 5266SOL    HW227435   4.276   1.460  16.368  1.0515  0.4793  0.0512
 5267SOL     OW27436   0.687   4.195  11.437  0.3300 -0.0774  0.0080
 5267SOL    HW127437   0.605   4.236  11.409  1.1752 -0.3354 -2.8849
 5267SOL    HW227438   0.659   4.104  11.427 -0.7785  0.1705  0.8586
 5268SOL     OW27439   2.206   2.909   8.008 -0.1264  0.6684 -0.1700
 5268SOL    HW127440   2.164   2.956   7.936 -1.1152 -1.5706 -1.0831
 5268SOL    HW227441   2.258   2.974   8.056  1.2101 -1.4003  1.1912
 5269SOL     OW27442   1.743   2.050   5.804 -0.0342  0.1937 -0.3888
 5269SOL    HW127443   1.651   2.075   5.803  0.5011  2.1021 -0.9779
 5269SOL    HW227444   1.760   2.022   5.894 -2.6888  1.7034  0.5413
 5270SOL     OW27445   3.537   4.116   9.115  0.2693 -0.5934 -0.0894
 5270SOL    HW127446   3.444   4.121   9.136  0.4084  0.9668  0.1591
 5270SOL    HW227447   3.530   4.100   9.021 -0.2773  0.7035 -0.2638
 5271SOL     OW27448   0.658   3.920   4.246 -0.8254  0.0949 -0.1382
 5271SOL    HW127449   0.587   3.957   4.299  0.0216 -1.3300  2.0285
 5271SOL    HW227450   0.705   4.002   4.230  0.6844 -1.3151 -2.8174
 5272SOL     OW27451   1.322   1.772   4.416  0.3108  0.1161 -0.1933
 5272SOL    HW127452   1.375   1.844   4.380  1.0073 -0.9413 -1.3204
 5272SOL    HW227453   1.332   1.712   4.342  2.5364  0.5333 -0.2528
 5273SOL     OW27454   2.434   1.404   4.576 -0.2664 -0.4123 -0.1117
 5273SOL    HW127455   2.375   1.373   4.645  0.8849 -0.7248  0.7473
 5273SOL    HW227456   2.518   1.391   4.621 -0.2602  0.6092  0.1644
 5274SOL     OW27457   1.970   0.964   5.548  0.1065  0.0355  1.1514
 5274SOL    HW127458   1.961   1.001   5.636 -0.1393  0.6416  0.8668
 5274SOL    HW227459   2.020   0.882   5.558 -0.1165 -0.2079  0.2349
 5275SOL     OW27460   2.003   0.567   6.342 -0.2266  0.2733 -0.1259
 5275SOL    HW127461   1.973   0.477   6.353  0.2797  0.0107 -0.8935
 5275SOL    HW227462   1.938   0.614   6.291  2.4762  3.5161 -0.6096
 5276SOL     OW27463   2.047   0.933   2.006 -0.4662  0.0316  0.2211
 5276SOL    HW127464   1.972   0.881   2.034  0.2043 -1.0969 -0.1183
 5276SOL    HW227465   2.068   0.976   2.089  0.3434  0.3865 -0.1676
 5277SOL     OW27466   1.743   3.105  10.070  0.3737  0.0961 -0.3401
 5277SOL    HW127467   1.717   3.098  10.162 -0.9220 -0.6145 -0.7662
 5277SOL    HW227468   1.680   3.054  10.019  0.0604 -0.3398  0.4908
 5278SOL     OW27469   3.350   2.817  10.727 -0.0171 -0.3888  0.3059
 5278SOL    HW127470   3.383   2.893  10.679 -0.5373 -1.1793 -1.2818
 5278SOL    HW227471   3.384   2.740  10.682  3.4519  1.2230  0.1357
 5279SOL     OW27472   0.558   1.337   7.768 -0.3456  0.0586  0.0447
 5279SOL    HW127473   0.535   1.377   7.684  2.8067 -0.7230 -1.1768
 5279SOL    HW227474   0.558   1.242   7.754 -0.6538  0.5452 -3.1777
 5280SOL     OW27475   3.013   2.637   2.414  0.0200 -0.2894  0.3505
 5280SOL    HW127476   2.969   2.552   2.413  1.1508 -0.8582 -1.9707
 5280SOL    HW227477   3.104   2.609   2.414 -0.2210 -1.0790 -1.3496
 5281SOL     OW27478   4.004   1.415   4.168  0.2991 -0.1261 -0.4559
 5281SOL    HW127479   3.991   1.443   4.077  1.5071 -0.3079 -0.6758
 5281SOL    HW227480   3.925   1.445   4.214  1.0902 -0.2153  0.9442
 5282SOL     OW27481   1.089   0.655   7.403 -0.2549 -0.4331 -0.1282
 5282SOL    HW127482   1.039   0.689   7.478 -1.4445 -1.8414 -0.2637
 5282SOL    HW227483   1.112   0.570   7.440  0.2710 -0.4754 -0.5528
 5283SOL     OW27484   2.829   4.542   8.571  0.2784  0.5759  0.4635
 5283SOL    HW127485   2.855   4.453   8.597 -1.0843 -0.1062 -0.4824
 5283SOL    HW227486   2.893   4.594   8.619  0.4539  0.2189  0.6152
 5284SOL     OW27487   1.077   2.243   7.009 -0.4284  0.4657 -0.0388
 5284SOL    HW127488   1.007   2.191   6.970 -1.9007  1.4682  1.2404
 5284SOL    HW227489   1.075   2.318   6.949 -2.5568  1.3174  1.0949
 5285SOL     OW27490   4.016   1.466   3.673 -0.2404  0.1815 -0.5321
 5285SOL    HW127491   3.978   1.554   3.675  2.9285  1.5511 -0.4524
 5285SOL    HW227492   3.939   1.426   3.633 -0.9831  0.9046  0.1729
 5286SOL     OW27493   4.403   1.847   3.482  0.0519 -0.4968  0.6117
 5286SOL    HW127494   4.484   1.884   3.447 -0.7876  0.6818 -0.0776
 5286SOL    HW227495   4.376   1.791   3.409  1.3082 -0.0283 -0.2142
 5287SOL     OW27496   1.981   3.587   5.797 -0.6416 -0.1201  0.4506
 5287SOL    HW127497   1.985   3.549   5.884  0.2018 -1.7866 -0.3190
 5287SOL    HW227498   1.890   3.574   5.770 -0.4342 -1.6500  0.4863
 5288SOL     OW27499   0.918   2.543  10.816  0.4768  0.6445  0.2255
 5288SOL    HW127500   0.931   2.497  10.733  1.0960 -0.6509  1.0276
 5288SOL    HW227501   1.009   2.568  10.832  0.3594 -0.7595  3.1743
 5289SOL     OW27502   2.836   1.396   5.496 -0.0979  0.1282  0.1600
 5289SOL    HW127503   2.779   1.362   5.566  1.3737 -1.5631  0.5281
 5289SOL    HW227504   2.918   1.387   5.543  0.2958  1.1827 -0.3205
 5290SOL     OW27505   1.535   1.287  16.793  0.7046 -0.8956 -0.2999
 5290SOL    HW127506   1.609   1.227  16.790 -0.8067 -2.7740  0.1666
 5290SOL    HW227507   1.463   1.231  16.821 -0.5230  1.4353  1.2072
 5291SOL     OW27508   3.775   1.400   5.201  0.0882 -0.1323  0.0492
 5291SOL    HW127509   3.712   1.328   5.203 -0.2636  0.1588 -0.7074
 5291SOL    HW227510   3.833   1.372   5.130 -0.0783 -0.1260 -0.0887
 5292SOL     OW27511   1.070   2.317   9.854 -0.3064  0.7279 -0.1478
 5292SOL    HW127512   1.095   2.344   9.942 -1.1157 -0.0977  0.3303
 5292SOL    HW227513   1.159   2.311   9.818  0.1426  1.2574  0.8955
 5293SOL     OW27514   1.711   3.263   9.175  0.3039  0.3627  0.7496
 5293SOL    HW127515   1.754   3.269   9.260  0.1804  1.6221  0.7207
 5293SOL    HW227516   1.620   3.278   9.199 -0.2532  1.1861 -1.8810
 5294SOL     OW27517   2.628   1.304   5.049  0.5633  0.6582 -0.3244
 5294SOL    HW127518   2.669   1.257   5.122  1.0198 -1.7635 -2.1234
 5294SOL    HW227519   2.643   1.393   5.081 -0.4152  0.7160 -0.0306
 5295SOL     OW27520   2.751   3.437   9.072 -0.0973 -0.4675 -0.0457
 5295SOL    HW127521   2.830   3.399   9.110  1.0718  1.3630 -0.6564
 5295SOL    HW227522   2.783   3.477   8.992 -0.7104 -0.7548 -0.4363
 5296SOL     OW27523   2.603   1.200  10.091 -0.2464 -0.4448 -0.3710
 5296SOL    HW127524   2.566   1.116  10.117  0.3762 -0.9899 -1.2428
 5296SOL    HW227525   2.571   1.215  10.002  1.2743 -0.2537 -0.8974
 5297SOL     OW27526   3.152   3.921   5.220 -0.3771  0.1603  0.0028
 5297SOL    HW127527   3.115   3.834   5.204 -1.0544  0.5189 -0.4034
 5297SOL    HW227528   3.106   3.942   5.301  0.2080 -0.5724  0.5103
 5298SOL     OW27529   0.045   2.371   2.817  0.1753 -0.4975 -0.0700
 5298SOL    HW127530   0.101   2.330   2.883  0.6640  1.2129  0.6002
 5298SOL    HW227531   0.025   2.310   2.747 -2.7294  1.1902 -0.7280
 5299SOL     OW27532   3.282   0.158   1.281  0.8664  0.4301 -0.6888
 5299SOL    HW127533   3.339   0.199   1.345 -0.3916  0.3860  0.4665
 5299SOL    HW227534   3.207   0.143   1.339  2.7418 -0.4112  1.5263
 5300SOL     OW27535   4.350   4.155   3.770 -0.1062  0.1344  0.2612
 5300SOL    HW127536   4.417   4.086   3.767 -1.1571 -0.8822  0.3763
 5300SOL    HW227537   4.325   4.156   3.863 -1.7493  0.2801 -0.1991
 5301SOL     OW27538   4.434   2.715  12.573  0.3035 -0.5454  0.0401
 5301SOL    HW127539   4.471   2.670  12.649 -0.1707  0.1087  0.6466
 5301SOL    HW227540   4.475   2.667  12.501  0.1348 -2.1564  1.0097
 5302SOL     OW27541   0.740   2.438  15.048 -0.2945  0.0946  0.1933
 5302SOL    HW127542   0.815   2.497  15.040  0.5507 -1.1020 -0.6851
 5302SOL    HW227543   0.701   2.445  14.961 -0.3507  0.2334  0.2300
 5303SOL     OW27544   4.313   2.400   5.212 -0.7506  0.1719 -0.1518
 5303SOL    HW127545   4.233   2.430   5.256  0.3290  1.9541  0.5628
 5303SOL    HW227546   4.324   2.476   5.155  1.7497  0.0647  0.2289
 5304SOL     OW27547   1.149   0.808   4.408  0.8003 -0.2622 -0.1101
 5304SOL    HW127548   1.159   0.865   4.484  0.6237  2.0580 -1.8544
 5304SOL    HW227549   1.060   0.830   4.382  0.5592  1.9472  2.7023
 5305SOL     OW27550   3.385   1.269   2.064 -0.1850  0.4197  0.0224
 5305SOL    HW127551   3.334   1.268   2.145 -0.8430  2.7946 -0.3664
 5305SOL    HW227552   3.339   1.197   2.021  0.7535 -1.1747  1.7093
 5306SOL     OW27553   4.093   3.199   8.573  0.0212  0.7628 -0.2351
 5306SOL    HW127554   4.144   3.148   8.635 -0.2060  2.2816  1.1878
 5306SOL    HW227555   4.151   3.221   8.500  0.8738  0.6743  0.4191
 5307SOL     OW27556   1.667   0.521   0.955  0.0682 -0.2758  0.0167
 5307SOL    HW127557   1.677   0.465   1.032 -0.8115  1.2566  1.2519
 5307SOL    HW227558   1.711   0.599   0.988 -0.4459  0.6235 -1.4308
 5308SOL     OW27559   4.582   2.750   7.006 -0.0048  0.0177 -0.2177
 5308SOL    HW127560   4.657   2.761   6.947  1.1425  0.0326  1.2513
 5308SOL    HW227561   4.539   2.671   6.970  1.2378 -1.7999  2.2974
 5309SOL     OW27562   3.878   2.473   7.082 -0.4681 -0.3427 -0.0470
 5309SOL    HW127563   3.904   2.565   7.087 -0.9431 -0.1251 -1.5143
 5309SOL    HW227564   3.961   2.427   7.073 -0.4100 -0.7724  2.7588
 5310SOL     OW27565   2.422   3.833   3.986 -0.5699 -0.4004  0.0962
 5310SOL    HW127566   2.453   3.784   3.910  1.4477 -0.0700  0.6932
 5310SOL    HW227567   2.429   3.767   4.055 -0.7448 -0.7705 -0.2453
 5311SOL     OW27568   2.739   1.956   7.948 -0.2868 -0.2410 -0.2020
 5311SOL    HW127569   2.710   1.963   7.857  1.1118  0.2450 -0.6151
 5311SOL    HW227570   2.658   1.984   7.992 -0.7992 -0.7245 -0.8431
 5312SOL     OW27571   3.130   0.981   7.194  0.3233  0.0231 -0.3859
 5312SOL    HW127572   3.109   1.010   7.282 -0.3902 -1.8979  0.0692
 5312SOL    HW227573   3.040   0.970   7.164 -0.2300  0.9631  0.9438
 5313SOL     OW27574   1.852   0.116   5.708 -0.5230  0.2164  0.3496
 5313SOL    HW127575   1.778   0.107   5.648 -0.9650 -1.8839  1.1785
 5313SOL    HW227576   1.816   0.069   5.784 -3.4664  0.7478 -0.7136
 5314SOL     OW27577   0.445   1.271   4.921  0.0463  0.0559 -0.2441
 5314SOL    HW127578   0.495   1.341   4.880  0.5229 -0.5923 -0.7769
 5314SOL    HW227579   0.475   1.191   4.878  2.0885  0.8931 -0.3655
 5315SOL     OW27580   0.786   2.752  13.803  0.5290 -0.6474 -0.2443
 5315SOL    HW127581   0.775   2.658  13.819  0.6556 -0.3220  1.7803
 5315SOL    HW227582   0.713   2.792  13.850  0.6181 -0.3289 -0.3747
 5316SOL     OW27583   2.595   4.370   8.746 -0.5422  0.1924  0.0463
 5316SOL    HW127584   2.518   4.356   8.691 -1.0708  1.2767  0.5105
 5316SOL    HW227585   2.590   4.464   8.767 -1.3459  0.9360 -3.4430
 5317SOL     OW27586   1.746   0.072   3.192  0.2556 -0.1210 -0.1816
 5317SOL    HW127587   1.839   0.051   3.204  0.0804 -0.4294  0.6234
 5317SOL    HW227588   1.737   0.116   3.108 -0.8963  0.3401  0.1862
 5318SOL     OW27589   2.504   1.560   6.041 -0.0071  0.2374 -0.0062
 5318SOL    HW127590   2.492   1.475   6.085  0.9564 -0.1966 -0.5765
 5318SOL    HW227591   2.599   1.574   6.041  0.3516 -2.1671 -0.6936
 5319SOL     OW27592   0.810   4.231  12.817  0.0399 -0.1963  0.6363
 5319SOL    HW127593   0.834   4.158  12.874  1.7665  0.5876  0.9038
 5319SOL    HW227594   0.858   4.210  12.737  0.0213 -0.9538  0.8253
 5320SOL     OW27595   4.564   3.011   6.633 -0.3212  0.2140  0.3549
 5320SOL    HW127596   4.484   2.959   6.635 -0.3102  0.3367  2.9226
 5320SOL    HW227597   4.630   2.957   6.589  1.1518  2.6600 -0.4641
 5321SOL     OW27598   1.023   0.674  13.921  0.7205 -0.1902  0.0449
 5321SOL    HW127599   1.052   0.597  13.971 -0.6622 -0.4992  0.3814
 5321SOL    HW227600   0.931   0.650  13.913 -0.1051  2.5741  1.0132
 5322SOL     OW27601   1.151   2.120  11.622  0.0857 -0.4951  0.4560
 5322SOL    HW127602   1.061   2.107  11.592 -0.2449 -1.4089  1.8245
 5322SOL    HW227603   1.202   2.047  11.587  0.5244  0.1507 -0.2315
 5323SOL     OW27604   4.487   3.898   0.312 -0.4521  0.1503 -0.2879
 5323SOL    HW127605   4.544   3.964   0.352 -1.3471 -0.3038  1.7382
 5323SOL    HW227606   4.438   3.954   0.251 -0.4160 -0.3672 -0.7936
 5324SOL     OW27607   2.325   4.162   9.170 -0.1321  0.2089 -0.1662
 5324SOL    HW127608   2.338   4.160   9.265 -0.2251 -0.2935 -0.1665
 5324SOL    HW227609   2.309   4.071   9.148 -1.2725 -0.0586  1.7025
 5325SOL     OW27610   1.937   0.203   6.880 -0.5560 -0.3418 -0.4882
 5325SOL    HW127611   1.895   0.263   6.818  0.2489  0.6241 -0.1086
 5325SOL    HW227612   1.891   0.230   6.959  1.4491  1.7607 -0.0351
 5326SOL     OW27613   0.909   3.195   0.692 -0.2669 -0.0896 -0.6568
 5326SOL    HW127614   1.004   3.207   0.685 -0.2866  0.9299  0.7911
 5326SOL    HW227615   0.900   3.145   0.611  1.2938  2.3487 -2.3334
 5327SOL     OW27616   3.883   3.506   4.780  0.6747 -0.0242 -0.3762
 5327SOL    HW127617   3.816   3.565   4.746 -0.3227  0.1751  1.9109
 5327SOL    HW227618   3.909   3.557   4.857  0.1638 -2.4394  1.3811
 5328SOL     OW27619   3.497   0.622   6.624  0.4694  0.1368  0.5025
 5328SOL    HW127620   3.459   0.709   6.631 -0.4205 -0.1632 -0.6444
 5328SOL    HW227621   3.436   0.575   6.568  0.5856 -0.2605  0.7076
 5329SOL     OW27622   0.116   3.368   7.719  0.1222 -0.3066  0.0234
 5329SOL    HW127623   0.156   3.454   7.735 -0.4180  0.0044 -0.2914
 5329SOL    HW227624   0.199   3.321   7.724  0.0759 -0.6015 -1.7994
 5330SOL     OW27625   3.783   1.874   4.721  0.4062  0.1408  1.0690
 5330SOL    HW127626   3.723   1.873   4.796  0.3555 -0.5426  1.0149
 5330SOL    HW227627   3.826   1.959   4.728  0.2585  0.3081 -0.0741
 5331SOL     OW27628   0.997   0.913  11.181  0.7723  0.8855 -0.2807
 5331SOL    HW127629   0.927   0.978  11.194 -0.0282 -0.0603  0.0738
 5331SOL    HW227630   1.037   0.944  11.099 -0.5080 -0.9562 -1.6017
 5332SOL     OW27631   1.129   0.647   3.345  0.3693  0.1692 -0.2941
 5332SOL    HW127632   1.204   0.587   3.337  0.6045  0.5366 -0.8778
 5332SOL    HW227633   1.160   0.715   3.285 -2.8154  1.5910 -0.2877
 5333SOL     OW27634   2.791   4.281   6.336  0.2877  0.0530 -0.1686
 5333SOL    HW127635   2.744   4.357   6.368  1.2131  0.4909  0.1617
 5333SOL    HW227636   2.832   4.246   6.415  0.2093 -0.0132 -0.1570
 5334SOL     OW27637   3.456   4.406  13.958 -0.1447  0.0538  0.6239
 5334SOL    HW127638   3.536   4.446  13.922  0.2883 -1.8712 -0.6025
 5334SOL    HW227639   3.398   4.475  13.988  0.9362  1.8329 -1.3549
 5335SOL     OW27640   3.922   3.204  11.391  0.3339 -0.5092  0.0965
 5335SOL    HW127641   3.843   3.255  11.375  0.3514 -0.3046  0.6692
 5335SOL    HW227642   3.900   3.121  11.348  1.0294 -1.6839  2.0127
 5336SOL     OW27643   4.465   3.838   8.278 -0.3110  0.5374  0.4076
 5336SOL    HW127644   4.519   3.870   8.205  0.3625  1.4063  1.2759
 5336SOL    HW227645   4.515   3.881   8.348  1.0893 -0.6054  0.1038
 5337SOL     OW27646   4.688   2.721   3.688  0.2836  0.4983 -0.1247
 5337SOL    HW127647   4.635   2.682   3.758  2.2478 -0.5335  0.7866
 5337SOL    HW227648   0.035   2.699   3.726  0.2365 -0.6835 -0.6889
 5338SOL     OW27649   3.910   1.388   7.631 -0.1240  0.3966  0.5263
 5338SOL    HW127650   3.964   1.347   7.698  0.5332  1.0307  0.3868
 5338SOL    HW227651   3.892   1.311   7.579  0.3472  0.7090 -0.0945
 5339SOL     OW27652   2.365   3.106   4.604  0.1554 -0.0884  0.1113
 5339SOL    HW127653   2.294   3.043   4.616  0.4620 -0.3056  0.7941
 5339SOL    HW227654   2.382   3.114   4.698 -1.1971  0.2982  0.3247
 5340SOL     OW27655   1.928   0.126   4.685 -0.0080 -0.6497  0.0794
 5340SOL    HW127656   2.014   0.102   4.719 -0.3619 -2.3969 -0.2399
 5340SOL    HW227657   1.951   0.142   4.593  0.6132  2.4416  0.7873
 5341SOL     OW27658   0.008   3.117   4.934 -0.4232  0.2930 -1.0227
 5341SOL    HW127659   4.694   3.048   4.975 -1.6063  0.6665 -1.8747
 5341SOL    HW227660   0.097   3.084   4.927 -0.2608 -0.2150  3.2265
 5342SOL     OW27661   2.818   4.187   4.669  0.0220 -0.2174 -0.5431
 5342SOL    HW127662   2.794   4.237   4.590  2.1085  0.0888 -0.9879
 5342SOL    HW227663   2.912   4.173   4.656  0.4082  0.0872  1.8883
 5343SOL     OW27664   1.748   1.694   3.716 -0.2876  0.0308  0.7853
 5343SOL    HW127665   1.713   1.707   3.628  0.3982  1.8565  0.7759
 5343SOL    HW227666   1.694   1.633   3.765 -0.6390 -1.0444 -0.9414
 5344SOL     OW27667   2.616   2.389   3.291  0.3596  0.8219  0.2216
 5344SOL    HW127668   2.662   2.471   3.304  1.1585  0.2106  1.2367
 5344SOL    HW227669   2.530   2.399   3.249  1.0147  2.5139 -0.6910
 5345SOL     OW27670   0.685   1.495   8.412  0.0657  0.6317  0.4820
 5345SOL    HW127671   0.610   1.495   8.471 -0.5301 -0.0793 -0.2611
 5345SOL    HW227672   0.711   1.587   8.411 -1.5740  1.0818 -0.8965
 5346SOL     OW27673   4.594   3.809   2.412 -0.4525  0.1931  0.2181
 5346SOL    HW127674   4.583   3.715   2.400  1.1258  0.2967 -2.0415
 5346SOL    HW227675   4.558   3.840   2.329  1.8578 -0.8339 -1.1580
 5347SOL     OW27676   2.186   2.631  10.523 -0.4862  0.2420 -0.3649
 5347SOL    HW127677   2.113   2.687  10.548 -2.4355 -2.6435  0.4419
 5347SOL    HW227678   2.146   2.545  10.513 -2.3184  0.9417  0.9613
 5348SOL     OW27679   1.485   1.608   2.251 -0.2644 -0.0685  0.3957
 5348SOL    HW127680   1.413   1.629   2.192 -0.7887  0.0861  1.0885
 5348SOL    HW227681   1.498   1.521   2.214  0.1348  1.5273 -3.1822
 5349SOL     OW27682   0.722   0.824   2.299  0.4364 -0.0332 -0.0675
 5349SOL    HW127683   0.627   0.839   2.306 -0.1225 -2.8219 -1.8140
 5349SOL    HW227684   0.741   0.784   2.384  2.0685 -1.5789 -1.1699
 5350SOL     OW27685   2.795   2.771   8.648 -0.4779 -0.7547 -0.5050
 5350SOL    HW127686   2.771   2.735   8.733  1.7416  1.0239  0.8822
 5350SOL    HW227687   2.873   2.721   8.622  0.2211  0.6775 -1.1512
 5351SOL     OW27688   0.985   1.243   8.523  0.2792  0.1280 -0.0128
 5351SOL    HW127689   1.054   1.188   8.486  0.5544 -0.9327  2.0591
 5351SOL    HW227690   0.928   1.176   8.560 -1.2919  1.8360  0.6984
 5352SOL     OW27691   4.709   3.905   4.638  0.2789 -0.8376  0.0219
 5352SOL    HW127692   0.014   3.983   4.601  1.1648 -1.9018 -1.1880
 5352SOL    HW227693   4.687   3.854   4.560 -1.3070  0.6618 -0.4972
 5353SOL     OW27694   2.137   4.676   4.310 -0.0134 -0.1254 -0.0049
 5353SOL    HW127695   2.192   4.607   4.346 -2.4107 -2.2647 -0.3867
 5353SOL    HW227696   2.087   4.633   4.241 -0.4526  0.2559  0.0694
 5354SOL     OW27697   2.972   3.056   8.779  0.6600 -0.0580  0.1513
 5354SOL    HW127698   3.048   3.102   8.816  1.4754 -0.2663 -1.2641
 5354SOL    HW227699   2.985   3.061   8.685  0.1075  1.7958  0.1808
 5355SOL     OW27700   2.017   3.527  15.005 -0.1099 -0.1478  0.1348
 5355SOL    HW127701   2.079   3.533  14.933 -0.1256  0.1566  0.1468
 5355SOL    HW227702   2.036   3.611  15.047 -0.5351  1.0582 -2.1219
 5356SOL     OW27703   0.666   2.158   9.531 -0.2251 -0.5385  0.4487
 5356SOL    HW127704   0.757   2.143   9.509  0.1128  0.9041  0.8644
 5356SOL    HW227705   0.654   2.137   9.624  5.2831 -1.2328  1.0100
 5357SOL     OW27706   4.588   4.519   6.910  0.1109 -0.6906  0.1658
 5357SOL    HW127707   4.532   4.451   6.873 -0.2618  0.8971 -2.1762
 5357SOL    HW227708   4.608   4.494   7.001  0.4687  0.3261  0.3675
 5358SOL     OW27709   4.006   2.441  12.202 -0.4981 -0.1847 -0.0694
 5358SOL    HW127710   3.972   2.496  12.272 -1.8148 -0.0461 -0.8077
 5358SOL    HW227711   4.001   2.503  12.129  0.3975  0.6226  0.5602
 5359SOL     OW27712   0.013   1.739   3.503  0.2974 -0.0255  0.2163
 5359SOL    HW127713   0.087   1.794   3.530  0.7787 -1.0341  0.9892
 5359SOL    HW227714   4.699   1.809   3.464  2.3537  0.5561 -1.4389
 5360SOL     OW27715   2.317   1.040   0.278  0.3547  0.4695  0.2610
 5360SOL    HW127716   2.408   1.029   0.305  0.3007  0.2488  0.3600
 5360SOL    HW227717   2.286   0.949   0.279 -2.9456  1.6016 -0.2794
 5361SOL     OW27718   1.527   3.627   9.671 -0.2515  1.2998  0.0359
 5361SOL    HW127719   1.595   3.691   9.690  0.7333  0.8853 -2.1017
 5361SOL    HW227720   1.579   3.570   9.614  0.0769  1.1634  0.4765
 5362SOL     OW27721   4.707   4.195   6.949  0.3101  0.2144 -0.0616
 5362SOL    HW127722   4.692   4.101   6.935 -1.7764  0.2154  2.4099
 5362SOL    HW227723   4.656   4.236   7.018  0.8770  0.2493  0.3417
 5363SOL     OW27724   0.660   2.716   5.683  0.3817  0.0718 -0.4217
 5363SOL    HW127725   0.682   2.675   5.767  2.7355  0.5786 -0.7910
 5363SOL    HW227726   0.740   2.769   5.680  0.2834  0.3956  2.0339
 5364SOL     OW27727   1.201   3.882  17.311  0.0405  1.0189 -0.8247
 5364SOL    HW127728   1.223   3.885  17.218  0.4888 -0.5860 -0.7678
 5364SOL    HW227729   1.245   3.804  17.344 -1.5076  0.5405  0.0906
 5365SOL     OW27730   1.378   1.432   6.318  0.1803 -0.1832  0.6475
 5365SOL    HW127731   1.300   1.444   6.265  0.0161  1.3652  1.2361
 5365SOL    HW227732   1.403   1.523   6.335 -1.1719  0.3645 -0.2836
 5366SOL     OW27733   1.280   1.900   5.128  0.0604  0.3712  0.1559
 5366SOL    HW127734   1.212   1.919   5.192 -0.2866 -2.6409  0.6806
 5366SOL    HW227735   1.233   1.868   5.052 -1.0337 -2.3572  1.9828
 5367SOL     OW27736   1.094   0.257   5.473 -0.0792 -0.7140  0.2668
 5367SOL    HW127737   1.188   0.243   5.482 -0.0327 -0.3440  0.3713
 5367SOL    HW227738   1.056   0.185   5.523  1.9389 -1.3036  0.9202
 5368SOL     OW27739   3.832   0.419   0.144 -0.5143  0.1281 -0.2568
 5368SOL    HW127740   3.802   0.496   0.192 -0.2658 -0.2403  0.4826
 5368SOL    HW227741   3.757   0.415   0.083 -1.7930 -2.9296  1.5160
 5369SOL     OW27742   2.509   1.681   8.979 -0.0773 -0.5054 -0.0713
 5369SOL    HW127743   2.465   1.673   9.063 -0.5534 -1.4939 -0.4110
 5369SOL    HW227744   2.490   1.773   8.963 -2.8139 -0.9124  0.8729
 5370SOL     OW27745   1.457   4.015   1.950 -0.4013 -0.0358  0.1248
 5370SOL    HW127746   1.517   4.043   1.881 -1.0316  0.8218 -0.0704
 5370SOL    HW227747   1.513   3.983   2.020  3.5654  2.7588 -1.8026
 5371SOL     OW27748   2.270   1.028   7.488 -0.5084  0.0949 -0.0699
 5371SOL    HW127749   2.205   1.081   7.441 -1.4969 -0.0086  1.1930
 5371SOL    HW227750   2.246   0.938   7.465 -0.6275 -0.1018  0.8459
 5372SOL     OW27751   0.168   0.783   3.948  0.1138  0.1316 -0.5852
 5372SOL    HW127752   0.136   0.853   3.892 -1.4688 -0.2619 -0.1686
 5372SOL    HW227753   0.225   0.821   4.015  0.6090 -0.3325 -0.7415
 5373SOL     OW27754   2.840   3.789   9.133 -0.4068  0.5263  0.0877
 5373SOL    HW127755   2.872   3.879   9.135  0.2103  0.3368 -1.0022
 5373SOL    HW227756   2.849   3.760   9.224  0.3089  0.2408 -0.0687
 5374SOL     OW27757   2.277   4.309  14.403 -0.2826 -0.5432  0.5352
 5374SOL    HW127758   2.282   4.387  14.348 -2.7843 -0.2400  0.7405
 5374SOL    HW227759   2.218   4.351  14.465 -0.5878 -0.4755  0.2022
 5375SOL     OW27760   2.262   3.591  15.224 -0.7830  0.7838  0.2966
 5375SOL    HW127761   2.307   3.523  15.275  2.1899  0.9592 -2.1350
 5375SOL    HW227762   2.222   3.530  15.163 -1.2025  0.7192  0.6311
 5376SOL     OW27763   0.080   3.086   5.666 -0.0904 -0.3170 -0.2754
 5376SOL    HW127764   0.122   3.040   5.739 -0.1812 -0.3215 -0.2257
 5376SOL    HW227765   0.017   3.135   5.719 -1.3854 -1.1761 -1.0163
 5377SOL     OW27766   0.785   4.555   3.440 -0.5125 -0.0017  0.7738
 5377SOL    HW127767   0.707   4.519   3.398  0.3746  0.2573 -1.0476
 5377SOL    HW227768   0.850   4.505   3.392 -1.4919 -0.7219  0.2043
 5378SOL     OW27769   3.134   2.573   3.431  0.2222  0.7385 -0.1121
 5378SOL    HW127770   3.094   2.634   3.493  0.2176  0.8642 -0.2381
 5378SOL    HW227771   3.062   2.532   3.383  0.7401 -1.5279  1.1045
 5379SOL     OW27772   2.643   1.381   2.150  0.3975 -0.7189  0.3254
 5379SOL    HW127773   2.557   1.383   2.193 -0.8533 -1.5446 -2.1286
 5379SOL    HW227774   2.638   1.429   2.067  1.7240 -0.4614  0.4025
 5380SOL     OW27775   4.472   1.443   7.654 -0.2737 -0.2344  0.0894
 5380SOL    HW127776   4.398   1.383   7.663  0.1478 -1.0553 -1.8703
 5380SOL    HW227777   4.548   1.390   7.679 -0.8766 -0.3737  1.6684
 5381SOL     OW27778   0.659   0.447  17.141 -0.4120  0.3074  0.2303
 5381SOL    HW127779   0.634   0.539  17.142  2.0066  0.9630 -0.5183
 5381SOL    HW227780   0.589   0.407  17.193  0.0730 -1.3816 -0.3999
 5382SOL     OW27781   0.663   0.807  15.152 -0.3673 -0.4702  0.3607
 5382SOL    HW127782   0.623   0.853  15.079 -0.7382 -0.1482  0.7645
 5382SOL    HW227783   0.714   0.874  15.199 -0.5887 -0.8104  1.0865
 5383SOL     OW27784   2.358   0.940   3.458 -0.1745 -0.2108 -0.3056
 5383SOL    HW127785   2.378   0.937   3.364 -0.0088 -2.5837 -0.1959
 5383SOL    HW227786   2.354   1.034   3.475  1.1416 -0.7063  2.8448
 5384SOL     OW27787   0.008   2.977   3.665  0.2047  0.3677 -0.0050
 5384SOL    HW127788   4.703   3.011   3.587 -1.8583 -1.7295  0.2173
 5384SOL    HW227789   4.706   2.890   3.675 -1.4551  0.9532 -1.4978
 5385SOL     OW27790   1.174   3.589  15.322 -0.5793 -0.4987  0.2707
 5385SOL    HW127791   1.082   3.613  15.308 -0.4122  0.8198  1.4594
 5385SOL    HW227792   1.186   3.638  15.404  0.5909 -0.7669  0.2603
 5386SOL     OW27793   4.200   0.211   6.683 -0.0468 -0.0190  0.2962
 5386SOL    HW127794   4.280   0.221   6.735 -1.7174  0.3126  2.7475
 5386SOL    HW227795   4.164   0.299   6.689 -0.6040 -0.0786 -2.2224
 5387SOL     OW27796   0.292   0.942   4.696 -0.4397 -0.1164 -0.0578
 5387SOL    HW127797   0.381   0.973   4.714  0.7298 -1.6222 -3.2337
 5387SOL    HW227798   0.258   1.015   4.645  2.2502  1.2206  0.1045
 5388SOL     OW27799   4.286   0.692  11.973  0.0701  0.3259 -0.1777
 5388SOL    HW127800   4.368   0.645  11.987  0.4801  0.9417 -0.4947
 5388SOL    HW227801   4.244   0.643  12.044  1.2037  0.1827  0.3855
 5389SOL     OW27802   4.266   0.634   3.564 -0.4795  0.0176  0.0952
 5389SOL    HW127803   4.201   0.642   3.494  1.9677 -0.0727 -2.1665
 5389SOL    HW227804   4.240   0.549   3.601  1.9143 -1.2194 -1.0316
 5390SOL     OW27805   2.872   0.281   4.798 -0.8268 -0.2084  0.7500
 5390SOL    HW127806   2.869   0.290   4.703  1.7148  0.1321  0.7024
 5390SOL    HW227807   2.909   0.364   4.828 -1.1030  0.0670  0.3351
 5391SOL     OW27808   4.698   2.431   7.956  0.0858  0.3279 -0.4918
 5391SOL    HW127809   4.728   2.362   8.015  0.4823  1.0873  0.1915
 5391SOL    HW227810   0.009   2.408   7.877 -1.5222 -1.4371 -0.9612
 5392SOL     OW27811   3.265   1.980  16.479 -0.0868 -0.3022  0.4868
 5392SOL    HW127812   3.232   1.926  16.551  0.8802 -0.6384  0.6784
 5392SOL    HW227813   3.341   1.931  16.445 -1.5261 -2.4914  0.3879
 5393SOL     OW27814   3.605   1.085   9.093  0.4892  0.4968 -0.8590
 5393SOL    HW127815   3.639   1.009   9.141 -2.0777 -0.8773 -1.1930
 5393SOL    HW227816   3.580   1.141   9.166  2.3045 -1.3637  1.2059
 5394SOL     OW27817   4.293   0.278   0.083 -0.1208  0.1361 -0.0632
 5394SOL    HW127818   4.251   0.300  17.748 -1.1240  0.0699  0.4246
 5394SOL    HW227819   4.228   0.305   0.148  0.1744 -1.2760  0.7999
 5395SOL     OW27820   0.458   2.322   9.416  0.4409 -0.0920 -0.1727
 5395SOL    HW127821   0.547   2.300   9.444  0.6342 -0.4490 -1.0924
 5395SOL    HW227822   0.445   2.411   9.448 -0.6739  0.5293 -2.3904
 5396SOL     OW27823   1.559   4.722   8.632  0.1994 -0.2885  0.3805
 5396SOL    HW127824   1.644   0.026   8.621 -0.1428  0.3451  0.1173
 5396SOL    HW227825   1.491   0.037   8.589  1.9813  1.6382 -0.0856
 5397SOL     OW27826   0.174   3.538   3.059  0.5701 -0.1547  0.7154
 5397SOL    HW127827   0.182   3.584   3.143 -0.4505  0.0469  0.7088
 5397SOL    HW227828   0.132   3.457   3.089  2.5051 -0.4184  2.7009
 5398SOL     OW27829   3.553   1.147   6.288 -0.4053  0.2041  0.1935
 5398SOL    HW127830   3.535   1.073   6.230 -0.2253  0.9546 -0.8123
 5398SOL    HW227831   3.510   1.115   6.367 -0.7217  0.8785  0.3009
 5399SOL     OW27832   1.378   4.383   4.012  0.3849  0.3565 -0.1049
 5399SOL    HW127833   1.346   4.375   4.102  0.9687  0.5318  0.1193
 5399SOL    HW227834   1.465   4.346   4.027 -0.6456 -1.9095  0.3059
 5400SOL     OW27835   1.037   2.326   7.532  0.0996 -0.2169  0.0281
 5400SOL    HW127836   1.041   2.322   7.437 -1.8404  0.1285 -0.0676
 5400SOL    HW227837   0.947   2.307   7.557  0.2949  0.3705  1.1653
 5401SOL     OW27838   0.537   4.213  14.884 -0.1681 -0.0947  0.1285
 5401SOL    HW127839   0.536   4.215  14.788 -1.5737 -2.1944  0.0888
 5401SOL    HW227840   0.567   4.302  14.899  0.5318 -0.1794 -0.7275
 5402SOL     OW27841   1.356   0.227  16.590 -0.1301  0.2565 -0.0901
 5402SOL    HW127842   1.350   0.139  16.627  0.4782  0.4557  0.4873
 5402SOL    HW227843   1.301   0.220  16.512 -0.7657  1.3606  0.2409
 5403SOL     OW27844   2.784   0.432  15.429  0.5983  0.3786  0.2929
 5403SOL    HW127845   2.751   0.343  15.436 -0.7155  0.8745  0.3885
 5403SOL    HW227846   2.768   0.452  15.337  0.2916  1.3228  0.5462
 5404SOL     OW27847   0.996   3.603   4.066  0.4068  0.3625 -0.2010
 5404SOL    HW127848   0.941   3.561   4.000 -0.0567 -0.8080  0.9353
 5404SOL    HW227849   0.929   3.631   4.128  1.3917  0.0426  1.0084
 5405SOL     OW27850   1.743   2.979   2.811 -0.3095  0.3697  0.8635
 5405SOL    HW127851   1.693   2.959   2.890  0.1415 -1.2615  0.7380
 5405SOL    HW227852   1.740   2.899   2.758  1.6150  0.2665  0.9007
 5406SOL     OW27853   1.700   0.813  16.148 -0.3734  0.1322  0.2429
 5406SOL    HW127854   1.707   0.724  16.181 -0.3799 -0.3073 -0.9315
 5406SOL    HW227855   1.709   0.875  16.221  1.4280 -1.2055  1.1488
 5407SOL     OW27856   3.196   1.356   7.173 -0.3290  0.2377  0.2784
 5407SOL    HW127857   3.200   1.449   7.154 -1.3770  0.2123 -0.0739
 5407SOL    HW227858   3.140   1.350   7.251 -1.0197  1.9657 -0.0972
 5408SOL     OW27859   3.125   3.061   2.507 -0.0584 -0.9242 -1.1131
 5408SOL    HW127860   3.112   3.111   2.588 -1.0185 -0.8342 -1.3241
 5408SOL    HW227861   3.047   3.008   2.491  1.5725 -2.8870 -2.5869
 5409SOL     OW27862   1.419   1.995   5.461  0.2562  0.5816  0.1241
 5409SOL    HW127863   1.364   1.985   5.539  0.7911  1.5337  0.6221
 5409SOL    HW227864   1.509   1.996   5.493  1.3321 -0.4412 -2.7949
 5410SOL     OW27865   1.140   4.507   4.983  0.8576  0.1427  0.0736
 5410SOL    HW127866   1.204   4.503   4.912 -0.2937  0.9299 -1.0088
 5410SOL    HW227867   1.195   4.482   5.058  1.3448  0.3350 -0.2162
 5411SOL     OW27868   1.711   4.398   8.476  0.2084 -0.1473 -0.0582
 5411SOL    HW127869   1.667   4.399   8.560  0.5140 -0.0699  0.1009
 5411SOL    HW227870   1.753   4.484   8.476 -1.5225  0.6790  0.4885
 5412SOL     OW27871   3.189   2.283   2.944 -0.0464 -0.1096 -0.1088
 5412SOL    HW127872   3.274   2.243   2.923 -1.7095 -2.1750 -2.8468
 5412SOL    HW227873   3.131   2.216   2.908  1.7203 -1.8088  0.1640
 5413SOL     OW27874   0.144   3.607  16.430  0.1011  0.9053 -0.2401
 5413SOL    HW127875   0.211   3.660  16.474  1.0655  0.4288 -1.1455
 5413SOL    HW227876   0.107   3.564  16.507 -0.1342  0.7193 -0.4594
 5414SOL     OW27877   0.398   0.936   3.258  0.2218 -0.6317  0.0719
 5414SOL    HW127878   0.494   0.927   3.261  0.3209  0.4960  0.4127
 5414SOL    HW227879   0.367   0.937   3.349 -0.2269 -0.2172 -0.0903
 5415SOL     OW27880   2.120   0.157   5.735 -0.3284  0.0443  0.0473
 5415SOL    HW127881   2.150   0.068   5.749  0.2862 -0.2775 -3.2526
 5415SOL    HW227882   2.024   0.150   5.732 -0.3362  0.4937 -0.8322
 5416SOL     OW27883   2.154   2.746  10.249 -0.5429 -0.1185 -0.2861
 5416SOL    HW127884   2.233   2.718  10.203 -0.8525 -2.7381  0.7825
 5416SOL    HW227885   2.175   2.704  10.333 -3.3250 -0.5924  0.1798
 5417SOL     OW27886   2.465   2.774  13.151 -0.3778  0.4773  0.3214
 5417SOL    HW127887   2.556   2.800  13.137 -0.2660 -0.5884 -0.9217
 5417SOL    HW227888   2.424   2.829  13.084  0.7335  0.0295 -0.7116
 5418SOL     OW27889   1.457   3.063   8.839  0.4417 -0.5161 -0.1553
 5418SOL    HW127890   1.446   3.157   8.854  1.1948 -0.5920  0.8537
 5418SOL    HW227891   1.446   3.024   8.925  1.6570  0.5517  0.4978
 5419SOL     OW27892   0.240   3.206   5.336  0.2651  0.4977  0.4442
 5419SOL    HW127893   0.298   3.140   5.298 -0.2890  0.2534  0.0328
 5419SOL    HW227894   0.266   3.198   5.428  0.0153 -0.8223  0.3968
 5420SOL     OW27895   3.463   2.914  13.418 -0.0097  0.4467  0.1271
 5420SOL    HW127896   3.457   2.957  13.504  0.1767 -0.2187  0.4748
 5420SOL    HW227897   3.384   2.947  13.374  0.4478 -1.4387 -2.0962
 5421SOL     OW27898   3.474   0.480   5.763 -0.2816  0.1723  0.9809
 5421SOL    HW127899   3.506   0.414   5.702 -1.5291  0.8544 -0.4092
 5421SOL    HW227900   3.414   0.430   5.817 -0.8987 -1.5767 -1.3271
 5422SOL     OW27901   2.236   0.747   2.752  0.2715  0.1775 -0.3237
 5422SOL    HW127902   2.202   0.658   2.742 -0.3548  0.1844  1.7507
 5422SOL    HW227903   2.316   0.745   2.698 -1.0935  1.3157 -2.3970
 5423SOL     OW27904   1.005   4.471   2.071  0.6211  0.7717 -0.1275
 5423SOL    HW127905   0.935   4.537   2.069 -1.3688 -1.3627 -0.9926
 5423SOL    HW227906   1.087   4.517   2.054  0.6722  0.7855  0.1578
 5424SOL     OW27907   0.315   1.940   8.373  0.1982  0.5000 -0.4820
 5424SOL    HW127908   0.223   1.914   8.370 -0.1427  1.4489  1.3886
 5424SOL    HW227909   0.349   1.875   8.312  1.5445  0.8065 -0.0462
 5425SOL     OW27910   2.428   4.638   3.184 -0.5412 -0.5028 -0.1415
 5425SOL    HW127911   2.516   4.649   3.149 -1.1293  1.6769 -0.9825
 5425SOL    HW227912   2.438   4.600   3.271 -0.7097 -1.8541 -0.7165
 5426SOL     OW27913   4.595   4.331   7.178  0.0795  0.0973 -0.3622
 5426SOL    HW127914   4.556   4.294   7.257 -1.9484  0.3938 -1.2247
 5426SOL    HW227915   4.633   4.411   7.214  2.2596 -2.4952  3.0509
 5427SOL     OW27916   3.056   2.085   2.780 -0.0783 -0.6895 -0.6872
 5427SOL    HW127917   3.014   2.023   2.720 -0.4036  0.5987 -1.7994
 5427SOL    HW227918   3.078   2.037   2.860 -1.1002 -1.8360 -1.1046
 5428SOL     OW27919   0.241   2.156   9.352  0.1503 -0.3248  0.1269
 5428SOL    HW127920   0.227   2.188   9.263 -0.7006 -0.7167  0.1262
 5428SOL    HW227921   0.323   2.204   9.364 -1.5866  2.6846 -0.0969
 5429SOL     OW27922   0.908   1.912   6.503 -0.0445 -0.5758 -0.0943
 5429SOL    HW127923   0.880   1.843   6.443  0.4550 -3.0101  2.4467
 5429SOL    HW227924   0.868   1.989   6.464  0.4206 -0.3416 -0.1143
 5430SOL     OW27925   1.428   3.844   8.256 -0.6491  0.0023 -0.1035
 5430SOL    HW127926   1.375   3.920   8.279 -0.4586  0.3362 -0.7731
 5430SOL    HW227927   1.502   3.894   8.223  0.6873 -0.2178  2.5923
 5431SOL     OW27928   0.740   0.768  10.096 -0.3782  0.4717 -0.8793
 5431SOL    HW127929   0.772   0.718  10.171  1.3285 -0.3241 -2.1471
 5431SOL    HW227930   0.649   0.789  10.117 -0.2917 -0.1338  0.1137
 5432SOL     OW27931   3.954   1.578   2.259 -0.2746 -0.3678 -0.2485
 5432SOL    HW127932   4.012   1.581   2.335 -1.0881  1.2043  0.2973
 5432SOL    HW227933   3.863   1.579   2.290  0.1631  2.1573  0.9272
 5433SOL     OW27934   0.262   2.949   4.697 -0.2216 -0.5286  0.0180
 5433SOL    HW127935   0.216   2.866   4.685  0.9532 -0.7099 -3.2020
 5433SOL    HW227936   0.295   2.950   4.787 -1.7695 -1.5201  0.6055
 5434SOL     OW27937   3.061   3.130  10.890  0.5304 -0.4943 -0.6972
 5434SOL    HW127938   3.114   3.052  10.873  1.2993 -0.0023 -0.5308
 5434SOL    HW227939   3.068   3.139  10.985  0.0821  0.5465 -0.7660
 5435SOL     OW27940   3.446   0.473  12.427 -0.5964 -0.3718  0.3188
 5435SOL    HW127941   3.523   0.420  12.447  0.5606  2.1342  2.5464
 5435SOL    HW227942   3.408   0.427  12.352 -1.3376  3.1044 -1.4247
 5436SOL     OW27943   1.842   0.530   8.218 -0.1371  0.1340  0.1620
 5436SOL    HW127944   1.774   0.467   8.193  1.2741 -0.4013 -2.4127
 5436SOL    HW227945   1.920   0.479   8.194 -0.5920 -0.0948 -0.8380
 5437SOL     OW27946   3.483   0.932   2.094  0.3626 -0.1505 -0.5005
 5437SOL    HW127947   3.458   0.847   2.057  1.7983 -0.4717 -0.7478
 5437SOL    HW227948   3.415   0.996   2.073 -0.9388 -1.3166  0.2032
 5438SOL     OW27949   4.182   3.865   8.224  0.0991  0.4320  0.1755
 5438SOL    HW127950   4.130   3.860   8.305  0.6276  1.7313  0.5893
 5438SOL    HW227951   4.261   3.825   8.258  0.7603 -0.8193 -2.8973
 5439SOL     OW27952   1.539   3.895   3.217  0.8468  0.0795  0.4290
 5439SOL    HW127953   1.521   3.874   3.309 -3.6553 -0.4718 -0.6007
 5439SOL    HW227954   1.614   3.841   3.190  0.6911 -0.6421  1.4455
 5440SOL     OW27955   3.142   0.548   7.786  0.2830  0.3528 -0.3371
 5440SOL    HW127956   3.202   0.489   7.831 -0.2324  0.3042  0.2794
 5440SOL    HW227957   3.140   0.622   7.847 -1.2289  0.0531 -0.0171
 5441SOL     OW27958   2.901   3.961   7.041 -0.0381  0.3494  0.1644
 5441SOL    HW127959   2.829   4.020   7.063 -1.3678 -0.6709 -1.5263
 5441SOL    HW227960   2.911   3.914   7.123 -1.0083  0.6252  0.4356
 5442SOL     OW27961   3.406   3.204   7.885 -0.1775  0.4191  0.0718
 5442SOL    HW127962   3.399   3.161   7.970  0.7574 -1.2631 -0.7029
 5442SOL    HW227963   3.381   3.136   7.822  2.2798 -0.1901 -0.2458
 5443SOL     OW27964   2.114   1.196   2.852  0.2843  0.1382 -0.3968
 5443SOL    HW127965   2.083   1.184   2.941 -1.7928  0.1927 -1.1051
 5443SOL    HW227966   2.057   1.130   2.813  1.9270 -1.6640  0.2895
 5444SOL     OW27967   1.333   3.824   6.050  0.2208 -0.1685 -0.1929
 5444SOL    HW127968   1.320   3.744   6.101 -0.1851  0.0231  0.0067
 5444SOL    HW227969   1.276   3.804   5.975  0.3289 -2.8782  0.4788
 5445SOL     OW27970   3.602   3.370   2.539 -0.1054  0.4534 -0.7019
 5445SOL    HW127971   3.562   3.448   2.577  0.4618  0.1862  0.4601
 5445SOL    HW227972   3.531   3.306   2.541  0.4585 -0.1800 -1.0940
 5446SOL     OW27973   4.461   0.616  16.765 -0.7106  0.2712 -0.4674
 5446SOL    HW127974   4.538   0.673  16.763 -1.1110  0.8505  0.5124
 5446SOL    HW227975   4.396   0.677  16.731  0.5865  1.8964 -0.0132
 5447SOL     OW27976   3.129   0.835  10.892 -0.0373  0.2924  0.0514
 5447SOL    HW127977   3.099   0.924  10.908  0.3745  0.1258  1.7004
 5447SOL    HW227978   3.105   0.798  10.977 -2.3651  0.5202 -0.5094
 5448SOL     OW27979   3.462   1.674   6.080  0.2423 -0.5104 -0.2355
 5448SOL    HW127980   3.503   1.696   6.164 -1.3349  2.0118 -0.1125
 5448SOL    HW227981   3.532   1.664   6.016 -0.4343 -0.8043 -0.9194
 5449SOL     OW27982   1.173   1.704   9.464  0.0846  0.3606 -0.1583
 5449SOL    HW127983   1.206   1.627   9.419 -3.1217 -0.8729 -0.4436
 5449SOL    HW227984   1.115   1.751   9.404  0.3623  0.5593 -0.2653
 5450SOL     OW27985   0.024   3.739   8.069  0.1992 -0.7787 -0.3217
 5450SOL    HW127986   0.028   3.775   7.980 -0.1435  2.2983  0.9149
 5450SOL    HW227987   0.018   3.817   8.124 -2.3204 -0.2846 -1.2626
 5451SOL     OW27988   2.765   0.454   7.754  0.0061 -0.0549  0.5861
 5451SOL    HW127989   2.837   0.406   7.796 -0.6417 -1.1202  0.4867
 5451SOL    HW227990   2.695   0.388   7.758  1.1570 -1.3624 -1.0854
 5452SOL     OW27991   2.766   1.016   7.709  0.5127  0.3554 -0.1173
 5452SOL    HW127992   2.723   1.067   7.777 -0.5430  0.0400 -0.5543
 5452SOL    HW227993   2.816   0.954   7.763 -0.1745  0.8966  1.1234
 5453SOL     OW27994   3.048   2.515   3.830 -0.9717  0.1405 -0.2334
 5453SOL    HW127995   3.128   2.556   3.863 -0.4808  0.0266 -1.2775
 5453SOL    HW227996   2.989   2.516   3.906 -0.5184 -1.0933  0.1388
 5454SOL     OW27997   3.077   2.956   4.960  0.1950  0.3087  0.3309
 5454SOL    HW127998   3.021   2.891   4.918  0.6684  0.2848 -0.2637
 5454SOL    HW227999   3.134   2.980   4.887  0.6522  0.7551  0.8377
 5455SOL     OW28000   2.083   3.541  17.046 -0.0085  0.1571  0.2625
 5455SOL    HW128001   2.025   3.472  17.080  0.9133 -0.0679  1.3896
 5455SOL    HW228002   2.106   3.579  17.131 -0.2839  1.5195 -0.2734
 5456SOL     OW28003   0.125   0.007   3.964  0.3100  0.1105 -0.2645
 5456SOL    HW128004   0.197   0.005   3.901  0.0495  0.4343 -0.5762
 5456SOL    HW228005   0.103   0.101   3.966 -1.9123 -0.3517 -2.3690
 5457SOL     OW28006   0.536   3.047   3.378 -0.1337 -0.0272 -0.3135
 5457SOL    HW128007   0.549   3.017   3.468  1.8481  0.9088 -0.2862
 5457SOL    HW228008   0.619   3.049   3.331  0.2068 -0.9081  0.2534
 5458SOL     OW28009   1.064   0.031   9.385  0.1460 -0.6627 -0.6034
 5458SOL    HW128010   1.067   4.699   9.320  1.3497 -0.0718 -1.1901
 5458SOL    HW228011   0.990   4.737   9.437  2.0321 -2.4478  0.9510
 5459SOL     OW28012   1.847   0.059   2.045  0.0112 -0.1295 -0.1285
 5459SOL    HW128013   1.763   0.067   2.090  0.2871 -0.3140  0.4202
 5459SOL    HW228014   1.877   0.148   2.063 -0.6417 -0.1154  0.8674
 5460SOL     OW28015   4.062   0.706   2.456  0.8830  0.1793  0.1576
 5460SOL    HW128016   4.145   0.661   2.469  2.2647  1.8245 -3.1679
 5460SOL    HW228017   4.008   0.630   2.433 -0.3012  0.6378  1.4051
 5461SOL     OW28018   0.545   0.178   5.866 -0.1677 -0.7431 -0.7117
 5461SOL    HW128019   0.523   0.266   5.898 -1.2227 -0.7996 -1.2689
 5461SOL    HW228020   0.628   0.171   5.912 -1.7079  2.8022  2.6338
 5462SOL     OW28021   2.378   2.016  13.816  0.4422 -0.5080  0.3667
 5462SOL    HW128022   2.439   2.058  13.877  2.4016 -0.3739 -1.6567
 5462SOL    HW228023   2.309   1.998  13.880 -0.4975  1.1992 -0.1639
 5463SOL     OW28024   3.331   2.651   2.565  0.1714  0.4853  0.2623
 5463SOL    HW128025   3.385   2.573   2.554 -0.8251 -0.1678  0.0247
 5463SOL    HW228026   3.336   2.663   2.660  0.7653  3.2081 -0.1158
 5464SOL     OW28027   1.928   1.487   3.948  0.0851  0.2890  0.1252
 5464SOL    HW128028   1.938   1.400   3.909 -1.2866  0.4604 -0.6488
 5464SOL    HW228029   2.017   1.508   3.976 -0.0670 -1.5597  1.9746
 5465SOL     OW28030   0.075   2.923   6.574 -0.0264  0.3186  0.1213
 5465SOL    HW128031   0.075   2.845   6.520  1.2681  2.5035 -3.0083
 5465SOL    HW228032   0.126   2.992   6.531  1.2133 -1.0840 -0.6372
 5466SOL     OW28033   2.284   1.934   5.606 -0.0716 -0.6405 -0.4471
 5466SOL    HW128034   2.234   2.014   5.623  0.0659  0.0097 -3.2520
 5466SOL    HW228035   2.226   1.873   5.651  0.3707  0.5813  1.8364
 5467SOL     OW28036   0.857   4.338   9.114 -0.0939 -0.0971 -0.1377
 5467SOL    HW128037   0.893   4.306   9.031 -2.3983  0.7037 -1.4409
 5467SOL    HW228038   0.822   4.259   9.157 -0.9308 -0.5587 -1.6708
 5468SOL     OW28039   3.974   4.580   8.211  0.0909  0.0787 -0.1269
 5468SOL    HW128040   4.033   4.591   8.286  0.3566 -0.6074 -0.2413
 5468SOL    HW228041   4.033   4.548   8.143 -0.6335  1.3177 -1.3228
 5469SOL     OW28042   4.673   3.493   8.169  0.5427  0.4246 -0.1586
 5469SOL    HW128043   0.003   3.426   8.178  0.2546  0.4762  2.2165
 5469SOL    HW228044   4.732   3.563   8.140 -0.2389  0.5603 -1.4140
 5470SOL     OW28045   1.787   2.176   7.633  0.0237  0.4443 -0.4437
 5470SOL    HW128046   1.857   2.198   7.571  1.6234 -2.5825  0.2876
 5470SOL    HW228047   1.723   2.238   7.597 -1.9293 -0.4204  1.5584
 5471SOL     OW28048   3.770   0.929   2.032  0.1266  0.1591 -0.0874
 5471SOL    HW128049   3.784   1.009   1.983  1.3902  0.5772  0.9604
 5471SOL    HW228050   3.676   0.947   2.037 -0.5363 -2.7369 -2.6220
 5472SOL     OW28051   4.550   0.260   6.564 -0.1587  0.2860  0.2658
 5472SOL    HW128052   4.486   0.278   6.632  0.4099  1.1724  0.5701
 5472SOL    HW228053   4.536   0.168   6.542  1.7737 -0.0173  0.2970
 5473SOL     OW28054   2.546   3.632   2.584  0.3482 -0.0855  0.3452
 5473SOL    HW128055   2.552   3.538   2.601 -0.7468 -0.4919 -1.6145
 5473SOL    HW228056   2.495   3.664   2.659  1.5825  0.2211  1.0527
 5474SOL     OW28057   3.213   2.376  17.455 -0.0257  0.5169  0.0819
 5474SOL    HW128058   3.216   2.444  17.522  2.2715 -2.5401  3.0468
 5474SOL    HW228059   3.180   2.298  17.501  3.9905 -0.6772  0.9654
 5475SOL     OW28060   4.494   4.659   4.069 -0.6665  0.0579 -0.4042
 5475SOL    HW128061   4.558   4.714   4.114 -0.6886 -2.4990  2.7503
 5475SOL    HW228062   4.543   4.631   3.992 -1.0517 -1.6189 -0.0364
 5476SOL     OW28063   4.332   2.117   7.604  0.2766 -0.3464  0.2074
 5476SOL    HW128064   4.409   2.075   7.565  0.4302  1.2858 -1.2150
 5476SOL    HW228065   4.274   2.109   7.528  1.2820 -1.9291 -0.3985
 5477SOL     OW28066   2.760   3.705  11.769 -0.2703  0.1558  0.9908
 5477SOL    HW128067   2.824   3.775  11.761 -0.2959 -0.0684 -1.2227
 5477SOL    HW228068   2.811   3.639  11.816  2.1509  1.2186 -0.1769
 5478SOL     OW28069   0.187   1.274   6.627  0.2143  0.2544 -0.1271
 5478SOL    HW128070   0.196   1.190   6.581  1.4063 -0.1598  0.8431
 5478SOL    HW228071   0.261   1.322   6.590  0.4635 -0.4458 -0.5551
 5479SOL     OW28072   4.500   3.781   1.761  0.1605 -0.3402 -0.1340
 5479SOL    HW128073   4.507   3.862   1.812  1.5730 -1.6078  1.7089
 5479SOL    HW228074   4.514   3.811   1.672  0.5490  1.1728  0.4451
 5480SOL     OW28075   0.643   3.925  15.999  0.1129 -0.2624  0.1278
 5480SOL    HW128076   0.713   3.913  16.063  1.3116 -0.8040 -1.2840
 5480SOL    HW228077   0.664   4.009  15.958  0.6498 -0.4547  0.0059
 5481SOL     OW28078   1.891   1.793   5.099 -0.4648 -0.1030  0.7263
 5481SOL    HW128079   1.966   1.831   5.146  0.4763 -1.2753  0.1660
 5481SOL    HW228080   1.822   1.850   5.133 -0.3820  1.9077 -2.5205
 5482SOL     OW28081   0.392   1.421   0.139 -0.4002 -0.2478  0.0381
 5482SOL    HW128082   0.345   1.404   0.220 -1.5176  0.1405 -0.5269
 5482SOL    HW228083   0.383   1.341   0.086  3.0109  0.1443 -1.1683
 5483SOL     OW28084   1.585   3.212   2.662  0.1919 -0.5512 -0.0471
 5483SOL    HW128085   1.512   3.151   2.655 -0.0313  0.0236 -2.8098
 5483SOL    HW228086   1.652   3.157   2.703 -0.1600 -1.7199 -1.0486
 5484SOL     OW28087   0.028   2.854   6.843  0.0425 -0.3132  0.0837
 5484SOL    HW128088   4.712   2.933   6.852 -0.1306 -0.4595  0.3355
 5484SOL    HW228089   0.058   2.874   6.754  0.7376  1.1807  0.6575
 5485SOL     OW28090   3.057   4.675   9.302  0.0435 -0.2584  0.7695
 5485SOL    HW128091   3.126   4.621   9.265 -0.7225 -1.3035  0.8688
 5485SOL    HW228092   2.987   4.646   9.244  0.2765 -0.4712  0.5957
 5486SOL     OW28093   0.098   1.980   4.596 -0.8861 -0.1114 -0.1006
 5486SOL    HW128094   0.078   2.000   4.688  1.4834  1.5102  0.0605
 5486SOL    HW228095   0.180   2.027   4.583 -1.2063  0.9476  1.7435
 5487SOL     OW28096   3.828   0.469   4.898  0.0925 -0.1482  0.3902
 5487SOL    HW128097   3.738   0.467   4.865  0.5371 -0.6709 -0.8130
 5487SOL    HW228098   3.885   0.485   4.823 -1.9328 -3.2362 -1.8329
 5488SOL     OW28099   1.176   3.411   4.158 -0.0432  0.4499  0.2186
 5488SOL    HW128100   1.119   3.339   4.185 -0.5399  0.9033  0.3836
 5488SOL    HW228101   1.109   3.479   4.147  0.7319  0.9335 -1.4626
 5489SOL     OW28102   3.609   4.150   2.590 -0.7371  0.2138 -0.2673
 5489SOL    HW128103   3.568   4.081   2.644 -1.9402  1.1194 -0.0047
 5489SOL    HW228104   3.694   4.163   2.631  0.3994 -1.4907 -2.1329
 5490SOL     OW28105   1.851   2.580  12.351 -0.1200 -0.2724 -0.2203
 5490SOL    HW128106   1.770   2.532  12.340 -0.3352 -0.1283  0.7279
 5490SOL    HW228107   1.831   2.653  12.291 -1.3867 -1.8618 -1.7260
 5491SOL     OW28108   0.424   4.178  15.128  0.2445  0.7979 -0.3549
 5491SOL    HW128109   0.447   4.086  15.136  1.8034  1.2339  0.3260
 5491SOL    HW228110   0.439   4.196  15.035 -1.0601  0.0619 -0.7066
 5492SOL     OW28111   1.369   0.820  13.823  0.4651 -0.4406  0.4448
 5492SOL    HW128112   1.303   0.768  13.777 -0.9485  2.1013 -0.3724
 5492SOL    HW228113   1.329   0.907  13.827  1.2244 -0.1639  2.4872
 5493SOL     OW28114   2.627   2.292   6.543  0.2533  0.2143 -0.4279
 5493SOL    HW128115   2.628   2.388   6.545 -1.2837  0.2007  0.4574
 5493SOL    HW228116   2.658   2.304   6.453  0.8520 -0.4782 -0.3186
 5494SOL     OW28117   0.673   0.675   7.820 -0.7440 -0.2250  0.4856
 5494SOL    HW128118   0.754   0.711   7.854 -1.8941  2.0324  0.8211
 5494SOL    HW228119   0.702   0.584   7.813 -2.7124 -0.8940  0.9815
 5495SOL     OW28120   4.655   1.852  15.396  0.2820 -0.4433  0.3908
 5495SOL    HW128121   4.653   1.932  15.447  1.4198  0.3330 -0.7887
 5495SOL    HW228122   4.595   1.867  15.322  1.6019  0.6051 -0.4521
 5496SOL     OW28123   0.369   4.170  17.545  0.1265 -0.1084  0.1868
 5496SOL    HW128124   0.431   4.128  17.604  1.2047 -1.3933 -1.8536
 5496SOL    HW228125   0.307   4.100  17.523  0.3882  0.3522 -1.9946
 5497SOL     OW28126   1.245   4.183  15.754  0.2649 -0.4852 -0.7921
 5497SOL    HW128127   1.212   4.197  15.843  0.2058  0.2600 -0.9318
 5497SOL    HW228128   1.211   4.262  15.712 -0.0977 -0.3666 -0.2783
 5498SOL     OW28129   2.454   2.925  12.311  0.7210  0.0302  0.3880
 5498SOL    HW128130   2.400   2.880  12.376 -1.1172  1.3182 -0.2712
 5498SOL    HW228131   2.509   2.851  12.284  0.4100  0.4551 -1.3754
 5499SOL     OW28132   1.381   3.034  17.454  0.1935 -0.1075  0.4408
 5499SOL    HW128133   1.353   3.008  17.366  0.1703 -1.4865  0.8581
 5499SOL    HW228134   1.315   3.102  17.471  0.3347  0.6789 -2.1204
 5500SOL     OW28135   1.196   0.137   8.882 -0.1278  0.0765 -0.1099
 5500SOL    HW128136   1.243   0.054   8.870 -1.9463 -0.8223 -0.8529
 5500SOL    HW228137   1.272   0.194   8.898  0.4660 -1.0516  1.1022
 5501SOL     OW28138   3.503   0.415   0.788 -0.2143  0.1878 -0.6415
 5501SOL    HW128139   3.454   0.348   0.741  1.1815 -0.4603 -1.1849
 5501SOL    HW228140   3.444   0.443   0.857  1.4459  0.5374  0.6483
 5502SOL     OW28141   0.990   3.511   8.498  0.1502  0.4170 -0.1932
 5502SOL    HW128142   1.043   3.580   8.459  2.0259  0.2906  2.1144
 5502SOL    HW228143   0.907   3.535   8.457  0.7625 -0.6049 -1.9864
 5503SOL     OW28144   0.881   2.578   3.396 -0.3344 -0.0084  0.4397
 5503SOL    HW128145   0.872   2.530   3.478 -2.3811 -3.2723 -1.6935
 5503SOL    HW228146   0.835   2.657   3.425 -1.1030 -0.2672 -0.0804
 5504SOL     OW28147   0.837   2.259   2.296 -0.0863 -0.2577 -0.0638
 5504SOL    HW128148   0.748   2.226   2.296 -0.9681  2.0835  2.2520
 5504SOL    HW228149   0.895   2.186   2.319  1.0652  0.7543  0.2825
 5505SOL     OW28150   0.013   4.051  14.882  0.1447  0.3329  0.4535
 5505SOL    HW128151   0.040   4.008  14.963  1.3505 -0.4903 -0.3868
 5505SOL    HW228152   0.083   4.115  14.875 -0.3497  0.7852 -0.3557
 5506SOL     OW28153   1.087   0.385  13.993 -0.0830  0.6790 -0.7862
 5506SOL    HW128154   1.162   0.334  14.023 -0.7330 -1.2659 -2.5008
 5506SOL    HW228155   1.017   0.320  13.999  0.2149  0.2611 -1.9579
 5507SOL     OW28156   2.434   2.621  14.593 -0.3222 -0.0812 -0.4274
 5507SOL    HW128157   2.529   2.633  14.595 -0.4325  0.9272 -0.9540
 5507SOL    HW228158   2.420   2.643  14.501 -3.7236  0.9418  0.2953
 5508SOL     OW28159   2.328   3.804   0.613  0.3919  0.2322  0.0347
 5508SOL    HW128160   2.317   3.773   0.703 -0.2089  0.8446  0.1747
 5508SOL    HW228161   2.417   3.838   0.614  0.5370 -0.2181  2.0845
 5509SOL     OW28162   2.094   2.346   1.637 -0.5504 -0.2883 -0.0531
 5509SOL    HW128163   2.120   2.287   1.567  0.4423 -0.2237  0.2572
 5509SOL    HW228164   2.044   2.281   1.686 -1.2411 -1.0354 -1.7712
 5510SOL     OW28165   2.484   0.723   9.667 -1.2646 -0.2413 -0.5244
 5510SOL    HW128166   2.506   0.782   9.595  0.4811  1.9089  1.7740
 5510SOL    HW228167   2.574   0.714   9.699 -1.1294 -0.3530 -0.9426
 5511SOL     OW28168   0.827   0.448   5.271  0.4083 -0.3788  1.0390
 5511SOL    HW128169   0.921   0.465   5.274  0.8812 -2.4768 -1.6584
 5511SOL    HW228170   0.830   0.360   5.235 -0.2737  0.2659 -0.6121
 5512SOL     OW28171   3.382   0.626   5.549  0.8711 -0.4028 -0.4436
 5512SOL    HW128172   3.454   0.686   5.531  0.7230 -0.5306 -1.4250
 5512SOL    HW228173   3.414   0.586   5.630 -0.5736 -0.0269  0.3183
 5513SOL     OW28174   1.968   3.145   6.168 -0.3995 -0.0736  0.1995
 5513SOL    HW128175   2.043   3.105   6.212 -0.1089  1.3800  1.0133
 5513SOL    HW228176   2.011   3.205   6.106  0.4945 -1.5422 -0.6338
 5514SOL     OW28177   2.929   4.557   7.484  0.2638  0.4164 -0.5023
 5514SOL    HW128178   2.909   4.576   7.576 -0.1732 -0.9062 -0.3269
 5514SOL    HW228179   2.896   4.469   7.467  1.5936 -0.1745 -0.0016
 5515SOL     OW28180   2.125   0.921  12.097  0.3937  0.0631  0.5674
 5515SOL    HW128181   2.036   0.890  12.117  0.8710 -0.6188  1.6348
 5515SOL    HW228182   2.170   0.874  12.168 -2.6780 -0.8075  1.9405
 5516SOL     OW28183   1.366   4.040   5.546  0.4458  0.2075 -0.6150
 5516SOL    HW128184   1.290   4.099   5.544 -0.1780 -0.6218 -1.0761
 5516SOL    HW228185   1.389   4.068   5.635 -0.6970 -1.0003  0.0622
 5517SOL     OW28186   0.813   2.987  13.035  0.6776  0.4130  0.4125
 5517SOL    HW128187   0.747   3.047  12.999  0.3100  0.4418  1.1485
 5517SOL    HW228188   0.755   2.915  13.061 -0.0812  0.4143 -1.2381
 5518SOL     OW28189   3.359   4.422   7.063  0.1522 -0.0775  0.1176
 5518SOL    HW128190   3.438   4.454   7.020  0.5019 -2.3125 -0.8711
 5518SOL    HW228191   3.375   4.328   7.061  2.1285  0.2592  0.1648
 5519SOL     OW28192   1.417   4.554  12.490  0.0625 -0.3024 -0.3482
 5519SOL    HW128193   1.412   4.498  12.568  1.6534 -0.1950 -0.1677
 5519SOL    HW228194   1.429   4.485  12.425 -0.1524 -0.3419 -0.3449
 5520SOL     OW28195   4.025   3.681   0.007  0.5214 -0.5397 -0.3336
 5520SOL    HW128196   3.974   3.632  17.690 -1.9041  2.2999 -0.5881
 5520SOL    HW228197   4.011   3.768  17.718 -0.0735  0.7681  2.9241
 5521SOL     OW28198   4.663   4.011   8.089  0.4276 -0.0584  0.0526
 5521SOL    HW128199   4.661   4.089   8.143 -2.2522  0.5772 -0.9452
 5521SOL    HW228200   0.008   4.027   8.042 -0.2198 -0.7112 -1.3312
 5522SOL     OW28201   3.327   1.263   5.059  0.1945  0.3781 -0.1082
 5522SOL    HW128202   3.373   1.296   5.137  1.1470 -3.0266  0.7707
 5522SOL    HW228203   3.398   1.236   5.001  0.4984  1.6732 -0.3407
 5523SOL     OW28204   1.218   1.542   6.996  0.2667 -0.3271 -0.1557
 5523SOL    HW128205   1.282   1.613   6.998 -1.5587  1.3504 -1.0881
 5523SOL    HW228206   1.251   1.490   7.069  1.5065  0.8110  0.0998
 5524SOL     OW28207   0.480   4.383  11.388  0.1762  0.3612  0.2567
 5524SOL    HW128208   0.395   4.392  11.344 -0.5717  0.1881  1.6830
 5524SOL    HW228209   0.531   4.464  11.386  0.5017  0.1485 -0.1769
 5525SOL     OW28210   4.209   3.710   0.564  0.1215 -0.1920  0.0205
 5525SOL    HW128211   4.281   3.686   0.505 -2.1149 -1.2038 -2.3091
 5525SOL    HW228212   4.147   3.747   0.501  0.6047 -0.0605 -0.3776
 5526SOL     OW28213   4.043   3.010   3.129  0.3779  0.0492 -0.6722
 5526SOL    HW128214   4.125   3.048   3.096  0.2756  1.3156  0.5491
 5526SOL    HW228215   4.050   2.979   3.219 -4.0729 -1.3733 -0.8306
 5527SOL     OW28216   2.304   0.591  13.432  0.0539  0.0335 -0.5883
 5527SOL    HW128217   2.216   0.570  13.464  1.1471 -1.2843  1.5117
 5527SOL    HW228218   2.356   0.553  13.503 -1.1343  1.2456  0.9338
 5528SOL     OW28219   0.813   3.230   9.609  0.4042  0.9015  0.0980
 5528SOL    HW128220   0.896   3.196   9.643  2.2072  1.9575 -3.2103
 5528SOL    HW228221   0.775   3.276   9.684 -0.9828 -1.6805  0.9832
 5529SOL     OW28222   3.325   4.547   7.332  0.3087  0.0944 -0.1555
 5529SOL    HW128223   3.231   4.552   7.315  0.1641  1.4048  1.0341
 5529SOL    HW228224   3.356   4.515   7.248  0.1129 -1.6096  0.4140
 5530SOL     OW28225   3.828   4.134   0.916 -0.2036 -0.1252  0.4892
 5530SOL    HW128226   3.803   4.114   0.826  1.8787  0.3231 -0.1940
 5530SOL    HW228227   3.839   4.228   0.904 -1.1514  0.2060  2.1836
 5531SOL     OW28228   0.668   0.154   3.167  0.0614  0.4609  0.1885
 5531SOL    HW128229   0.705   0.149   3.255  0.2638  1.1910  0.1512
 5531SOL    HW228230   0.579   0.131   3.193  0.5527  2.8903  4.0262
 5532SOL     OW28231   4.016   1.045  14.883 -0.0410  0.0501 -0.0738
 5532SOL    HW128232   3.951   1.077  14.820 -0.9872 -0.7820  0.4899
 5532SOL    HW228233   4.044   0.965  14.838  0.0716  0.6716 -1.1050
 5533SOL     OW28234   2.842   0.103   3.113  0.0496  0.1772  0.0701
 5533SOL    HW128235   2.772   0.158   3.081 -1.6143 -2.2878 -0.5499
 5533SOL    HW228236   2.807   0.014   3.109 -0.9040  0.6295 -1.2689
 5534SOL     OW28237   4.529   2.413   7.482  0.0129  0.1252  0.4659
 5534SOL    HW128238   4.514   2.505   7.460  1.3165 -0.2196 -1.9457
 5534SOL    HW228239   4.623   2.408   7.465 -0.4949  0.1643 -2.4702
 5535SOL     OW28240   0.002   0.077   6.894  0.2194  0.5776  0.5070
 5535SOL    HW128241   4.681   0.059   6.968  0.5603 -1.8163  0.1753
 5535SOL    HW228242   4.708   0.006   6.839  1.4542 -0.2225  0.8202
 5536SOL     OW28243   4.039   2.216   3.220  0.0881 -0.7723  0.0080
 5536SOL    HW128244   4.018   2.300   3.262  1.3645 -1.3324  1.7438
 5536SOL    HW228245   4.083   2.168   3.290  1.6194  0.4699 -0.0970
 5537SOL     OW28246   1.641   4.273   4.073  0.3864  0.1691 -0.2763
 5537SOL    HW128247   1.700   4.215   4.026 -2.6907 -2.4398 -0.9050
 5537SOL    HW228248   1.677   4.255   4.159 -2.5040  0.1702  0.9492
 5538SOL     OW28249   0.088   3.259   2.918  0.2270  0.5402 -0.4052
 5538SOL    HW128250   0.051   3.339   2.881 -1.5272  0.3982  1.0683
 5538SOL    HW228251   0.029   3.189   2.889  0.0609  1.5995 -2.6518
 5539SOL     OW28252   0.404   2.794   0.378  0.6672  0.5147  0.3416
 5539SOL    HW128253   0.333   2.831   0.430  0.8577  2.7800 -0.9794
 5539SOL    HW228254   0.411   2.866   0.316 -1.6162  1.8079  1.5835
 5540SOL     OW28255   4.292   0.394   1.827 -0.4068 -0.3318  0.0086
 5540SOL    HW128256   4.336   0.414   1.744 -1.6600 -1.0086 -0.8288
 5540SOL    HW228257   4.348   0.440   1.889  0.2390  0.6532 -1.3121
 5541SOL     OW28258   3.988   2.594  13.579  0.7704  0.4403 -0.5437
 5541SOL    HW128259   3.945   2.654  13.518  0.0121  2.6638  2.1868
 5541SOL    HW228260   4.034   2.659  13.633 -1.0297 -1.0147  2.7626
 5542SOL     OW28261   0.479   0.621  13.624  0.0618 -0.0581  0.3139
 5542SOL    HW128262   0.442   0.534  13.640 -0.3921  0.2085  0.7333
 5542SOL    HW228263   0.573   0.606  13.616 -0.3644 -1.7350 -1.5275
 5543SOL     OW28264   3.431   2.788   8.083  0.3910  0.0576  0.3612
 5543SOL    HW128265   3.437   2.777   7.988 -0.3669  0.9818  0.1987
 5543SOL    HW228266   3.338   2.769   8.096  0.6571 -1.5116 -0.0424
 5544SOL     OW28267   3.853   0.884   4.196 -0.1604 -0.0829  0.5181
 5544SOL    HW128268   3.779   0.932   4.159  1.3911  0.0829 -2.3383
 5544SOL    HW228269   3.863   0.909   4.288  0.4706 -0.1932  0.4744
 5545SOL     OW28270   2.147   2.338   8.823  0.3849  0.7559 -0.0238
 5545SOL    HW128271   2.144   2.331   8.727  0.9450  1.0508 -0.0667
 5545SOL    HW228272   2.055   2.356   8.837  0.7713  1.8468  1.0804
 5546SOL     OW28273   0.212   2.043   8.933  0.0647  0.1933 -0.6350
 5546SOL    HW128274   0.207   2.111   9.001 -2.2275 -1.3122  0.6856
 5546SOL    HW228275   0.144   2.080   8.875 -0.4131 -1.2062 -0.9525
 5547SOL     OW28276   2.267   3.327   6.248  0.1466  0.4462  0.0457
 5547SOL    HW128277   2.282   3.239   6.211 -1.6211 -0.4953  1.6066
 5547SOL    HW228278   2.353   3.328   6.291  0.7808  1.1857 -1.2290
 5548SOL     OW28279   3.164   0.894   4.981 -0.0281 -0.5319 -0.2167
 5548SOL    HW128280   3.075   0.918   4.956 -0.5633  0.6533  2.7848
 5548SOL    HW228281   3.200   0.851   4.903 -0.3170 -1.4372  0.1402
 5549SOL     OW28282   0.226   2.903   6.276 -0.1926 -0.1128  0.4506
 5549SOL    HW128283   0.289   2.911   6.205 -2.3770 -0.2423 -1.4816
 5549SOL    HW228284   0.228   2.990   6.317 -0.5183 -0.1187  0.4758
 5550SOL     OW28285   1.124   3.299   9.462  0.0312  0.1064  0.0017
 5550SOL    HW128286   1.094   3.214   9.494 -0.0015  0.0987 -0.0500
 5550SOL    HW228287   1.128   3.351   9.542  3.2576  0.7631 -0.6003
 5551SOL     OW28288   3.689   4.228   3.988  0.8102 -0.0206 -0.2010
 5551SOL    HW128289   3.629   4.299   3.966 -0.1900 -0.1560  2.0718
 5551SOL    HW228290   3.775   4.265   3.967 -0.0115  1.5379 -0.8059
 5552SOL     OW28291   2.949   1.582   4.074  0.2614  0.2517 -0.0167
 5552SOL    HW128292   2.944   1.530   4.154 -0.9001  2.0844  1.1053
 5552SOL    HW228293   3.034   1.620   4.093  0.3290  0.2903 -0.3876
 5553SOL     OW28294   2.353   1.447   7.428 -0.8084  0.3009  0.1269
 5553SOL    HW128295   2.394   1.532   7.415 -0.7247  0.4527  1.4319
 5553SOL    HW228296   2.261   1.475   7.433 -0.9021  0.1083 -0.4268
 5554SOL     OW28297   3.505   4.057   1.868 -0.4896 -0.2744  0.1288
 5554SOL    HW128298   3.409   4.055   1.861 -0.5673  1.7173  0.7260
 5554SOL    HW228299   3.527   4.135   1.818 -0.0158 -1.6064 -1.7165
 5555SOL     OW28300   0.945   2.815   5.581  0.0145  0.1081 -0.1233
 5555SOL    HW128301   0.975   2.724   5.589 -1.0252 -0.3617 -1.6953
 5555SOL    HW228302   0.990   2.839   5.501  0.2036 -0.5461 -0.2178
 5556SOL     OW28303   1.449   2.384   4.144 -0.4798 -0.2516 -0.2685
 5556SOL    HW128304   1.354   2.385   4.160 -0.0512  2.3544  2.2327
 5556SOL    HW228305   1.464   2.291   4.158 -0.3595 -0.3670 -1.2144
 5557SOL     OW28306   4.253   3.624   1.330  0.2398 -0.4436  0.8998
 5557SOL    HW128307   4.330   3.567   1.337 -0.3760 -1.0838  2.5620
 5557SOL    HW228308   4.294   3.710   1.319  0.7971 -0.7607  0.4882
 5558SOL     OW28309   3.689   4.440   5.362  0.1292 -0.4445  0.0510
 5558SOL    HW128310   3.772   4.393   5.362 -0.8309 -2.1744 -0.9805
 5558SOL    HW228311   3.669   4.421   5.270 -0.6581  3.4558 -0.5673
 5559SOL     OW28312   0.847   3.537  15.614 -0.2515 -0.0431 -0.1577
 5559SOL    HW128313   0.852   3.505  15.524 -1.1402  3.4881 -1.4573
 5559SOL    HW228314   0.780   3.475  15.646  2.0938 -2.3678  0.2575
 5560SOL     OW28315   0.901   0.139   1.908  0.1142 -0.0418  0.7439
 5560SOL    HW128316   0.962   0.173   1.843 -1.1537 -0.6236 -0.7451
 5560SOL    HW228317   0.823   0.184   1.875  0.1004 -0.3073  0.4220
 5561SOL     OW28318   3.399   4.532   7.605 -0.3846 -0.2507  0.4360
 5561SOL    HW128319   3.340   4.553   7.532  1.3082 -0.5589 -1.0204
 5561SOL    HW228320   3.428   4.443   7.585 -1.1910 -0.2593 -0.7133
 5562SOL     OW28321   4.652   0.980   7.689  0.0950  0.0048  0.0545
 5562SOL    HW128322   4.567   0.943   7.665  0.3836 -0.0292 -0.9464
 5562SOL    HW228323   4.683   0.922   7.758 -0.3777 -0.4734 -0.1353
 5563SOL     OW28324   1.396   2.972   1.863  0.1771 -0.3313 -0.7661
 5563SOL    HW128325   1.447   3.045   1.828 -0.7514 -0.5015 -2.4473
 5563SOL    HW228326   1.420   2.972   1.956  1.2116  1.0480 -1.0406
 5564SOL     OW28327   1.906   2.593   5.031 -0.2420  0.0749  0.1227
 5564SOL    HW128328   1.979   2.596   5.093  0.3756 -0.5340 -0.5769
 5564SOL    HW228329   1.902   2.499   5.013 -1.4896 -0.1411  1.5074
 5565SOL     OW28330   4.355   0.301  11.020  0.1592  0.1380 -0.6135
 5565SOL    HW128331   4.264   0.302  11.049  0.3377 -1.7223  0.0567
 5565SOL    HW228332   4.408   0.272  11.094 -0.9644  1.6124  0.7605
 5566SOL     OW28333   3.219   2.149  12.382  0.0737 -0.4704  0.4929
 5566SOL    HW128334   3.214   2.242  12.362 -1.8661 -0.4821  0.9201
 5566SOL    HW228335   3.222   2.114  12.293 -0.7494 -0.8052  0.5890
 5567SOL     OW28336   1.497   2.645   5.262 -0.0701  0.5050  0.3597
 5567SOL    HW128337   1.495   2.556   5.228 -0.6904  1.4750 -2.1214
 5567SOL    HW228338   1.553   2.687   5.196  0.2680  0.7347  0.7927
 5568SOL     OW28339   1.533   2.498   9.374  0.3394  0.5101 -0.0830
 5568SOL    HW128340   1.626   2.493   9.399  1.1008 -1.2896 -3.3395
 5568SOL    HW228341   1.505   2.577   9.420 -3.6799 -1.2992  0.5616
 5569SOL     OW28342   0.355   1.704   4.170 -0.2357  0.1260  0.2572
 5569SOL    HW128343   0.263   1.677   4.168  0.4415 -2.1886  0.4191
 5569SOL    HW228344   0.371   1.701   4.076 -0.0495  0.0707  0.2910
 5570SOL     OW28345   3.853   1.027   2.739 -0.2539 -0.0886 -0.8725
 5570SOL    HW128346   3.924   1.087   2.763  0.1983 -0.3713 -1.5237
 5570SOL    HW228347   3.890   0.995   2.657 -1.2176 -1.0007 -0.9460
 5571SOL     OW28348   0.104   3.024   1.994  0.0041 -0.0379  0.5320
 5571SOL    HW128349   0.106   3.094   2.060  0.9311 -0.6153  1.1174
 5571SOL    HW228350   0.056   3.061   1.921  0.8513  0.8619  0.4331
 5572SOL     OW28351   4.633   4.424  11.065 -0.1669 -0.2938 -0.0974
 5572SOL    HW128352   4.680   4.497  11.105  2.3594 -1.2381 -1.3861
 5572SOL    HW228353   4.607   4.382  11.147 -1.2863  0.1958 -0.2015
 5573SOL     OW28354   1.953   1.279   9.281  0.6812 -0.6442 -0.2478
 5573SOL    HW128355   1.864   1.305   9.258  0.9667 -0.7091 -1.4322
 5573SOL    HW228356   2.001   1.334   9.218 -0.1331 -0.0046 -0.3087
 5574SOL     OW28357   2.199   0.365   2.932 -0.0145 -0.2156  0.0804
 5574SOL    HW128358   2.128   0.422   2.963 -0.7320 -0.2355 -1.5261
 5574SOL    HW228359   2.242   0.332   3.010  1.7388 -0.3656 -0.9624
 5575SOL     OW28360   1.163   1.949   9.187 -0.1492 -0.2575  0.1683
 5575SOL    HW128361   1.101   1.884   9.219  0.6880 -1.5928 -0.8883
 5575SOL    HW228362   1.232   1.903   9.139  0.9838  1.0450  0.5486
 5576SOL     OW28363   2.325   1.125   6.634 -0.2758  0.1989  0.1546
 5576SOL    HW128364   2.402   1.175   6.608 -1.2317  2.3548  1.4406
 5576SOL    HW228365   2.363   1.038   6.649 -0.6372 -0.1264 -0.8544
 5577SOL     OW28366   2.601   1.644  15.556 -0.2669 -0.1789 -0.2495
 5577SOL    HW128367   2.606   1.702  15.480 -1.5986 -3.0235 -2.5280
 5577SOL    HW228368   2.682   1.594  15.569  1.2934  1.9943 -1.6271
 5578SOL     OW28369   4.424   4.139  10.699  0.1220  0.1937 -0.4063
 5578SOL    HW128370   4.495   4.203  10.700 -0.8446  1.2711 -1.6363
 5578SOL    HW228371   4.367   4.172  10.630 -0.1327  1.6256  0.5011
 5579SOL     OW28372   1.955   4.347   3.836  0.0856 -0.1291 -0.4459
 5579SOL    HW128373   1.881   4.402   3.811 -0.2969 -0.8230 -0.8286
 5579SOL    HW228374   2.000   4.392   3.907  1.5518 -2.5000  0.1312
 5580SOL     OW28375   0.169   4.003  11.257  0.0024  0.8382  0.1124
 5580SOL    HW128376   0.181   4.082  11.205  1.9482 -0.7188 -1.8068
 5580SOL    HW228377   0.073   4.005  11.260  0.0297  2.5991 -0.3890
 5581SOL     OW28378   4.413   3.707  15.848 -0.1497 -0.0072 -0.0120
 5581SOL    HW128379   4.444   3.733  15.935 -3.6778 -0.4643  1.3567
 5581SOL    HW228380   4.499   3.709  15.805  0.4577 -0.3770  1.1822
 5582SOL     OW28381   0.052   0.144   2.856 -0.0170 -0.2873 -0.6878
 5582SOL    HW128382   4.733   0.123   2.930 -0.2115  2.2552 -0.1156
 5582SOL    HW228383   0.047   0.060   2.810  2.4742 -1.3603  0.9667
 5583SOL     OW28384   4.708   0.145   3.143 -0.2426  0.9462  0.1644
 5583SOL    HW128385   4.619   0.140   3.177  1.0677  1.3450  3.6028
 5583SOL    HW228386   0.007   0.190   3.219  0.6533 -0.0124  0.3127
 5584SOL     OW28387   2.827   4.310   4.431 -0.0035  0.5560  0.0659
 5584SOL    HW128388   2.738   4.289   4.402 -0.8343  2.8330  0.9805
 5584SOL    HW228389   2.872   4.315   4.347  0.9279 -2.0282  0.4079
 5585SOL     OW28390   2.505   4.220   3.372 -0.1324  0.1703 -0.0393
 5585SOL    HW128391   2.498   4.247   3.463  0.1617 -0.4854  0.1755
 5585SOL    HW228392   2.437   4.261   3.319  0.0602  0.7137  0.1350
 5586SOL     OW28393   2.374   1.748  10.151  0.1449 -0.5662 -0.1094
 5586SOL    HW128394   2.423   1.775  10.073 -1.6935 -0.6257 -1.2978
 5586SOL    HW228395   2.354   1.832  10.191 -3.0725 -1.1546 -0.5154
 5587SOL     OW28396   3.548   4.554  15.524 -0.3444 -0.3349 -0.6459
 5587SOL    HW128397   3.499   4.515  15.451  2.4240 -0.9754 -2.1789
 5587SOL    HW228398   3.560   4.477  15.578  0.6718  1.6695  1.9613
 5588SOL     OW28399   2.429   1.177   1.537  0.0801  0.1716  0.7503
 5588SOL    HW128400   2.413   1.271   1.531  3.6458  0.6555 -0.8311
 5588SOL    HW228401   2.522   1.157   1.524  0.0005 -0.3695  1.0325
 5589SOL     OW28402   2.527   3.711   4.397  0.4068 -0.1548 -0.2974
 5589SOL    HW128403   2.584   3.721   4.473 -0.3861  1.6286  0.0604
 5589SOL    HW228404   2.595   3.720   4.330  0.2664 -2.3258 -0.7227
 5590SOL     OW28405   3.043   4.676   3.383  0.4232  0.1938 -0.5158
 5590SOL    HW128406   3.067   0.026   3.413  1.4232  0.6360 -2.6618
 5590SOL    HW228407   2.954   4.674   3.417 -0.3137 -1.3235 -2.5085
 5591SOL     OW28408   1.518   2.945   7.171  0.6126 -0.0843  0.2858
 5591SOL    HW128409   1.427   2.927   7.195 -0.3094  1.9696 -1.6320
 5591SOL    HW228410   1.512   2.938   7.075  1.8610  2.0889  0.0528
 5592SOL     OW28411   2.570   3.142  16.000 -1.2703 -0.3789 -0.1192
 5592SOL    HW128412   2.641   3.145  15.936 -1.0527 -1.9646  0.0536
 5592SOL    HW228413   2.495   3.131  15.941 -1.4584 -0.3555  0.1165
 5593SOL     OW28414   3.370   4.562   1.829  0.6286  0.2828 -0.3933
 5593SOL    HW128415   3.344   4.627   1.763  0.7324 -1.3897 -2.0885
 5593SOL    HW228416   3.404   4.637   1.878 -1.7964  1.4254 -0.4784
 5594SOL     OW28417   3.253   0.815  17.704  0.6261  0.3650  0.0410
 5594SOL    HW128418   3.309   0.817  17.626  0.3504  0.3284 -0.1546
 5594SOL    HW228419   3.249   0.909  17.720  0.7178  0.6405 -1.5778
 5595SOL     OW28420   1.886   1.586   3.022 -1.0452  0.3259  0.9700
 5595SOL    HW128421   1.829   1.647   2.975 -0.7798 -1.8223 -2.1344
 5595SOL    HW228422   1.925   1.646   3.085 -0.8817 -1.2372  2.3582
 5596SOL     OW28423   2.846   3.532   2.726 -0.0436  0.2898  0.1940
 5596SOL    HW128424   2.830   3.439   2.738 -0.7708  0.6738  2.2259
 5596SOL    HW228425   2.939   3.534   2.749  0.4859  2.0405 -2.0824
 5597SOL     OW28426   3.877   2.451   4.123  0.0712  0.5795  0.0195
 5597SOL    HW128427   3.795   2.450   4.172 -0.7694  3.4500 -1.3643
 5597SOL    HW228428   3.836   2.443   4.038 -1.3763  2.9382  0.4989
 5598SOL     OW28429   0.600   1.226   8.161  0.0116  0.4823  0.1397
 5598SOL    HW128430   0.683   1.249   8.203  0.9965 -0.1226 -1.4889
 5598SOL    HW228431   0.547   1.207   8.239  1.3602  0.5598  1.0600
 5599SOL     OW28432   1.939   3.418   2.498 -0.1060  0.8385  0.1627
 5599SOL    HW128433   1.925   3.338   2.447 -1.6482 -0.3112  2.4103
 5599SOL    HW228434   1.955   3.482   2.427 -1.1015 -0.0299 -0.8434
 5600SOL     OW28435   0.383   0.666   3.184 -0.1082 -0.0222  0.2261
 5600SOL    HW128436   0.293   0.654   3.153 -0.4394  0.7597  0.8914
 5600SOL    HW228437   0.386   0.756   3.215 -0.4140 -0.9856  3.1198
 5601SOL     OW28438   1.564   2.050  11.760 -0.0397  0.2799  0.3072
 5601SOL    HW128439   1.503   1.976  11.768  1.6504 -1.0972  0.5186
 5601SOL    HW228440   1.644   1.998  11.763  0.5960  1.0145 -3.5714
 5602SOL     OW28441   4.505   2.794   9.128 -0.6194 -0.3756 -0.4817
 5602SOL    HW128442   4.432   2.769   9.185  0.6672  1.6810  2.0347
 5602SOL    HW228443   4.533   2.713   9.087  0.0947 -0.3195 -0.0946
 5603SOL     OW28444   1.383   3.672   2.949  0.1269 -0.2054  0.7473
 5603SOL    HW128445   1.415   3.646   3.036  2.2161  3.2430  0.9933
 5603SOL    HW228446   1.404   3.596   2.895 -1.3821 -0.4441  0.4963
 5604SOL     OW28447   1.199   1.980   3.817 -0.2554  0.4031 -0.6715
 5604SOL    HW128448   1.259   1.921   3.772 -1.1992 -0.6450 -0.5769
 5604SOL    HW228449   1.254   2.058   3.818  1.6276 -0.9219 -0.2772
 5605SOL     OW28450   1.364   0.083  12.540  0.1148 -0.0252  0.0337
 5605SOL    HW128451   1.454   0.102  12.510  0.1451 -1.0959 -0.5315
 5605SOL    HW228452   1.359   4.726  12.545 -1.5987  0.0057 -1.2384
 5606SOL     OW28453   2.612   0.447   3.793  0.1907 -0.0853  0.8681
 5606SOL    HW128454   2.704   0.459   3.819 -0.4280  0.3866  2.8317
 5606SOL    HW228455   2.590   0.359   3.822 -0.9378  0.1794  0.8162
 5607SOL     OW28456   3.332   2.474   9.509 -0.1597  0.3700  0.1928
 5607SOL    HW128457   3.374   2.394   9.541  0.2641  0.6964  0.4402
 5607SOL    HW228458   3.392   2.541   9.540  0.0706  0.2905 -0.0719
 5608SOL     OW28459   0.901   0.339   3.946  0.2399  0.6886 -0.5447
 5608SOL    HW128460   0.996   0.335   3.942  0.3083  1.8081 -0.0407
 5608SOL    HW228461   0.885   0.245   3.942 -0.8179  0.7968  0.9709
 5609SOL     OW28462   1.316   0.071   7.660  0.6130  0.4713  0.2926
 5609SOL    HW128463   1.250   0.070   7.591 -1.3296 -1.7664  2.1618
 5609SOL    HW228464   1.321   4.716   7.686  0.7455  0.8938  1.7510
 5610SOL     OW28465   0.459   1.298  10.154 -0.2124  0.3127 -0.0074
 5610SOL    HW128466   0.456   1.326  10.063 -0.8976 -1.3645 -0.4967
 5610SOL    HW228467   0.551   1.276  10.168 -0.1423  1.0394  0.6973
 5611SOL     OW28468   0.255   3.064   4.975 -0.4387  0.3746 -0.2859
 5611SOL    HW128469   0.348   3.058   4.953 -0.5021 -2.3409  0.1653
 5611SOL    HW228470   0.271   3.039   5.066  1.3646  1.2791 -0.3628
 5612SOL     OW28471   2.123   0.208  17.630  0.0329  0.0572  0.2666
 5612SOL    HW128472   2.048   0.156  17.601 -0.0002 -0.0615  0.5675
 5612SOL    HW228473   2.117   0.281  17.567 -0.0180  0.1802  0.4156
 5613SOL     OW28474   0.166   0.973  17.541  0.0359 -0.3684 -0.6323
 5613SOL    HW128475   0.259   0.993  17.558 -0.1106  0.0755 -0.3499
 5613SOL    HW228476   0.157   0.879  17.552  0.0247 -0.7266 -3.6964
 5614SOL     OW28477   1.490   1.496   1.799  0.3834  0.0832  0.7337
 5614SOL    HW128478   1.541   1.415   1.804 -1.3137 -1.1108 -1.0475
 5614SOL    HW228479   1.535   1.549   1.734  0.9427 -0.7132  0.4615
 5615SOL     OW28480   3.025   1.983   6.734 -0.0674 -0.2200 -0.3934
 5615SOL    HW128481   2.951   2.037   6.761 -0.7399 -1.1726 -0.3514
 5615SOL    HW228482   2.990   1.939   6.656  2.5593  0.7867 -2.1525
 5616SOL     OW28483   1.636   0.257  14.624 -0.2577 -0.1991 -0.0459
 5616SOL    HW128484   1.620   0.311  14.702 -0.2026 -0.9442  0.4773
 5616SOL    HW228485   1.654   0.325  14.559 -1.8008 -0.9028 -1.1886
 5617SOL     OW28486   2.998   2.298   4.929  0.2764  0.5468 -0.0594
 5617SOL    HW128487   2.953   2.243   4.993 -1.6994  1.0094 -1.0633
 5617SOL    HW228488   2.994   2.381   4.975  2.2978 -0.3622  1.7875
 5618SOL     OW28489   4.040   0.594   2.037 -0.3973  0.2141  0.8680
 5618SOL    HW128490   4.092   0.515   2.056 -0.0975  0.2181  0.0502
 5618SOL    HW228491   4.101   0.666   2.052 -0.3127  0.4455 -0.6595
 5619SOL     OW28492   0.450   3.916   5.756  0.3849 -0.0794  0.1178
 5619SOL    HW128493   0.385   3.865   5.707  0.1844  2.7131 -2.5485
 5619SOL    HW228494   0.532   3.885   5.718 -0.0671  0.4884 -1.3367
 5620SOL     OW28495   1.670   4.070   6.717  0.0318  0.0412 -0.0051
 5620SOL    HW128496   1.620   4.044   6.795 -2.0983  2.0076 -0.7157
 5620SOL    HW228497   1.712   3.990   6.685  1.6274  0.8684 -0.0001
 5621SOL     OW28498   1.089   1.624   3.529 -0.2848 -0.5120 -0.0523
 5621SOL    HW128499   1.085   1.537   3.490 -0.7454 -0.0774 -0.9717
 5621SOL    HW228500   1.171   1.610   3.577 -0.4764 -2.0370 -0.2022
 5622SOL     OW28501   1.567   2.801   6.707 -0.4263  0.1139  0.0047
 5622SOL    HW128502   1.538   2.718   6.669 -0.5759  0.5808 -0.8957
 5622SOL    HW228503   1.650   2.781   6.749  0.7019  2.5887 -1.0551
 5623SOL     OW28504   2.379   2.234   2.941  0.2382 -0.6912 -0.6823
 5623SOL    HW128505   2.470   2.219   2.915  1.0999  0.6646  1.5678
 5623SOL    HW228506   2.327   2.161   2.905 -1.8488 -0.5424  2.0362
 5624SOL     OW28507   4.400   4.591  13.909 -0.1103 -0.7133  0.2276
 5624SOL    HW128508   4.411   4.671  13.858  0.0223 -0.9763 -0.1601
 5624SOL    HW228509   4.453   4.601  13.987  2.5993  0.9680 -1.8196
 5625SOL     OW28510   2.978   3.912   4.051  0.0140 -0.3179  0.0575
 5625SOL    HW128511   3.067   3.932   4.022  0.4515 -0.8861  1.0324
 5625SOL    HW228512   2.983   3.900   4.146  2.0501  1.2368  0.1347
 5626SOL     OW28513   0.647   1.865  14.315 -1.0366 -0.0031  0.0205
 5626SOL    HW128514   0.695   1.785  14.338  1.1286  1.8745  1.9976
 5626SOL    HW228515   0.631   1.899  14.403  0.0473  0.4808  0.0229
 5627SOL     OW28516   2.759   4.604   7.251 -0.2199  0.3398  0.2623
 5627SOL    HW128517   2.789   4.681   7.299 -1.5018  0.4303  0.9251
 5627SOL    HW228518   2.768   4.635   7.162 -2.4920  0.1082 -0.0496
 5628SOL     OW28519   1.366   0.263   2.551 -0.2571  0.1313 -0.9633
 5628SOL    HW128520   1.316   0.186   2.578  1.3706  0.5926  3.3922
 5628SOL    HW228521   1.357   0.301   2.638  1.6747 -0.3599 -0.5521
 5629SOL     OW28522   1.937   0.086  12.569 -0.5325 -0.5052  0.6656
 5629SOL    HW128523   1.925   0.007  12.516 -2.0861 -0.3626  0.8234
 5629SOL    HW228524   2.029   0.076  12.596 -0.6624 -1.1029  0.8896
 5630SOL     OW28525   2.512   0.433   7.159 -0.1150 -0.6536 -0.0624
 5630SOL    HW128526   2.570   0.501   7.192  0.8591 -1.2305 -0.5895
 5630SOL    HW228527   2.471   0.401   7.239 -0.1197  1.3955  0.7436
 5631SOL     OW28528   0.683   2.449   6.456  0.6539  0.5660  0.6475
 5631SOL    HW128529   0.623   2.374   6.450  1.7006 -0.2091 -0.1654
 5631SOL    HW228530   0.654   2.491   6.537  0.8739  0.1825  0.9251
 5632SOL     OW28531   2.434   2.506  16.645 -0.5241  0.5589  0.4244
 5632SOL    HW128532   2.468   2.422  16.674 -1.0657 -0.2686 -1.3352
 5632SOL    HW228533   2.512   2.546  16.604  0.4699 -0.0715  1.7186
 5633SOL     OW28534   2.273   2.570  13.278 -0.4596 -0.6519 -0.6382
 5633SOL    HW128535   2.199   2.618  13.239  0.4544  2.6235  1.6805
 5633SOL    HW228536   2.345   2.607  13.227 -0.4471 -0.7127 -0.6643
 5634SOL     OW28537   2.196   1.296   6.908 -0.7606  0.1623  0.9819
 5634SOL    HW128538   2.248   1.358   6.858 -1.9150 -0.6520 -1.2155
 5634SOL    HW228539   2.242   1.213   6.900 -0.7799 -0.0243  2.8578
 5635SOL     OW28540   4.449   1.158  10.255 -0.0553 -0.2172  0.0670
 5635SOL    HW128541   4.497   1.185  10.177 -0.6936  0.9090  0.0691
 5635SOL    HW228542   4.365   1.134  10.216 -0.4524  0.4221  0.5142
 5636SOL     OW28543   0.293   2.073   4.218 -0.4519 -0.1593 -0.1179
 5636SOL    HW128544   0.225   2.040   4.159 -2.5179  2.0080  1.0068
 5636SOL    HW228545   0.370   2.073   4.161 -1.2118 -1.5580 -1.1272
 5637SOL     OW28546   3.431   4.638  10.121  0.6587  0.1530 -0.4363
 5637SOL    HW128547   3.401   4.679  10.202 -0.3584 -3.3735  0.9824
 5637SOL    HW228548   3.370   4.565  10.109  0.5802  0.2994 -0.9378
 5638SOL     OW28549   1.240   0.276   4.356  0.1468  0.2604 -0.2905
 5638SOL    HW128550   1.217   0.361   4.318 -0.8808  0.5038  0.8790
 5638SOL    HW228551   1.323   0.264   4.310  0.3353  2.4973 -0.4920
 5639SOL     OW28552   4.271   4.566   3.613  0.0085  0.3593 -0.2416
 5639SOL    HW128553   4.199   4.521   3.569 -0.9663  2.3960 -0.7032
 5639SOL    HW228554   4.226   4.618   3.679 -0.3824  0.4219 -0.5602
 5640SOL     OW28555   2.270   1.077   3.190  0.0550 -0.2082 -0.0144
 5640SOL    HW128556   2.336   1.122   3.138 -1.4930 -0.2894 -2.0615
 5640SOL    HW228557   2.286   1.127   3.270 -1.8248  0.3216  0.0237
 5641SOL     OW28558   3.634   1.375   6.343  0.6616  0.0885 -0.0194
 5641SOL    HW128559   3.554   1.408   6.383  0.4332  1.9254 -1.9914
 5641SOL    HW228560   3.606   1.292   6.305 -0.0308  0.5036 -0.4022
 5642SOL     OW28561   0.443   3.764   8.427  0.2574  0.3115  0.1547
 5642SOL    HW128562   0.420   3.782   8.518 -1.9033  2.6967 -0.8698
 5642SOL    HW228563   0.364   3.719   8.396 -1.0009  0.9602  2.4219
 5643SOL     OW28564   0.128   2.774   3.279  0.2411 -0.0209  0.6423
 5643SOL    HW128565   0.114   2.768   3.185  1.4229  1.0131  0.3893
 5643SOL    HW228566   0.224   2.776   3.270  0.3008 -0.7678  1.1378
 5644SOL     OW28567   4.642   2.353  17.068  0.5677 -0.1428  0.3386
 5644SOL    HW128568   0.000   2.352  17.077  0.7772  2.6272 -1.6428
 5644SOL    HW228569   4.630   2.315  16.981 -1.2087  0.3538  0.3793
 5645SOL     OW28570   2.698   4.675   5.490 -0.1021 -0.1441 -0.3467
 5645SOL    HW128571   2.695   0.009   5.427 -0.0553 -0.6233 -0.8960
 5645SOL    HW228572   2.781   4.698   5.532 -1.2300  1.2421  1.0875
 5646SOL     OW28573   1.935   1.695  15.146  0.1829  0.0605  0.0679
 5646SOL    HW128574   1.860   1.643  15.120  0.5118 -0.2341 -0.2861
 5646SOL    HW228575   1.919   1.679  15.239 -1.0359 -2.2428 -0.5480
 5647SOL     OW28576   1.442   1.116   2.760 -0.2229  0.3158 -0.5954
 5647SOL    HW128577   1.439   1.023   2.737 -0.5784 -0.2173  1.5933
 5647SOL    HW228578   1.380   1.123   2.833  2.0875  0.3139  1.3704
 5648SOL     OW28579   1.471   4.543   3.826  0.2652  0.2565 -0.3624
 5648SOL    HW128580   1.433   4.498   3.901 -1.1694 -1.0627 -1.8769
 5648SOL    HW228581   1.433   4.496   3.751 -1.9609 -2.3033  2.3934
 5649SOL     OW28582   0.708   3.813   8.066  0.6443 -0.5392  0.1062
 5649SOL    HW128583   0.679   3.805   7.975 -2.3215  0.3093  0.9958
 5649SOL    HW228584   0.802   3.792   8.062  1.0651  1.1836  1.0193
 5650SOL     OW28585   2.679   4.110   7.069  0.6259  0.2950 -0.4943
 5650SOL    HW128586   2.685   4.200   7.035  3.1090 -0.6512 -2.5755
 5650SOL    HW228587   2.635   4.115   7.154 -2.0966  1.1501 -1.9624
 5651SOL     OW28588   2.838   4.174   5.858 -0.2793  0.5249 -0.0336
 5651SOL    HW128589   2.913   4.133   5.815 -0.4607  0.6352 -0.4452
 5651SOL    HW228590   2.767   4.148   5.800 -0.5722  1.2130  0.0128
 5652SOL     OW28591   1.579   1.237  15.929  0.1694 -0.0411  0.1751
 5652SOL    HW128592   1.507   1.297  15.949  0.4953 -0.4539  2.5567
 5652SOL    HW228593   1.652   1.285  15.967  1.1232  0.0497 -1.7488
 5653SOL     OW28594   1.505   0.080   6.441 -0.1282  0.3767  0.3599
 5653SOL    HW128595   1.458   0.066   6.523 -1.0849  2.7060  0.1920
 5653SOL    HW228596   1.468   0.165   6.416  0.3072  0.4822  0.0775
 5654SOL     OW28597   2.270   3.407   9.375  0.0598  0.0620 -0.0843
 5654SOL    HW128598   2.352   3.364   9.351  0.4802  0.3467  0.8228
 5654SOL    HW228599   2.215   3.334   9.403  0.0909 -0.5591 -1.6643
 5655SOL     OW28600   4.151   4.621   8.420 -0.2887 -0.0557 -0.1701
 5655SOL    HW128601   4.086   4.604   8.488  3.6592 -1.8468  3.1748
 5655SOL    HW228602   4.203   4.541   8.422  2.0189  1.3645 -3.1655
 5656SOL     OW28603   0.084   4.594   2.659  0.3085  0.0700 -0.1770
 5656SOL    HW128604   0.107   4.586   2.567  1.1613 -1.0368  0.1288
 5656SOL    HW228605   0.166   4.559   2.694 -0.7372 -1.8297  0.4167
 5657SOL     OW28606   2.640   4.438  15.819  0.6208 -0.0656 -0.1698
 5657SOL    HW128607   2.592   4.487  15.886  0.8856  0.2789 -0.2327
 5657SOL    HW228608   2.576   4.443  15.749 -1.3792 -1.2224  1.5725
 5658SOL     OW28609   3.582   3.036   8.688  0.6957 -0.4640 -1.0468
 5658SOL    HW128610   3.520   3.110   8.683  1.2967  0.1360  0.5303
 5658SOL    HW228611   3.668   3.074   8.672  1.6424 -1.8908  0.7122
 5659SOL     OW28612   3.543   2.953   5.591  0.3070  0.7501  0.0452
 5659SOL    HW128613   3.624   2.959   5.641  1.4219 -0.4834 -1.5893
 5659SOL    HW228614   3.582   2.932   5.506 -0.2762  2.9551 -0.7457
 5660SOL     OW28615   1.823   2.639   1.249  0.7071  0.6762 -0.3297
 5660SOL    HW128616   1.902   2.680   1.214  0.6013  0.4595 -0.8308
 5660SOL    HW228617   1.787   2.695   1.317  1.4318  0.4382  0.2498
 5661SOL     OW28618   4.411   2.334   4.296  0.0030  0.3008  0.1751
 5661SOL    HW128619   4.330   2.335   4.347  0.2242  1.3159  0.4997
 5661SOL    HW228620   4.454   2.415   4.324 -1.7749  0.7809  1.4618
 5662SOL     OW28621   2.679   2.962   5.687  0.2398 -0.6530  0.1940
 5662SOL    HW128622   2.649   2.980   5.598 -1.7979  2.9826  1.6023
 5662SOL    HW228623   2.773   2.956   5.670  0.4144 -0.2035  0.9912
 5663SOL     OW28624   1.124   0.127  12.875 -0.8531  0.1887 -0.3805
 5663SOL    HW128625   1.072   0.048  12.892 -2.4642  1.3189 -0.0909
 5663SOL    HW228626   1.202   0.099  12.827 -0.7674  0.2908 -0.3007
 5664SOL     OW28627   0.762   1.175   0.148  0.2884  0.2690  0.0986
 5664SOL    HW128628   0.675   1.164   0.110  1.1529 -3.1504 -0.9435
 5664SOL    HW228629   0.750   1.168   0.242  2.3084  1.6093  0.4532
 5665SOL     OW28630   0.160   2.109   6.099  0.2020  0.2234 -0.5478
 5665SOL    HW128631   0.251   2.129   6.119  1.3078 -2.3664 -2.9690
 5665SOL    HW228632   0.144   2.161   6.020  1.2057  1.1902 -0.1245
 5666SOL     OW28633   3.634   4.128   2.984  0.4704 -0.5314  0.4332
 5666SOL    HW128634   3.620   4.065   3.055  0.1730  1.8947  2.5251
 5666SOL    HW228635   3.645   4.205   3.040 -3.1066  1.2218 -1.2423
 5667SOL     OW28636   3.525   0.936   0.222 -0.6062 -0.6917  0.1528
 5667SOL    HW128637   3.594   0.983   0.175 -1.5993 -0.6526 -1.2604
 5667SOL    HW228638   3.469   0.894   0.157 -2.4426  2.4198 -0.2324
 5668SOL     OW28639   1.141   0.843   6.283 -0.1218  0.1479 -0.1238
 5668SOL    HW128640   1.070   0.838   6.346 -1.0189 -2.3447 -1.3407
 5668SOL    HW228641   1.138   0.930   6.244  1.5819 -0.4605 -1.6497
 5669SOL     OW28642   2.638   1.423  10.756  0.0605  0.2081 -0.5820
 5669SOL    HW128643   2.613   1.412  10.664 -2.0365  1.0571 -0.1118
 5669SOL    HW228644   2.676   1.337  10.774 -0.9314  0.1927  1.3416
 5670SOL     OW28645   2.487   0.779   8.005  0.0491 -0.3336  0.0345
 5670SOL    HW128646   2.557   0.752   7.945  0.3665 -2.2549  1.2497
 5670SOL    HW228647   2.531   0.861   8.027  2.0180 -1.2637 -0.3953
 5671SOL     OW28648   2.170   3.101   2.927 -0.0301  0.0392  0.2369
 5671SOL    HW128649   2.209   3.066   3.006  3.5597  2.6638 -0.3721
 5671SOL    HW228650   2.139   3.025   2.877 -0.9866  0.6704 -0.1336
 5672SOL     OW28651   3.654   1.497   7.661 -0.4887 -0.2231 -0.2858
 5672SOL    HW128652   3.647   1.526   7.570  2.3047 -2.4664 -1.1958
 5672SOL    HW228653   3.737   1.451   7.660 -0.2200  0.2472  0.5579
 5673SOL     OW28654   3.185   2.297   2.627  0.5246  0.3576  0.2599
 5673SOL    HW128655   3.171   2.216   2.677 -0.0590 -1.0765 -2.2304
 5673SOL    HW228656   3.267   2.328   2.667  1.4776 -1.1610 -0.5093
 5674SOL     OW28657   2.507   0.865  11.235 -0.3138 -0.3923 -0.3535
 5674SOL    HW128658   2.445   0.912  11.179 -1.2815 -2.6186 -1.1275
 5674SOL    HW228659   2.549   0.803  11.175 -1.4107  0.1050 -1.6493
 5675SOL     OW28660   3.564   1.049   6.992 -0.9213  0.0122  0.1479
 5675SOL    HW128661   3.496   0.992   7.027 -0.5187 -0.5015  0.0934
 5675SOL    HW228662   3.634   0.984   6.987 -2.0779 -1.2767  0.6666
 5676SOL     OW28663   1.646   2.085   4.141  0.0452 -0.0577 -0.1391
 5676SOL    HW128664   1.698   2.165   4.132 -1.5047  0.6969 -2.3500
 5676SOL    HW228665   1.644   2.052   4.051 -0.7555 -0.7255  0.1229
 5677SOL     OW28666   0.625   3.373  15.676 -0.2283  0.0927  0.2584
 5677SOL    HW128667   0.542   3.370  15.724 -0.7996 -1.1420 -0.8243
 5677SOL    HW228668   0.648   3.281  15.669  0.2563  0.1591  0.9942
 5678SOL     OW28669   1.003   3.749   6.944 -0.5116  0.1830  0.0551
 5678SOL    HW128670   1.085   3.774   6.903  0.4176 -2.9332  0.0594
 5678SOL    HW228671   1.023   3.725   7.035  3.5307 -1.0225 -1.1737
 5679SOL     OW28672   0.400   3.797   6.000  0.0342 -0.7100  0.4598
 5679SOL    HW128673   0.424   3.859   6.069 -0.0815 -0.1556 -0.0076
 5679SOL    HW228674   0.447   3.838   5.929  0.7303  1.4573  2.1776
 5680SOL     OW28675   1.924   1.528   3.505 -0.1071 -0.4865  0.0419
 5680SOL    HW128676   1.838   1.570   3.497  0.7990  1.5059  0.8972
 5680SOL    HW228677   1.948   1.592   3.572 -1.3041 -1.5843  1.5284
 5681SOL     OW28678   1.171   3.650   3.841 -0.1590  0.1283  0.0004
 5681SOL    HW128679   1.139   3.611   3.922 -0.4580  0.0289 -0.1684
 5681SOL    HW228680   1.185   3.742   3.866 -1.8378  0.3911  0.0004
 5682SOL     OW28681   1.117   0.091   2.586  0.0607 -0.2652 -0.1827
 5682SOL    HW128682   1.027   0.115   2.563  0.1559  0.5721  0.3467
 5682SOL    HW228683   1.120   0.124   2.675  0.1345 -0.8804  0.0393
 5683SOL     OW28684   4.483   0.768  10.435  0.0806  0.0380  0.7824
 5683SOL    HW128685   4.541   0.826  10.385  0.7104 -1.4292 -0.1985
 5683SOL    HW228686   4.399   0.811  10.421  0.0505 -1.0968 -2.6617
 5684SOL     OW28687   1.635   0.997  17.622  0.3139 -0.6023 -0.0148
 5684SOL    HW128688   1.625   1.044  17.706  0.5502 -1.7734  0.6624
 5684SOL    HW228689   1.730   1.004  17.614  0.3128 -1.3026 -0.6102
 5685SOL     OW28690   2.906   0.616  11.907  0.9026  0.7967  0.3036
 5685SOL    HW128691   2.824   0.657  11.879 -0.4148 -0.6663  1.9960
 5685SOL    HW228692   2.950   0.601  11.824  0.9262 -0.6929  0.5810
 5686SOL     OW28693   3.816   1.238   8.759 -0.7719 -0.1144 -0.3138
 5686SOL    HW128694   3.857   1.316   8.795 -0.7068 -0.0851 -0.4507
 5686SOL    HW228695   3.724   1.262   8.769  0.3057  3.7259  0.3817
 5687SOL     OW28696   1.318   0.420   1.837 -0.5991  0.2074  0.0259
 5687SOL    HW128697   1.382   0.492   1.832  1.6005 -1.8360 -1.1320
 5687SOL    HW228698   1.243   0.468   1.801 -3.0579 -1.7621  2.5489
 5688SOL     OW28699   0.604   3.734   7.789 -0.3297  0.5399 -0.6981
 5688SOL    HW128700   0.686   3.687   7.805 -0.9754 -0.4823 -0.3891
 5688SOL    HW228701   0.536   3.668   7.803 -0.0320  0.1136 -1.2681
 5689SOL     OW28702   3.828   2.889   4.789 -0.0383 -0.2760  0.9924
 5689SOL    HW128703   3.777   2.827   4.737 -0.2374  1.9465 -1.4714
 5689SOL    HW228704   3.872   2.942   4.723 -0.5765 -1.3823 -0.2566
 5690SOL     OW28705   4.336   1.813   3.760  0.1080  0.2515  0.3077
 5690SOL    HW128706   4.330   1.889   3.819 -1.4221  1.7556 -1.8099
 5690SOL    HW228707   4.364   1.860   3.682  1.3444  0.9316  1.1410
 5691SOL     OW28708   3.414   3.909   2.339  0.3239  0.6045  0.8275
 5691SOL    HW128709   3.473   3.965   2.287  2.0448  1.3622  3.6101
 5691SOL    HW228710   3.423   3.825   2.295 -3.7500 -0.1928  1.5811
 5692SOL     OW28711   2.833   3.415   6.297  0.2442 -1.1008 -0.1285
 5692SOL    HW128712   2.833   3.377   6.384 -1.9660  0.3687  0.5102
 5692SOL    HW228713   2.896   3.361   6.248  0.7650  0.0572 -0.7480
 5693SOL     OW28714   0.617   4.179   7.068  0.2995  0.3308 -0.4734
 5693SOL    HW128715   0.574   4.259   7.039  0.8919  0.5299 -0.8049
 5693SOL    HW228716   0.650   4.187   7.158 -0.7404 -3.2729  0.2474
 5694SOL     OW28717   4.662   3.083   7.367 -0.2000 -0.5000 -0.0103
 5694SOL    HW128718   4.694   3.157   7.419 -1.5704  0.5584 -0.6644
 5694SOL    HW228719   0.008   3.062   7.326  0.8443  2.1364  0.7515
 5695SOL     OW28720   1.411   0.906   8.496 -0.5823  0.5546  0.6448
 5695SOL    HW128721   1.329   0.956   8.497 -1.0425 -0.2089  1.7543
 5695SOL    HW228722   1.387   0.821   8.532  1.7514 -0.4759 -0.2786
 5696SOL     OW28723   4.450   3.746   8.955 -0.0227  0.3987  0.0673
 5696SOL    HW128724   4.527   3.794   8.925 -0.1538  1.5616  1.5628
 5696SOL    HW228725   4.490   3.660   8.963 -0.9585 -0.2126 -1.9264
 5697SOL     OW28726   3.777   3.651   2.734  0.6412  0.6099  0.2332
 5697SOL    HW128727   3.724   3.578   2.765  0.9554 -0.0357 -0.7531
 5697SOL    HW228728   3.720   3.691   2.668  1.3648  1.0617 -0.1210
 5698SOL     OW28729   1.007   4.149   3.328 -0.8124 -0.3803  0.3586
 5698SOL    HW128730   1.001   4.075   3.267 -2.7327 -1.7573  2.2072
 5698SOL    HW228731   1.028   4.110   3.413 -2.3295  0.5980  1.1906
 5699SOL     OW28732   1.832   2.637   7.733  0.0370 -0.3245  0.3376
 5699SOL    HW128733   1.812   2.730   7.717  0.1016 -0.4974 -0.7638
 5699SOL    HW228734   1.863   2.605   7.648 -0.9874 -1.4391  0.3915
 5700SOL     OW28735   0.065   3.162   6.102 -0.3811 -0.4590 -0.5796
 5700SOL    HW128736   0.110   3.246   6.112  0.7673 -1.3401  1.7820
 5700SOL    HW228737   4.711   3.187   6.119 -0.4499 -0.8416 -0.3998
 5701SOL     OW28738   3.630   1.047  16.037 -0.2136 -0.5583  0.0787
 5701SOL    HW128739   3.567   0.983  16.005 -0.9775 -0.0867  0.6286
 5701SOL    HW228740   3.703   1.037  15.976  0.6473  3.6016  0.3971
 5702SOL     OW28741   0.088   2.079   6.827 -0.0020 -0.1100  0.4480
 5702SOL    HW128742   0.060   2.061   6.737  0.4052  0.2017  0.2633
 5702SOL    HW228743   0.153   2.145   6.806  0.0023 -0.2246  0.1028
 5703SOL     OW28744   4.379   4.545  10.730  0.6915 -0.2762  0.0103
 5703SOL    HW128745   4.288   4.545  10.703 -0.4567 -1.5512  3.9183
 5703SOL    HW228746   4.416   4.613  10.673 -1.6911  0.0031 -1.1947
 5704SOL     OW28747   1.793   3.892   0.248 -0.3671 -0.1866 -0.1215
 5704SOL    HW128748   1.816   3.984   0.232 -1.4070 -0.0121 -0.5892
 5704SOL    HW228749   1.742   3.881   0.168  0.8180  1.2747 -1.0922
 5705SOL     OW28750   2.804   4.662   5.026 -0.8553  0.4240 -0.4994
 5705SOL    HW128751   2.769   4.737   4.978 -0.3243  0.9452 -0.0672
 5705SOL    HW228752   2.725   4.614   5.052 -0.2335  1.2581  2.9378
 5706SOL     OW28753   2.101   4.183  13.018  0.3094 -0.8492  0.5623
 5706SOL    HW128754   2.090   4.275  13.041  0.6961 -0.7742  0.4592
 5706SOL    HW228755   2.109   4.154  13.108  1.4674  1.0876  1.0869
 5707SOL     OW28756   0.611   3.912  11.363  0.1419  0.0527  0.0725
 5707SOL    HW128757   0.693   3.902  11.315  0.4994  2.7544  0.1021
 5707SOL    HW228758   0.548   3.902  11.291  0.6862 -3.0088  0.0415
 5708SOL     OW28759   0.499   2.058  13.366 -0.4375 -0.1953 -0.8877
 5708SOL    HW128760   0.473   1.970  13.338 -1.5780 -0.6707  1.6358
 5708SOL    HW228761   0.445   2.113  13.310  0.8344  2.5716  0.6285
 5709SOL     OW28762   0.188   3.430   7.322 -0.4023 -0.3840 -0.7357
 5709SOL    HW128763   0.119   3.376   7.361  0.7366 -0.3484  1.3240
 5709SOL    HW228764   0.249   3.426   7.396  0.7396  0.2045 -1.6414
 5710SOL     OW28765   2.060   2.880   7.735 -0.0913  0.1394 -0.0705
 5710SOL    HW128766   2.090   2.926   7.657 -0.1449  1.6566  0.8017
 5710SOL    HW228767   1.991   2.936   7.768 -1.5334 -2.2210  0.9567
 5711SOL     OW28768   1.460   1.124   2.411 -0.1701  0.5839  0.4370
 5711SOL    HW128769   1.373   1.125   2.452 -0.2147  0.1913  0.3569
 5711SOL    HW228770   1.478   1.031   2.394 -0.5596  0.4619  0.6873
 5712SOL     OW28771   4.147   2.505   7.822 -0.0502 -0.1925  0.0690
 5712SOL    HW128772   4.094   2.432   7.790 -1.2903  0.0064  1.6805
 5712SOL    HW228773   4.235   2.481   7.791  1.0269  3.1521  0.5742
 5713SOL     OW28774   1.389   2.520  10.682 -0.0908  0.0340 -0.0329
 5713SOL    HW128775   1.372   2.463  10.757 -0.1553  0.9803  0.6872
 5713SOL    HW228776   1.423   2.464  10.613  0.1694  0.6609 -0.4092
 5714SOL     OW28777   1.567   2.112  10.003  0.4016 -0.2206 -0.8688
 5714SOL    HW128778   1.610   2.153   9.928  2.2066 -1.7987 -0.6891
 5714SOL    HW228779   1.484   2.078   9.972  0.1304 -1.2263  0.9388
 5715SOL     OW28780   1.402   2.220   7.865 -0.4833 -0.2207 -0.3260
 5715SOL    HW128781   1.431   2.304   7.899  0.5855 -0.6826 -0.0849
 5715SOL    HW228782   1.354   2.257   7.791  0.6692  0.9141 -0.4896
 5716SOL     OW28783   0.869   4.193   5.693 -0.4633 -0.1000 -0.1349
 5716SOL    HW128784   0.940   4.197   5.758 -0.3134  0.7572 -0.3538
 5716SOL    HW228785   0.791   4.193   5.748  0.5737 -1.3670  1.3530
 5717SOL     OW28786   0.168   0.450   8.633 -0.2807  0.2838 -0.1738
 5717SOL    HW128787   0.227   0.500   8.689 -0.8716  1.7855 -0.8903
 5717SOL    HW228788   0.128   0.527   8.592  1.2705  0.4940 -1.3109
 5718SOL     OW28789   4.049   1.976  11.139 -0.7005  0.2855 -0.2920
 5718SOL    HW128790   4.020   2.042  11.077 -0.7718  1.7949  1.3322
 5718SOL    HW228791   4.123   2.024  11.175  0.9949 -2.9092  0.5639
 5719SOL     OW28792   2.633   4.614   1.944  0.0222 -0.4317  0.4692
 5719SOL    HW128793   2.612   4.599   2.036 -0.7677  2.3377  0.7238
 5719SOL    HW228794   2.728   4.613   1.937 -0.0442  1.1024 -0.7139
 5720SOL     OW28795   1.578   1.472   8.824  0.0977  0.3037  0.0251
 5720SOL    HW128796   1.605   1.425   8.903 -0.8401  0.0369  0.1861
 5720SOL    HW228797   1.596   1.407   8.757  0.1863  0.4860 -0.1280
 5721SOL     OW28798   1.584   0.550   9.314  0.0030 -0.6793  0.3296
 5721SOL    HW128799   1.496   0.514   9.319 -1.0763  1.9410 -0.2445
 5721SOL    HW228800   1.602   0.553   9.408  0.4549  0.7989  0.1945
 5722SOL     OW28801   4.074   1.616   3.271  0.7521  0.1074 -0.5745
 5722SOL    HW128802   4.167   1.638   3.278  0.9091 -0.7023 -0.0344
 5722SOL    HW228803   4.030   1.694   3.240 -1.1488 -0.6510  0.2433
 5723SOL     OW28804   1.184   0.046  15.607  0.2685 -0.0328 -0.6022
 5723SOL    HW128805   1.269   0.091  15.602  0.9184 -1.2099 -0.2560
 5723SOL    HW228806   1.132   0.092  15.673 -0.0436 -0.2690 -0.6853
 5724SOL     OW28807   1.060   1.587  15.780  0.1691 -0.0914  0.1844
 5724SOL    HW128808   0.984   1.615  15.730 -1.5392  0.3912  3.0838
 5724SOL    HW228809   1.127   1.640  15.737 -0.5933 -0.7897 -1.8822
 5725SOL     OW28810   2.698   1.728   7.014  0.5334  0.5402  0.7354
 5725SOL    HW128811   2.664   1.815   6.993  0.3789  0.2291 -0.2836
 5725SOL    HW228812   2.750   1.707   6.937  0.1437  0.0480  0.6046
 5726SOL     OW28813   0.343   3.316  13.594  0.2877  0.0288  0.7056
 5726SOL    HW128814   0.352   3.233  13.547  1.7296 -0.0526  1.1465
 5726SOL    HW228815   0.429   3.336  13.630  1.0668 -1.9703 -0.0469
 5727SOL     OW28816   1.670   3.020  17.475  0.2381 -0.3840  0.3538
 5727SOL    HW128817   1.685   2.931  17.443  1.2515 -0.6276  1.4843
 5727SOL    HW228818   1.575   3.017  17.468  0.1790 -1.5557  1.8198
 5728SOL     OW28819   0.008   1.312   0.659 -0.1972  0.2362  0.5394
 5728SOL    HW128820   4.658   1.275   0.664 -1.0849  2.4241  1.2489
 5728SOL    HW228821   0.056   1.234   0.689 -0.3299 -0.8573 -2.1570
 5729SOL     OW28822   0.947   0.336   7.274 -0.2322 -0.0847  0.1533
 5729SOL    HW128823   0.994   0.253   7.281 -1.4615 -0.9453 -1.5664
 5729SOL    HW228824   0.895   0.333   7.354  0.0309  1.2492  0.3720
 5730SOL     OW28825   4.348   3.624   0.080 -0.0016 -0.7781  0.0803
 5730SOL    HW128826   4.255   3.601   0.072 -0.0835  0.7230 -3.0977
 5730SOL    HW228827   4.356   3.645  17.735 -0.0496 -3.0403 -0.4345
 5731SOL     OW28828   2.236   4.420   6.529 -0.7619  0.1048 -0.1174
 5731SOL    HW128829   2.293   4.459   6.463 -1.2200 -0.1024 -0.6374
 5731SOL    HW228830   2.181   4.490   6.564  0.4057  0.2868  1.3494
 5732SOL     OW28831   4.004   2.702   8.394  0.0383  0.1411 -0.2538
 5732SOL    HW128832   3.946   2.777   8.409 -2.8242 -2.2473  0.6561
 5732SOL    HW228833   3.958   2.663   8.321 -0.3181 -1.1947  0.6797
 5733SOL     OW28834   1.552   0.359   2.360 -0.0288  0.1263 -0.2207
 5733SOL    HW128835   1.483   0.300   2.390 -1.3219  0.9493 -1.5968
 5733SOL    HW228836   1.545   0.422   2.431 -2.1983 -0.4676  0.0970
 5734SOL     OW28837   1.232   0.715   0.985 -0.1060  0.1414  0.1363
 5734SOL    HW128838   1.284   0.667   0.921 -0.7800 -1.2079  0.6140
 5734SOL    HW228839   1.283   0.722   1.066  1.9583  1.6913 -1.3126
 5735SOL     OW28840   4.321   2.773   3.625  0.1027  0.0265  0.2179
 5735SOL    HW128841   4.235   2.733   3.632  0.0085  0.6508  2.8624
 5735SOL    HW228842   4.310   2.854   3.675 -0.5862  0.0383  0.0416
 5736SOL     OW28843   3.144   0.501  10.449 -0.1290 -0.9974  0.3019
 5736SOL    HW128844   3.229   0.538  10.472 -0.6444  0.0434  0.4978
 5736SOL    HW228845   3.105   0.487  10.535  1.2917 -0.9608  0.9476
 5737SOL     OW28846   3.833   2.710   3.489 -0.2081 -0.2432 -0.2257
 5737SOL    HW128847   3.822   2.804   3.499 -0.2371 -0.4441  1.6129
 5737SOL    HW228848   3.742   2.679   3.496  0.4747 -2.0877  0.4855
 5738SOL     OW28849   3.241   1.294   2.287 -0.2053 -0.5255  0.7824
 5738SOL    HW128850   3.188   1.365   2.324 -0.7036  0.9434 -2.6611
 5738SOL    HW228851   3.246   1.238   2.364  0.9475  0.0414  1.1236
 5739SOL     OW28852   0.949   2.917   6.344 -0.1045 -0.4740  0.2410
 5739SOL    HW128853   0.905   2.846   6.297 -0.0633  0.3409 -1.0302
 5739SOL    HW228854   0.881   2.971   6.386  1.8652  1.4503  0.9967
 5740SOL     OW28855   4.480   2.225   2.502 -0.3743 -0.4683 -0.4277
 5740SOL    HW128856   4.456   2.277   2.425 -1.1683  0.5011  0.4779
 5740SOL    HW228857   4.391   2.210   2.534  0.0366 -2.2409 -0.1294
 5741SOL     OW28858   4.153   0.449  14.606  0.5310  0.7003 -0.1279
 5741SOL    HW128859   4.137   0.356  14.622  0.9127  0.7656  0.6550
 5741SOL    HW228860   4.245   0.443  14.580  0.1023 -1.8085 -1.0744
 5742SOL     OW28861   0.290   0.912   3.502  0.5501 -0.3646 -0.1095
 5742SOL    HW128862   0.204   0.945   3.477  1.3304  1.4636 -0.3301
 5742SOL    HW228863   0.270   0.865   3.583  2.0337 -1.2462 -0.2602
 5743SOL     OW28864   2.604   3.957   6.851 -0.5283 -0.0472 -0.3534
 5743SOL    HW128865   2.623   3.991   6.938 -0.0782 -2.7096  0.5902
 5743SOL    HW228866   2.578   4.042   6.814  2.6012  1.1340  0.2050
 5744SOL     OW28867   1.332   4.142  12.109 -0.0070 -1.0911 -0.1502
 5744SOL    HW128868   1.309   4.079  12.178 -1.1264 -1.6046 -0.9938
 5744SOL    HW228869   1.405   4.097  12.067  0.3990 -0.4614 -0.1221
 5745SOL     OW28870   3.403   0.901   7.133 -0.2936 -0.2595 -0.0887
 5745SOL    HW128871   3.389   0.962   7.205 -0.5404  0.4983 -0.7886
 5745SOL    HW228872   3.318   0.858   7.127 -0.5633 -0.0496  2.2252
 5746SOL     OW28873   3.904   1.704   3.640  0.1188 -0.4933  0.2928
 5746SOL    HW128874   3.885   1.741   3.553 -0.7110  0.7957  1.0158
 5746SOL    HW228875   3.927   1.784   3.687 -1.0089  1.0127 -1.7012
 5747SOL     OW28876   0.585   0.599   2.039  0.3751 -0.4154  0.5552
 5747SOL    HW128877   0.679   0.597   2.055  0.5149  0.5236 -0.1767
 5747SOL    HW228878   0.573   0.523   1.982 -1.6838  0.9672 -0.8462
 5748SOL     OW28879   0.540   2.963  15.899 -0.7833  0.6932  0.1143
 5748SOL    HW128880   0.560   2.869  15.897  0.0328  0.9039 -1.3056
 5748SOL    HW228881   0.557   2.991  15.809 -1.2223  1.0185  0.1349
 5749SOL     OW28882   4.466   4.265   3.523  0.6903 -0.1929 -0.3643
 5749SOL    HW128883   4.415   4.198   3.568  2.3619 -0.5100  1.0409
 5749SOL    HW228884   4.465   4.340   3.582  2.1125  0.1387 -0.7453
 5750SOL     OW28885   2.356   2.330   3.181 -0.1521 -0.0030 -0.4139
 5750SOL    HW128886   2.372   2.281   3.101  1.7863 -0.2389  0.1143
 5750SOL    HW228887   2.263   2.308   3.186 -0.2310  0.7800  1.4748
 5751SOL     OW28888   1.880   3.022   9.816 -0.2504 -0.0996 -0.0771
 5751SOL    HW128889   1.814   3.080   9.778 -2.3930 -1.2625  1.8539
 5751SOL    HW228890   1.824   2.978   9.880  0.2546 -0.1545  0.3212
 5752SOL     OW28891   2.942   0.089  17.224 -0.2789 -0.3723  0.5370
 5752SOL    HW128892   3.026   0.126  17.248 -1.3997  2.1591  0.4695
 5752SOL    HW228893   2.898   0.173  17.227  0.6363  0.1300 -0.1709
 5753SOL     OW28894   1.017   2.830   4.352  0.0005 -0.5249 -0.1684
 5753SOL    HW128895   0.926   2.858   4.345 -0.8669 -2.7321  2.3348
 5753SOL    HW228896   1.012   2.743   4.391  1.2746  0.4603  2.1781
 5754SOL     OW28897   1.778   0.162   8.630 -0.2242 -0.1201 -0.1439
 5754SOL    HW128898   1.779   0.255   8.611 -1.6267  0.1502  1.0717
 5754SOL    HW228899   1.844   0.126   8.571  1.6854  1.3134  1.1240
 5755SOL     OW28900   3.907   0.785   3.181 -0.2208 -0.4896 -0.1010
 5755SOL    HW128901   3.903   0.878   3.205 -1.3625 -0.7614  0.7771
 5755SOL    HW228902   3.901   0.798   3.087 -2.4489 -0.1313  0.0802
 5756SOL     OW28903   2.241   4.705  14.345  0.2914  0.2608 -0.1000
 5756SOL    HW128904   2.232   4.644  14.273 -1.4169  2.1492 -1.4849
 5756SOL    HW228905   2.321   0.018  14.330  0.6211 -0.4893 -0.8241
 5757SOL     OW28906   4.254   4.050   9.529 -0.2678  0.0053  0.5381
 5757SOL    HW128907   4.158   4.043   9.529 -0.3863  1.6306  2.6354
 5757SOL    HW228908   4.277   4.088   9.445 -0.6287 -1.3905 -0.1900
 5758SOL     OW28909   0.253   1.545  14.145  0.1867  0.0341  0.2537
 5758SOL    HW128910   0.225   1.628  14.185 -1.8987 -1.2549  1.4459
 5758SOL    HW228911   0.168   1.506  14.125  0.3916  0.6917 -1.9386
 5759SOL     OW28912   2.473   1.113   8.399  0.2591  0.0426  0.2698
 5759SOL    HW128913   2.550   1.157   8.436  0.9661 -1.4642  0.6072
 5759SOL    HW228914   2.420   1.191   8.382  0.0367  0.2799  2.0715
 5760SOL     OW28915   3.232   3.989   1.142  0.2776 -0.1705 -0.6970
 5760SOL    HW128916   3.291   3.945   1.203 -1.5756 -1.7850 -0.0636
 5760SOL    HW228917   3.276   3.967   1.060  1.7746 -1.7587  0.5606
 5761SOL     OW28918   2.889   2.233  13.004 -0.5609  0.5464 -0.2478
 5761SOL    HW128919   2.847   2.233  13.090 -1.0191  1.9355 -0.4767
 5761SOL    HW228920   2.934   2.317  13.001  0.3498  0.0933  0.6071
 5762SOL     OW28921   3.462   0.988  13.842  0.5486  0.4745  0.4985
 5762SOL    HW128922   3.530   0.960  13.780 -1.1313 -0.2579 -0.9949
 5762SOL    HW228923   3.489   0.947  13.924 -0.1658  0.8453  0.9147
 5763SOL     OW28924   2.961   1.137   6.102 -0.1595  0.1480  0.0971
 5763SOL    HW128925   2.987   1.100   6.017  0.4009  2.0452 -0.5608
 5763SOL    HW228926   3.028   1.205   6.105  0.9736 -0.8784 -2.0161
 5764SOL     OW28927   2.029   3.161   9.124  0.1268  0.1173 -0.7684
 5764SOL    HW128928   1.962   3.210   9.173  0.6692  1.1997 -1.0952
 5764SOL    HW228929   2.030   3.199   9.036  0.4652  0.5516 -0.5804
 5765SOL     OW28930   0.731   1.223  10.277 -0.5743 -0.1211 -0.0385
 5765SOL    HW128931   0.723   1.285  10.349  0.5793  1.1882 -1.0191
 5765SOL    HW228932   0.672   1.153  10.303  0.3818 -0.5602  0.9264
 5766SOL     OW28933   4.493   3.563   7.967  0.1017  0.0079  0.6745
 5766SOL    HW128934   4.467   3.652   7.989  0.6404  0.6657 -1.3850
 5766SOL    HW228935   4.559   3.535   8.030  0.7748  2.3928  1.0344
 5767SOL     OW28936   2.262   0.357   5.651 -0.0513 -0.2584  0.0533
 5767SOL    HW128937   2.341   0.347   5.704  0.1149 -0.5556 -0.2549
 5767SOL    HW228938   2.208   0.284   5.681  0.3290 -0.3269  0.5608
 5768SOL     OW28939   0.218   2.279   6.436 -0.1645  0.6162  0.2580
 5768SOL    HW128940   0.192   2.362   6.475 -0.7370  0.7615 -0.4412
 5768SOL    HW228941   0.174   2.277   6.351 -0.7735 -2.4981  0.6350
 5769SOL     OW28942   4.029   1.065   5.171  0.4534  0.3135 -0.4299
 5769SOL    HW128943   4.072   0.997   5.120 -1.3605 -0.2590 -1.1996
 5769SOL    HW228944   4.059   1.056   5.261 -1.7626 -1.1777  0.1611
 5770SOL     OW28945   2.445   3.365   8.642  0.4678 -0.0638 -0.2838
 5770SOL    HW128946   2.524   3.363   8.696  0.8411  0.4983 -0.8234
 5770SOL    HW228947   2.495   3.357   8.561  1.4729  4.4975 -0.0896
 5771SOL     OW28948   2.171   3.919   2.148  0.0936 -0.1173  0.2290
 5771SOL    HW128949   2.136   3.964   2.225  1.9451 -0.2177  1.1304
 5771SOL    HW228950   2.090   3.886   2.108 -0.2482 -3.1947  3.3796
 5772SOL     OW28951   3.236   3.384  12.027 -0.4368 -0.3407 -0.5135
 5772SOL    HW128952   3.227   3.406  12.119 -1.1139  2.1007 -1.1704
 5772SOL    HW228953   3.241   3.290  12.043  0.0072 -0.3141 -0.4961
 5773SOL     OW28954   3.641   3.357   7.487  0.0918  0.2448 -0.2660
 5773SOL    HW128955   3.679   3.369   7.400 -0.4886  1.9895 -0.2814
 5773SOL    HW228956   3.708   3.398   7.542 -1.5944  0.2413  1.7726
 5774SOL     OW28957   2.525   3.551   3.381 -0.0668  0.2804 -0.4525
 5774SOL    HW128958   2.504   3.464   3.347 -2.2929 -0.2126  2.2044
 5774SOL    HW228959   2.598   3.533   3.440  2.6743  2.6153 -3.0839
 5775SOL     OW28960   4.041   3.434   3.209  0.5589 -0.2526 -0.2742
 5775SOL    HW128961   4.076   3.388   3.285 -0.4692 -0.9815 -0.2412
 5775SOL    HW228962   4.088   3.517   3.206 -0.3897  0.2320 -2.0036
 5776SOL     OW28963   2.839   3.112   4.876  0.4230 -0.4896 -0.0242
 5776SOL    HW128964   2.780   3.039   4.856  0.0679 -0.5801  1.3294
 5776SOL    HW228965   2.926   3.073   4.864  0.3725 -0.4566 -0.5099
 5777SOL     OW28966   1.963   2.470   2.401 -0.4518  0.5353  0.4245
 5777SOL    HW128967   2.026   2.541   2.387  0.8369 -0.7628 -0.2577
 5777SOL    HW228968   1.893   2.488   2.338  2.5259  2.5520 -2.2549
 5778SOL     OW28969   1.376   2.504   3.876 -0.0731  0.1779  0.1589
 5778SOL    HW128970   1.470   2.518   3.863 -0.2019  1.5928  0.8449
 5778SOL    HW228971   1.370   2.497   3.971 -1.4407  1.3685  0.1508
 5779SOL     OW28972   3.448   4.203   3.640 -0.1738  0.5962  0.2350
 5779SOL    HW128973   3.499   4.276   3.606  0.4181  0.1044  0.0488
 5779SOL    HW228974   3.500   4.129   3.608 -1.5704  0.0150 -0.7102
 5780SOL     OW28975   0.040   1.113   6.944 -0.0031  0.2708 -0.0611
 5780SOL    HW128976   0.039   1.204   6.975 -1.8004  0.3481 -0.3245
 5780SOL    HW228977   0.012   1.061   7.020 -1.8549 -0.8790 -1.5225
 5781SOL     OW28978   2.243   2.765   6.822 -0.1597 -0.0341  0.1464
 5781SOL    HW128979   2.299   2.738   6.895 -1.6723 -0.4587  1.1512
 5781SOL    HW228980   2.309   2.813   6.772  0.4047  0.5610  1.4797
 5782SOL     OW28981   1.821   0.431  13.153  0.3720  0.6194  0.6369
 5782SOL    HW128982   1.884   0.399  13.217  0.2482  1.1715  1.0289
 5782SOL    HW228983   1.874   0.495  13.107  0.1428 -0.2949 -0.9055
 5783SOL     OW28984   3.889   1.041  16.566 -0.1349 -0.2021 -0.0984
 5783SOL    HW128985   3.816   1.085  16.609 -0.2084 -2.5929  2.2341
 5783SOL    HW228986   3.917   1.092  16.490 -0.1378 -2.9172 -1.9341
 5784SOL     OW28987   4.216   1.936  16.011  0.7242 -0.0965  0.3008
 5784SOL    HW128988   4.159   1.989  15.955  0.0006 -0.0246  1.0876
 5784SOL    HW228989   4.287   1.922  15.949  0.5566 -1.4057  0.3999
 5785SOL     OW28990   2.639   1.677   4.351 -0.2137  0.1090  0.3035
 5785SOL    HW128991   2.559   1.668   4.403 -0.1313 -0.8624  0.2633
 5785SOL    HW228992   2.615   1.747   4.291 -0.3312 -0.1283  0.0724
 5786SOL     OW28993   1.651   0.559   6.616  0.1027  0.2311  0.1114
 5786SOL    HW128994   1.597   0.529   6.689 -0.5985  2.6052  0.5760
 5786SOL    HW228995   1.676   0.647   6.648 -0.3574 -0.2425  1.7870
 5787SOL     OW28996   4.736   2.681  17.132 -0.0468 -0.2111 -0.1055
 5787SOL    HW128997   0.064   2.633  17.081  0.8247  0.0765  0.7503
 5787SOL    HW228998   4.664   2.663  17.071  0.4740 -3.7313  0.3395
 5788SOL     OW28999   1.495   2.237   8.816 -0.1596 -0.3584 -0.0947
 5788SOL    HW129000   1.546   2.226   8.736 -0.9905 -2.1156 -0.3847
 5788SOL    HW229001   1.566   2.235   8.881  0.3681 -0.4675 -0.6674
 5789SOL     OW29002   3.733   1.936   1.002 -0.1938  0.5402 -0.4574
 5789SOL    HW129003   3.738   1.842   1.016 -0.3816  0.4326 -1.1203
 5789SOL    HW229004   3.685   1.964   1.081 -1.4373 -0.5462 -0.8250
 5790SOL     OW29005   0.174   1.708   8.725 -0.2829 -0.4834 -0.1649
 5790SOL    HW129006   0.135   1.785   8.683 -0.7023 -0.4071  0.3636
 5790SOL    HW229007   0.222   1.754   8.794  0.8825 -1.1783 -0.5269
 5791SOL     OW29008   3.555   4.491   2.645 -0.4018  0.5677 -0.4864
 5791SOL    HW129009   3.508   4.448   2.717  2.5349 -2.9310 -0.6232
 5791SOL    HW229010   3.616   4.421   2.620 -0.8815 -0.2345  0.5997
 5792SOL     OW29011   3.974   3.084   2.509  0.1398 -0.0764 -0.3942
 5792SOL    HW129012   3.919   3.142   2.562 -1.1223 -1.3193 -0.3168
 5792SOL    HW229013   3.920   3.074   2.431 -1.2959 -1.2083  0.7153
 5793SOL     OW29014   3.271   1.399   6.699 -0.1007  0.6629 -0.3397
 5793SOL    HW129015   3.313   1.464   6.755 -3.2401  0.6968  2.0077
 5793SOL    HW229016   3.278   1.321   6.754 -0.4815  0.9490  0.1227
 5794SOL     OW29017   4.387   2.757   4.338  0.0246 -0.0699  0.0532
 5794SOL    HW129018   4.334   2.735   4.415 -1.6497  0.3951 -0.9570
 5794SOL    HW229019   4.322   2.789   4.275  0.2945  1.5202  0.5750
 5795SOL     OW29020   0.363   3.453   2.760  0.3215  0.1951 -0.5879
 5795SOL    HW129021   0.285   3.436   2.814  0.9261 -0.1834  0.1588
 5795SOL    HW229022   0.431   3.416   2.816 -0.6992  0.1029  0.5873
 5796SOL     OW29023   3.419   4.157   7.079  0.5752  0.0857 -0.4978
 5796SOL    HW129024   3.355   4.141   7.149  1.7229 -0.5189  0.4263
 5796SOL    HW229025   3.459   4.071   7.079  0.6254  0.1090 -0.6680
 5797SOL     OW29026   2.479   1.821   9.888  0.0506  0.6488  0.1848
 5797SOL    HW129027   2.483   1.905   9.934  0.0123 -0.1689  1.6837
 5797SOL    HW229028   2.560   1.828   9.839  0.3480  0.3652  0.6335
 5798SOL     OW29029   4.649   1.334   6.588 -0.3703  0.5399  0.1623
 5798SOL    HW129030   0.004   1.326   6.612 -0.2788  0.1895 -0.2815
 5798SOL    HW229031   4.650   1.249   6.543 -1.1190  0.1709  0.8387
 5799SOL     OW29032   0.347   3.006  14.814 -0.3547  0.3265  0.0983
 5799SOL    HW129033   0.368   3.084  14.763 -1.2636  0.9257  0.6411
 5799SOL    HW229034   0.263   2.977  14.779 -0.8045 -1.4249  2.6299
 5800SOL     OW29035   4.153   3.323  17.525  0.2026  0.3856  0.6998
 5800SOL    HW129036   4.064   3.327  17.559  0.7352 -0.3629  2.2129
 5800SOL    HW229037   4.188   3.289  17.607 -1.0323 -1.4016  0.4866
 5801SOL     OW29038   3.919   2.490  14.993 -0.3252 -0.0238 -0.0817
 5801SOL    HW129039   3.953   2.564  14.942 -1.3322  0.3771 -0.1744
 5801SOL    HW229040   3.976   2.489  15.070  1.0465 -1.7627 -1.1303
 5802SOL     OW29041   1.473   2.836   2.779  0.0180  0.0765  0.1401
 5802SOL    HW129042   1.508   2.859   2.865  0.3307 -0.2202  0.0924
 5802SOL    HW229043   1.421   2.758   2.801 -1.2502  1.3116  1.5071
 5803SOL     OW29044   2.172   0.062   2.780  0.9540 -0.6976 -0.7877
 5803SOL    HW129045   2.100   0.124   2.791  0.0424 -2.3689  2.8118
 5803SOL    HW229046   2.166   0.007   2.858  0.4213 -1.9077 -1.6793
 5804SOL     OW29047   0.102   2.168   1.045  0.0259  0.3281  0.3568
 5804SOL    HW129048   0.075   2.140   0.958 -0.1214  2.1146 -0.1719
 5804SOL    HW229049   0.049   2.247   1.049 -0.3816  0.0264  0.8435
 5805SOL     OW29050   1.544   0.405   4.447 -0.1022 -0.0179 -0.3902
 5805SOL    HW129051   1.518   0.494   4.424 -2.1263 -0.5744 -0.2486
 5805SOL    HW229052   1.509   0.350   4.377 -0.8367  0.2208 -0.2122
 5806SOL     OW29053   0.561   0.486  16.257 -0.7005 -0.3648 -0.4957
 5806SOL    HW129054   0.642   0.486  16.309 -0.1287  0.3118 -1.3915
 5806SOL    HW229055   0.586   0.520  16.171 -1.1147  1.4617  0.1026
 5807SOL     OW29056   1.606   1.221   8.713 -0.0255  0.1905 -0.4922
 5807SOL    HW129057   1.584   1.200   8.622  1.4750  1.5551 -1.1882
 5807SOL    HW229058   1.590   1.138   8.758  3.8824 -0.8745 -1.0391
 5808SOL     OW29059   0.279   1.523   2.399  0.0670 -0.4732  0.2849
 5808SOL    HW129060   0.359   1.563   2.364 -1.0266 -0.1736 -1.8816
 5808SOL    HW229061   0.221   1.599   2.412  1.4077  0.5436  0.4126
 5809SOL     OW29062   4.010   0.961   4.706 -0.2772  0.1433 -0.1801
 5809SOL    HW129063   4.072   0.939   4.635  0.5002  0.9664  0.2337
 5809SOL    HW229064   3.986   0.871   4.727 -0.9936  0.2867 -0.3949
 5810SOL     OW29065   1.827   3.474   4.133 -0.2014 -0.1484  0.8440
 5810SOL    HW129066   1.913   3.513   4.122 -0.2049 -0.9320 -2.0915
 5810SOL    HW229067   1.861   3.389   4.160 -2.7942 -1.8457 -1.1825
 5811SOL     OW29068   2.789   1.995   1.266 -0.1362 -0.2736  0.3086
 5811SOL    HW129069   2.758   1.915   1.308 -0.7931 -0.7892 -1.1641
 5811SOL    HW229070   2.757   2.052   1.336  2.0646 -0.1035  1.1970
 5812SOL     OW29071   0.330   3.897   3.390 -0.8955 -0.7654  0.1907
 5812SOL    HW129072   0.384   3.826   3.425  1.0443 -0.0886 -1.3996
 5812SOL    HW229073   0.379   3.978   3.402 -0.2137 -0.8808 -1.7655
 5813SOL     OW29074   1.217   2.783   1.975  0.0333  0.4997 -0.4949
 5813SOL    HW129075   1.197   2.732   1.896 -2.7308 -1.1660  1.2771
 5813SOL    HW229076   1.262   2.863   1.947  1.0784 -0.1162 -0.5743
 5814SOL     OW29077   1.258   1.221   3.275 -0.2488  0.3541  0.1058
 5814SOL    HW129078   1.191   1.265   3.327 -0.1288 -1.3450  1.6940
 5814SOL    HW229079   1.281   1.154   3.338  0.0204 -0.3889 -0.7856
 5815SOL     OW29080   3.877   4.141   8.492  0.3367 -0.1279  0.3581
 5815SOL    HW129081   3.867   4.100   8.578  3.9736 -2.5898 -0.3794
 5815SOL    HW229082   3.813   4.211   8.502  1.7526  1.1458  0.3295
 5816SOL     OW29083   3.759   2.050  13.304  0.0034 -0.2384 -0.0661
 5816SOL    HW129084   3.826   2.116  13.321 -1.7775  1.3313  0.8621
 5816SOL    HW229085   3.676   2.096  13.289  0.3883  0.2523 -0.6576
 5817SOL     OW29086   0.874   2.120   6.895  1.0720 -0.2640  0.3948
 5817SOL    HW129087   0.914   2.038   6.865  1.2979 -0.0425  0.0897
 5817SOL    HW229088   0.781   2.102   6.903  1.0925  0.4138  1.9507
 5818SOL     OW29089   2.437   3.423  16.724 -0.2046 -0.2431  0.5531
 5818SOL    HW129090   2.472   3.497  16.675  0.7846  0.9740  3.0404
 5818SOL    HW229091   2.410   3.461  16.808 -1.5731 -1.6925  0.7650
 5819SOL     OW29092   4.522   2.447  12.404 -0.0479 -0.2798  0.0531
 5819SOL    HW129093   4.431   2.419  12.410 -0.7604  1.8933 -0.7203
 5819SOL    HW229094   4.565   2.362  12.412  1.1036  0.1669 -1.4440
 5820SOL     OW29095   2.483   4.146   1.300  0.0930  0.1756 -0.2483
 5820SOL    HW129096   2.502   4.234   1.333  1.4990  0.6008 -2.1748
 5820SOL    HW229097   2.401   4.169   1.258 -1.0290 -0.3267  1.6426
 5821SOL     OW29098   0.016   0.592   2.780  0.0993 -0.1617  0.4563
 5821SOL    HW129099   4.722   0.620   2.694  1.4591  1.1935  0.3878
 5821SOL    HW229100   0.110   0.587   2.761  0.3719  1.8346  1.2194
 5822SOL     OW29101   1.370   3.822   9.788  0.5395  0.1501  0.7146
 5822SOL    HW129102   1.400   3.851   9.874  0.6549  0.4973  0.5578
 5822SOL    HW229103   1.425   3.745   9.771  0.4240  0.0302  0.8941
 5823SOL     OW29104   3.992   0.663   4.678 -0.2612  0.0159 -0.1929
 5823SOL    HW129105   3.969   0.595   4.615 -1.0474 -0.4220  0.5766
 5823SOL    HW229106   4.086   0.649   4.692 -0.0759  1.0820 -0.3949
 5824SOL     OW29107   0.475   2.031   5.890  0.2683 -0.3686  0.1460
 5824SOL    HW129108   0.541   2.033   5.821  0.2012  0.4459  0.1069
 5824SOL    HW229109   0.405   1.992   5.837 -1.3413  2.8980 -0.1102
 5825SOL     OW29110   3.053   3.031   4.244  0.7365 -0.3016  0.2442
 5825SOL    HW129111   2.982   3.013   4.305  0.2439 -0.5614 -0.4077
 5825SOL    HW229112   3.050   3.127   4.252 -3.2250 -0.4924  0.8683
 5826SOL     OW29113   0.568   0.476   1.778  0.0991 -0.2951  1.2129
 5826SOL    HW129114   0.612   0.472   1.692 -1.1056 -2.1284  0.6683
 5826SOL    HW229115   0.520   0.558   1.771 -2.1181 -1.8251 -1.8580
 5827SOL     OW29116   0.059   3.562   5.959  0.0256 -0.9664 -0.1152
 5827SOL    HW129117   0.045   3.648   5.998  0.9482 -0.0253 -1.8932
 5827SOL    HW229118   0.109   3.527   6.032  0.1897 -1.2014 -0.3407
 5828SOL     OW29119   4.598   3.324  17.591  0.0631 -0.0452 -0.1272
 5828SOL    HW129120   4.601   3.403  17.645 -3.5728 -1.4920  2.1894
 5828SOL    HW229121   4.516   3.286  17.623  0.9459 -1.8181  0.0275
 5829SOL     OW29122   2.802   3.602   9.782  0.3341 -0.4970 -0.0575
 5829SOL    HW129123   2.771   3.530   9.836 -0.1775 -0.6131 -0.4968
 5829SOL    HW229124   2.764   3.588   9.695 -0.4094  2.2441 -0.1671
 5830SOL     OW29125   3.393   1.154   7.580 -0.2257  0.3418 -0.3226
 5830SOL    HW129126   3.487   1.139   7.586 -0.3077 -0.4947 -1.1233
 5830SOL    HW229127   3.378   1.079   7.522 -0.4085 -1.2297  1.7146
 5831SOL     OW29128   1.101   1.294   8.780 -0.6734  0.2515 -0.1094
 5831SOL    HW129129   1.023   1.252   8.816  1.5417 -1.9597  2.1817
 5831SOL    HW229130   1.079   1.299   8.687  0.3793  1.2368 -0.3004
 5832SOL     OW29131   1.986   0.156   5.090 -0.6354  0.1980 -0.3559
 5832SOL    HW129132   1.916   0.218   5.110  0.0313  1.4714 -1.9492
 5832SOL    HW229133   1.947   0.075   5.122 -0.6529  0.5936  0.6174
 5833SOL     OW29134   1.227   4.604  17.488  0.0961  0.0407 -0.2885
 5833SOL    HW129135   1.257   4.540  17.553  1.8433  0.3902 -0.7440
 5833SOL    HW229136   1.314   4.626  17.453 -0.0575  0.3699 -0.4689
 5834SOL     OW29137   0.787   3.363  13.960  0.1893  0.5312  0.7036
 5834SOL    HW129138   0.865   3.325  13.920 -1.5657 -0.9909 -1.2971
 5834SOL    HW229139   0.799   3.458  13.952  6.2121 -0.4136 -1.3868
 5835SOL     OW29140   3.678   3.591  10.195 -0.3284  0.2970 -0.6422
 5835SOL    HW129141   3.651   3.500  10.203  0.0935  0.2935  0.7841
 5835SOL    HW229142   3.607   3.637  10.151 -0.3722  2.5057  1.7316
 5836SOL     OW29143   0.296   3.883   2.868  0.0675  0.4934 -0.1718
 5836SOL    HW129144   0.379   3.930   2.858 -0.2220  1.0121 -0.0809
 5836SOL    HW229145   0.303   3.818   2.938 -0.5895  0.1018 -0.4699
 5837SOL     OW29146   1.884   0.391   4.735  0.2176  0.1726 -0.3592
 5837SOL    HW129147   1.875   0.298   4.714 -0.2529  0.3198 -0.8055
 5837SOL    HW229148   1.970   0.413   4.700  1.0069  0.8772  2.0165
 5838SOL     OW29149   1.272   2.787   7.697  0.0001  0.6767  0.5185
 5838SOL    HW129150   1.211   2.830   7.758  1.0494  0.7723  1.4910
 5838SOL    HW229151   1.308   2.857   7.642  3.7947 -0.3945  1.7047
 5839SOL     OW29152   2.515   0.849  15.492 -0.2238  0.2623  0.4558
 5839SOL    HW129153   2.534   0.863  15.399 -3.1308  0.4313 -0.0940
 5839SOL    HW229154   2.566   0.768  15.496  1.6383  1.3623 -0.5850
 5840SOL     OW29155   3.188   2.841  13.182 -0.1533  0.2961  0.7925
 5840SOL    HW129156   3.272   2.824  13.140 -1.4442  1.5973 -2.3074
 5840SOL    HW229157   3.130   2.789  13.127 -1.2227 -0.3008  2.4577
 5841SOL     OW29158   0.953   4.237  12.576 -0.0490 -0.1845  0.3720
 5841SOL    HW129159   1.003   4.307  12.617  3.0079 -1.2398 -1.5371
 5841SOL    HW229160   1.019   4.193  12.522 -0.7374  0.4893 -1.0233
 5842SOL     OW29161   1.142   0.084   8.275 -0.3862  0.0615 -0.1523
 5842SOL    HW129162   1.058   0.093   8.229 -1.8217  1.7198  2.8261
 5842SOL    HW229163   1.187   0.012   8.231  0.0368 -0.0707  0.4934
 5843SOL     OW29164   0.545   3.019   2.733  0.1642 -0.3887  0.0697
 5843SOL    HW129165   0.493   3.026   2.653  0.2810  3.5675  0.3669
 5843SOL    HW229166   0.585   3.105   2.745  2.1992 -1.2827 -0.2649
 5844SOL     OW29167   3.289   2.059  12.132  0.4648  0.4203  0.0443
 5844SOL    HW129168   3.250   1.980  12.095 -1.1840  0.4599  1.6955
 5844SOL    HW229169   3.281   2.130  12.068 -0.2512 -0.2256 -0.5855
 5845SOL     OW29170   0.948   2.065   2.487 -0.1598  0.3064 -0.5612
 5845SOL    HW129171   0.927   1.976   2.516  0.2039  0.6402  0.7309
 5845SOL    HW229172   0.920   2.115   2.563 -2.0414  2.0439 -2.4065
 5846SOL     OW29173   4.214   4.237  10.545 -0.7167  0.1417  0.0132
 5846SOL    HW129174   4.133   4.227  10.595 -0.0894  0.6107  1.1189
 5846SOL    HW229175   4.242   4.324  10.576 -2.0564 -0.3929  2.7122
 5847SOL     OW29176   1.489   0.667   4.673 -0.1414 -0.2892  0.2116
 5847SOL    HW129177   1.435   0.649   4.595  0.1944  2.2795 -0.6346
 5847SOL    HW229178   1.566   0.681   4.618 -1.4158 -0.7897 -1.7141
 5848SOL     OW29179   3.640   0.408   3.123  0.0238 -0.4882 -0.3821
 5848SOL    HW129180   3.653   0.501   3.104  3.0632 -1.5991 -3.7831
 5848SOL    HW229181   3.637   0.407   3.218 -0.2688 -2.9428 -0.4217
 5849SOL     OW29182   1.845   3.782   1.765  0.0560 -0.4558  0.1449
 5849SOL    HW129183   1.903   3.857   1.774  0.6462 -1.0452  1.3257
 5849SOL    HW229184   1.759   3.819   1.785 -0.1304 -0.3173 -0.9193
 5850SOL     OW29185   2.629   0.377   3.490 -0.1565  0.3215  0.6426
 5850SOL    HW129186   2.715   0.343   3.515  0.3410 -1.1653 -3.1035
 5850SOL    HW229187   2.583   0.304   3.449 -1.1902  0.5980  1.3371
 5851SOL     OW29188   0.353   2.163   8.161  0.4465  0.4071 -0.3872
 5851SOL    HW129189   0.370   2.078   8.121  0.3579 -0.5018  1.5067
 5851SOL    HW229190   0.345   2.138   8.253  2.2981 -0.1802 -0.3736
 5852SOL     OW29191   1.422   0.976  15.426 -0.2194  0.3446  0.9311
 5852SOL    HW129192   1.471   1.013  15.500  0.8115 -2.8750  1.8640
 5852SOL    HW229193   1.341   0.947  15.469  0.3488 -0.4774  1.4439
 5853SOL     OW29194   4.265   2.236   6.244  0.0781 -0.6089 -0.3243
 5853SOL    HW129195   4.315   2.156   6.228  0.3778 -0.6350  0.7430
 5853SOL    HW229196   4.201   2.233   6.173  0.9041 -2.6454 -0.9844
 5854SOL     OW29197   0.418   2.344  12.815  0.7287 -0.3424 -0.3445
 5854SOL    HW129198   0.404   2.251  12.798 -1.4515 -0.2853  1.1409
 5854SOL    HW229199   0.328   2.373  12.827  1.2862  1.5372 -0.6906
 5855SOL     OW29200   2.079   2.713   1.210  0.0700 -0.3333  0.4754
 5855SOL    HW129201   2.108   2.785   1.154  1.6479 -2.2674 -1.1962
 5855SOL    HW229202   2.155   2.716   1.267  0.2269  0.6923  0.2079
 5856SOL     OW29203   3.175   2.586   8.341  0.6517 -0.4318  0.3623
 5856SOL    HW129204   3.270   2.595   8.348  0.8779 -1.3473 -1.4377
 5856SOL    HW229205   3.155   2.632   8.259  0.9487 -1.1052 -0.0968
 5857SOL     OW29206   2.195   1.128  12.308  0.0050  0.1176  0.5222
 5857SOL    HW129207   2.171   1.105  12.218 -1.0768  2.3432  0.2627
 5857SOL    HW229208   2.287   1.102  12.299 -0.8381 -2.5657 -0.6682
 5858SOL     OW29209   3.456   2.252   3.413 -0.2070 -0.1966 -0.5829
 5858SOL    HW129210   3.432   2.328   3.466  1.6917  0.5348 -0.7772
 5858SOL    HW229211   3.538   2.230   3.457 -1.4741 -0.4084  1.7316
 5859SOL     OW29212   4.047   4.220   7.618 -0.6306 -0.0614  0.1176
 5859SOL    HW129213   3.972   4.248   7.670 -1.4112  0.0551 -1.0569
 5859SOL    HW229214   3.998   4.174   7.549 -0.4007 -0.3605  0.1509
 5860SOL     OW29215   3.935   2.218  14.850  0.0563  0.1702 -0.3775
 5860SOL    HW129216   3.860   2.219  14.791  0.7863  0.2088 -1.3234
 5860SOL    HW229217   3.962   2.310  14.851 -1.1663  0.4887  1.2702
 5861SOL     OW29218   4.248   4.696   4.166  0.1867 -0.2977  0.0272
 5861SOL    HW129219   4.342   4.679   4.153  0.3006  0.3951 -0.0911
 5861SOL    HW229220   4.249   0.011   4.246 -0.3294  3.3892 -2.3495
 5862SOL     OW29221   2.660   0.187   0.203 -0.1062  0.5584  0.0559
 5862SOL    HW129222   2.693   0.099   0.181 -1.1539  0.3696 -0.7657
 5862SOL    HW229223   2.715   0.242   0.148  0.5612 -0.6335 -0.4734
 5863SOL     OW29224   3.947   4.167   2.548 -0.5501 -0.1480 -0.2205
 5863SOL    HW129225   3.927   4.200   2.635 -0.7205  0.9107 -0.6692
 5863SOL    HW229226   3.936   4.073   2.562  0.6067 -0.1180  0.8694
 5864SOL     OW29227   1.364   3.190   4.206  0.5746 -0.0663 -0.3160
 5864SOL    HW129228   1.339   3.100   4.183 -2.4940  0.4737  0.8498
 5864SOL    HW229229   1.329   3.229   4.126 -0.2773 -0.2702 -0.0412
 5865SOL     OW29230   0.223   2.490   6.107  0.2791 -0.0851  0.0686
 5865SOL    HW129231   0.162   2.456   6.172  1.6386 -1.3067  0.6933
 5865SOL    HW229232   0.307   2.491   6.153  0.2215 -3.3647  0.2409
 5866SOL     OW29233   0.106   4.026  10.636  0.9608  0.1006 -0.4682
 5866SOL    HW129234   0.088   4.010  10.729  0.9799  2.7160 -0.0155
 5866SOL    HW229235   0.195   3.993  10.624  0.0784 -1.7953 -1.7455
 5867SOL     OW29236   2.565   4.147   3.646 -0.1153 -0.1697  0.1390
 5867SOL    HW129237   2.487   4.102   3.612 -0.2352 -0.3566  0.6561
 5867SOL    HW229238   2.638   4.116   3.593  0.1460 -2.4186  1.7788
 5868SOL     OW29239   2.218   4.106   5.674  0.3373  0.5054  0.4472
 5868SOL    HW129240   2.300   4.055   5.672 -0.2641 -0.3951 -1.1790
 5868SOL    HW229241   2.240   4.192   5.711  2.1950  0.1003  0.3164
 5869SOL     OW29242   0.655   0.681  13.354 -0.8453  0.5896  0.5449
 5869SOL    HW129243   0.703   0.600  13.340  0.8671  1.3855  1.8211
 5869SOL    HW229244   0.564   0.657  13.336 -0.6901  1.2182 -1.0786
 5870SOL     OW29245   3.427   0.324   3.491 -0.7413  0.7981  0.4842
 5870SOL    HW129246   3.367   0.264   3.448 -0.9400  1.1080  0.3257
 5870SOL    HW229247   3.512   0.302   3.452 -2.1277 -1.4454 -1.2558
 5871SOL     OW29248   2.220   2.660   0.498  0.6151  0.1703  0.0399
 5871SOL    HW129249   2.236   2.583   0.444  0.0347  0.6088 -0.7485
 5871SOL    HW229250   2.162   2.626   0.566 -1.1520  1.6392 -0.7438
 5872SOL     OW29251   2.915   3.113  15.537  0.0424  0.5886  0.0533
 5872SOL    HW129252   2.983   3.177  15.519 -0.0345  1.1784  1.8240
 5872SOL    HW229253   2.972   3.050  15.581  0.8582  0.5899 -1.0245
 5873SOL     OW29254   2.753   2.397   8.672  0.2438 -0.3570  0.0567
 5873SOL    HW129255   2.664   2.388   8.706  0.3516  1.6505  0.8479
 5873SOL    HW229256   2.785   2.461   8.735 -0.2667 -0.8272  0.7973
 5874SOL     OW29257   2.929   3.891   5.669  0.0351  0.4603 -0.2084
 5874SOL    HW129258   2.882   3.848   5.740  1.3264 -1.4127 -0.4978
 5874SOL    HW229259   2.917   3.983   5.695 -0.2923  0.3521  0.0176
 5875SOL     OW29260   3.431   2.915   2.524  0.2309  0.4400 -0.3148
 5875SOL    HW129261   3.370   2.843   2.539  0.6280  0.2142  0.2060
 5875SOL    HW229262   3.498   2.866   2.477  1.1719 -0.7220  2.2501
 5876SOL     OW29263   0.162   3.884   6.611  0.6758  0.2427 -0.5906
 5876SOL    HW129264   0.076   3.897   6.650  1.2110  0.8807  0.3639
 5876SOL    HW229265   0.148   3.793   6.582  3.2261  0.2271 -1.8202
 5877SOL     OW29266   1.155   1.950   2.742  0.2749 -0.5420  0.2639
 5877SOL    HW129267   1.153   1.866   2.695  1.1122 -0.3024 -0.1948
 5877SOL    HW229268   1.063   1.977   2.751 -0.0264 -1.5197  0.1559
 5878SOL     OW29269   0.634   2.098   3.121  0.4966 -0.0587  0.5441
 5878SOL    HW129270   0.610   2.094   3.214  0.3640 -0.6380  0.4839
 5878SOL    HW229271   0.646   2.006   3.100 -0.4237 -0.1082  0.2532
 5879SOL     OW29272   3.572   3.862   8.445  0.3082 -0.3383 -0.1827
 5879SOL    HW129273   3.648   3.820   8.406  1.1257 -0.4578  1.5451
 5879SOL    HW229274   3.597   3.954   8.439  0.4449 -0.2619  1.5804
 5880SOL     OW29275   0.298   0.541   2.770  0.0675  0.1439  0.2207
 5880SOL    HW129276   0.286   0.449   2.794 -2.1856  0.3684 -0.0752
 5880SOL    HW229277   0.372   0.564   2.827 -0.5395  1.9567  0.3066
 5881SOL     OW29278   4.117   4.276  17.451 -0.3729 -0.1258  0.1229
 5881SOL    HW129279   4.140   4.255  17.542  1.0386 -0.3595 -0.2918
 5881SOL    HW229280   4.021   4.277  17.453 -0.3700 -1.5109  1.1498
 5882SOL     OW29281   0.269   3.873   2.021  0.1786  0.2604 -0.5580
 5882SOL    HW129282   0.364   3.870   2.006  0.3102 -1.2273  0.6178
 5882SOL    HW229283   0.250   3.786   2.058 -1.0185  0.5718 -0.4384
 5883SOL     OW29284   2.721   3.705   0.231  0.2546  0.2402  0.1453
 5883SOL    HW129285   2.740   3.731   0.321  2.0874  1.1023 -0.4815
 5883SOL    HW229286   2.645   3.758   0.211 -1.2763 -1.3712  1.7693
 5884SOL     OW29287   1.133   4.585   2.385 -0.4662 -0.2461 -0.1145
 5884SOL    HW129288   1.094   4.672   2.398  2.7614  0.8682  2.4081
 5884SOL    HW229289   1.055   4.534   2.366  0.9436 -2.1663 -0.7455
 5885SOL     OW29290   2.897   1.825   8.138 -0.5892  0.2630  0.8176
 5885SOL    HW129291   2.992   1.836   8.125 -1.1067  1.9820 -1.4484
 5885SOL    HW229292   2.863   1.893   8.080 -0.4702  0.4750  0.9982
 5886SOL     OW29293   0.783   3.243   6.685 -0.1273  0.1133  0.1463
 5886SOL    HW129294   0.728   3.220   6.760 -0.5368  0.2356 -0.1171
 5886SOL    HW229295   0.815   3.329   6.715  0.9195 -0.9569  2.1571
 5887SOL     OW29296   4.411   0.972   5.493  0.1355 -0.0243 -0.6100
 5887SOL    HW129297   4.431   0.889   5.536  0.9169  1.3975  1.7956
 5887SOL    HW229298   4.428   1.029   5.567 -0.2473 -0.7089  0.0013
 5888SOL     OW29299   0.926   3.332   1.140 -0.1502 -0.1475  0.1757
 5888SOL    HW129300   0.834   3.312   1.152  0.5771 -2.8807  1.2474
 5888SOL    HW229301   0.952   3.257   1.086  1.8434 -0.5566  1.6558
 5889SOL     OW29302   0.528   0.100  12.572 -0.2781 -0.4301 -0.2952
 5889SOL    HW129303   0.477   0.176  12.544  0.6428 -0.8930 -3.2863
 5889SOL    HW229304   0.498   0.096  12.662 -0.2070  0.5661 -0.2313
 5890SOL     OW29305   1.649   4.724   7.200 -0.1600 -0.0217 -0.2354
 5890SOL    HW129306   1.583   0.049   7.231  0.6244  0.0705  1.2950
 5890SOL    HW229307   1.614   4.718   7.111 -1.5618  1.6014  0.2066
 5891SOL     OW29308   2.249   2.864   4.638 -0.1638 -0.1095  0.8725
 5891SOL    HW129309   2.180   2.798   4.644 -1.2866  0.9570 -0.0759
 5891SOL    HW229310   2.322   2.810   4.665 -0.4242 -0.7835  0.2488
 5892SOL     OW29311   4.280   0.620   4.264  0.4987  0.4642  0.1324
 5892SOL    HW129312   4.337   0.558   4.217 -1.2438  0.3896 -1.8759
 5892SOL    HW229313   4.283   0.687   4.196  0.8318  1.6341  1.3048
 5893SOL     OW29314   0.667   2.017   5.712  0.6935 -0.2672  0.1183
 5893SOL    HW129315   0.661   2.107   5.680 -2.0291 -0.2861  0.5857
 5893SOL    HW229316   0.655   1.970   5.630 -0.5672 -0.5866  0.4757
 5894SOL     OW29317   0.396   2.834   7.967 -0.9119  0.0584 -0.1582
 5894SOL    HW129318   0.372   2.907   8.025 -1.0924 -1.3058  1.4914
 5894SOL    HW229319   0.332   2.766   7.989 -1.5700  0.8658  0.3994
 5895SOL     OW29320   1.334   1.865   8.991  0.3067 -0.1457 -0.2052
 5895SOL    HW129321   1.426   1.878   9.013  0.9424 -1.4256 -2.1232
 5895SOL    HW229322   1.332   1.796   8.924 -0.1887  1.0332 -1.3950
 5896SOL     OW29323   1.006   3.823  14.086 -0.1791 -0.1024 -0.2969
 5896SOL    HW129324   0.929   3.821  14.143 -0.1339 -2.8118 -0.3317
 5896SOL    HW229325   1.028   3.913  14.063  1.1128 -0.5929 -0.9610
 5897SOL     OW29326   3.232   2.971   6.747 -0.3071 -0.0787  0.0792
 5897SOL    HW129327   3.195   2.965   6.835 -1.0249 -0.2601 -0.2322
 5897SOL    HW229328   3.162   3.018   6.701 -1.3729 -2.9083 -1.1809
 5898SOL     OW29329   4.019   1.214  17.469  0.2277 -0.2173 -0.0676
 5898SOL    HW129330   3.936   1.167  17.463  0.7230 -0.8952 -1.4864
 5898SOL    HW229331   4.073   1.143  17.504 -0.2508 -1.3885 -1.6954
 5899SOL     OW29332   0.360   0.103  12.795  0.5900 -0.4025  0.6461
 5899SOL    HW129333   0.359   0.173  12.860 -3.0211 -1.7872  2.0938
 5899SOL    HW229334   0.290   0.136  12.739  2.3000 -0.2903 -1.4431
 5900SOL     OW29335   1.494   1.121   6.623  0.6263  0.3881  0.4218
 5900SOL    HW129336   1.419   1.139   6.679 -0.0732  0.0099 -0.4000
 5900SOL    HW229337   1.461   1.144   6.536 -0.3799 -1.0571  0.4301
 5901SOL     OW29338   0.116   2.692  14.200 -0.0888 -0.5115 -0.0234
 5901SOL    HW129339   0.200   2.679  14.246  0.8581 -0.0650 -1.6197
 5901SOL    HW229340   0.085   2.602  14.200  1.0386 -0.9066 -0.5764
 5902SOL     OW29341   3.825   3.694   2.998  0.2400  0.3240 -0.8077
 5902SOL    HW129342   3.918   3.710   2.982  0.7584 -0.0146  1.8316
 5902SOL    HW229343   3.789   3.708   2.911  1.9345  0.4236 -1.4852
 5903SOL     OW29344   1.502   0.427   7.857  0.0303  0.0039 -0.4621
 5903SOL    HW129345   1.497   0.347   7.804  0.8774  1.2344 -2.4228
 5903SOL    HW229346   1.409   0.452   7.856  0.8105  2.8757  1.4475
 5904SOL     OW29347   3.278   0.513   1.187  0.0094 -0.7786  0.3421
 5904SOL    HW129348   3.320   0.587   1.232  0.2538 -1.0040  0.4814
 5904SOL    HW229349   3.192   0.521   1.227  0.0420 -0.7374  0.4037
 5905SOL     OW29350   2.307   3.931   7.147  0.0734 -0.7300  0.4503
 5905SOL    HW129351   2.271   3.885   7.222  1.6573 -0.8404  1.1309
 5905SOL    HW229352   2.325   3.866   7.079  0.6285  2.1145 -2.1324
 5906SOL     OW29353   2.913   0.212  16.213 -0.4305  0.3929 -0.4023
 5906SOL    HW129354   2.996   0.224  16.167  0.2046  0.3898  0.7511
 5906SOL    HW229355   2.874   0.299  16.222 -1.6772 -0.4007  1.7066
 5907SOL     OW29356   2.443   1.473   7.058  0.1686 -0.1027 -0.7862
 5907SOL    HW129357   2.490   1.531   7.117 -0.6006 -0.2051 -0.0735
 5907SOL    HW229358   2.406   1.545   7.006 -0.3336  0.2141  0.0103
 5908SOL     OW29359   2.475   1.414   8.975 -0.5304  0.0545 -0.2864
 5908SOL    HW129360   2.398   1.436   8.922  0.4938 -0.9116 -2.1355
 5908SOL    HW229361   2.490   1.502   9.010 -0.0995 -0.0187 -0.2930
 5909SOL     OW29362   2.646   3.532  15.188  0.3441 -0.4885  0.1676
 5909SOL    HW129363   2.688   3.617  15.200 -0.1885 -0.1046 -0.6703
 5909SOL    HW229364   2.697   3.484  15.123 -0.9686  1.5205 -2.3666
 5910SOL     OW29365   2.296   3.141   2.556  0.3369 -0.2956 -0.7716
 5910SOL    HW129366   2.298   3.209   2.488  3.3992  0.7254  0.3291
 5910SOL    HW229367   2.347   3.069   2.519 -0.5436 -2.0232  1.3472
 5911SOL     OW29368   2.198   0.115   4.111 -0.2384 -0.8512  0.0567
 5911SOL    HW129369   2.229   0.110   4.202  1.1113 -1.1701 -0.4236
 5911SOL    HW229370   2.187   0.210   4.110  2.2279 -0.5655  0.4429
 5912SOL     OW29371   1.049   2.943   7.883 -0.2245 -0.5664  0.4760
 5912SOL    HW129372   0.977   2.945   7.821  0.8805 -0.5183 -0.7971
 5912SOL    HW229373   1.043   3.030   7.924  0.5799 -0.4036  0.2589
 5913SOL     OW29374   3.825   4.587  17.366  0.4954 -1.0062 -0.0604
 5913SOL    HW129375   3.799   4.515  17.308 -0.9988 -0.3056 -0.2589
 5913SOL    HW229376   3.766   4.573  17.440 -0.5878  0.9458 -0.5590
 5914SOL     OW29377   4.550   2.647   6.240 -0.1516  0.6740  0.3164
 5914SOL    HW129378   4.477   2.648   6.301  1.6073 -1.4565  2.4352
 5914SOL    HW229379   4.548   2.554   6.219  0.7599  0.6183  0.4463
 5915SOL     OW29380   2.311   4.165   7.599  0.2922  0.3427 -1.0708
 5915SOL    HW129381   2.260   4.190   7.523  3.0639  0.6986 -2.8342
 5915SOL    HW229382   2.263   4.086   7.624  1.3581 -0.5362 -1.7675
 5916SOL     OW29383   3.794   3.473  16.031 -0.4871  0.1192  0.4667
 5916SOL    HW129384   3.879   3.437  16.056 -1.3598 -1.8814  0.5806
 5916SOL    HW229385   3.746   3.475  16.113 -0.5068 -2.0305  0.5215
 5917SOL     OW29386   2.490   3.123  10.759  0.8360 -0.8040 -0.1246
 5917SOL    HW129387   2.549   3.050  10.780 -0.7572 -2.0555 -0.0051
 5917SOL    HW229388   2.555   3.189  10.779  1.4783 -0.8457 -2.0620
 5918SOL     OW29389   2.752   1.697  14.623 -0.0988  0.3325  0.1550
 5918SOL    HW129390   2.828   1.665  14.575 -1.2065 -1.4320 -0.4402
 5918SOL    HW229391   2.689   1.627  14.604  2.7619 -2.8981  2.4701
 5919SOL     OW29392   2.023   0.649   2.147 -0.5971  0.5356 -0.5259
 5919SOL    HW129393   2.102   0.643   2.200 -1.2501 -1.1473  0.2619
 5919SOL    HW229394   2.061   0.618   2.064  0.4386  2.4523 -0.7622
 5920SOL     OW29395   3.836   1.657  12.930  0.1605 -0.0082 -0.0877
 5920SOL    HW129396   3.805   1.718  12.997 -1.8938  0.1629 -1.2052
 5920SOL    HW229397   3.919   1.695  12.899  0.1399 -3.2523 -4.1544
 5921SOL     OW29398   3.395   1.780   4.364 -0.1724 -0.2300  0.3431
 5921SOL    HW129399   3.319   1.734   4.401 -0.7789 -0.9010 -1.7616
 5921SOL    HW229400   3.407   1.852   4.426 -0.5596 -0.5839  0.8257
 5922SOL     OW29401   3.701   3.778   2.470 -0.0563 -0.4876  0.3791
 5922SOL    HW129402   3.716   3.860   2.422 -0.6781 -0.3622  0.4068
 5922SOL    HW229403   3.606   3.782   2.476 -0.1768 -2.1596 -0.3606
 5923SOL     OW29404   3.339   3.813   2.573  0.3648 -0.2944  0.2961
 5923SOL    HW129405   3.247   3.794   2.554  0.6738  0.3515 -1.9398
 5923SOL    HW229406   3.359   3.862   2.493 -2.1265  0.2235 -0.0042
 5924SOL     OW29407   1.307   2.000   9.869 -0.3697  0.1901 -0.3605
 5924SOL    HW129408   1.263   1.939   9.810  1.5056 -2.3085  0.7634
 5924SOL    HW229409   1.363   2.046   9.806 -0.3141  1.2901  0.5061
 5925SOL     OW29410   2.652   2.667   1.555  0.4921 -0.0338 -0.0363
 5925SOL    HW129411   2.637   2.701   1.644 -0.5332  1.0308 -0.6126
 5925SOL    HW229412   2.574   2.614   1.545  0.9416 -0.4291 -1.3575
 5926SOL     OW29413   0.358   0.340  13.623  0.3346  0.0313 -0.3890
 5926SOL    HW129414   0.424   0.290  13.575  2.0440  0.0842  1.8813
 5926SOL    HW229415   0.380   0.316  13.713 -1.1748 -0.7742 -0.2387
 5927SOL     OW29416   2.038   3.414  17.415  0.2648  0.4974  0.1573
 5927SOL    HW129417   2.060   3.496  17.371  0.6508  1.1399  1.5390
 5927SOL    HW229418   2.086   3.412  17.498 -1.4770 -1.8194  1.1019
 5928SOL     OW29419   3.996   0.069   0.305 -0.0093  0.1690 -0.1244
 5928SOL    HW129420   4.089   0.081   0.321  0.0233  1.2903 -1.0661
 5928SOL    HW229421   3.967   0.081   0.395 -2.5148 -0.7170 -0.8082
 5929SOL     OW29422   4.102   1.822  14.321 -0.2794 -0.0703 -0.5243
 5929SOL    HW129423   4.078   1.892  14.262  0.4429  1.3894  0.9124
 5929SOL    HW229424   4.054   1.751  14.278 -0.8577  1.3518 -2.1822
 5930SOL     OW29425   3.809   0.459   6.258  0.8925 -0.3620  0.0097
 5930SOL    HW129426   3.718   0.441   6.235  0.1565  0.8182  1.9780
 5930SOL    HW229427   3.810   0.553   6.274 -0.2367 -0.3950  0.2317
 5931SOL     OW29428   0.283   4.691  12.041 -0.0564 -0.2215 -0.0249
 5931SOL    HW129429   0.356   4.692  12.104 -2.9958 -2.0865  3.4049
 5931SOL    HW229430   0.307   4.613  11.990  0.3882 -1.4327  2.0327
 5932SOL     OW29431   1.339   2.574   5.585 -0.3770 -0.1232 -0.0394
 5932SOL    HW129432   1.327   2.491   5.631  2.4822 -0.2986  0.3640
 5932SOL    HW229433   1.421   2.607   5.622  0.1744 -1.1578 -0.3379
 5933SOL     OW29434   1.089   0.581   2.195  0.4311 -0.3862 -0.0710
 5933SOL    HW129435   1.183   0.576   2.180  0.3295 -1.0653 -0.4720
 5933SOL    HW229436   1.058   0.493   2.177 -1.8269  0.2757  0.5522
 5934SOL     OW29437   1.338   1.580  17.336 -0.3434 -0.1875  0.3874
 5934SOL    HW129438   1.417   1.599  17.386  0.8245  2.5296 -2.4880
 5934SOL    HW229439   1.383   1.532  17.267  0.0591 -0.6629  0.9766
 5935SOL     OW29440   0.211   4.486   3.117 -0.2915 -0.6937  0.0216
 5935SOL    HW129441   0.272   4.425   3.076  0.7055  0.4632 -0.2011
 5935SOL    HW229442   0.270   4.541   3.169 -0.1953  2.2631 -3.1854
 5936SOL     OW29443   1.460   3.294   3.345  0.0642  0.2579  0.7033
 5936SOL    HW129444   1.370   3.318   3.367  0.0905  0.2966  0.7657
 5936SOL    HW229445   1.472   3.211   3.392 -1.1105 -1.7534 -2.5239
 5937SOL     OW29446   1.954   0.491   3.005 -0.4932 -0.2076 -0.0694
 5937SOL    HW129447   1.896   0.532   2.941  0.9634 -0.5279 -1.6054
 5937SOL    HW229448   1.934   0.546   3.080  1.7067 -0.6748  0.8385
 5938SOL     OW29449   0.454   1.863   7.119  0.6516  0.7015  0.3728
 5938SOL    HW129450   0.530   1.886   7.066  1.0117 -0.7148  0.2803
 5938SOL    HW229451   0.508   1.843   7.195  1.5365  1.5065 -0.0419
 5939SOL     OW29452   2.983   0.380   5.172  0.5505  0.4219  0.5463
 5939SOL    HW129453   2.952   0.417   5.255  1.7096 -2.5095  2.2834
 5939SOL    HW229454   3.026   0.450   5.123 -0.3164 -0.2970 -1.2479
 5940SOL     OW29455   2.468   4.169   6.720 -0.1416  0.1257  0.6596
 5940SOL    HW129456   2.500   4.258   6.735  0.6167  0.2389 -1.6760
 5940SOL    HW229457   2.433   4.195   6.634  1.9390 -1.0399 -0.5265
 5941SOL     OW29458   1.758   2.235  12.023 -0.1003 -0.1976  0.2178
 5941SOL    HW129459   1.675   2.218  12.068 -0.2233  0.6358  0.3197
 5941SOL    HW229460   1.805   2.291  12.086 -1.0670  0.4695  0.3390
 5942SOL     OW29461   0.364   0.080   8.030  0.3399  0.3436  0.1342
 5942SOL    HW129462   0.355   0.145   8.099 -1.2088  1.0942 -0.7904
 5942SOL    HW229463   0.366   4.736   8.081  1.4788 -0.6486 -1.4795
 5943SOL     OW29464   4.473   2.586   8.793 -0.0423 -0.1513  0.5809
 5943SOL    HW129465   4.507   2.675   8.787 -0.8917  0.1900  0.7365
 5943SOL    HW229466   4.518   2.546   8.867 -0.6157 -3.3478 -0.8261
 5944SOL     OW29467   3.410   1.319   8.098  0.3104 -0.2146 -0.0880
 5944SOL    HW129468   3.347   1.247   8.095  0.4868 -0.4318  1.8448
 5944SOL    HW229469   3.381   1.371   8.023 -1.4531 -0.7965  0.1736
 5945SOL     OW29470   1.161   4.551   4.555 -0.1381  0.6298 -0.1840
 5945SOL    HW129471   1.159   4.530   4.648 -0.7675  1.8255  0.0592
 5945SOL    HW229472   1.231   4.492   4.525 -0.8173  0.6030 -1.7342
 5946SOL     OW29473   1.110   1.410   0.513 -0.0085  0.7426 -0.7722
 5946SOL    HW129474   1.157   1.493   0.519 -1.3356  1.3529  1.3014
 5946SOL    HW229475   1.023   1.444   0.533 -0.8621 -3.1451  1.9788
 5947SOL     OW29476   2.154   4.090   8.784  0.0474 -0.7000 -0.2022
 5947SOL    HW129477   2.245   4.091   8.754  0.2565 -0.9408  0.4359
 5947SOL    HW229478   2.107   4.127   8.709  0.5097  1.7020  0.7135
 5948SOL     OW29479   1.475   3.467   5.171 -0.0559 -0.0911 -0.3763
 5948SOL    HW129480   1.521   3.503   5.095  0.9101  1.8964  1.1391
 5948SOL    HW229481   1.467   3.373   5.153  0.1040 -0.0176 -0.8430
 5949SOL     OW29482   1.891   1.475   0.092 -0.2364  0.1335  0.5349
 5949SOL    HW129483   1.845   1.558   0.086  0.6375  0.5667 -0.3272
 5949SOL    HW229484   1.977   1.510   0.115  0.7112 -2.3192  0.7103
 5950SOL     OW29485   2.132   0.436   2.413 -0.6709  0.1209 -0.1833
 5950SOL    HW129486   2.122   0.467   2.503  2.1365 -1.8320  0.7747
 5950SOL    HW229487   2.122   0.342   2.426  0.7972  0.1426  1.1040
 5951SOL     OW29488   1.995   4.122   0.449  0.3415  0.3273  0.1379
 5951SOL    HW129489   1.902   4.100   0.449 -0.0084  1.8002 -1.3745
 5951SOL    HW229490   1.995   4.216   0.432  0.5098  0.2884 -0.0830
 5952SOL     OW29491   1.086   2.806  10.476 -0.0006 -0.0382  0.7564
 5952SOL    HW129492   1.145   2.847  10.540 -0.4223  2.5401 -0.5450
 5952SOL    HW229493   1.118   2.838  10.392  0.4105 -1.7815  0.2458
 5953SOL     OW29494   1.364   3.913  15.732 -0.2143 -0.5158 -0.2904
 5953SOL    HW129495   1.318   3.996  15.743  1.1708  0.0425  1.2710
 5953SOL    HW229496   1.446   3.940  15.691  0.3874  2.3194  2.8428
 5954SOL     OW29497   0.461   2.698   8.229  0.0645  0.1595 -1.1243
 5954SOL    HW129498   0.536   2.756   8.220  2.8848 -2.8734  2.3151
 5954SOL    HW229499   0.498   2.615   8.198  1.4824  0.4118 -0.1413
 5955SOL     OW29500   3.085   4.004   8.032 -0.2492  0.2296 -0.2600
 5955SOL    HW129501   3.140   3.929   8.013 -0.5578 -0.2809  0.8968
 5955SOL    HW229502   3.004   3.990   7.983 -0.0166 -0.0724 -0.5525
 5956SOL     OW29503   1.116   2.906  11.083  0.3410  0.0022  0.3282
 5956SOL    HW129504   1.201   2.862  11.074  0.4608 -0.0406  1.5847
 5956SOL    HW229505   1.131   3.000  11.077 -2.7559  0.4898  0.4412
 5957SOL     OW29506   3.908   3.344   5.112  0.5601  0.0752 -0.3289
 5957SOL    HW129507   3.872   3.423   5.152 -1.0433 -0.2435 -1.1189
 5957SOL    HW229508   3.858   3.333   5.031  0.7829  1.3754 -0.6431
 5958SOL     OW29509   3.127   1.535  14.166  0.4390  0.1444  0.3829
 5958SOL    HW129510   3.069   1.469  14.204  1.3366  0.2608  1.9458
 5958SOL    HW229511   3.155   1.584  14.243 -1.3820 -0.6331  1.5206
 5959SOL     OW29512   0.145   1.596   6.803 -0.0244 -0.4478 -0.0219
 5959SOL    HW129513   0.174   1.559   6.886 -0.4794  2.3384  1.3624
 5959SOL    HW229514   0.078   1.657   6.834 -1.5746 -1.2635 -1.7458
 5960SOL     OW29515   2.906   3.126   9.531  0.5682 -0.3601 -0.3595
 5960SOL    HW129516   2.863   3.196   9.580  0.7408 -1.5231  1.4714
 5960SOL    HW229517   2.971   3.096   9.595 -0.1426 -1.5708 -0.1998
 5961SOL     OW29518   1.375   0.310   6.355 -0.5950  0.0453 -0.1196
 5961SOL    HW129519   1.342   0.391   6.395 -0.2680  0.9376 -1.6352
 5961SOL    HW229520   1.335   0.322   6.269 -0.7219  1.9222  0.1880
 5962SOL     OW29521   3.023   2.424  16.680  0.1650  0.2613  0.4299
 5962SOL    HW129522   3.089   2.361  16.652 -0.1503  0.7985 -1.5127
 5962SOL    HW229523   3.044   2.421  16.774  1.0103 -0.6375  0.2096
 5963SOL     OW29524   2.713   1.047   9.226 -0.1220  0.5771 -0.0883
 5963SOL    HW129525   2.749   1.045   9.137 -1.3514 -1.6867 -0.5296
 5963SOL    HW229526   2.674   1.134   9.215 -0.7581  0.2499 -0.4722
 5964SOL     OW29527   1.204   2.666   4.968  0.1585 -0.1032 -0.3243
 5964SOL    HW129528   1.276   2.607   4.988  2.3924  2.5041 -0.7565
 5964SOL    HW229529   1.157   2.608   4.908 -0.4478  0.3689 -0.3135
 5965SOL     OW29530   2.419   0.840  12.497  0.3965  0.2281  0.4400
 5965SOL    HW129531   2.382   0.767  12.546  1.8201 -1.3122 -0.7363
 5965SOL    HW229532   2.438   0.797  12.413 -1.9700  0.7704 -0.3591
 5966SOL     OW29533   1.309   2.157  15.254  0.2144 -0.3788 -0.1963
 5966SOL    HW129534   1.246   2.090  15.276 -0.3233  0.0089 -0.5484
 5966SOL    HW229535   1.288   2.220  15.323  1.2275 -1.3370  0.9757
 5967SOL     OW29536   2.425   1.921   6.927  0.4912  0.2636 -0.3290
 5967SOL    HW129537   2.354   1.978   6.898 -0.3524  0.2340  1.6876
 5967SOL    HW229538   2.388   1.833   6.935  0.5411  0.2696 -0.0377
 5968SOL     OW29539   1.752   1.469   4.146 -0.2078  0.7459 -0.5410
 5968SOL    HW129540   1.749   1.564   4.162 -3.0893  0.4238  0.8732
 5968SOL    HW229541   1.797   1.462   4.062 -0.3688 -1.5427 -0.4316
 5969SOL     OW29542   1.635   3.939   2.122 -0.0186  0.4996  0.4617
 5969SOL    HW129543   1.645   3.851   2.087  0.6339  0.4681  0.7271
 5969SOL    HW229544   1.710   3.946   2.182  0.0325  0.0597  0.4490
 5970SOL     OW29545   0.620   2.093   3.398 -0.1829 -0.2074  0.3856
 5970SOL    HW129546   0.685   2.139   3.450 -0.2997  1.5077 -0.9958
 5970SOL    HW229547   0.611   2.012   3.448  1.3222 -0.8877 -0.4777
 5971SOL     OW29548   2.167   2.284  16.907 -0.1300  0.0500 -0.5933
 5971SOL    HW129549   2.229   2.276  16.834  1.5846 -2.0985  1.0971
 5971SOL    HW229550   2.167   2.379  16.917 -0.6274  0.0323 -0.4586
 5972SOL     OW29551   0.381   3.002   0.195  0.1892  0.6012  0.0577
 5972SOL    HW129552   0.328   2.960   0.127  1.2201  0.3038 -0.5729
 5972SOL    HW229553   0.462   3.018   0.146  1.8912  1.0589  2.9823
 5973SOL     OW29554   2.216   0.177  15.610  0.4097  0.1642 -0.3409
 5973SOL    HW129555   2.300   0.205  15.573  0.0756 -0.3464 -1.4595
 5973SOL    HW229556   2.150   0.215  15.552  0.5986  2.1947  0.7479
 5974SOL     OW29557   1.875   2.629   7.445 -0.3441  0.2835  0.7145
 5974SOL    HW129558   1.790   2.673   7.444 -0.5710 -0.1950 -1.9945
 5974SOL    HW229559   1.859   2.552   7.390  0.5311  0.1627  0.6258
 5975SOL     OW29560   3.712   1.280   2.326 -0.0267 -0.1829  0.0707
 5975SOL    HW129561   3.663   1.199   2.338 -1.1243  0.3632 -0.7670
 5975SOL    HW229562   3.687   1.310   2.239 -0.3351 -0.1424  0.1719
 5976SOL     OW29563   2.080   4.290   0.802 -0.1144 -0.5505 -0.4636
 5976SOL    HW129564   2.159   4.253   0.764 -1.0906 -1.1775 -1.9042
 5976SOL    HW229565   2.061   4.225   0.869 -0.4697  0.5076  0.4605
 5977SOL     OW29566   4.309   3.667   2.603  0.2946 -1.1366 -0.2198
 5977SOL    HW129567   4.348   3.672   2.690  0.7620  2.2094 -0.5993
 5977SOL    HW229568   4.393   3.653   2.561  1.0007  0.8206  0.5445
 5978SOL     OW29569   1.654   4.078  17.096 -0.2730  0.4599  0.0323
 5978SOL    HW129570   1.561   4.102  17.093 -0.2628  0.5018  0.0479
 5978SOL    HW229571   1.695   4.134  17.030 -0.7328  0.3808 -0.3174
 5979SOL     OW29572   1.919   4.344  12.201  0.1735  0.4545 -0.0973
 5979SOL    HW129573   1.964   4.361  12.284  0.5085 -0.5228 -0.0759
 5979SOL    HW229574   1.838   4.391  12.216  0.0456  0.5991 -1.2501
 5980SOL     OW29575   2.297   0.483   5.212 -0.0625  0.5353 -0.2499
 5980SOL    HW129576   2.221   0.473   5.154 -0.0924  0.4536 -0.1968
 5980SOL    HW229577   2.356   0.425   5.164  0.8720  3.0351 -2.1184
 5981SOL     OW29578   0.457   3.522   7.884 -0.6235 -0.2155  0.0823
 5981SOL    HW129579   0.535   3.469   7.870 -0.5990 -0.6471  1.9363
 5981SOL    HW229580   0.431   3.492   7.971  2.3725  0.9850  1.3829
 5982SOL     OW29581   4.473   4.349   4.098  0.0904  0.3821 -0.5251
 5982SOL    HW129582   4.483   4.418   4.164 -0.1832 -0.8879  0.8382
 5982SOL    HW229583   4.559   4.308   4.096 -0.3348 -0.3909 -2.8583
 5983SOL     OW29584   0.188   2.247   5.838  0.6072  0.6794  0.3351
 5983SOL    HW129585   0.284   2.239   5.839  0.4405 -1.2586  0.7092
 5983SOL    HW229586   0.193   2.341   5.854 -0.9255  0.8584 -0.1968
 5984SOL     OW29587   2.587   1.533   2.719 -0.0022  0.3093  0.2647
 5984SOL    HW129588   2.524   1.462   2.727  0.3877  0.0663  1.1889
 5984SOL    HW229589   2.545   1.610   2.758 -2.1595 -1.3201  1.1346
 5985SOL     OW29590   1.350   1.591   1.437  0.0757 -0.6412 -0.4481
 5985SOL    HW129591   1.292   1.522   1.407  0.3145 -0.3879 -1.4927
 5985SOL    HW229592   1.311   1.658   1.381  1.0120 -0.9843 -1.5125
 5986SOL     OW29593   3.400   0.913   8.408  0.4217 -0.2344  0.4342
 5986SOL    HW129594   3.420   1.007   8.402  0.4735 -0.2641  0.1345
 5986SOL    HW229595   3.305   0.924   8.407  0.5077  0.5784  2.0209
 5987SOL     OW29596   0.841   4.239   1.935 -0.4189  0.6014  0.3274
 5987SOL    HW129597   0.794   4.195   2.006 -2.6125  2.5151  0.0343
 5987SOL    HW229598   0.896   4.301   1.984 -1.9381  2.1327  0.0841
 5988SOL     OW29599   1.993   4.008   6.135 -0.2210 -0.2832  0.3497
 5988SOL    HW129600   2.053   4.027   6.064  0.7066  0.1167  1.2503
 5988SOL    HW229601   2.045   4.022   6.214 -0.9545  0.6053  0.6774
 5989SOL     OW29602   1.237   1.614  11.365  0.4111 -0.1898 -0.2597
 5989SOL    HW129603   1.179   1.554  11.412 -1.5585 -0.2566 -2.7698
 5989SOL    HW229604   1.239   1.582  11.275  0.2273  0.6152 -0.5486
 5990SOL     OW29605   1.575   3.506   3.499  0.0637  0.3229  0.3149
 5990SOL    HW129606   1.587   3.462   3.583 -1.1510  0.7789  0.7252
 5990SOL    HW229607   1.486   3.474   3.481 -0.5050  1.8210  0.4466
 5991SOL     OW29608   4.698   2.075   4.847  0.3964 -0.1326 -0.0554
 5991SOL    HW129609   4.698   1.984   4.875 -0.9815  0.1082  0.7850
 5991SOL    HW229610   4.603   2.073   4.833  0.2321 -2.0009  1.2850
 5992SOL     OW29611   2.618   3.338   9.480 -1.1562  0.4636 -0.2409
 5992SOL    HW129612   2.557   3.289   9.536  1.0436  0.2024  1.9052
 5992SOL    HW229613   2.585   3.308   9.395  0.5283 -1.6172 -0.1373
 5993SOL     OW29614   1.204   1.468   2.884 -0.1694  0.0423 -0.3254
 5993SOL    HW129615   1.270   1.505   2.826  0.0176  0.9555  0.4579
 5993SOL    HW229616   1.225   1.510   2.968 -4.0753 -0.6874  1.0452
 5994SOL     OW29617   1.532   3.545   8.898  0.0388  0.1225  0.3550
 5994SOL    HW129618   1.457   3.593   8.935  0.6919  2.0448 -0.8047
 5994SOL    HW229619   1.583   3.551   8.978 -2.0651  1.2182  1.5950
 5995SOL     OW29620   4.719   0.000   1.983 -0.3277 -0.2385  0.1600
 5995SOL    HW129621   0.022   0.087   1.990  0.3651 -0.4091 -1.6438
 5995SOL    HW229622   4.635   0.015   2.027 -0.2119 -0.2036  0.3715
 5996SOL     OW29623   3.466   2.263   5.197  0.1836 -0.6896  0.3398
 5996SOL    HW129624   3.451   2.322   5.271  2.5392 -2.0464  1.9135
 5996SOL    HW229625   3.440   2.323   5.128  0.8238  0.3475  1.0012
 5997SOL     OW29626   1.539   3.723   2.659 -0.2410  0.2528  0.0898
 5997SOL    HW129627   1.624   3.709   2.616  1.0476  1.5854  2.2043
 5997SOL    HW229628   1.572   3.762   2.740  0.7752 -3.1668  1.3338
 5998SOL     OW29629   1.879   1.099   5.785 -0.2508  0.6968  0.0240
 5998SOL    HW129630   1.877   1.110   5.880 -2.0612 -3.0858  0.4212
 5998SOL    HW229631   1.786   1.116   5.777 -0.7937 -1.1727  2.4924
 5999SOL     OW29632   0.801   2.627  11.698 -0.2973 -0.2145 -1.1994
 5999SOL    HW129633   0.867   2.588  11.756 -0.9892 -0.5442 -0.6298
 5999SOL    HW229634   0.824   2.719  11.711  0.4394 -0.7102  1.0043
 6000SOL     OW29635   2.185   4.046   4.856  0.9005 -0.2772  0.2025
 6000SOL    HW129636   2.232   4.117   4.812  0.5432 -0.1008  0.1006
 6000SOL    HW229637   2.241   3.998   4.917 -1.1862 -2.3065  0.5582
 6001SOL     OW29638   1.193   2.096   8.052 -0.1583 -0.9705  0.2935
 6001SOL    HW129639   1.276   2.108   8.100  1.3319 -1.6154 -2.1071
 6001SOL    HW229640   1.201   2.013   8.004 -0.0622 -0.0652 -1.2610
 6002SOL     OW29641   0.518   3.735   3.510  0.2604  0.4757  0.1902
 6002SOL    HW129642   0.516   3.641   3.495 -1.0061  0.8039 -1.6260
 6002SOL    HW229643   0.610   3.745   3.486 -0.1112  1.4511 -0.8463
 6003SOL     OW29644   1.953   0.771   7.555  0.0099 -0.1725 -0.1043
 6003SOL    HW129645   2.015   0.722   7.501 -0.5023 -3.0946  1.9223
 6003SOL    HW229646   1.998   0.793   7.636  2.1263  0.1998 -1.3886
 6004SOL     OW29647   4.506   2.214   5.130  0.3316 -0.3463  0.3328
 6004SOL    HW129648   4.441   2.280   5.154 -0.0420 -0.5572 -0.0951
 6004SOL    HW229649   4.582   2.266   5.102 -1.6227  1.8577 -0.8963
 6005SOL     OW29650   3.694   0.876   6.567  0.3549  0.0152 -0.0878
 6005SOL    HW129651   3.768   0.930   6.541  0.2008  0.0192 -0.5079
 6005SOL    HW229652   3.675   0.905   6.657 -2.4884 -0.1197 -0.6231
 6006SOL     OW29653   3.489   0.746   8.930 -0.1660 -0.1073  0.7807
 6006SOL    HW129654   3.550   0.690   8.882 -1.9976 -1.3619 -0.1033
 6006SOL    HW229655   3.535   0.826   8.904 -0.7389  0.4049  1.3468
 6007SOL     OW29656   3.602   2.262   9.973 -0.4244 -0.0091 -0.1289
 6007SOL    HW129657   3.536   2.294  10.034  0.2356 -0.6860  0.9368
 6007SOL    HW229658   3.583   2.305   9.889  1.9084 -0.7097 -0.9971
 6008SOL     OW29659   2.781   0.884  10.773 -0.7493 -0.2626 -0.3890
 6008SOL    HW129660   2.688   0.904  10.773 -0.7225  0.0764  4.5483
 6008SOL    HW229661   2.812   0.966  10.811 -1.3259  0.8733 -2.4369
 6009SOL     OW29662   4.643   2.855  15.223 -0.2282 -0.3318 -0.2760
 6009SOL    HW129663   4.576   2.816  15.167  0.8782 -1.6858 -0.6709
 6009SOL    HW229664   4.617   2.945  15.241 -3.2586 -1.2587 -0.0869
 6010SOL     OW29665   0.103   1.592  11.612  0.5309 -0.2835 -0.3945
 6010SOL    HW129666   0.186   1.614  11.570  0.5379  0.9651  0.2566
 6010SOL    HW229667   0.084   1.502  11.587  0.8816 -0.4206 -0.1631
 6011SOL     OW29668   4.039   1.990   4.478 -0.3317 -0.5942  0.2773
 6011SOL    HW129669   3.976   1.946   4.421  0.0870  1.0085 -1.4396
 6011SOL    HW229670   4.107   1.993   4.411 -1.8869 -1.4164 -1.3147
 6012SOL     OW29671   1.748   4.159   1.869 -0.0977 -0.3586  0.3550
 6012SOL    HW129672   1.732   4.097   1.940  0.1813 -2.5833 -1.5494
 6012SOL    HW229673   1.841   4.168   1.889  0.2021  0.6835 -1.5964
 6013SOL     OW29674   1.634   2.587   7.926 -0.0356  0.0842  0.5033
 6013SOL    HW129675   1.548   2.555   7.900  0.1635 -0.7886  0.9183
 6013SOL    HW229676   1.678   2.587   7.842 -0.9373  1.6403  0.0308
 6014SOL     OW29677   2.294   2.481  17.395  0.0638  0.1615  0.0684
 6014SOL    HW129678   2.359   2.483  17.325  0.0396  0.5555  0.0549
 6014SOL    HW229679   2.216   2.482  17.341  1.8054  0.9671 -2.4120
 6015SOL     OW29680   0.206   1.354   2.883  0.0154  0.2407 -0.2414
 6015SOL    HW129681   0.275   1.321   2.941  1.1845  0.1446 -1.6752
 6015SOL    HW229682   0.156   1.273   2.892 -0.4081  0.7725  2.0574
 6016SOL     OW29683   2.394   4.642   6.402  0.1194  0.7696 -0.7114
 6016SOL    HW129684   2.348   4.707   6.349 -0.1905  0.6108 -0.6377
 6016SOL    HW229685   2.423   4.696   6.475 -3.0626 -0.9290  1.8084
 6017SOL     OW29686   1.359   3.343  16.641 -0.0283  0.1145  0.2555
 6017SOL    HW129687   1.389   3.253  16.651 -0.8010  0.0372  1.8719
 6017SOL    HW229688   1.445   3.385  16.629  0.4430 -0.7491  0.6142
 6018SOL     OW29689   1.129   4.297   3.915 -0.3503 -0.2919 -0.0487
 6018SOL    HW129690   1.188   4.252   3.854 -0.3895  2.3653 -2.0349
 6018SOL    HW229691   1.190   4.368   3.933 -0.4442 -0.6829  1.7806
 6019SOL     OW29692   4.134   3.956   5.521  0.1584 -0.0561 -0.2332
 6019SOL    HW129693   4.219   3.917   5.542  1.4742  3.6080  1.1528
 6019SOL    HW229694   4.105   3.972   5.610  0.5838  0.3949 -0.1770
 6020SOL     OW29695   2.051   4.045  13.549 -0.6592 -0.2336 -0.3198
 6020SOL    HW129696   1.991   4.009  13.615  1.4159 -1.8156  0.7224
 6020SOL    HW229697   2.028   4.137  13.537 -3.1004 -0.4341  2.8242
 6021SOL     OW29698   0.547   2.658  12.869  0.3021  0.0950 -0.7409
 6021SOL    HW129699   0.485   2.661  12.795 -0.4155  2.5879 -0.0262
 6021SOL    HW229700   0.625   2.628  12.822 -1.4926 -0.9689 -3.0513
 6022SOL     OW29701   0.210   2.938   0.521 -0.5867  0.4581  0.0244
 6022SOL    HW129702   0.118   2.955   0.537 -1.1820 -1.6378 -1.1355
 6022SOL    HW229703   0.252   2.925   0.606  0.3067 -1.1360 -0.6606
 6023SOL     OW29704   1.538   0.447   8.743  0.0018  0.2225  0.0942
 6023SOL    HW129705   1.559   0.517   8.805 -0.6121  1.6085 -1.2561
 6023SOL    HW229706   1.605   0.458   8.675  0.9638 -2.3488  0.6280
 6024SOL     OW29707   0.572   1.599   6.013  0.5575 -0.0650  0.0594
 6024SOL    HW129708   0.628   1.676   6.010  0.6567 -0.1182  0.6156
 6024SOL    HW229709   0.501   1.633   5.959  0.3607  1.7869  1.4978
 6025SOL     OW29710   2.217   2.448   1.061 -0.0684  0.1657  0.2558
 6025SOL    HW129711   2.196   2.527   1.111  1.4096  0.9777 -0.3968
 6025SOL    HW229712   2.305   2.473   1.033 -0.3792 -0.8138 -1.5875
 6026SOL     OW29713   0.071   0.238   6.521  0.4511  0.7826 -0.6607
 6026SOL    HW129714   4.719   0.240   6.488  0.9861 -0.5141 -2.1976
 6026SOL    HW229715   0.061   0.268   6.611 -1.7846 -0.0836 -0.6278
 6027SOL     OW29716   2.427   1.128   4.762  0.1287  0.0329 -0.0571
 6027SOL    HW129717   2.420   1.033   4.772  1.2804  0.1620  1.8898
 6027SOL    HW229718   2.390   1.147   4.848 -0.8668 -1.7237 -0.0876
 6028SOL     OW29719   0.367   2.793  17.472 -0.1847  0.0301 -0.3303
 6028SOL    HW129720   0.342   2.882  17.498  0.6360  0.1172  0.1459
 6028SOL    HW229721   0.298   2.783  17.406  0.2475  2.2080 -1.1373
 6029SOL     OW29722   2.545   2.378   5.765 -0.1392 -0.0425 -0.0905
 6029SOL    HW129723   2.553   2.463   5.723  0.7610 -0.6364 -1.1249
 6029SOL    HW229724   2.594   2.321   5.706 -0.7206 -0.2621 -0.3596
 6030SOL     OW29725   1.910   3.061   5.372 -0.6933 -0.2603  0.1544
 6030SOL    HW129726   1.864   3.098   5.447 -1.2885  0.5859 -0.6263
 6030SOL    HW229727   1.897   3.131   5.308 -0.0434  1.5540  2.0240
 6031SOL     OW29728   0.732   1.769   4.629 -0.3330 -0.8032  0.3309
 6031SOL    HW129729   0.720   1.681   4.593  3.7424 -0.1434 -2.5996
 6031SOL    HW229730   0.670   1.815   4.571 -1.8145 -2.9069  0.2444
 6032SOL     OW29731   0.118   4.696   5.598  0.1188 -0.3444  0.1561
 6032SOL    HW129732   0.130   4.693   5.692 -0.0033 -1.5750  0.1260
 6032SOL    HW229733   0.187   0.014   5.563 -1.3817  1.4494  0.0197
 6033SOL     OW29734   3.684   3.430  14.110 -0.1865 -0.0061 -0.0247
 6033SOL    HW129735   3.741   3.376  14.165 -0.4220  0.2723  0.5014
 6033SOL    HW229736   3.704   3.394  14.024 -0.5941  3.4075 -1.5642
 6034SOL     OW29737   0.620   2.909  11.672  0.3760 -0.5441  0.2606
 6034SOL    HW129738   0.682   2.866  11.612  1.0065 -1.7620  1.7942
 6034SOL    HW229739   0.592   2.987  11.625 -0.9323 -0.3378  1.4177
 6035SOL     OW29740   1.720   3.710   6.112  0.6719  0.6524  0.4699
 6035SOL    HW129741   1.707   3.750   6.199 -1.2708  0.7063  0.1507
 6035SOL    HW229742   1.799   3.661   6.132 -0.4943 -2.0804 -1.6280
 6036SOL     OW29743   1.865   2.775   2.656  0.3336  0.4954  0.5481
 6036SOL    HW129744   1.928   2.708   2.683  0.2784 -0.4962 -1.8039
 6036SOL    HW229745   1.934   2.842   2.656  0.6366  0.1725 -1.2757
 6037SOL     OW29746   0.801   0.746   5.754  0.0250  0.2667 -0.4729
 6037SOL    HW129747   0.797   0.696   5.672  1.4936  1.3917 -1.2366
 6037SOL    HW229748   0.757   0.827   5.731 -1.4518 -0.0782  1.0727
 6038SOL     OW29749   1.925   3.284   8.237  0.3151 -0.0478  0.4646
 6038SOL    HW129750   1.860   3.319   8.299  1.4147 -0.5036  1.8853
 6038SOL    HW229751   1.875   3.208   8.207  0.7205  0.4391 -1.4204
 6039SOL     OW29752   0.858   0.036   4.013  0.0628 -0.1067 -0.5296
 6039SOL    HW129753   0.929   0.041   4.076 -0.0853 -0.3150 -0.3450
 6039SOL    HW229754   0.848   4.678   4.013 -2.5332  0.1486 -2.0918
 6040SOL     OW29755   1.414   1.453   4.735  0.3172 -0.4026 -0.2591
 6040SOL    HW129756   1.373   1.539   4.741  1.8037  0.1659  1.6453
 6040SOL    HW229757   1.370   1.414   4.659 -0.2244 -1.8128  0.7721
 6041SOL     OW29758   3.177   4.564   4.696  0.3681  0.3528 -0.1710
 6041SOL    HW129759   3.095   4.542   4.651 -0.0523  0.6074  0.4688
 6041SOL    HW229760   3.202   4.476   4.724 -2.9449 -0.7429 -0.6580
 6042SOL     OW29761   2.417   3.073  11.178 -0.4038 -0.0630  0.1930
 6042SOL    HW129762   2.479   3.097  11.247 -0.0531  0.2810 -0.2426
 6042SOL    HW229763   2.400   3.153  11.128  1.0481 -0.8356 -1.5351
 6043SOL     OW29764   1.730   1.140   6.714  0.1145 -0.5359  0.1756
 6043SOL    HW129765   1.721   1.101   6.801 -0.1803  3.0112  1.7644
 6043SOL    HW229766   1.647   1.119   6.670  1.2323 -1.5220 -1.4513
 6044SOL     OW29767   3.796   4.212   2.788 -0.1002 -0.5425 -0.2331
 6044SOL    HW129768   3.786   4.301   2.823 -0.0221  0.6423 -3.2311
 6044SOL    HW229769   3.765   4.151   2.855 -1.2338 -0.0647 -0.3224
 6045SOL     OW29770   0.327   1.985   7.489  0.6846 -0.4368 -0.0499
 6045SOL    HW129771   0.281   1.978   7.406 -0.8757 -0.9604  0.8516
 6045SOL    HW229772   0.271   1.940   7.553 -0.1559  0.7642  0.0479
 6046SOL     OW29773   3.266   4.528   6.206 -0.5708 -0.6526  0.1851
 6046SOL    HW129774   3.267   4.521   6.301 -0.5843  0.0712  0.2359
 6046SOL    HW229775   3.186   4.576   6.185  1.3805  0.7821 -4.0229
 6047SOL     OW29776   4.489   1.075   2.443 -0.1828 -0.3426  0.4377
 6047SOL    HW129777   4.410   1.027   2.468 -0.3393  0.7543  1.9883
 6047SOL    HW229778   4.532   1.097   2.525 -0.8066 -0.5889  0.8308
 6048SOL     OW29779   2.701   0.646  15.569 -0.4285  0.1679 -0.4423
 6048SOL    HW129780   2.685   0.580  15.636  2.3345  1.8095  1.8119
 6048SOL    HW229781   2.715   0.584  15.497  0.9245 -1.0822  0.8931
 6049SOL     OW29782   3.077   1.030   7.469 -0.7542 -0.0637  0.1884
 6049SOL    HW129783   3.155   0.985   7.500  0.2707  0.0891 -2.1221
 6049SOL    HW229784   3.011   0.967   7.498  1.9859 -2.3070  1.5590
 6050SOL     OW29785   3.705   2.121   6.666 -0.2740 -0.0976  0.1692
 6050SOL    HW129786   3.749   2.036   6.679  2.5032  1.0777 -1.5277
 6050SOL    HW229787   3.627   2.094   6.618  1.5828 -1.8062 -1.8774
 6051SOL     OW29788   0.934   1.347  15.594  0.0191 -0.3055 -0.0129
 6051SOL    HW129789   0.907   1.438  15.579  2.0688  0.5852  1.6175
 6051SOL    HW229790   0.981   1.326  15.514 -1.1618 -2.8939 -0.0256
 6052SOL     OW29791   2.862   1.875   6.536 -0.1095  0.3181  0.0702
 6052SOL    HW129792   2.920   1.827   6.476  0.3274 -1.0139  1.5471
 6052SOL    HW229793   2.786   1.900   6.484  1.0638  1.3856 -1.1177
 6053SOL     OW29794   1.170   1.625   3.134  0.0947 -0.1397  0.0107
 6053SOL    HW129795   1.147   1.717   3.149  2.7316  0.4894  0.3725
 6053SOL    HW229796   1.234   1.610   3.204  0.6585 -0.8216 -0.6432
 6054SOL     OW29797   3.100   2.722   5.895 -0.0548  0.2251 -0.1392
 6054SOL    HW129798   3.132   2.665   5.965  2.3296 -0.1695 -1.5427
 6054SOL    HW229799   3.125   2.807   5.930  0.8082 -0.1917  0.2676
 6055SOL     OW29800   4.134   2.089   4.746  0.0642  0.9182 -0.6384
 6055SOL    HW129801   4.129   2.017   4.810  1.4925  1.5946  0.2243
 6055SOL    HW229802   4.100   2.057   4.662 -1.9537 -2.5110  1.4589
 6056SOL     OW29803   2.918   2.054  12.033  0.1411 -0.0517  0.5081
 6056SOL    HW129804   2.873   2.104  11.965 -0.2073 -0.3093  0.5488
 6056SOL    HW229805   2.996   2.021  11.989  0.6325  1.7334  0.0438
 6057SOL     OW29806   4.432   0.418  17.233 -0.7079  0.2409  0.2272
 6057SOL    HW129807   4.527   0.412  17.239 -0.8913 -2.4257  0.6116
 6057SOL    HW229808   4.414   0.337  17.185  1.4500 -0.4164  0.5370
 6058SOL     OW29809   3.045   0.528  11.691  0.1940  0.0370 -0.0476
 6058SOL    HW129810   3.132   0.559  11.715 -0.3600  0.9753  0.7734
 6058SOL    HW229811   3.056   0.437  11.720 -0.9834  0.2793  1.1774
 6059SOL     OW29812   4.713   1.445  14.043  0.5245  0.2620 -0.0762
 6059SOL    HW129813   4.685   1.353  14.039  0.1927  0.3967 -0.8321
 6059SOL    HW229814   4.630   1.487  14.066  2.0901  3.7125 -0.7407
 6060SOL     OW29815   3.174   4.032  10.494  0.3747  0.7800 -0.3495
 6060SOL    HW129816   3.259   4.032  10.538 -0.2389  1.7847  0.8425
 6060SOL    HW229817   3.110   4.040  10.564 -0.1859  0.0171 -0.7856
 6061SOL     OW29818   1.701   0.909   2.337 -0.1847 -0.0930  0.0121
 6061SOL    HW129819   1.685   0.886   2.428  2.1692  0.1665  0.5055
 6061SOL    HW229820   1.692   0.821   2.299  0.0985 -0.1126 -0.0119
 6062SOL     OW29821   1.875   2.732   4.253 -0.6055 -0.3600  0.2346
 6062SOL    HW129822   1.870   2.827   4.257  1.5218 -0.1802 -1.2873
 6062SOL    HW229823   1.792   2.708   4.296 -0.0975 -2.3190  0.1390
 6063SOL     OW29824   2.833   4.620   2.431 -0.0502  0.5291 -0.6682
 6063SOL    HW129825   2.765   4.587   2.490  0.6980  2.1819  1.1075
 6063SOL    HW229826   2.910   4.631   2.486  0.6431  1.3369 -1.8002
 6064SOL     OW29827   0.172   1.381  10.131  0.1463 -0.3876 -0.2417
 6064SOL    HW129828   0.107   1.342  10.190 -0.0403  0.1753 -0.0749
 6064SOL    HW229829   0.248   1.329  10.156 -0.0056 -0.1568  0.6980
 6065SOL     OW29830   2.020   1.086   0.227  0.5500  0.6420 -0.2041
 6065SOL    HW129831   2.055   1.125   0.147 -1.4629 -0.1649 -1.4791
 6065SOL    HW229832   2.027   0.992   0.213  0.1890  0.4713  0.7501
 6066SOL     OW29833   3.633   3.239   6.244 -0.1522  0.3929 -0.0597
 6066SOL    HW129834   3.670   3.312   6.294  1.0650 -0.3168  0.0940
 6066SOL    HW229835   3.542   3.267   6.238  0.0852  1.2505  0.3705
 6067SOL     OW29836   4.336   4.041   7.911 -0.1157  0.1078 -0.0279
 6067SOL    HW129837   4.326   4.047   7.816 -0.5311  0.6430  0.0507
 6067SOL    HW229838   4.261   4.092   7.941  0.4052  0.6853  0.2802
 6068SOL     OW29839   0.440   1.435  14.965  0.1218  0.4228 -0.4350
 6068SOL    HW129840   0.499   1.432  14.890  1.1155 -0.2742  0.3865
 6068SOL    HW229841   0.385   1.360  14.942  3.0432 -1.5380 -1.0362
 6069SOL     OW29842   3.754   0.104   3.587  0.5773 -0.4106 -0.5680
 6069SOL    HW129843   3.844   0.076   3.599  0.5692 -1.1741 -2.2874
 6069SOL    HW229844   3.692   0.044   3.627 -0.4976  0.6622 -0.5967
 6070SOL     OW29845   0.891   1.579   0.556 -0.4733  0.2669 -0.3845
 6070SOL    HW129846   0.887   1.669   0.588 -1.7318  0.0975 -0.0529
 6070SOL    HW229847   0.807   1.572   0.509  0.0505 -2.6606 -0.8878
 6071SOL     OW29848   2.495   4.004   4.268  0.1100  0.2720  0.4266
 6071SOL    HW129849   2.522   3.943   4.336  0.1260 -0.0265  0.1576
 6071SOL    HW229850   2.547   3.975   4.193  1.3513 -1.7845  2.0785
 6072SOL     OW29851   2.029   3.118  13.565  0.6488 -0.6256  0.2026
 6072SOL    HW129852   2.018   3.151  13.654  0.8341  1.3836 -0.5080
 6072SOL    HW229853   2.089   3.046  13.580  0.9793 -0.3196  0.3368
 6073SOL     OW29854   4.358   0.890   3.545  0.2391 -0.5188  0.2343
 6073SOL    HW129855   4.402   0.865   3.627  1.0085  0.3768  0.1083
 6073SOL    HW229856   4.305   0.813   3.527  0.2750 -0.2133 -1.1571
 6074SOL     OW29857   1.314   0.155  11.826 -0.1201 -0.0603  0.2558
 6074SOL    HW129858   1.239   0.212  11.809 -0.1062  0.2341  1.1514
 6074SOL    HW229859   1.322   0.158  11.921 -0.4927 -2.8750  0.3701
 6075SOL     OW29860   4.101   1.509   6.185 -0.3506 -0.3494  0.1098
 6075SOL    HW129861   4.015   1.477   6.214 -0.9496 -0.6482 -2.0242
 6075SOL    HW229862   4.142   1.424   6.169 -0.0007 -0.7627  3.1817
 6076SOL     OW29863   2.907   1.316   8.779  0.0555 -0.3281 -0.6912
 6076SOL    HW129864   2.844   1.377   8.741 -0.3767  0.1609  0.7700
 6076SOL    HW229865   2.859   1.233   8.774 -0.1944 -0.2692  0.4668
 6077SOL     OW29866   2.430   3.011   7.612  0.6481 -0.2074  0.6768
 6077SOL    HW129867   2.386   2.933   7.578  2.2986 -1.1166  0.6209
 6077SOL    HW229868   2.387   3.083   7.565 -1.6779 -0.6723  2.0796
 6078SOL     OW29869   4.581   2.620  16.930 -0.0232 -0.0644 -0.3216
 6078SOL    HW129870   4.527   2.688  16.891 -0.3761 -0.2978 -0.2362
 6078SOL    HW229871   4.546   2.539  16.894  1.5402 -0.9497  0.1517
 6079SOL     OW29872   3.114   4.239   5.319 -0.0129 -0.0619 -0.0705
 6079SOL    HW129873   3.171   4.244   5.243 -2.1987  0.1690 -1.7092
 6079SOL    HW229874   3.076   4.327   5.311 -1.6698 -0.7209  0.4909
 6080SOL     OW29875   2.447   2.242   0.507  0.4141 -0.5556  0.4398
 6080SOL    HW129876   2.483   2.264   0.420 -0.5096 -1.8292 -0.2574
 6080SOL    HW229877   2.360   2.281   0.498  0.4176 -1.0020 -1.6749
 6081SOL     OW29878   0.198   0.037   5.095  0.2063 -0.5221 -0.3668
 6081SOL    HW129879   0.266   4.716   5.129 -0.3619  0.7815  2.9907
 6081SOL    HW229880   0.227   0.049   5.005 -0.2881 -2.1727 -0.7456
 6082SOL     OW29881   2.896   2.075   3.248  0.7061 -0.2113  0.5439
 6082SOL    HW129882   2.958   2.133   3.292 -0.9162  0.9114  1.3638
 6082SOL    HW229883   2.840   2.060   3.324 -0.8559 -0.1406 -0.5979
 6083SOL     OW29884   4.658   0.064   4.221 -0.6368  0.1122 -0.4634
 6083SOL    HW129885   4.697   0.065   4.308 -3.3654  0.3544  0.7472
 6083SOL    HW229886   4.680   0.154   4.198 -0.5337  0.9161  2.8949
 6084SOL     OW29887   1.727   2.892  15.257  0.6681  0.0793 -0.1889
 6084SOL    HW129888   1.676   2.811  15.264  1.2740 -0.2952 -0.0811
 6084SOL    HW229889   1.644   2.937  15.240 -0.0431 -0.9768  0.5030
 6085SOL     OW29890   1.000   3.765   4.698 -0.4188 -0.3201  0.0485
 6085SOL    HW129891   0.995   3.818   4.618 -2.6210 -1.9651 -0.8774
 6085SOL    HW229892   0.934   3.697   4.692 -0.2511 -0.6477  1.8441
 6086SOL     OW29893   4.042   0.152   5.444 -0.0610  1.1574  0.4573
 6086SOL    HW129894   4.067   0.239   5.476 -1.2990  0.2486  3.9622
 6086SOL    HW229895   4.133   0.127   5.427 -0.4015 -0.2272  0.6849
 6087SOL     OW29896   4.426   4.283   4.565 -0.3409 -0.3967  0.4936
 6087SOL    HW129897   4.423   4.352   4.632 -1.8759 -0.6897  0.7294
 6087SOL    HW229898   4.380   4.333   4.498 -0.4492 -2.7247 -1.1446
 6088SOL     OW29899   1.341   1.835  16.200 -0.0802 -0.8089 -0.0832
 6088SOL    HW129900   1.309   1.805  16.115  2.3524  0.1393 -1.3294
 6088SOL    HW229901   1.422   1.786  16.212 -0.6481 -1.7545 -0.0598
 6089SOL     OW29902   3.119   0.338  17.551 -0.3923 -0.4733  0.1457
 6089SOL    HW129903   3.068   0.283  17.610 -2.3374  1.2481  0.0445
 6089SOL    HW229904   3.190   0.369  17.608  0.2353  0.1149 -0.9562
 6090SOL     OW29905   3.593   0.589   8.717 -0.1655  0.1641 -0.1418
 6090SOL    HW129906   3.625   0.609   8.630  1.5908  0.7182  0.6347
 6090SOL    HW229907   3.503   0.575   8.686  0.7002 -2.9996 -1.2175
 6091SOL     OW29908   0.478   3.118  16.119  0.1978  0.3208 -0.3227
 6091SOL    HW129909   0.392   3.144  16.087  0.5296  0.0306 -1.4451
 6091SOL    HW229910   0.496   3.059  16.046  1.6570 -0.2333  0.4722
 6092SOL     OW29911   3.661   4.726   1.874  0.6490  0.3652 -0.0048
 6092SOL    HW129912   3.703   0.005   1.959  0.2754  0.9091  0.0813
 6092SOL    HW229913   3.707   4.648   1.847  1.6088  0.6988  0.6502
 6093SOL     OW29914   3.231   0.328   3.731  0.1590 -0.3648  1.0048
 6093SOL    HW129915   3.314   0.335   3.684  0.2236 -2.0443  0.8655
 6093SOL    HW229916   3.201   0.418   3.743 -1.7305 -0.6990 -1.1512
 6094SOL     OW29917   3.922   0.792   0.231  0.1606  0.0229 -0.0097
 6094SOL    HW129918   3.941   0.751   0.147  1.0998  1.0472 -0.3056
 6094SOL    HW229919   3.868   0.726   0.275 -0.2239  0.6624  0.4828
 6095SOL     OW29920   1.181   3.840   1.388 -0.1975 -0.6137  0.5819
 6095SOL    HW129921   1.108   3.853   1.449  0.3937 -2.4914  1.6842
 6095SOL    HW229922   1.135   3.839   1.304 -1.7747  0.8012  1.4354
 6096SOL     OW29923   0.449   3.580   4.857  0.3106 -0.2149  0.4298
 6096SOL    HW129924   0.354   3.586   4.851  0.2341 -0.6945  1.1480
 6096SOL    HW229925   0.477   3.594   4.767  3.0736 -0.8016  1.2035
 6097SOL     OW29926   2.282   0.481   6.282 -0.2068  0.0322 -0.6958
 6097SOL    HW129927   2.198   0.525   6.291 -0.9055 -1.3593 -0.3721
 6097SOL    HW229928   2.326   0.539   6.220  0.4797  1.0624  0.7687
 6098SOL     OW29929   0.836   4.661   8.969  0.3181  0.1339 -0.2587
 6098SOL    HW129930   0.852   0.015   8.946  0.0938  0.3368  0.3968
 6098SOL    HW229931   0.777   4.621   8.905  0.5340  1.8389 -1.5106
 6099SOL     OW29932   2.119   2.141   5.601 -0.0421 -0.2989  0.2956
 6099SOL    HW129933   2.034   2.176   5.626 -0.5954 -2.0408  0.8220
 6099SOL    HW229934   2.162   2.222   5.574  0.7611 -0.2679  1.6693
 6100SOL     OW29935   3.794   4.578   4.162  0.5051 -0.1448 -0.8939
 6100SOL    HW129936   3.853   4.571   4.087  2.0109  0.3662  0.2396
 6100SOL    HW229937   3.716   4.613   4.120  0.2286 -0.0661 -0.3137
 6101SOL     OW29938   1.225   3.828   5.393 -0.5646 -0.1022 -0.3699
 6101SOL    HW129939   1.214   3.876   5.475 -2.9461  0.0017 -0.7281
 6101SOL    HW229940   1.212   3.913   5.350  0.1381  0.1436 -0.0934
 6102SOL     OW29941   2.252   1.963   4.681 -0.4700 -0.2806  0.2921
 6102SOL    HW129942   2.164   1.951   4.717 -0.1791  0.8501  1.3549
 6102SOL    HW229943   2.303   1.904   4.736  0.5082 -0.3204 -0.6648
 6103SOL     OW29944   0.099   4.307  10.644 -0.4277 -0.2981 -0.2669
 6103SOL    HW129945   0.109   4.213  10.632 -2.9305 -0.5836 -0.0969
 6103SOL    HW229946   0.029   4.325  10.707  0.1152  2.9881 -0.5880
 6104SOL     OW29947   3.547   4.372   5.689 -0.1635 -0.2216  0.2691
 6104SOL    HW129948   3.635   4.398   5.663 -0.3166 -0.2945 -0.3163
 6104SOL    HW229949   3.492   4.400   5.616  0.2404 -0.2787 -0.0576
 6105SOL     OW29950   4.326   4.714   8.065 -0.5350  0.6217  0.3426
 6105SOL    HW129951   4.371   4.644   8.112 -2.5692  0.2066  1.7021
 6105SOL    HW229952   4.261   4.660   8.021  1.0857  0.2990 -1.6156
 6106SOL     OW29953   2.878   3.310   9.720  0.1603 -0.6964 -0.1933
 6106SOL    HW129954   2.931   3.292   9.798  0.9636 -2.2104 -1.0891
 6106SOL    HW229955   2.799   3.299   9.772  0.4325 -4.0376 -0.4510
 6107SOL     OW29956   3.203   3.442   6.735  0.0702 -0.0262 -0.7865
 6107SOL    HW129957   3.162   3.359   6.713 -1.1258  0.1741  0.6377
 6107SOL    HW229958   3.190   3.491   6.654 -0.6425  0.2140 -0.5287
 6108SOL     OW29959   1.463   2.544  11.708  0.2927 -0.2627  0.1033
 6108SOL    HW129960   1.541   2.490  11.695  0.6009 -0.2506  1.8734
 6108SOL    HW229961   1.394   2.477  11.713 -0.0040  0.0615  0.3746
 6109SOL     OW29962   0.127   0.579   3.398  0.3571  0.7435 -0.9057
 6109SOL    HW129963   0.210   0.592   3.444 -0.7158 -0.7709  1.4998
 6109SOL    HW229964   0.082   0.661   3.419 -0.6175  0.1469 -0.6595
 6110SOL     OW29965   3.376   0.467   1.898 -0.1827 -0.0587 -0.6316
 6110SOL    HW129966   3.356   0.485   1.806  3.1730 -1.6116 -1.6524
 6110SOL    HW229967   3.419   0.383   1.882 -2.4239 -1.2878 -0.1336
 6111SOL     OW29968   1.387   2.814   5.447  0.6512  0.3730 -0.1762
 6111SOL    HW129969   1.442   2.782   5.376 -0.2054  0.4688 -0.8895
 6111SOL    HW229970   1.373   2.731   5.492 -1.3249  0.2321 -1.0368
 6112SOL     OW29971   3.148   2.205   1.981  0.0127  0.0048 -0.0077
 6112SOL    HW129972   3.100   2.142   1.927 -0.2230  0.1737  0.0038
 6112SOL    HW229973   3.214   2.154   2.028  1.9181  0.7587 -1.8831
 6113SOL     OW29974   1.684   3.670   2.044  0.2515  0.2241  0.0105
 6113SOL    HW129975   1.738   3.638   1.972 -0.8041 -1.0995 -0.2123
 6113SOL    HW229976   1.681   3.586   2.090  0.5720  1.4032  2.1751
 6114SOL     OW29977   4.604   2.349  14.377  0.0846  0.1959 -0.4807
 6114SOL    HW129978   4.685   2.336  14.328  1.2090  1.5115  1.0424
 6114SOL    HW229979   4.586   2.436  14.340  0.3059  0.0879 -0.8361
 6115SOL     OW29980   0.846   0.051  15.904  0.0204  0.3530 -0.5467
 6115SOL    HW129981   0.891   4.704  15.905 -2.5050 -0.9682  1.3700
 6115SOL    HW229982   0.755   0.025  15.918  0.7844 -2.5645 -0.8397
 6116SOL     OW29983   4.700   4.632   5.161 -0.2918  0.0055 -0.6377
 6116SOL    HW129984   4.716   4.653   5.253  1.0315 -0.7839 -0.6827
 6116SOL    HW229985   0.022   4.696   5.121 -1.5251  1.3143 -0.3787
 6117SOL     OW29986   0.817   1.244   5.207  0.0196  0.2333  0.2936
 6117SOL    HW129987   0.807   1.336   5.182  2.6469  0.2380 -0.7460
 6117SOL    HW229988   0.749   1.248   5.274 -0.0477 -1.1378  0.3106
 6118SOL     OW29989   0.903   4.064   5.427 -0.2232  0.7057  0.7977
 6118SOL    HW129990   0.886   4.081   5.520 -1.6803 -1.0094  0.8365
 6118SOL    HW229991   0.818   4.024   5.415  0.5289 -1.0044  1.1297
 6119SOL     OW29992   2.027   4.002   5.518 -0.3741 -0.0794  0.8413
 6119SOL    HW129993   2.075   4.022   5.438 -1.8223  0.0582  0.0070
 6119SOL    HW229994   2.097   4.028   5.578 -1.0752  1.5157  0.9817
 6120SOL     OW29995   1.606   2.518  12.022  0.0545 -0.5272  0.2044
 6120SOL    HW129996   1.681   2.464  11.998 -0.9798 -0.8690 -2.3202
 6120SOL    HW229997   1.531   2.464  11.996 -0.9325  2.0591 -2.2379
 6121SOL     OW29998   1.070   3.448  12.167 -0.8302 -0.6784  0.0346
 6121SOL    HW129999   1.095   3.538  12.188  0.6532 -1.1650  0.3695
 6121SOL    HW230000   0.983   3.436  12.205 -1.0665  0.5912 -0.0922
 6122SOL     OW30001   1.245   0.927   8.806 -0.1701  0.6175 -0.2756
 6122SOL    HW130002   1.309   0.888   8.866 -0.4997 -0.7883 -0.8660
 6122SOL    HW230003   1.166   0.882   8.835  0.6431 -0.3671  0.4267
 6123SOL     OW30004   3.430   0.761   1.608 -0.7955  0.2506  0.1039
 6123SOL    HW130005   3.467   0.763   1.696  2.3141  1.8050 -1.2421
 6123SOL    HW230006   3.355   0.819   1.625 -1.9146 -0.4499 -2.5284
 6124SOL     OW30007   0.436   1.976   6.730 -0.6149  0.9270  0.0664
 6124SOL    HW130008   0.480   1.899   6.694 -1.0364  0.6162  0.2185
 6124SOL    HW230009   0.342   1.959   6.719 -0.2935 -0.7293 -0.2304
 6125SOL     OW30010   0.584   2.603   1.914 -0.0417  0.5552  0.1652
 6125SOL    HW130011   0.578   2.512   1.944 -2.7125  0.8236  0.3993
 6125SOL    HW230012   0.513   2.641   1.965 -0.0431  0.5116  0.1952
 6126SOL     OW30013   3.789   3.064   6.095  0.4585  0.0200  0.1965
 6126SOL    HW130014   3.868   3.118   6.084  1.2850 -0.5631  3.2730
 6126SOL    HW230015   3.734   3.133   6.132  0.4237 -0.0079  0.1959
 6127SOL     OW30016   1.998   0.907   2.442  0.6317 -0.1044 -0.2132
 6127SOL    HW130017   2.078   0.945   2.478  1.2758  1.4693 -3.3699
 6127SOL    HW230018   2.002   0.940   2.353 -1.2713 -0.2985 -0.3733
 6128SOL     OW30019   4.494   0.714   0.763  0.7980  0.0691  0.0782
 6128SOL    HW130020   4.445   0.637   0.735 -0.3530  0.6521  0.5194
 6128SOL    HW230021   4.433   0.761   0.820 -0.7999  0.7123 -2.1639
 6129SOL     OW30022   3.932   2.813   9.412 -0.5186 -0.0582  0.2969
 6129SOL    HW130023   3.919   2.788   9.321  2.2376 -0.6569  0.0855
 6129SOL    HW230024   3.884   2.742   9.455 -0.6168 -0.6067 -0.7289
 6130SOL     OW30025   3.434   3.752   1.632  0.0777 -0.0984 -0.5212
 6130SOL    HW130026   3.513   3.804   1.618 -0.9279  1.3635 -0.6445
 6130SOL    HW230027   3.368   3.812   1.598 -1.7208 -2.5852 -1.4233
 6131SOL     OW30028   2.432   2.440   4.532 -0.2992  0.5316  0.0839
 6131SOL    HW130029   2.448   2.357   4.577 -1.5982  0.4033  0.3247
 6131SOL    HW230030   2.385   2.411   4.454 -1.3828 -1.5546  1.5074
 6132SOL     OW30031   2.677   3.443   4.255  0.4174  0.3463 -0.0101
 6132SOL    HW130032   2.768   3.445   4.227 -0.2813 -0.0932 -2.3118
 6132SOL    HW230033   2.636   3.479   4.176 -2.7692 -1.0982  0.9699
 6133SOL     OW30034   1.142   2.556  10.421 -0.1492  0.0273 -0.4663
 6133SOL    HW130035   1.147   2.640  10.468 -0.0529 -0.8103  1.0423
 6133SOL    HW230036   1.076   2.511  10.474  1.2448  0.2877  1.5239
 6134SOL     OW30037   0.096   1.509   5.112 -0.1074 -0.0214  0.0681
 6134SOL    HW130038   0.073   1.491   5.203  0.3651 -0.5402  0.0847
 6134SOL    HW230039   0.059   1.596   5.098  0.2122 -0.2304 -2.0833
 6135SOL     OW30040   2.535   2.444   9.400  0.2727  0.7264  0.1606
 6135SOL    HW130041   2.601   2.512   9.412  1.1273 -0.3653  1.5654
 6135SOL    HW230042   2.478   2.476   9.330  1.9324 -0.4065 -1.7010
 6136SOL     OW30043   0.188   3.054  10.728 -0.2534 -0.1902  0.2806
 6136SOL    HW130044   0.283   3.060  10.718 -0.2263 -0.8298  0.1839
 6136SOL    HW230045   0.155   3.120  10.667 -1.8359  0.2368  1.5916
 6137SOL     OW30046   0.717   2.159  13.703 -0.4185  0.6311 -0.2843
 6137SOL    HW130047   0.761   2.074  13.704 -0.4850  0.6843  3.7563
 6137SOL    HW230048   0.738   2.171  13.795  0.3576 -2.0768 -0.1173
 6138SOL     OW30049   4.327   0.093   4.928 -0.2168  0.3418  0.1396
 6138SOL    HW130050   4.381   0.016   4.945  2.1356  2.0689  0.4899
 6138SOL    HW230051   4.371   0.163   4.978  0.7872  1.3204 -2.1043
 6139SOL     OW30052   2.256   3.319   8.272  0.2521 -0.0169  0.4076
 6139SOL    HW130053   2.178   3.346   8.320  0.6263  0.7697  0.5621
 6139SOL    HW230054   2.313   3.283   8.339  0.3757 -0.8177 -0.1236
 6140SOL     OW30055   3.549   0.666  11.759  0.6799  0.2679  0.0113
 6140SOL    HW130056   3.598   0.742  11.789  0.5034  0.7705 -0.9687
 6140SOL    HW230057   3.602   0.623  11.692  1.3206  0.9840  0.0577
 6141SOL     OW30058   1.977   3.866   3.048 -0.0444 -0.0014 -0.0292
 6141SOL    HW130059   2.022   3.797   3.097  2.2753  1.0327 -0.6807
 6141SOL    HW230060   1.998   3.949   3.092 -0.5128  0.0453  0.1082
 6142SOL     OW30061   3.052   4.106   6.701 -0.2153 -0.1839 -0.0948
 6142SOL    HW130062   3.039   4.118   6.795  1.2943 -2.4031  0.3959
 6142SOL    HW230063   3.087   4.017   6.702  0.3515  0.0489  1.4792
 6143SOL     OW30064   2.292   2.304   5.435  0.5102 -0.0710  0.2077
 6143SOL    HW130065   2.216   2.351   5.399 -0.1402 -2.4502 -1.5784
 6143SOL    HW230066   2.362   2.368   5.443  0.0232  0.5150 -0.2102
 6144SOL     OW30067   3.995   4.671   3.727 -0.1113  0.2611 -0.1139
 6144SOL    HW130068   3.975   4.672   3.820  1.0134 -4.9208  0.1543
 6144SOL    HW230069   3.942   4.596   3.703 -2.2481  1.5116  0.7562
 6145SOL     OW30070   3.473   3.485   6.742  0.2999  0.3062 -0.1613
 6145SOL    HW130071   3.390   3.439   6.758  0.1443  0.6138 -0.0867
 6145SOL    HW230072   3.462   3.531   6.659 -1.1695  0.8905  0.3426
 6146SOL     OW30073   1.288   0.130   9.516  0.6400 -0.1874  0.3598
 6146SOL    HW130074   1.208   0.100   9.471  0.0233 -0.5561  1.7135
 6146SOL    HW230075   1.341   0.051   9.506  1.0794 -0.2643  3.2289
 6147SOL     OW30076   2.403   0.167  12.242 -0.3767 -0.2247 -0.3594
 6147SOL    HW130077   2.370   0.173  12.331  1.7875 -1.2401  0.5102
 6147SOL    HW230078   2.321   0.193  12.201 -0.1524  2.2458  0.7870
 6148SOL     OW30079   0.488   0.792  10.201  0.3176 -0.0185 -0.3511
 6148SOL    HW130080   0.435   0.734  10.255  0.1245 -0.3140 -0.8533
 6148SOL    HW230081   0.426   0.802  10.129 -1.0977 -0.6512  0.7780
 6149SOL     OW30082   3.695   1.965  12.860  0.0692  0.2370 -0.7184
 6149SOL    HW130083   3.763   2.032  12.853  0.6628 -0.2689  0.1785
 6149SOL    HW230084   3.731   1.888  12.815 -0.1087  1.1151 -2.3722
 6150SOL     OW30085   2.042   3.731   4.313 -0.2459 -0.4077  0.2594
 6150SOL    HW130086   1.981   3.766   4.248  0.1076 -1.3341 -0.5718
 6150SOL    HW230087   2.122   3.716   4.262  0.4605 -0.3663  1.3568
 6151SOL     OW30088   4.062   2.542   2.649 -0.6823  0.4057  0.1804
 6151SOL    HW130089   4.138   2.581   2.606 -0.6170 -1.8443 -1.7431
 6151SOL    HW230090   4.042   2.479   2.580  1.2692 -0.9668  0.8673
 6152SOL     OW30091   2.629   0.790   6.110 -0.0184  0.7541  0.0770
 6152SOL    HW130092   2.631   0.854   6.039  1.6546 -1.3506 -1.7574
 6152SOL    HW230093   2.719   0.757   6.116 -0.8639 -1.7553 -1.0363
 6153SOL     OW30094   3.144   0.767   2.470  0.2557 -0.0816  0.2049
 6153SOL    HW130095   3.233   0.744   2.443 -0.3916 -0.5223 -1.5558
 6153SOL    HW230096   3.143   0.845   2.415 -0.8964 -1.2455 -1.4337
 6154SOL     OW30097   3.799   4.362  17.220 -0.1602  0.1806  0.0953
 6154SOL    HW130098   3.800   4.309  17.300  0.4698 -1.1405 -0.7835
 6154SOL    HW230099   3.754   4.309  17.153 -1.1224 -0.6743  1.4063
 6155SOL     OW30100   2.374   3.715  14.344 -0.3543 -0.3338  0.4065
 6155SOL    HW130101   2.406   3.637  14.300  1.6324 -0.3807  1.9326
 6155SOL    HW230102   2.386   3.789  14.283 -1.2143  0.7812  1.5966
 6156SOL     OW30103   2.626   2.476  10.760 -0.4258  0.1246 -0.1521
 6156SOL    HW130104   2.713   2.438  10.770 -0.2502  1.0755  2.1605
 6156SOL    HW230105   2.612   2.454  10.668 -1.9005  0.3151  0.0304
 6157SOL     OW30106   2.883   0.250   3.671 -0.3254 -0.7764  0.5708
 6157SOL    HW130107   2.880   0.161   3.637  4.2236 -0.3947 -0.7190
 6157SOL    HW230108   2.929   0.234   3.753 -0.3783  1.5417  1.0639
 6158SOL     OW30109   1.184   1.609   5.401 -0.2912 -0.0147 -0.1261
 6158SOL    HW130110   1.145   1.675   5.344  1.0668  0.8397 -0.0714
 6158SOL    HW230111   1.164   1.523   5.364 -1.2703  0.6133 -1.0496
 6159SOL     OW30112   3.355   1.137   2.501 -0.1713  0.2106 -0.2754
 6159SOL    HW130113   3.433   1.108   2.455 -0.2906  0.2580 -0.5061
 6159SOL    HW230114   3.387   1.167   2.586  0.1659  0.2899 -0.4316
 6160SOL     OW30115   0.769   3.146   0.236 -0.0094 -0.0647  0.0715
 6160SOL    HW130116   0.761   3.120   0.328 -5.1237 -0.2490 -0.4025
 6160SOL    HW230117   0.860   3.118   0.227  0.1700 -0.0583  1.7822
 6161SOL     OW30118   0.942   2.398   6.415 -0.4121 -0.0035  0.6016
 6161SOL    HW130119   0.928   2.336   6.487 -0.1082 -3.0490 -1.9465
 6161SOL    HW230120   0.852   2.431   6.416  0.2246  1.7369  0.0727
 6162SOL     OW30121   0.833   2.482   3.912  0.5059 -0.1408  0.0559
 6162SOL    HW130122   0.740   2.505   3.907  0.5043 -0.2715 -0.5051
 6162SOL    HW230123   0.821   2.389   3.930  1.5370  0.4177  3.5566
 6163SOL     OW30124   3.485   2.840   1.780  0.0752 -0.0917 -0.2941
 6163SOL    HW130125   3.487   2.780   1.855  0.8088  3.4961  2.5366
 6163SOL    HW230126   3.572   2.821   1.744  0.0644 -0.5792 -0.0727
 6164SOL     OW30127   0.807   1.892   1.313  0.0563 -0.2976  0.4366
 6164SOL    HW130128   0.717   1.885   1.280  0.1577  1.0940 -0.1490
 6164SOL    HW230129   0.847   1.873   1.228  2.1119 -0.1763  1.3726
 6165SOL     OW30130   2.234   1.211   5.932 -0.0767 -0.5962  0.1448
 6165SOL    HW130131   2.157   1.200   5.987  0.7506 -1.0606  1.2108
 6165SOL    HW230132   2.222   1.129   5.883 -1.6137 -0.9630  1.1504
 6166SOL     OW30133   1.715   0.855   7.455  0.3646 -0.0244  0.4381
 6166SOL    HW130134   1.799   0.833   7.495  1.6344  0.6638 -1.8507
 6166SOL    HW230135   1.728   0.930   7.398 -0.1488 -0.8078 -0.7199
 6167SOL     OW30136   3.078   4.675  12.939  0.3026 -0.2773  0.5009
 6167SOL    HW130137   3.162   4.683  12.895 -0.3377  2.0605 -0.3324
 6167SOL    HW230138   3.109   4.669  13.029 -0.4477 -1.9820  0.6463
 6168SOL     OW30139   1.548   2.514   2.009  0.1203 -0.0908  0.1401
 6168SOL    HW130140   1.500   2.476   2.082  0.2298  1.2814  0.9401
 6168SOL    HW230141   1.616   2.452   1.984  1.2310  0.3698  1.9690
 6169SOL     OW30142   4.189   3.252   4.136 -0.0272  0.0756 -0.3273
 6169SOL    HW130143   4.189   3.346   4.154 -0.1398 -0.0858  0.5128
 6169SOL    HW230144   4.198   3.222   4.227 -0.0379  1.3919  0.1111
 6170SOL     OW30145   4.340   2.259  15.901 -0.2129 -0.2087 -0.4035
 6170SOL    HW130146   4.403   2.280  15.971 -2.4286  0.7213  1.3190
 6170SOL    HW230147   4.400   2.196  15.861  1.6377  1.5599 -0.4419
 6171SOL     OW30148   2.272   4.658  11.110  0.7268  0.3934  0.4205
 6171SOL    HW130149   2.223   4.661  11.028  0.5137  3.7517  0.6565
 6171SOL    HW230150   2.303   4.568  11.111  1.8765  0.7521 -1.6331
 6172SOL     OW30151   0.290   3.179   5.849  0.2146 -0.2277 -0.1106
 6172SOL    HW130152   0.379   3.207   5.867  0.7028 -1.8865  0.0713
 6172SOL    HW230153   0.266   3.139   5.932 -0.0816 -0.9165 -0.5256
 6173SOL     OW30154   1.772   0.442   9.153  0.0570 -0.1745 -0.2385
 6173SOL    HW130155   1.691   0.472   9.193 -0.1587  1.1970 -1.6823
 6173SOL    HW230156   1.827   0.432   9.231 -2.2658 -1.6518  1.2006
 6174SOL     OW30157   4.217   4.059   1.756 -0.0604  0.0624 -0.1031
 6174SOL    HW130158   4.200   3.974   1.715 -0.8143  1.8866 -3.5815
 6174SOL    HW230159   4.196   4.028   1.845 -1.2775 -1.5715 -0.9564
 6175SOL     OW30160   3.190   1.656   6.139 -0.6411 -0.2111  0.0846
 6175SOL    HW130161   3.143   1.669   6.057  1.2227  0.0438 -0.9370
 6175SOL    HW230162   3.281   1.650   6.110 -0.0809  3.4387  1.1029
 6176SOL     OW30163   2.879   0.388   9.029 -0.5464 -0.3696  0.0944
 6176SOL    HW130164   2.928   0.462   9.065 -1.8676  0.5034  0.1163
 6176SOL    HW230165   2.832   0.362   9.109 -0.6300 -1.5092 -0.3284
 6177SOL     OW30166   4.221   1.118   4.389 -0.2344  0.0766  0.1453
 6177SOL    HW130167   4.225   1.158   4.476 -1.0884  0.5865 -0.0408
 6177SOL    HW230168   4.199   1.032   4.425 -2.0267  0.3238 -0.3586
 6178SOL     OW30169   4.065   4.537   2.226  0.7701  0.2391  0.1518
 6178SOL    HW130170   4.093   4.521   2.136 -2.0020  1.7674 -0.9672
 6178SOL    HW230171   4.093   4.464   2.282 -2.6805  1.4513  3.4813
 6179SOL     OW30172   1.803   2.745   3.240 -0.2652  0.1444  0.2513
 6179SOL    HW130173   1.771   2.835   3.242  2.7680  1.2484 -1.5889
 6179SOL    HW230174   1.873   2.740   3.175 -1.2186 -3.7388 -0.5072
 6180SOL     OW30175   2.472   2.517   0.954 -0.0337  0.2283 -0.3068
 6180SOL    HW130176   2.479   2.459   0.878  1.5530 -0.6512  0.5157
 6180SOL    HW230177   2.500   2.596   0.909  0.6738  0.0740 -0.1327
 6181SOL     OW30178   2.555   4.441   9.818  0.3019 -0.2298 -0.0582
 6181SOL    HW130179   2.564   4.474   9.908  0.9364  0.0667 -0.2330
 6181SOL    HW230180   2.636   4.479   9.784  0.8453  1.0957  2.6535
 6182SOL     OW30181   4.302   4.387   8.400  0.0183 -0.4958 -0.1665
 6182SOL    HW130182   4.300   4.313   8.462  0.6944  0.5592  1.1222
 6182SOL    HW230183   4.315   4.342   8.317 -1.8003 -2.4875  0.6295
 6183SOL     OW30184   1.369   0.660   3.826  0.7284 -0.0294  0.0105
 6183SOL    HW130185   1.460   0.664   3.795  0.8144 -0.6743  0.1892
 6183SOL    HW230186   1.325   0.644   3.742  2.1456 -0.5829 -0.6317
 6184SOL     OW30187   1.791   3.650   2.576  0.1185  0.3684 -0.0238
 6184SOL    HW130188   1.870   3.595   2.583  2.1509  3.4321  1.3501
 6184SOL    HW230189   1.841   3.726   2.548 -0.0456 -0.0468 -1.4128
 6185SOL     OW30190   2.811   3.360   5.672  0.7317 -0.5762  0.3100
 6185SOL    HW130191   2.754   3.437   5.672 -0.5945 -1.5638  0.9569
 6185SOL    HW230192   2.835   3.355   5.579  0.9731  0.5333  0.3073
 6186SOL     OW30193   0.459   2.382  10.788 -0.5731 -0.5399 -0.6470
 6186SOL    HW130194   0.456   2.348  10.877 -0.0731 -1.6637 -1.0506
 6186SOL    HW230195   0.526   2.449  10.796  0.1907 -0.9165 -3.8952
 6187SOL     OW30196   3.681   3.296   2.881 -0.3137  0.2292  0.2314
 6187SOL    HW130197   3.734   3.288   2.960  1.9716  0.0577 -1.3163
 6187SOL    HW230198   3.728   3.245   2.815  0.4252  0.8078  0.3032
 6188SOL     OW30199   1.592   1.605   5.620 -0.0032 -0.0163  0.7121
 6188SOL    HW130200   1.509   1.566   5.594 -1.0023  0.7911  2.6797
 6188SOL    HW230201   1.568   1.666   5.689  0.0182  0.1816  0.5439
 6189SOL     OW30202   2.096   1.001   6.891 -0.2740  0.1166 -0.1670
 6189SOL    HW130203   2.087   1.048   6.808 -3.2222  0.6966  0.4854
 6189SOL    HW230204   2.049   1.063   6.947  0.4262 -0.3910  0.9719
 6190SOL     OW30205   4.213   0.061   2.198  0.9415 -0.1325  0.0319
 6190SOL    HW130206   4.178   4.711   2.217  0.5419 -0.2782 -1.3722
 6190SOL    HW230207   4.241   0.077   2.289  0.7315  0.2541  0.0283
 6191SOL     OW30208   1.767   4.222   0.829 -0.1393 -0.1887 -0.5845
 6191SOL    HW130209   1.836   4.160   0.805 -0.3601 -1.2187  1.3617
 6191SOL    HW230210   1.718   4.170   0.893  0.9324  0.8648  1.1204
 6192SOL     OW30211   1.107   2.314   2.855  0.1592  0.3889  0.1523
 6192SOL    HW130212   1.181   2.294   2.913 -1.6293  0.6240  2.5201
 6192SOL    HW230213   1.161   2.324   2.777 -1.8572  1.5218 -1.0772
 6193SOL     OW30214   0.943   1.373   4.419  0.2767 -0.0163  0.6597
 6193SOL    HW130215   0.954   1.286   4.458 -0.8973 -1.5823 -2.4227
 6193SOL    HW230216   0.901   1.350   4.335  0.8010 -0.2466  0.4581
 6194SOL     OW30217   1.991   0.715   6.888  0.9220 -0.3494  0.4236
 6194SOL    HW130218   1.940   0.796   6.890  1.3609 -0.0312 -1.3633
 6194SOL    HW230219   2.020   0.698   6.798 -1.1086  0.4261 -0.3664
 6195SOL     OW30220   1.452   1.316   4.956 -0.2297  0.2852  0.3761
 6195SOL    HW130221   1.441   1.377   4.883 -0.6152 -0.2546 -0.0181
 6195SOL    HW230222   1.505   1.377   5.007  0.9038 -0.6707  0.3429
 6196SOL     OW30223   3.468   0.672   2.035 -0.1427 -0.0327 -0.0867
 6196SOL    HW130224   3.426   0.597   1.991 -0.2205  0.4099 -0.7662
 6196SOL    HW230225   3.551   0.633   2.062  0.0757  2.3083  2.5236
 6197SOL     OW30226   1.059   1.240  16.835 -0.2887  0.6705  0.2123
 6197SOL    HW130227   1.117   1.315  16.821 -1.4721  1.7470  1.0674
 6197SOL    HW230228   1.127   1.173  16.844  0.3802  1.1644 -1.1498
 6198SOL     OW30229   2.401   3.530   1.998  0.9317 -0.2733 -0.3627
 6198SOL    HW130230   2.419   3.602   1.937 -0.7012  0.1556 -0.3544
 6198SOL    HW230231   2.441   3.564   2.078 -2.8113  0.5116  1.2228
 6199SOL     OW30232   3.753   2.556   9.373  0.2638 -0.0540  0.1655
 6199SOL    HW130233   3.739   2.461   9.372  0.4220 -0.0856  1.2364
 6199SOL    HW230234   3.668   2.589   9.344  1.0349  1.8369  0.0440
 6200SOL     OW30235   3.325   4.187   7.512 -0.1036  0.7163  0.1379
 6200SOL    HW130236   3.275   4.150   7.439 -0.2964  2.8754 -0.8384
 6200SOL    HW230237   3.392   4.235   7.464  0.5601  0.8925  1.2348
 6201SOL     OW30238   1.222   3.740   4.312  0.3706  0.0996 -0.2698
 6201SOL    HW130239   1.236   3.682   4.237 -1.2743 -0.4674 -0.1312
 6201SOL    HW230240   1.200   3.677   4.380  0.2716  0.0360 -0.3598
 6202SOL     OW30241   0.484   4.052   1.095 -0.0386  0.0413 -0.0424
 6202SOL    HW130242   0.554   3.995   1.065  0.1034  0.3614 -0.3128
 6202SOL    HW230243   0.421   4.059   1.023 -0.9622 -0.5511  0.7024
 6203SOL     OW30244   0.984   2.023   5.582 -0.2310  0.4305 -0.2738
 6203SOL    HW130245   0.988   2.065   5.496  1.5836 -1.3537 -1.0731
 6203SOL    HW230246   0.938   1.942   5.561  1.5207 -0.5650 -0.2689
 6204SOL     OW30247   4.035   1.030   7.230  0.3040 -0.1954 -0.1830
 6204SOL    HW130248   4.044   0.979   7.150 -2.5225  0.2248 -0.7620
 6204SOL    HW230249   4.110   1.088   7.213  0.5324 -0.1811  0.8721
 6205SOL     OW30250   0.235   2.091   0.643 -0.0824  0.2696  0.2348
 6205SOL    HW130251   0.220   2.137   0.561 -1.4302  1.2624  1.0339
 6205SOL    HW230252   0.151   2.097   0.688 -0.5584 -0.3154 -0.5870
 6206SOL     OW30253   1.352   0.936   5.498 -0.0526  0.2208  0.3934
 6206SOL    HW130254   1.296   0.875   5.546 -0.3917  1.0147  1.0028
 6206SOL    HW230255   1.327   0.923   5.407  0.2922 -2.0176  0.6196
 6207SOL     OW30256   3.170   3.954  13.519  0.2108  0.2049 -0.1304
 6207SOL    HW130257   3.200   3.883  13.576  1.0332 -0.9892 -2.0455
 6207SOL    HW230258   3.084   3.916  13.504  0.6684 -0.8236 -0.1412
 6208SOL     OW30259   2.188   1.629   8.620 -0.4497  0.1598 -0.3242
 6208SOL    HW130260   2.140   1.565   8.567  0.5551 -0.1582 -0.8494
 6208SOL    HW230261   2.121   1.695   8.639  0.2074  0.1039  2.1804
 6209SOL     OW30262   0.648   2.467  16.776 -0.2518  0.0329  0.1161
 6209SOL    HW130263   0.654   2.385  16.825  0.0589 -0.8445 -1.3768
 6209SOL    HW230264   0.644   2.440  16.684 -0.9081  1.6500 -0.3188
 6210SOL     OW30265   3.631   4.115  14.167 -0.5690 -0.2697  0.1678
 6210SOL    HW130266   3.662   4.058  14.097 -0.8899  1.0941 -1.0689
 6210SOL    HW230267   3.538   4.091  14.171 -1.2627  2.0805 -2.0261
 6211SOL     OW30268   2.815   1.844   0.454  0.1215 -0.1792  0.0407
 6211SOL    HW130269   2.799   1.757   0.417  1.4664 -1.7812  3.2026
 6211SOL    HW230270   2.850   1.894   0.380  0.0270 -2.8141 -1.8058
 6212SOL     OW30271   0.661   2.172  15.095 -0.4784  0.3610  0.4195
 6212SOL    HW130272   0.755   2.158  15.095 -0.7665 -1.6366  0.6465
 6212SOL    HW230273   0.660   2.266  15.080  1.6613 -0.0782 -2.4430
 6213SOL     OW30274   1.287   2.484   8.864 -0.1756 -0.6377  0.0987
 6213SOL    HW130275   1.246   2.498   8.779  0.1839 -1.6170 -0.2336
 6213SOL    HW230276   1.352   2.417   8.845  1.2193  1.1592 -1.4545
 6214SOL     OW30277   3.524   2.741   3.344  0.5775  0.3197  0.3015
 6214SOL    HW130278   3.591   2.806   3.323  1.6062 -0.2825  1.7137
 6214SOL    HW230279   3.555   2.690   3.270  2.1981 -0.2224  1.3470
 6215SOL     OW30280   2.790   2.256   5.646  0.1345  0.2630 -0.0615
 6215SOL    HW130281   2.806   2.197   5.572 -0.9140  0.7126 -0.6472
 6215SOL    HW230282   2.842   2.218   5.716  0.8042 -0.1176 -0.7655
 6216SOL     OW30283   1.448   4.426   4.462 -0.1402 -0.5078 -0.0220
 6216SOL    HW130284   1.457   4.372   4.540 -1.4360 -0.2853  0.2837
 6216SOL    HW230285   1.530   4.410   4.414 -0.0250 -0.4242  0.1470
 6217SOL     OW30286   1.941   1.035   7.744  0.8066  1.1560 -0.0718
 6217SOL    HW130287   2.003   0.965   7.728  1.0614  1.0218  1.4695
 6217SOL    HW230288   1.942   1.044   7.840  0.4419  0.7300 -0.0280
 6218SOL     OW30289   1.585   4.174  13.050 -0.5373  0.0300  0.1949
 6218SOL    HW130290   1.658   4.208  13.102 -2.5467  1.0963  2.3026
 6218SOL    HW230291   1.604   4.081  13.042  1.0384  0.4314 -0.7564
 6219SOL     OW30292   1.963   1.618   6.262 -0.0396 -0.0368  0.1522
 6219SOL    HW130293   1.939   1.638   6.171  2.2060  2.6567  0.1672
 6219SOL    HW230294   1.875   1.590   6.288 -0.1105 -0.5705 -0.6269
 6220SOL     OW30295   0.493   4.059  11.742  0.0007  0.1633 -0.0330
 6220SOL    HW130296   0.412   4.007  11.742  0.8143 -1.1149 -1.2326
 6220SOL    HW230297   0.559   3.995  11.715 -1.0110 -1.2968  0.9670
 6221SOL     OW30298   4.000   3.322   7.485  0.6170 -0.0974  0.0777
 6221SOL    HW130299   3.941   3.388   7.448  0.9123  1.1099  1.7348
 6221SOL    HW230300   4.010   3.357   7.574 -0.1538  0.6154 -0.1231
 6222SOL     OW30301   3.173   3.425   8.598 -0.2628 -0.0654  0.5261
 6222SOL    HW130302   3.110   3.364   8.637  1.2076 -1.6521  0.4198
 6222SOL    HW230303   3.212   3.462   8.677  0.9190  1.3457 -0.7143
 6223SOL     OW30304   3.587   0.453   1.096  0.2965 -0.0304 -0.2969
 6223SOL    HW130305   3.598   0.479   1.004 -3.1254  1.4934 -0.2759
 6223SOL    HW230306   3.521   0.514   1.129  1.0978  0.2868  0.7187
 6224SOL     OW30307   1.364   1.068   9.261  0.0644 -0.2778  0.8237
 6224SOL    HW130308   1.439   1.100   9.312  0.8499  2.6922 -2.2100
 6224SOL    HW230309   1.413   1.025   9.192  2.2234  1.3835  1.3139
 6225SOL     OW30310   0.810   4.006   3.095 -0.3495 -0.1116  0.0732
 6225SOL    HW130311   0.869   3.946   3.140  1.7506  1.1134 -0.9785
 6225SOL    HW230312   0.860   4.015   3.013 -1.7585  0.4261 -0.7280
 6226SOL     OW30313   4.638   3.676   1.438  0.2131  0.4241  0.6004
 6226SOL    HW130314   4.643   3.706   1.347 -0.1081  0.7266  0.6842
 6226SOL    HW230315   4.580   3.739   1.479  1.1789  0.5581  1.7451
 6227SOL     OW30316   1.619   2.568   3.024  0.3825 -0.6099 -0.7163
 6227SOL    HW130317   1.693   2.531   2.976  1.5778 -0.4162  0.9630
 6227SOL    HW230318   1.663   2.602   3.102  1.0792  0.0093 -1.3779
 6228SOL     OW30319   0.327   0.579   2.129 -0.0597  0.2279  0.0901
 6228SOL    HW130320   0.416   0.565   2.098 -0.4511  2.1130 -1.9134
 6228SOL    HW230321   0.346   0.587   2.222  0.5258  0.2018 -0.0258
 6229SOL     OW30322   2.197   1.110   0.545 -0.2363 -0.6719 -0.0499
 6229SOL    HW130323   2.176   1.022   0.576  1.1097 -1.0171 -0.1073
 6229SOL    HW230324   2.250   1.092   0.468 -1.2277  0.1732 -0.9318
 6230SOL     OW30325   4.529   0.279  11.804 -0.3019  0.0679 -0.0236
 6230SOL    HW130326   4.531   0.302  11.711 -3.8450 -0.4051 -0.2062
 6230SOL    HW230327   4.458   0.216  11.810  1.9683 -2.5854 -1.1743
 6231SOL     OW30328   1.089   1.404   5.216  0.1356  0.8974  0.4327
 6231SOL    HW130329   1.158   1.342   5.191 -1.1475  0.1562 -1.2744
 6231SOL    HW230330   1.078   1.446   5.131  0.0971  0.1139  0.0452
 6232SOL     OW30331   0.891   2.524  16.506  0.1504  0.1119  0.0162
 6232SOL    HW130332   0.862   2.600  16.456 -0.7263 -0.6709 -0.6741
 6232SOL    HW230333   0.820   2.460  16.504  0.7725 -0.5545 -0.8577
 6233SOL     OW30334   1.995   0.011   3.958  0.3765  0.6048  0.1841
 6233SOL    HW130335   2.075   0.041   4.001  0.0534 -1.5540  2.3131
 6233SOL    HW230336   2.002   4.653   3.955  1.9197  0.8019 -2.4021
 6234SOL     OW30337   1.926   3.207  10.381  1.2064 -0.5532 -0.4885
 6234SOL    HW130338   1.946   3.198  10.474 -0.4555 -3.6507 -0.4427
 6234SOL    HW230339   1.941   3.300  10.366  1.7331 -0.0366  3.1730
 6235SOL     OW30340   1.758   0.290   7.864  0.3853 -0.1635 -0.1114
 6235SOL    HW130341   1.778   0.370   7.816  2.4140 -0.1778  0.7091
 6235SOL    HW230342   1.684   0.261   7.811  0.2563  0.4011 -0.2411
 6236SOL     OW30343   4.682   4.231   8.284  0.1668 -0.2631  0.1481
 6236SOL    HW130344   4.638   4.287   8.348  0.8902  0.6370 -0.1559
 6236SOL    HW230345   4.680   4.286   8.206 -0.6710 -0.3641  0.0995
 6237SOL     OW30346   4.015   1.499   2.737 -0.3404 -0.4916  0.3160
 6237SOL    HW130347   4.049   1.467   2.653  0.3389  0.2585  0.2998
 6237SOL    HW230348   3.981   1.416   2.771  0.1166 -0.9793 -0.4180
 6238SOL     OW30349   1.671   0.298   2.711  0.7779 -0.1682  0.0571
 6238SOL    HW130350   1.749   0.242   2.709 -1.0348 -2.6919  0.3457
 6238SOL    HW230351   1.599   0.236   2.723 -0.3903  0.4258 -3.8371
 6239SOL     OW30352   2.555   0.584   5.846 -0.0695 -0.4718  0.4597
 6239SOL    HW130353   2.512   0.503   5.873  0.6077 -1.8414 -2.5871
 6239SOL    HW230354   2.602   0.593   5.928  1.0252  1.4883 -0.3855
 6240SOL     OW30355   4.584   0.553   6.512 -0.4105 -0.2433 -0.2843
 6240SOL    HW130356   4.657   0.579   6.569 -0.8691 -1.8116  1.0233
 6240SOL    HW230357   4.571   0.464   6.546 -1.1141 -0.3120 -0.7439
 6241SOL     OW30358   0.166   3.739  13.054 -0.0473  0.0122 -0.7750
 6241SOL    HW130359   0.128   3.769  12.971 -0.6967  1.5284  0.0730
 6241SOL    HW230360   0.085   3.736  13.106  0.6710 -0.6363  0.3029
 6242SOL     OW30361   2.718   1.144   1.555 -0.1371 -0.2114 -0.0951
 6242SOL    HW130362   2.764   1.126   1.637 -0.4450 -0.4270  0.0282
 6242SOL    HW230363   2.736   1.238   1.551 -2.2511  0.2199  0.5801
 6243SOL     OW30364   2.880   0.431  10.768 -0.5060  0.0886 -0.7273
 6243SOL    HW130365   2.788   0.429  10.743 -0.9219  0.1234  0.8059
 6243SOL    HW230366   2.909   0.519  10.744  1.9729 -0.4257  0.4053
 6244SOL     OW30367   1.298   1.680  15.963 -0.8592  0.2863  0.8970
 6244SOL    HW130368   1.273   1.692  15.872  0.5914 -1.6176  0.2439
 6244SOL    HW230369   1.350   1.600  15.960  1.3057  1.8086 -1.7243
 6245SOL     OW30370   0.410   1.437   7.542  0.2949 -0.4665  0.0363
 6245SOL    HW130371   0.400   1.437   7.446  0.7345 -4.6298 -0.0122
 6245SOL    HW230372   0.339   1.495   7.570  0.7392  0.8767 -1.5974
 6246SOL     OW30373   2.444   2.244   4.294  0.1213  0.1402 -0.6411
 6246SOL    HW130374   2.481   2.190   4.363 -0.4355  0.8885  0.2435
 6246SOL    HW230375   2.517   2.234   4.233 -1.1664  0.5547 -2.2638
 6247SOL     OW30376   2.638   3.282   6.727 -0.7954 -0.3217 -0.4200
 6247SOL    HW130377   2.547   3.310   6.740 -0.2428  0.6052  1.4502
 6247SOL    HW230378   2.676   3.336   6.796  1.2203 -4.9541  2.0703
 6248SOL     OW30379   3.514   0.012   7.437 -0.1686 -0.2568  0.7096
 6248SOL    HW130380   3.449   4.680   7.428 -0.1213 -0.0359 -1.1962
 6248SOL    HW230381   3.530   0.002   7.531  1.1799 -0.2556  0.4868
 6249SOL     OW30382   2.881   0.901   5.276  0.7699 -0.3818  1.0513
 6249SOL    HW130383   2.909   0.813   5.300  0.1729 -0.9884 -0.4723
 6249SOL    HW230384   2.966   0.934   5.248  0.1684  1.0059  0.8585
 6250SOL     OW30385   0.416   3.186   8.879 -0.1152  0.1760  0.0296
 6250SOL    HW130386   0.335   3.227   8.908 -0.5530  0.6387 -1.8838
 6250SOL    HW230387   0.396   3.103   8.923  1.7659 -0.3177 -0.0177
 6251SOL     OW30388   2.412   1.720  12.145 -0.3736 -0.3391 -0.7596
 6251SOL    HW130389   2.330   1.763  12.123 -2.2553 -2.5296  1.8957
 6251SOL    HW230390   2.465   1.799  12.135 -0.8682  0.0242 -0.4650
 6252SOL     OW30391   4.337   3.088  12.257  0.1468  0.0206  0.1181
 6252SOL    HW130392   4.348   3.146  12.332  0.0829  1.8305 -1.2763
 6252SOL    HW230393   4.414   3.031  12.268 -0.9994 -0.9751  3.2247
 6253SOL     OW30394   0.314   1.445   3.235 -0.4514 -0.1202  0.5928
 6253SOL    HW130395   0.339   1.372   3.179  0.4530 -1.0180  2.1478
 6253SOL    HW230396   0.334   1.513   3.171 -2.5700 -0.3127 -0.2523
 6254SOL     OW30397   1.388   4.180  17.088 -0.1724 -0.0443 -0.7362
 6254SOL    HW130398   1.342   4.159  17.007  0.1753 -0.2777 -0.8759
 6254SOL    HW230399   1.405   4.275  17.089  1.9385 -0.4052 -1.4367
 6255SOL     OW30400   0.879   4.522   8.016  0.3134  0.3441 -0.6224
 6255SOL    HW130401   0.936   4.454   8.052 -1.6690 -0.9225  0.1048
 6255SOL    HW230402   0.867   4.491   7.926 -0.2354  0.4758 -0.5940
 6256SOL     OW30403   3.446   2.041   6.216 -0.1383 -0.2876 -0.7197
 6256SOL    HW130404   3.475   2.036   6.307  1.8334  0.2019 -1.3046
 6256SOL    HW230405   3.382   2.112   6.214 -0.5300 -0.6293 -0.0513
 6257SOL     OW30406   0.963   1.260  14.135 -0.4093 -0.6053  0.5217
 6257SOL    HW130407   1.043   1.280  14.088  1.7020  1.3922  5.0018
 6257SOL    HW230408   0.952   1.167  14.114 -1.8665 -0.8752  2.4583
 6258SOL     OW30409   2.730   2.839  12.963 -0.1790  0.5724  0.2316
 6258SOL    HW130410   2.741   2.860  13.056  1.4199  1.0285 -0.0635
 6258SOL    HW230411   2.667   2.902  12.929 -1.5874 -1.1041 -0.2959
 6259SOL     OW30412   3.002   1.465   1.939  0.0442 -0.3644  0.3703
 6259SOL    HW130413   2.969   1.554   1.925  1.5253 -0.1951 -2.0250
 6259SOL    HW230414   3.096   1.478   1.927 -0.5147  2.5933 -0.9180
 6260SOL     OW30415   3.975   0.507   8.341 -0.0095 -0.3883 -0.2010
 6260SOL    HW130416   3.989   0.598   8.366  0.7158 -0.2497 -1.1402
 6260SOL    HW230417   3.938   0.462   8.417 -0.8985  0.5219 -0.0993
 6261SOL     OW30418   2.738   1.234   5.289 -0.1359  0.1320  0.1579
 6261SOL    HW130419   2.778   1.258   5.373  0.6020 -0.0212 -0.1551
 6261SOL    HW230420   2.702   1.150   5.316  0.9115 -0.7893 -1.3571
 6262SOL     OW30421   2.215   1.078  11.375 -0.3584 -0.1089  0.2633
 6262SOL    HW130422   2.179   1.054  11.290 -1.0868  2.0258 -0.0157
 6262SOL    HW230423   2.174   1.164  11.381 -0.4155 -0.0696 -0.7018
 6263SOL     OW30424   4.591   2.097   7.504 -0.4885  0.4566 -0.2816
 6263SOL    HW130425   4.584   2.117   7.411  0.2633 -2.2327 -0.9218
 6263SOL    HW230426   4.636   2.176   7.534  1.2446 -0.7726  0.3264
 6264SOL     OW30427   0.983   2.134   9.302  0.1732 -0.1720  0.6442
 6264SOL    HW130428   0.966   2.226   9.283 -0.2807  0.0853  2.2668
 6264SOL    HW230429   1.030   2.113   9.222  0.9154  0.0582  1.0213
 6265SOL     OW30430   0.693   4.125   2.689  0.0050 -0.8892  0.0807
 6265SOL    HW130431   0.636   4.080   2.750 -1.8802  2.7888  1.0568
 6265SOL    HW230432   0.781   4.116   2.724  0.3376  3.5982  0.4073
 6266SOL     OW30433   0.265   4.648  15.884  0.3378  0.1493 -0.0916
 6266SOL    HW130434   0.203   4.582  15.853 -0.6757 -0.1944  2.6950
 6266SOL    HW230435   0.346   4.606  15.855  0.8780  0.4541  0.9795
 6267SOL     OW30436   3.286   0.231   2.253 -0.1748 -0.8604  0.2237
 6267SOL    HW130437   3.271   0.325   2.265 -1.4066 -1.0644  0.2202
 6267SOL    HW230438   3.214   0.195   2.304 -1.5463  1.9820  0.2778
 6268SOL     OW30439   4.665   0.408   8.359 -0.7413 -0.0240 -0.0933
 6268SOL    HW130440   4.673   0.502   8.344  2.9587 -0.4528 -0.8634
 6268SOL    HW230441   4.636   0.408   8.450 -1.0643 -0.1397 -0.1966
 6269SOL     OW30442   0.711   4.112   2.138  0.1237  0.0445 -0.1509
 6269SOL    HW130443   0.721   4.139   2.229  0.1008 -1.7499  0.3712
 6269SOL    HW230444   0.636   4.165   2.108 -0.0441  0.5478  1.1570
 6270SOL     OW30445   2.120   0.491   7.362 -0.5109 -0.0598 -0.4638
 6270SOL    HW130446   2.137   0.506   7.269 -0.1527  1.0032 -0.2264
 6270SOL    HW230447   2.199   0.538   7.388 -0.7304  1.0939 -1.9262
 6271SOL     OW30448   0.148   2.397   7.096 -0.0169 -0.4829 -0.0048
 6271SOL    HW130449   0.149   2.490   7.072  2.8789 -0.4071  0.3985
 6271SOL    HW230450   0.233   2.365   7.064  1.3032 -0.7671  3.8186
 6272SOL     OW30451   3.855   1.900   6.662 -0.5641 -0.1360  0.9047
 6272SOL    HW130452   3.922   1.949   6.614  1.4662 -3.7104  0.0818
 6272SOL    HW230453   3.863   1.811   6.629  0.5612  0.4694 -0.4432
 6273SOL     OW30454   1.597   1.678  16.044 -0.0806 -0.2996  0.4987
 6273SOL    HW130455   1.681   1.670  15.999 -0.5762 -3.0318  0.0390
 6273SOL    HW230456   1.582   1.772  16.041 -1.5047 -0.5206  0.6348
 6274SOL     OW30457   0.756   2.479  13.876 -0.0816  0.0252  0.8259
 6274SOL    HW130458   0.686   2.487  13.811  0.3403 -0.5006  0.3127
 6274SOL    HW230459   0.763   2.390  13.910 -1.9504  0.4180  2.3126
 6275SOL     OW30460   2.495   0.735   2.647  0.2929 -0.3830 -0.7446
 6275SOL    HW130461   2.560   0.796   2.684 -1.4185  0.8879  0.1776
 6275SOL    HW230462   2.533   0.648   2.649 -0.9104 -0.8757  0.7683
 6276SOL     OW30463   2.689   3.953   4.498  0.0214  0.0359  0.2162
 6276SOL    HW130464   2.775   3.986   4.525  0.0294  0.9943 -0.9928
 6276SOL    HW230465   2.705   3.860   4.513  0.9364 -0.0929 -1.5557
 6277SOL     OW30466   1.906   3.704   7.445 -0.2070  0.2538 -0.1770
 6277SOL    HW130467   1.831   3.725   7.388 -0.2760  0.2985 -0.0689
 6277SOL    HW230468   1.857   3.626   7.472 -0.2941 -0.0144 -1.1040
 6278SOL     OW30469   3.917   0.134   2.033 -0.1125 -0.6432 -0.6510
 6278SOL    HW130470   4.000   0.103   1.998  0.3935  0.1057 -0.1197
 6278SOL    HW230471   3.883   0.053   2.070  2.2306 -0.2849  2.2218
 6279SOL     OW30472   1.787   4.649   8.449 -0.1489  0.2768  0.5942
 6279SOL    HW130473   1.869   4.657   8.400 -1.6095  0.4994 -1.8052
 6279SOL    HW230474   1.720   4.695   8.398 -0.1211 -1.3778 -0.9150
 6280SOL     OW30475   2.557   1.268   7.403 -0.1288 -0.4049  0.0063
 6280SOL    HW130476   2.480   1.325   7.400  0.2139 -0.0342 -1.4444
 6280SOL    HW230477   2.556   1.242   7.495  0.9396  0.8511  0.3764
 6281SOL     OW30478   4.611   2.692  11.703  0.4574 -0.3798 -0.6644
 6281SOL    HW130479   4.594   2.786  11.694 -2.4873 -0.9593 -1.1847
 6281SOL    HW230480   4.643   2.690  11.794  0.5533  1.2139 -0.6540
 6282SOL     OW30481   2.132   2.140   4.511 -0.0906 -0.2513 -0.0362
 6282SOL    HW130482   2.190   2.086   4.565 -0.5692 -0.1579  0.5781
 6282SOL    HW230483   2.138   2.101   4.424 -0.0253  0.1651 -0.2187
 6283SOL     OW30484   3.614   4.214   5.923 -0.1814  0.2069 -0.0920
 6283SOL    HW130485   3.583   4.231   5.834 -0.8595  0.7541  0.2495
 6283SOL    HW230486   3.573   4.289   5.966 -2.7810 -1.1677 -0.1781
 6284SOL     OW30487   0.449   2.505   4.396 -0.0029  0.3166 -0.3073
 6284SOL    HW130488   0.520   2.474   4.340 -0.0951 -1.8855  0.7951
 6284SOL    HW230489   0.379   2.446   4.367 -1.0474  1.6491 -0.5052
 6285SOL     OW30490   3.090   1.471  13.757 -0.1696  0.0054  0.1375
 6285SOL    HW130491   3.148   1.513  13.694 -0.8375  2.0015  0.8622
 6285SOL    HW230492   3.066   1.539  13.820  1.4313  1.5415 -0.9168
 6286SOL     OW30493   3.615   1.380   2.073 -0.1308  0.0593  0.2447
 6286SOL    HW130494   3.608   1.460   2.020 -0.2901  0.5482  1.0080
 6286SOL    HW230495   3.528   1.342   2.076  0.0894 -0.4397  0.3688
 6287SOL     OW30496   4.084   1.892   3.462  0.2048 -0.1164 -0.5670
 6287SOL    HW130497   4.160   1.864   3.513 -0.9114 -1.9501  0.0983
 6287SOL    HW230498   4.064   1.828   3.394 -1.4173 -0.7270  0.4733
 6288SOL     OW30499   3.155   4.314   1.266  0.3020  0.4645  0.4564
 6288SOL    HW130500   3.237   4.354   1.294  1.2199 -1.1508  0.0702
 6288SOL    HW230501   3.185   4.223   1.266  1.3963  0.8334 -1.4288
 6289SOL     OW30502   2.948   3.130   5.201  0.3353 -0.0302  0.3555
 6289SOL    HW130503   2.897   3.104   5.124  2.0046 -2.0847 -0.0797
 6289SOL    HW230504   3.007   3.194   5.161 -2.7891  1.4048 -1.9227
 6290SOL     OW30505   3.723   0.867   2.902  0.5564 -0.4126 -0.2133
 6290SOL    HW130506   3.677   0.945   2.932 -0.9848 -1.7224  0.8237
 6290SOL    HW230507   3.787   0.892   2.835  1.6928 -1.7425  0.3599
 6291SOL     OW30508   3.149   1.618  10.005 -0.4819  0.1345 -0.3779
 6291SOL    HW130509   3.085   1.622  10.076  0.6870  3.1927  0.5403
 6291SOL    HW230510   3.215   1.661  10.061  0.3590 -2.3801  0.5979
 6292SOL     OW30511   0.208   4.606   6.861 -0.7214 -0.2779 -0.3417
 6292SOL    HW130512   0.184   4.699   6.857  0.5421  0.0352 -0.5762
 6292SOL    HW230513   0.303   4.614   6.869 -1.0102  1.4413  1.7343
 6293SOL     OW30514   1.801   3.375  17.149  0.1699  0.4918 -0.1849
 6293SOL    HW130515   1.753   3.335  17.222 -1.6628  0.0542 -1.6434
 6293SOL    HW230516   1.818   3.462  17.187 -1.2489  1.2589 -1.3275
 6294SOL     OW30517   2.541   3.264   8.940 -0.1913  0.5922  0.2133
 6294SOL    HW130518   2.547   3.176   8.903  1.4317  0.6122  0.4517
 6294SOL    HW230519   2.629   3.276   8.975 -0.6260  0.4269  1.3438
 6295SOL     OW30520   2.970   2.553   5.049  0.0600  0.7042  0.2490
 6295SOL    HW130521   3.032   2.537   5.120 -0.1737  1.3513  0.6002
 6295SOL    HW230522   2.900   2.597   5.098 -0.6885  0.0170 -0.2183
 6296SOL     OW30523   3.455   1.454   4.134 -0.0812  0.3707  0.5589
 6296SOL    HW130524   3.459   1.512   4.210  1.8979 -0.3180  0.9960
 6296SOL    HW230525   3.386   1.487   4.077  0.6869 -0.0640 -0.6397
 6297SOL     OW30526   3.031   2.480   4.559  0.2126 -0.3076  0.2945
 6297SOL    HW130527   3.106   2.420   4.562  0.9052  0.5606  0.4249
 6297SOL    HW230528   2.994   2.448   4.476 -1.1778  0.5568  0.5827
 6298SOL     OW30529   4.316   3.642   7.194 -0.4713  0.1878  0.0201
 6298SOL    HW130530   4.331   3.672   7.284 -0.0885 -1.0415  0.3688
 6298SOL    HW230531   4.362   3.705   7.138 -0.6637  2.0272  1.9220
 6299SOL     OW30532   3.328   2.607   3.925  0.6073  0.3122  0.0193
 6299SOL    HW130533   3.350   2.642   3.839  2.6484 -0.2857  0.2990
 6299SOL    HW230534   3.380   2.669   3.977  2.3392  0.8368 -2.3438
 6300SOL     OW30535   2.753   1.506   2.932  0.2504 -0.9191  0.0152
 6300SOL    HW130536   2.690   1.463   2.990 -0.9296  1.6043  0.5738
 6300SOL    HW230537   2.703   1.502   2.851 -1.6714  0.9180  1.1039
 6301SOL     OW30538   1.314   2.349   9.503  0.9365  0.0079 -0.0133
 6301SOL    HW130539   1.394   2.397   9.482  0.5761 -0.1143 -1.6957
 6301SOL    HW230540   1.262   2.415   9.547 -1.4054 -3.1962  2.0553
 6302SOL     OW30541   4.230   2.694   0.713 -0.4638  0.0171  0.0414
 6302SOL    HW130542   4.263   2.615   0.757  1.2139  1.3764  1.1924
 6302SOL    HW230543   4.144   2.659   0.689 -0.9812  1.4572 -0.2094
 6303SOL     OW30544   0.846   2.359  13.519  0.0656 -0.6499 -0.1801
 6303SOL    HW130545   0.787   2.294  13.557 -1.7819  1.0471 -0.1273
 6303SOL    HW230546   0.877   2.398  13.601 -0.1329 -2.9154  0.9734
 6304SOL     OW30547   2.477   4.549   4.697  0.0036 -0.0599 -0.6022
 6304SOL    HW130548   2.414   4.485   4.662 -0.6033  0.7444 -0.9751
 6304SOL    HW230549   2.455   4.560   4.789 -0.9284 -0.1848 -0.8020
 6305SOL     OW30550   3.839   2.862   5.057 -0.2694 -0.6362  0.1142
 6305SOL    HW130551   3.856   2.900   4.971  1.6540  2.1497  1.7340
 6305SOL    HW230552   3.907   2.907   5.107 -0.6566 -1.6768  1.5706
 6306SOL     OW30553   3.713   0.832   8.132 -0.0630  0.1027 -0.2152
 6306SOL    HW130554   3.806   0.830   8.154 -0.7458 -0.2273  2.6567
 6306SOL    HW230555   3.703   0.927   8.124  1.3198  0.4174  1.8826
 6307SOL     OW30556   0.440   2.886   5.677  0.3571 -1.0354  0.0089
 6307SOL    HW130557   0.486   2.952   5.728  0.7558 -0.6959 -0.7793
 6307SOL    HW230558   0.517   2.844   5.638  0.8600  0.4865 -0.6511
 6308SOL     OW30559   2.159   3.743  16.640 -0.1330 -0.3558  0.5562
 6308SOL    HW130560   2.187   3.815  16.583 -2.1162  0.7659  0.9814
 6308SOL    HW230561   2.126   3.795  16.714  0.8450 -0.0163  0.7552
 6309SOL     OW30562   0.833   1.784   5.528  0.9907  0.4028 -0.6991
 6309SOL    HW130563   0.846   1.747   5.441 -0.3560  0.6806 -1.0238
 6309SOL    HW230564   0.745   1.822   5.523  0.4216 -0.6251  1.2715
 6310SOL     OW30565   1.007   3.387  10.131 -0.3066  0.6806  0.0818
 6310SOL    HW130566   0.920   3.350  10.114 -0.3837  1.3530 -0.9742
 6310SOL    HW230567   1.045   3.307  10.167 -1.6889 -0.6219 -1.3226
 6311SOL     OW30568   3.769   2.688  12.036 -0.1519 -0.4524  0.9315
 6311SOL    HW130569   3.717   2.642  11.970  0.5450 -1.2235  0.9163
 6311SOL    HW230570   3.856   2.678  11.998 -0.5240 -0.7873  0.1624
 6312SOL     OW30571   1.011   1.985  13.528 -0.0919 -0.2550 -0.2754
 6312SOL    HW130572   0.936   1.960  13.582  1.5049 -2.1338  1.0816
 6312SOL    HW230573   1.036   2.071  13.563 -0.8981  0.0755 -0.5170
 6313SOL     OW30574   3.812   1.857   5.257  0.3881  0.8278  0.2738
 6313SOL    HW130575   3.815   1.817   5.344  1.2000  2.4276  0.9764
 6313SOL    HW230576   3.774   1.942   5.278 -1.2268  0.1844 -0.0640
 6314SOL     OW30577   1.601   3.010   5.378  0.1249  0.3342  0.0368
 6314SOL    HW130578   1.662   2.939   5.360 -0.5093 -0.1084 -0.3615
 6314SOL    HW230579   1.518   2.966   5.394  0.7603 -0.6627  0.6217
 6315SOL     OW30580   4.726   2.433  11.570 -0.0626  0.0671 -0.5097
 6315SOL    HW130581   4.693   2.503  11.625 -0.8462 -1.1898  0.6290
 6315SOL    HW230582   0.040   2.484  11.508 -0.2784 -0.2823 -0.9806
 6316SOL     OW30583   4.126   3.651   8.026 -0.1466 -0.0017  0.1186
 6316SOL    HW130584   4.077   3.660   7.944  0.9140  1.0788 -0.3809
 6316SOL    HW230585   4.119   3.737   8.066 -3.2368  0.2196 -0.8322
 6317SOL     OW30586   1.728   0.917   3.178 -0.6638  0.3619 -0.0978
 6317SOL    HW130587   1.660   0.854   3.156 -0.7886  0.1124  0.9990
 6317SOL    HW230588   1.776   0.935   3.097  1.6160 -1.5512  0.8329
 6318SOL     OW30589   1.780   1.163   0.296 -0.5136  0.5843 -0.6109
 6318SOL    HW130590   1.866   1.131   0.269  0.3845  0.7085  2.1435
 6318SOL    HW230591   1.810   1.233   0.353  1.1811  1.3788 -2.4578
 6319SOL     OW30592   3.810   3.590   3.250 -0.2304 -0.2009  0.4344
 6319SOL    HW130593   3.886   3.533   3.243 -0.7270 -0.8251  0.1082
 6319SOL    HW230594   3.810   3.623   3.160  1.5502 -1.8756 -0.1601
 6320SOL     OW30595   1.941   3.030   8.843 -0.3559  0.4449 -0.3088
 6320SOL    HW130596   1.973   3.021   8.753  1.5982  1.6956  0.2787
 6320SOL    HW230597   1.923   3.124   8.851 -0.0863  0.5630 -1.0308
 6321SOL     OW30598   3.344   0.222   4.281  0.9940 -0.3628 -0.5084
 6321SOL    HW130599   3.358   0.244   4.189  0.8848 -1.9934 -0.9244
 6321SOL    HW230600   3.428   0.178   4.297  2.3929  2.8524  0.9576
 6322SOL     OW30601   0.782   0.470   3.285  0.2550 -0.4994  0.0689
 6322SOL    HW130602   0.690   0.483   3.308  0.8923  3.2413  0.3598
 6322SOL    HW230603   0.806   0.410   3.356  0.5616 -0.0319  0.3606
 6323SOL     OW30604   0.764   1.729   6.921  0.7450 -0.5774  0.2336
 6323SOL    HW130605   0.772   1.639   6.954  0.1754 -0.6873  0.0730
 6323SOL    HW230606   0.845   1.742   6.871  0.3282  0.7888 -0.0751
 6324SOL     OW30607   0.628   0.375  10.896  0.1132 -0.0567 -0.0092
 6324SOL    HW130608   0.591   0.366  10.984 -0.7274  1.8495 -0.1670
 6324SOL    HW230609   0.680   0.296  10.881 -1.3423 -1.2680  1.2741
 6325SOL     OW30610   4.600   3.260   8.887  0.1083 -0.5106  0.2256
 6325SOL    HW130611   4.644   3.233   8.807  0.3412  0.4924  0.0140
 6325SOL    HW230612   4.561   3.177   8.914 -1.4347 -0.0149 -0.4553
 6326SOL     OW30613   2.865   2.766   3.918  0.2388 -0.5928  0.4453
 6326SOL    HW130614   2.801   2.701   3.887  2.4358 -1.1390 -2.9637
 6326SOL    HW230615   2.811   2.799   3.990  0.2066 -0.6720  0.4569
 6327SOL     OW30616   0.001   3.510   2.101 -0.0833  0.0564 -0.3113
 6327SOL    HW130617   4.684   3.432   2.108  0.2584 -0.0404  1.1519
 6327SOL    HW230618   4.730   3.539   2.010 -0.9493 -0.9852 -0.5616
 6328SOL     OW30619   3.389   3.068  11.247  0.0318  0.1129 -0.4943
 6328SOL    HW130620   3.437   3.076  11.165  1.7094 -0.3584  0.4430
 6328SOL    HW230621   3.355   2.978  11.242 -0.2082  0.1916 -0.2449
 6329SOL     OW30622   1.956   0.801   4.166  0.5555  0.0756 -0.5156
 6329SOL    HW130623   2.032   0.844   4.127  0.6785  0.1154 -0.2311
 6329SOL    HW230624   1.998   0.748   4.234 -2.7485 -3.0257 -0.9184
 6330SOL     OW30625   4.521   3.852   2.675  0.3590  0.3567 -0.2453
 6330SOL    HW130626   4.558   3.837   2.588  1.2065 -1.1253  0.3729
 6330SOL    HW230627   4.601   3.847   2.728  0.9063 -1.3833 -1.2466
 6331SOL     OW30628   1.292   2.751   4.442  0.7543 -0.2407 -0.3809
 6331SOL    HW130629   1.208   2.797   4.441  0.9673  0.2072  1.7706
 6331SOL    HW230630   1.299   2.702   4.524 -0.4145 -2.8677 -1.8569
 6332SOL     OW30631   4.672   2.493   4.694 -0.1870 -0.5848 -0.2521
 6332SOL    HW130632   4.664   2.588   4.697  0.0005 -0.5974  0.6762
 6332SOL    HW230633   0.030   2.486   4.694 -0.1057  0.4254  0.9872
 6333SOL     OW30634   4.480   4.168   1.906  0.0761  0.1335 -0.6746
 6333SOL    HW130635   4.507   4.079   1.926 -1.6042 -0.3836 -0.6594
 6333SOL    HW230636   4.536   4.224   1.959 -1.2065 -0.2372  1.0892
 6334SOL     OW30637   4.206   2.615   6.786 -0.0120 -0.1902 -0.1869
 6334SOL    HW130638   4.251   2.531   6.789  2.0490  0.9102 -0.8896
 6334SOL    HW230639   4.222   2.653   6.873 -0.3121 -1.3608  0.3685
 6335SOL     OW30640   3.439   1.912   6.927  0.5192  0.5832  0.2798
 6335SOL    HW130641   3.494   1.976   6.971  1.8288 -0.4861  0.2188
 6335SOL    HW230642   3.394   1.960   6.858  1.1169  2.0134  0.8937
 6336SOL     OW30643   3.161   4.728   5.476 -0.0127 -0.1693  0.0952
 6336SOL    HW130644   3.137   0.053   5.407  0.3884  0.7307  0.7793
 6336SOL    HW230645   3.184   4.651   5.426  1.4019 -0.8179  1.7409
 6337SOL     OW30646   3.615   3.633   6.154  0.4956  0.0247  0.1705
 6337SOL    HW130647   3.526   3.607   6.131  0.2297  2.2567 -1.2375
 6337SOL    HW230648   3.670   3.570   6.106  0.5768  0.0816  0.1890
 6338SOL     OW30649   2.300   1.466   5.861 -0.0095  0.0834  0.2065
 6338SOL    HW130650   2.349   1.516   5.926  0.0174 -0.4627  0.6061
 6338SOL    HW230651   2.281   1.385   5.908 -0.0558 -0.0457 -0.0316
 6339SOL     OW30652   3.247   0.502  16.617 -0.4334 -0.8508  0.4571
 6339SOL    HW130653   3.255   0.423  16.563  1.4640 -1.0942  1.1161
 6339SOL    HW230654   3.155   0.522  16.595  0.1065  0.0038 -1.0683
 6340SOL     OW30655   4.672   0.951   9.351 -0.4458 -0.4244 -0.5963
 6340SOL    HW130656   4.593   0.999   9.328 -0.0086  0.9136  0.6249
 6340SOL    HW230657   4.665   0.873   9.297 -1.5984 -2.7484  2.8986
 6341SOL     OW30658   4.718   4.686  12.526  0.6772 -0.3641 -0.2521
 6341SOL    HW130659   4.685   4.731  12.604  0.6243 -0.4277 -0.2377
 6341SOL    HW230660   4.637   4.665  12.480  0.1001  0.6241  0.3110
 6342SOL     OW30661   0.820   1.646   7.548 -0.5876  0.4869  0.2546
 6342SOL    HW130662   0.811   1.681   7.636  1.1970 -2.5821  1.6648
 6342SOL    HW230663   0.730   1.634   7.516 -0.3578  1.3644 -0.7080
 6343SOL     OW30664   2.930   0.575   5.813  0.1165  0.1840 -0.4196
 6343SOL    HW130665   2.882   0.505   5.769 -0.9238  0.5397  0.1447
 6343SOL    HW230666   2.891   0.558   5.900  1.4063 -4.0846 -0.6538
 6344SOL     OW30667   1.839   0.280  14.048  0.1842  0.0632  0.0648
 6344SOL    HW130668   1.767   0.242  13.999  0.2834  0.3532 -0.3144
 6344SOL    HW230669   1.814   0.267  14.139 -0.6973  1.6066  0.0516
 6345SOL     OW30670   3.713   0.709   8.480 -0.0206 -0.2510  0.4151
 6345SOL    HW130671   3.709   0.800   8.508 -0.9841 -1.1275  3.2089
 6345SOL    HW230672   3.808   0.701   8.475 -0.1029  0.3058 -1.9274
 6346SOL     OW30673   1.274   2.853   2.985  0.6343  0.2217 -0.4815
 6346SOL    HW130674   1.231   2.868   2.901 -1.2294 -2.5471 -0.0252
 6346SOL    HW230675   1.299   2.760   2.985  0.5025  0.1860 -0.5033
 6347SOL     OW30676   4.077   0.468   6.716 -0.3330 -0.1696  0.6536
 6347SOL    HW130677   4.098   0.518   6.637 -1.1048 -0.3222  0.3483
 6347SOL    HW230678   4.004   0.423   6.672 -0.4962 -1.2112  2.0057
 6348SOL     OW30679   2.756   0.410   5.686  0.0567 -0.2563  0.1835
 6348SOL    HW130680   2.663   0.425   5.704 -0.6040 -0.9106 -2.6146
 6348SOL    HW230681   2.772   0.340   5.750  0.2478  0.3936  0.8380
 6349SOL     OW30682   3.623   1.541   1.842  0.1312  0.2071 -0.1098
 6349SOL    HW130683   3.589   1.614   1.893 -0.9733 -1.0709  0.9821
 6349SOL    HW230684   3.565   1.550   1.767  0.6099  0.0703 -0.4985
 6350SOL     OW30685   3.410   1.890   8.852 -0.1008  0.0891  0.4070
 6350SOL    HW130686   3.372   1.972   8.821  0.6491  0.2991  0.0141
 6350SOL    HW230687   3.476   1.921   8.913  0.1127 -1.9622  1.2286
 6351SOL     OW30688   3.356   2.170  13.461  0.5343 -0.1186 -0.0857
 6351SOL    HW130689   3.299   2.177  13.384  0.8929 -0.9227 -0.4219
 6351SOL    HW230690   3.433   2.188  13.408 -0.7380  0.6542 -1.6827
 6352SOL     OW30691   4.271   0.629   4.647 -0.2243  0.0760  0.0058
 6352SOL    HW130692   4.312   0.547   4.619 -0.6836 -0.0011 -0.4388
 6352SOL    HW230693   4.346   0.662   4.697  0.3257 -1.5342  0.2685
 6353SOL     OW30694   3.356   4.268   6.765  0.0688  0.0810 -0.0669
 6353SOL    HW130695   3.334   4.353   6.802 -1.6363 -0.8476  1.0580
 6353SOL    HW230696   3.296   4.212   6.814  3.1120 -2.6275  0.5724
 6354SOL     OW30697   4.730   3.881   8.676 -0.0256  0.1356 -0.4208
 6354SOL    HW130698   0.012   3.974   8.686  1.3419 -0.2526  0.5934
 6354SOL    HW230699   4.669   3.892   8.604 -1.5098  0.2067  0.8568
 6355SOL     OW30700   2.912   3.753   2.275  0.3356  0.3430  0.3442
 6355SOL    HW130701   2.881   3.840   2.298 -1.1371 -0.1900  0.3601
 6355SOL    HW230702   2.838   3.693   2.282  0.0989  0.2951 -2.5694
 6356SOL     OW30703   3.037   2.918  15.669 -0.3222 -0.1505  0.0351
 6356SOL    HW130704   3.049   2.933  15.763 -1.1713 -3.4995  0.6727
 6356SOL    HW230705   3.103   2.849  15.667 -0.0688  0.0662  0.8886
 6357SOL     OW30706   0.914   2.932  17.282  0.1732 -0.2825  0.2525
 6357SOL    HW130707   0.880   2.921  17.193 -2.2427 -1.4486  1.3142
 6357SOL    HW230708   0.925   2.844  17.318  1.4942 -0.4264 -0.5265
 6358SOL     OW30709   4.568   2.060   1.802  0.2784  0.1519  0.5492
 6358SOL    HW130710   4.477   2.044   1.828  1.0704 -1.2472  2.3752
 6358SOL    HW230711   4.582   2.145   1.844  0.0292 -0.1383  1.2077
 6359SOL     OW30712   3.590   2.467   8.812 -0.2786  0.8280 -0.0255
 6359SOL    HW130713   3.648   2.526   8.764  1.7453  0.6954  2.2412
 6359SOL    HW230714   3.622   2.480   8.902  1.3275  0.2365 -0.5210
 6360SOL     OW30715   0.524   2.474  13.740  0.0892 -0.4368 -0.0319
 6360SOL    HW130716   0.442   2.481  13.788 -0.3213  0.1782 -0.8271
 6360SOL    HW230717   0.507   2.391  13.696  0.4554 -0.8063  0.5145
 6361SOL     OW30718   2.941   2.939   5.397  0.3960  0.3683 -0.2853
 6361SOL    HW130719   3.013   2.916   5.338 -0.0338  1.6228 -1.3075
 6361SOL    HW230720   2.906   3.016   5.351  2.4016  1.1702 -0.4527
 6362SOL     OW30721   0.090   4.195   2.380 -1.0887  0.4965  0.6843
 6362SOL    HW130722   0.116   4.103   2.386 -2.4967  0.0727  0.3385
 6362SOL    HW230723   0.015   4.194   2.321 -0.8485 -1.2216  0.3886
 6363SOL     OW30724   3.555   0.172  14.728  0.7239  0.2524  0.7993
 6363SOL    HW130725   3.568   0.249  14.784  1.3068  0.7550 -0.0238
 6363SOL    HW230726   3.519   0.219  14.653  1.4504  0.4468  0.5663
 6364SOL     OW30727   3.595   4.135  14.812  0.0589  0.3736 -0.2411
 6364SOL    HW130728   3.536   4.180  14.873 -0.0259  1.0782 -0.8402
 6364SOL    HW230729   3.653   4.090  14.874 -0.5449  1.1767  0.9290
 6365SOL     OW30730   3.891   0.513   7.257 -0.6928  0.4274 -0.6025
 6365SOL    HW130731   3.962   0.577   7.268  1.3475 -1.5712 -2.0535
 6365SOL    HW230732   3.881   0.511   7.162  0.1787  0.2476 -0.6949
 6366SOL     OW30733   3.273   4.364   8.957 -0.0746  0.1152 -0.2809
 6366SOL    HW130734   3.289   4.272   8.977 -0.9377 -0.2163 -1.0967
 6366SOL    HW230735   3.234   4.354   8.870 -1.4277 -1.1245  0.4794
 6367SOL     OW30736   2.630   0.216   7.809 -0.4553  0.6869 -0.7230
 6367SOL    HW130737   2.620   0.200   7.715 -0.1758  0.1973 -0.6712
 6367SOL    HW230738   2.674   0.133   7.829  0.3720  1.4334  0.5428
 6368SOL     OW30739   0.736   3.909   8.867  0.1057 -0.5668 -0.4599
 6368SOL    HW130740   0.824   3.936   8.841  0.8591 -2.1513  0.4469
 6368SOL    HW230741   0.683   3.975   8.823 -2.0181 -3.4030 -2.1231
 6369SOL     OW30742   1.483   2.463   3.500 -0.0456 -0.0478 -0.1705
 6369SOL    HW130743   1.425   2.533   3.469 -0.3974 -0.5463 -0.6294
 6369SOL    HW230744   1.563   2.515   3.506 -1.3200  2.1792 -2.2090
 6370SOL     OW30745   4.681   4.647   6.694  0.0186  0.0458 -0.2032
 6370SOL    HW130746   4.652   4.594   6.768 -0.0985  0.7547  0.2606
 6370SOL    HW230747   0.035   4.619   6.692 -0.5830 -1.8970  0.0581
 6371SOL     OW30748   2.925   4.027   8.713 -0.2025 -0.0206  0.2630
 6371SOL    HW130749   2.967   3.946   8.742 -1.4307  0.4946  3.4758
 6371SOL    HW230750   2.850   4.011   8.771  1.2715  0.0409  2.2151
 6372SOL     OW30751   1.608   1.161   0.101 -0.0381  0.0493  0.0464
 6372SOL    HW130752   1.570   1.246   0.122 -1.3592 -1.1791  2.5383
 6372SOL    HW230753   1.684   1.167   0.158  1.3095  0.3444 -1.7740
 6373SOL     OW30754   1.835   0.716   5.362 -0.5206 -0.4554 -0.4425
 6373SOL    HW130755   1.760   0.750   5.315 -0.2682  3.0938  1.7092
 6373SOL    HW230756   1.824   0.757   5.448  0.0048  0.0161 -0.6020
 6374SOL     OW30757   0.677   3.523   9.364  0.3039  0.0703  0.1087
 6374SOL    HW130758   0.740   3.595   9.362 -0.3237  0.6501  1.1041
 6374SOL    HW230759   0.740   3.451   9.371  0.8129  0.6335  1.5484
 6375SOL     OW30760   1.421   4.146   5.775 -0.0012  0.3926  0.6534
 6375SOL    HW130761   1.476   4.221   5.754 -3.1031  2.2676 -0.7626
 6375SOL    HW230762   1.454   4.118   5.861  1.7194  0.5343  0.0384
 6376SOL     OW30763   2.389   3.132  16.769  0.3660 -0.4188  0.0658
 6376SOL    HW130764   2.403   3.212  16.719  3.1373 -1.9297 -1.5869
 6376SOL    HW230765   2.297   3.115  16.752 -0.0224 -0.1386  1.8427
 6377SOL     OW30766   1.751   4.568   5.803 -0.1033 -0.0867 -0.2189
 6377SOL    HW130767   1.792   4.607   5.880 -0.0726 -1.7789  0.6076
 6377SOL    HW230768   1.828   4.521   5.772  0.1857  0.4867 -0.3788
 6378SOL     OW30769   3.627   2.934   6.535  0.1993 -0.3152 -0.4834
 6378SOL    HW130770   3.675   3.003   6.582 -1.1517 -1.4450  2.5835
 6378SOL    HW230771   3.694   2.867   6.538  0.3017 -0.2020 -0.2143
 6379SOL     OW30772   2.845   3.111  10.597  0.7094 -0.3467  0.3047
 6379SOL    HW130773   2.807   3.082  10.681  0.9388  0.6498  0.7535
 6379SOL    HW230774   2.936   3.133  10.615  0.9168 -0.1559 -0.9913
 6380SOL     OW30775   0.994   4.532   8.681 -0.3524 -0.1204  0.1583
 6380SOL    HW130776   1.006   4.545   8.775 -0.7068  0.3575  0.1344
 6380SOL    HW230777   1.084   4.507   8.658 -0.1896 -0.0768  0.7254
 6381SOL     OW30778   3.716   1.944   2.059  0.1472 -0.5875 -0.1301
 6381SOL    HW130779   3.703   2.037   2.078  3.2481 -0.2981  0.6249
 6381SOL    HW230780   3.810   1.946   2.041  0.0283  0.1354 -0.7033
 6382SOL     OW30781   3.086   0.182   3.478 -0.2097 -0.5985  0.6234
 6382SOL    HW130782   3.087   0.229   3.395  2.3651  1.9545  2.0965
 6382SOL    HW230783   3.035   0.234   3.540  2.0597  0.5870  1.4938
 6383SOL     OW30784   1.573   0.504   6.143 -0.1353 -0.2115  0.2164
 6383SOL    HW130785   1.500   0.491   6.083  0.4747 -1.7566 -0.2084
 6383SOL    HW230786   1.614   0.585   6.114  0.3687 -0.2389  0.8633
 6384SOL     OW30787   2.381   4.608   8.491  0.1201  0.3669 -0.5977
 6384SOL    HW130788   2.432   4.650   8.421  0.8113 -0.8814 -0.8254
 6384SOL    HW230789   2.396   4.666   8.566  0.7020 -0.4193 -0.1132
 6385SOL     OW30790   4.265   0.946  10.027 -0.1337 -0.1327 -0.3367
 6385SOL    HW130791   4.189   0.971   9.976 -1.1788 -0.8158  0.8771
 6385SOL    HW230792   4.231   0.868  10.072 -2.3581  1.4571  0.7340
 6386SOL     OW30793   2.434   0.498   3.133  0.1435 -0.2877 -0.5035
 6386SOL    HW130794   2.405   0.408   3.151 -0.3108 -0.1960 -0.7600
 6386SOL    HW230795   2.371   0.532   3.069  1.0356 -0.6849 -1.5959
 6387SOL     OW30796   3.106   0.376   5.643  0.4039  0.2008 -0.0909
 6387SOL    HW130797   3.175   0.338   5.589  0.6853  0.6402 -0.0418
 6387SOL    HW230798   3.145   0.377   5.731  2.5483 -0.0046 -1.0344
 6388SOL     OW30799   0.595   1.332   3.608 -0.0301 -0.4623  0.5340
 6388SOL    HW130800   0.687   1.315   3.591 -0.3138 -0.1767 -1.2786
 6388SOL    HW230801   0.562   1.252   3.569 -0.4942 -0.3209  0.6385
 6389SOL     OW30802   4.661   3.709  15.773 -0.2433 -0.3582 -0.0691
 6389SOL    HW130803   0.007   3.741  15.739 -0.4445 -0.6937 -0.8773
 6389SOL    HW230804   4.660   3.618  15.744  0.0485 -0.6333  0.7711
 6390SOL     OW30805   0.199   3.647   3.321 -0.2968 -0.6557  0.7878
 6390SOL    HW130806   0.164   3.600   3.395  0.1682 -1.2868  0.6049
 6390SOL    HW230807   0.259   3.707   3.366  0.7541 -1.2928  0.2382
 6391SOL     OW30808   1.866   4.556  12.817 -0.2445  0.1720  0.3587
 6391SOL    HW130809   1.852   4.493  12.888 -2.5246  1.8329  1.3770
 6391SOL    HW230810   1.961   4.558  12.828 -0.1451  1.8382 -0.9542
 6392SOL     OW30811   4.296   0.056   5.820  0.1677  0.1603  0.2723
 6392SOL    HW130812   4.277   0.126   5.883 -0.5197 -1.9649  2.4313
 6392SOL    HW230813   4.369   0.012   5.865  1.1693 -0.2546 -1.7429
 6393SOL     OW30814   2.182   1.363   1.131 -0.7647  0.2811  0.6941
 6393SOL    HW130815   2.171   1.440   1.076 -1.2033 -0.4437 -0.2454
 6393SOL    HW230816   2.277   1.364   1.145 -0.3570  0.4045 -2.0486
 6394SOL     OW30817   2.320   1.195   7.219 -0.4282 -0.1218 -0.0731
 6394SOL    HW130818   2.363   1.172   7.302 -1.8407  0.8564  0.9272
 6394SOL    HW230819   2.351   1.283   7.200  2.6272 -0.2790  4.2171
 6395SOL     OW30820   2.664   4.681   8.393 -0.7139  0.0385 -0.1712
 6395SOL    HW130821   2.709   4.629   8.460 -1.2102 -0.0407  0.0999
 6395SOL    HW230822   2.675   0.035   8.418 -2.1945  0.3481 -0.6922
 6396SOL     OW30823   0.696   1.212  11.325 -0.6094 -0.6047 -0.4874
 6396SOL    HW130824   0.730   1.300  11.338  0.4163 -1.0471 -0.1557
 6396SOL    HW230825   0.632   1.215  11.395 -1.4140  0.9447 -1.3130
 6397SOL     OW30826   2.277   3.884   9.181  0.1551 -0.3838 -0.9677
 6397SOL    HW130827   2.282   3.797   9.220  1.1816  1.0777  2.1427
 6397SOL    HW230828   2.268   3.863   9.088 -1.3109 -1.9724 -0.4644
 6398SOL     OW30829   2.810   3.597  17.320  0.0054 -0.0133 -0.2038
 6398SOL    HW130830   2.738   3.534  17.319  0.0300 -0.0469  0.2071
 6398SOL    HW230831   2.776   3.660  17.256  0.8172 -0.7535 -1.3676
 6399SOL     OW30832   3.042   1.785   6.339 -0.1633 -0.5770 -0.7271
 6399SOL    HW130833   3.113   1.849   6.341  0.8063 -1.7238  1.9131
 6399SOL    HW230834   3.082   1.723   6.278  2.2149 -1.2766  1.5727
 6400SOL     OW30835   1.950   2.236   5.276  0.5253  0.1183  0.4126
 6400SOL    HW130836   1.993   2.308   5.323  1.3235 -0.2643  0.2629
 6400SOL    HW230837   1.925   2.284   5.197  3.2972 -0.3183 -0.7017
 6401SOL     OW30838   0.624   4.138  17.694 -0.9401  0.0532  0.0705
 6401SOL    HW130839   0.672   4.057  17.711 -2.5798 -1.4594 -2.5154
 6401SOL    HW230840   0.577   4.157   0.027 -0.8955 -2.2569  0.6430
 6402SOL     OW30841   2.416   1.775   2.162  0.1936  0.5284  0.3200
 6402SOL    HW130842   2.491   1.727   2.195  0.7895  1.9091  0.9567
 6402SOL    HW230843   2.445   1.865   2.151 -0.8861  0.6552 -1.6214
 6403SOL     OW30844   0.102   3.620   2.439  0.0369  0.1541  0.2607
 6403SOL    HW130845   0.033   3.560   2.410 -2.1149  2.3402  0.9136
 6403SOL    HW230846   0.061   3.670   2.509 -0.7661 -0.6517  0.3709
 6404SOL     OW30847   2.739   4.020   0.767 -0.3855 -0.0673  0.2829
 6404SOL    HW130848   2.699   4.031   0.853 -0.6668  2.1510 -0.1368
 6404SOL    HW230849   2.824   4.046   0.804 -1.4012  0.8558  1.9829
 6405SOL     OW30850   1.922   2.866  13.029  0.3486  0.3258 -0.0827
 6405SOL    HW130851   1.955   2.832  12.946  2.2351 -1.2984  1.3556
 6405SOL    HW230852   1.942   2.792  13.086  0.9540 -0.7130 -1.6487
 6406SOL     OW30853   1.528   1.773  14.742 -0.4405 -0.0086 -0.1459
 6406SOL    HW130854   1.592   1.793  14.809 -1.8180 -1.1978  1.5373
 6406SOL    HW230855   1.554   1.686  14.710  2.5446  1.6776 -2.2320
 6407SOL     OW30856   4.531   2.056   0.114  0.0614 -0.2062  0.3536
 6407SOL    HW130857   4.481   1.998   0.056 -1.9243  0.8399  1.0303
 6407SOL    HW230858   4.550   2.130   0.056  1.5695 -0.0104  1.0798
 6408SOL     OW30859   0.984   4.227   2.245 -0.0385  0.2543  0.1414
 6408SOL    HW130860   0.991   4.263   2.333  1.4999  1.9120 -0.6694
 6408SOL    HW230861   1.004   4.308   2.200  3.1227 -0.9961 -0.7224
 6409SOL     OW30862   3.892   2.908   1.268  0.0348  0.7141  0.0365
 6409SOL    HW130863   3.946   2.985   1.249 -0.1694  1.4006  2.2371
 6409SOL    HW230864   3.940   2.891   1.350 -1.1879  1.8460  0.9865
 6410SOL     OW30865   4.635   2.480   8.408  0.0440 -0.1034  0.2376
 6410SOL    HW130866   4.566   2.528   8.454  0.8379 -0.6607  1.9920
 6410SOL    HW230867   4.580   2.428   8.350  0.2735  1.0314 -1.0082
 6411SOL     OW30868   2.247   0.348   7.675  0.2370 -0.0923 -1.0059
 6411SOL    HW130869   2.310   0.369   7.743  0.3920  0.8306 -1.4240
 6411SOL    HW230870   2.182   0.418   7.682 -0.1021 -0.4301 -0.7754
 6412SOL     OW30871   2.611   2.262  16.426  0.2369 -0.2805  0.4209
 6412SOL    HW130872   2.571   2.223  16.349  0.6994 -3.1655  1.6640
 6412SOL    HW230873   2.590   2.355  16.417  4.0841  0.5057 -0.2784
 6413SOL     OW30874   1.782   0.105   6.533  0.3143 -0.9047  0.1112
 6413SOL    HW130875   1.689   0.107   6.510  0.0613  1.2025  1.3365
 6413SOL    HW230876   1.783   0.026   6.586  2.0204  0.0071  1.4304
 6414SOL     OW30877   3.478   3.246  16.735  0.0850 -0.4670  0.6220
 6414SOL    HW130878   3.564   3.225  16.770  0.1523  0.4290  0.9975
 6414SOL    HW230879   3.472   3.340  16.756 -1.0254 -0.1554 -1.0993
 6415SOL     OW30880   3.942   1.440   2.028 -0.1096 -0.0445 -0.1875
 6415SOL    HW130881   3.958   1.469   2.118 -0.2022 -1.1805  0.1979
 6415SOL    HW230882   3.853   1.406   2.023 -0.1404 -0.1332  0.9302
 6416SOL     OW30883   1.753   0.324   1.109  0.1290 -0.1661 -0.9371
 6416SOL    HW130884   1.776   0.320   1.201 -2.3667  0.5919 -0.2795
 6416SOL    HW230885   1.775   0.234   1.085 -1.6417 -1.0110  0.6653
 6417SOL     OW30886   0.504   3.983   6.228 -0.5627 -0.1254  0.4207
 6417SOL    HW130887   0.514   4.006   6.320 -2.0721  0.0311  0.5413
 6417SOL    HW230888   0.586   4.017   6.191 -1.0647  0.5327 -0.0981
 6418SOL     OW30889   1.123   1.589   6.313  0.1562  0.1582 -0.0033
 6418SOL    HW130890   1.034   1.559   6.333  1.2965 -0.7807  3.6875
 6418SOL    HW230891   1.173   1.585   6.395 -0.6950  1.4920  0.5919
 6419SOL     OW30892   0.160   2.281   0.445  0.4150 -0.7410 -0.0891
 6419SOL    HW130893   0.112   2.337   0.505 -0.1106 -0.7257 -0.5283
 6419SOL    HW230894   0.253   2.304   0.451  0.8803 -2.4274 -0.5198
 6420SOL     OW30895   3.446   3.055   2.785 -0.0852  0.2046 -0.1379
 6420SOL    HW130896   3.512   2.986   2.779  0.6111  0.5758  3.0971
 6420SOL    HW230897   3.422   3.067   2.693 -0.3205  0.4341 -0.0473
 6421SOL     OW30898   2.598   4.465   6.433  0.4593 -0.6627  0.2114
 6421SOL    HW130899   2.540   4.533   6.401 -0.9337 -1.2257  1.5142
 6421SOL    HW230900   2.564   4.434   6.517 -1.0476  0.1037 -0.1314
 6422SOL     OW30901   2.067   3.605   3.582  0.2564 -0.1653  0.2406
 6422SOL    HW130902   2.005   3.626   3.652 -0.7031 -0.8404 -0.4094
 6422SOL    HW230903   1.994   3.614   3.521  0.2829 -2.6194 -0.1331
 6423SOL     OW30904   3.111   1.032   5.205 -0.3961  0.2818 -0.5798
 6423SOL    HW130905   3.162   0.987   5.273 -0.5111  1.0777  0.0311
 6423SOL    HW230906   3.147   0.987   5.128 -0.2043 -2.2378  0.9740
 6424SOL     OW30907   0.359   1.163  15.313 -0.3535  0.0314 -0.1460
 6424SOL    HW130908   0.375   1.167  15.218  1.9782  1.1956  0.2914
 6424SOL    HW230909   0.399   1.245  15.339 -0.5494 -0.0752  0.4765
 6425SOL     OW30910   2.492   2.687  11.057 -0.7760 -0.4998  0.3574
 6425SOL    HW130911   2.458   2.614  11.110 -2.6069 -0.3683 -0.6300
 6425SOL    HW230912   2.580   2.710  11.086 -0.3426 -0.6660 -0.8533
 6426SOL     OW30913   3.079   2.867   8.984 -0.0784 -0.6861 -0.2618
 6426SOL    HW130914   3.036   2.936   8.934 -0.8381 -0.1515  1.1532
 6426SOL    HW230915   3.148   2.849   8.920 -0.4881 -2.7237 -0.1300
 6427SOL     OW30916   0.341   4.418  14.781  0.3440  0.4573 -0.6177
 6427SOL    HW130917   0.341   4.323  14.764 -0.1004  0.0665  1.5703
 6427SOL    HW230918   0.432   4.448  14.780  0.8690 -1.0945 -0.5664
 6428SOL     OW30919   1.077   1.127   0.961 -0.2795  0.0673  0.2240
 6428SOL    HW130920   0.984   1.110   0.977 -0.2523  0.2531  0.5766
 6428SOL    HW230921   1.073   1.164   0.873  1.2793 -0.2834  0.0087
 6429SOL     OW30922   1.707   2.749   5.137 -0.5254 -0.9433 -0.5858
 6429SOL    HW130923   1.754   2.810   5.081  1.0620 -0.3236  1.4348
 6429SOL    HW230924   1.744   2.675   5.090  3.2383  0.8143 -0.3667
 6430SOL     OW30925   0.315   1.269   2.261  0.0354 -0.0247  0.9048
 6430SOL    HW130926   0.338   1.302   2.174 -4.0818 -1.5663 -0.7742
 6430SOL    HW230927   0.273   1.347   2.298 -0.3925 -0.5975  1.6022
 6431SOL     OW30928   2.881   0.921   9.026  0.0603  0.2102 -0.3618
 6431SOL    HW130929   2.958   0.956   8.982  0.1777 -0.9854 -1.0951
 6431SOL    HW230930   2.925   0.874   9.097  1.7556  0.0536 -1.5173
 6432SOL     OW30931   1.830   1.906   6.873 -0.7269 -0.1590 -0.7042
 6432SOL    HW130932   1.890   1.836   6.848 -0.7727 -0.8846  1.1988
 6432SOL    HW230933   1.768   1.855   6.925 -2.9170  1.2315 -1.9396
 6433SOL     OW30934   3.600   1.885   9.090  0.0730  0.0228  0.0676
 6433SOL    HW130935   3.661   1.858   9.159  0.7612  1.7070  0.1181
 6433SOL    HW230936   3.526   1.843   9.133  0.3230  1.4230  1.8868
 6434SOL     OW30937   3.352   2.049   2.088 -0.6174 -0.2234 -0.0266
 6434SOL    HW130938   3.345   2.088   2.175  0.7764  0.7024 -0.3349
 6434SOL    HW230939   3.440   2.082   2.069 -0.8519  0.2655 -0.2735
 6435SOL     OW30940   2.490   2.101   8.040 -0.1724 -0.3669  0.1011
 6435SOL    HW130941   2.437   2.172   8.007  1.8148  0.6218 -0.9706
 6435SOL    HW230942   2.432   2.027   8.023  1.4268 -0.9840 -2.6543
 6436SOL     OW30943   1.015   1.774  16.795  0.5066 -0.1125  0.4417
 6436SOL    HW130944   1.024   1.783  16.890 -2.5728 -0.4023  0.7469
 6436SOL    HW230945   1.055   1.854  16.762 -2.1102  1.4969  1.2007
 6437SOL     OW30946   0.702   0.260   4.897  0.2751  0.2578  0.1441
 6437SOL    HW130947   0.687   0.166   4.902 -1.0615  0.4468 -0.4124
 6437SOL    HW230948   0.621   0.285   4.853  0.1581 -0.1593  0.1206
 6438SOL     OW30949   3.886   1.822   3.230 -0.0159  0.5015 -0.2333
 6438SOL    HW130950   3.797   1.786   3.227  0.3554 -0.3856 -0.7775
 6438SOL    HW230951   3.882   1.916   3.247  1.4081  0.9771 -2.4413
 6439SOL     OW30952   0.070   4.087  14.619 -0.4674  0.2306 -0.1394
 6439SOL    HW130953   0.153   4.041  14.610 -0.3467  0.5638 -0.7533
 6439SOL    HW230954   0.037   4.054  14.702  0.0792 -0.1901 -0.0934
 6440SOL     OW30955   3.152   0.493   3.155 -0.1207  0.7098 -0.1127
 6440SOL    HW130956   3.124   0.402   3.143 -1.0635  1.0546 -0.5835
 6440SOL    HW230957   3.143   0.492   3.250 -1.9104  2.7715 -0.2454
 6441SOL     OW30958   2.824   2.322   8.253  0.3502 -0.1874  0.2512
 6441SOL    HW130959   2.733   2.296   8.270 -0.6017  1.9289 -1.6677
 6441SOL    HW230960   2.825   2.310   8.158  2.7432 -0.1236  0.2627
 6442SOL     OW30961   2.920   1.990  16.629 -0.2128 -0.0038  0.3942
 6442SOL    HW130962   2.910   2.062  16.691  1.8987  1.8376 -1.3819
 6442SOL    HW230963   2.934   2.039  16.548  1.2870  1.0605  1.2917
 6443SOL     OW30964   4.571   1.934   5.371 -0.0730  0.0559  0.3591
 6443SOL    HW130965   4.552   1.842   5.389  2.0433 -0.5117 -0.2540
 6443SOL    HW230966   4.544   1.937   5.279  0.6278 -1.6918  0.1093
 6444SOL     OW30967   0.508   0.320   3.805 -0.0592  0.2120 -0.0459
 6444SOL    HW130968   0.433   0.306   3.863 -1.7294  1.4368 -1.9227
 6444SOL    HW230969   0.543   0.233   3.784  0.3017  0.8850 -2.2255
 6445SOL     OW30970   4.405   0.863   7.190 -0.8723 -0.1007 -0.4483
 6445SOL    HW130971   4.462   0.917   7.135  0.1366  2.3147  2.9787
 6445SOL    HW230972   4.462   0.802   7.235 -1.5933 -1.1952 -1.0282
 6446SOL     OW30973   2.041   2.381  12.191  0.4755  0.5789  0.0488
 6446SOL    HW130974   2.082   2.376  12.104 -0.1468  1.2660 -0.2916
 6446SOL    HW230975   2.066   2.469  12.220  1.4236  0.5410 -0.6650
 6447SOL     OW30976   2.035   0.087  14.082 -0.1292  0.4235 -0.0302
 6447SOL    HW130977   2.004   0.045  14.163 -1.1621 -0.5638 -0.9309
 6447SOL    HW230978   1.988   0.168  14.061 -2.2311 -0.5842  0.7196
 6448SOL     OW30979   2.156   1.557   4.044 -0.4404 -0.2938  0.4166
 6448SOL    HW130980   2.190   1.614   3.975 -2.2609 -1.4069 -1.3921
 6448SOL    HW230981   2.170   1.607   4.124  0.6130  0.4478 -0.2330
 6449SOL     OW30982   2.706   4.350   8.145 -0.2967 -0.1942 -0.9904
 6449SOL    HW130983   2.783   4.299   8.116 -1.3759 -1.5324 -1.5358
 6449SOL    HW230984   2.676   4.308   8.225 -0.1149  0.6310 -0.4944
 6450SOL     OW30985   2.886   0.474   1.883  0.5865  0.4273  0.5172
 6450SOL    HW130986   2.959   0.420   1.914 -0.8955 -2.0813 -0.3567
 6450SOL    HW230987   2.813   0.418   1.910  0.3414  1.8694  2.8772
 6451SOL     OW30988   1.725   3.747   0.955 -0.0674 -0.1786 -0.2372
 6451SOL    HW130989   1.700   3.831   0.916 -0.7112  0.3895  1.4035
 6451SOL    HW230990   1.642   3.715   0.991  0.5011  1.3890  2.4425
 6452SOL     OW30991   4.427   2.271   0.984 -0.7196 -0.1833  0.1616
 6452SOL    HW130992   4.374   2.195   0.960 -0.7632  0.1688 -0.8260
 6452SOL    HW230993   4.432   2.259   1.079 -1.5465  1.0031  0.3608
 6453SOL     OW30994   0.179   2.787   7.647 -0.0909 -0.3401 -0.3685
 6453SOL    HW130995   0.127   2.772   7.727 -0.5983  0.6216 -0.5170
 6453SOL    HW230996   0.105   2.805   7.589 -0.3218  0.4502  0.1819
 6454SOL     OW30997   3.009   1.380   5.943 -0.4356  0.2883  0.4403
 6454SOL    HW130998   2.922   1.411   5.969 -0.2172  1.0884  0.2062
 6454SOL    HW230999   3.055   1.462   5.958 -0.6835  0.3244  1.0155
 6455SOL     OW31000   3.725   1.092   8.340  0.1810  0.0107  0.4945
 6455SOL    HW131001   3.674   1.086   8.259 -1.0224 -0.8928  1.3144
 6455SOL    HW231002   3.804   1.132   8.306  0.6427  0.0522  1.6099
 6456SOL     OW31003   3.197   3.842   5.597 -0.2838  0.8109  0.2769
 6456SOL    HW131004   3.118   3.894   5.612 -2.0423 -1.7592  0.0993
 6456SOL    HW231005   3.169   3.759   5.636  0.7503  0.9110  1.2160
 6457SOL     OW31006   3.424   0.698   4.575  0.5308  0.5168 -0.3035
 6457SOL    HW131007   3.496   0.698   4.513 -0.9138  2.4664 -1.9816
 6457SOL    HW231008   3.432   0.789   4.606 -2.0898  0.2314  1.2345
 6458SOL     OW31009   0.537   4.006   4.901  0.4785  0.2433  0.4001
 6458SOL    HW131010   0.483   3.983   4.825  1.2256  1.7726 -0.5796
 6458SOL    HW231011   0.537   3.922   4.947  1.4924 -0.7070 -1.3275
 6459SOL     OW31012   1.027   3.579   7.357 -0.0293 -0.4051 -0.2062
 6459SOL    HW131013   0.952   3.541   7.310 -0.9054 -0.5344  1.3080
 6459SOL    HW231014   1.014   3.570   7.451  0.2206  0.5848 -0.0688
 6460SOL     OW31015   2.152   1.035   1.535 -0.4002  0.0153 -0.4274
 6460SOL    HW131016   2.232   0.995   1.501  1.0217  0.2307  2.7619
 6460SOL    HW231017   2.183   1.043   1.625  2.4136  0.6018 -1.4473
 6461SOL     OW31018   0.763   3.976   1.869 -0.0027 -0.2554 -0.3382
 6461SOL    HW131019   0.827   4.018   1.812  1.4897 -3.2799 -0.9215
 6461SOL    HW231020   0.823   3.957   1.941 -0.2559 -1.2603 -0.3906
 6462SOL     OW31021   1.546   3.658   7.290  0.2815  1.0165 -0.3733
 6462SOL    HW131022   1.576   3.628   7.376 -1.1266  0.5754 -0.0323
 6462SOL    HW231023   1.603   3.732   7.270  1.5576 -0.5311 -2.4432
 6463SOL     OW31024   0.932   3.226   2.991  0.2993  0.2668 -0.2964
 6463SOL    HW131025   0.863   3.160   2.983  0.4745 -0.0447  0.7963
 6463SOL    HW231026   0.977   3.196   3.070 -0.5582  0.1227  0.1319
 6464SOL     OW31027   1.519   1.689   2.514  0.6478 -0.3611 -0.0894
 6464SOL    HW131028   1.602   1.645   2.500  0.4237 -1.1832  1.2135
 6464SOL    HW231029   1.488   1.686   2.423  0.3207  1.5782 -0.0519
 6465SOL     OW31030   3.747   1.266   4.519  0.3474  0.5106 -0.2869
 6465SOL    HW131031   3.772   1.358   4.524  2.2689 -0.0906  1.2658
 6465SOL    HW231032   3.789   1.234   4.598  0.2690  0.3012 -0.3304
 6466SOL     OW31033   2.933   4.733   0.168 -0.7941 -0.2673 -0.8536
 6466SOL    HW131034   3.024   0.002   0.198 -1.1969 -1.5884  0.7030
 6466SOL    HW231035   2.906   4.661   0.225 -3.0192  1.5359  0.3702
 6467SOL     OW31036   3.314   4.280   3.888 -0.2206  0.1275  0.3264
 6467SOL    HW131037   3.346   4.228   3.814 -1.9161  0.4906 -0.6428
 6467SOL    HW231038   3.243   4.330   3.847 -0.9638 -2.1015 -1.1009
 6468SOL     OW31039   0.356   1.213   3.087  0.4826  0.0265 -0.4110
 6468SOL    HW131040   0.430   1.156   3.108  3.7885  4.4433 -0.1719
 6468SOL    HW231041   0.278   1.171   3.123 -0.1316 -0.2424 -2.0811
 6469SOL     OW31042   1.929   3.939   8.330 -0.0706 -0.1323  0.5265
 6469SOL    HW131043   1.898   4.029   8.338 -0.9657 -0.3835 -0.2020
 6469SOL    HW231044   1.927   3.903   8.419 -1.4679  0.5171  0.7582
 6470SOL     OW31045   1.900   2.331   4.992  0.2407  0.5792 -0.2211
 6470SOL    HW131046   1.937   2.293   4.912  0.5501 -2.0418  1.1663
 6470SOL    HW231047   1.841   2.258   5.013  0.7118  0.9397  2.2512
 6471SOL     OW31048   3.064   4.439   2.648  0.7376  0.5200  0.7146
 6471SOL    HW131049   3.035   4.355   2.682  0.1442 -0.1934 -1.5418
 6471SOL    HW231050   3.134   4.461   2.709  2.9181  0.4354 -1.7603
 6472SOL     OW31051   3.914   0.456   4.517 -0.4262 -0.1206 -0.3641
 6472SOL    HW131052   3.998   0.431   4.477 -0.0640 -2.4963  1.8785
 6472SOL    HW231053   3.899   0.370   4.556  1.0474 -1.5025 -2.8300
 6473SOL     OW31054   0.045   0.943   9.906  0.0079  0.4829  0.8789
 6473SOL    HW131055   0.016   1.032   9.889 -0.5647  0.5523  2.1999
 6473SOL    HW231056   4.710   0.903   9.956 -1.8522 -1.5107 -3.4351
 6474SOL     OW31057   2.473   0.106  14.323  0.3505  0.4877 -0.1472
 6474SOL    HW131058   2.536   0.053  14.372  0.7887  1.0879 -0.0670
 6474SOL    HW231059   2.531   0.148  14.259  0.9366 -2.2731 -1.4509
 6475SOL     OW31060   2.048   0.488   9.716  0.0171 -0.0549 -0.4549
 6475SOL    HW131061   2.143   0.492   9.706  0.1504  1.1096  1.3696
 6475SOL    HW231062   2.039   0.393   9.706 -0.3813  0.1453 -1.9217
 6476SOL     OW31063   2.622   2.601   8.460 -0.3726  0.4158 -0.1464
 6476SOL    HW131064   2.621   2.530   8.524  0.8974  0.5438  0.0223
 6476SOL    HW231065   2.654   2.668   8.521 -0.6111 -1.2962  1.8538
 6477SOL     OW31066   4.353   3.136   4.925  0.1927 -0.4967  0.0475
 6477SOL    HW131067   4.405   3.207   4.887 -1.7941  2.5416  2.9399
 6477SOL    HW231068   4.296   3.191   4.979  0.5070  0.3474 -0.4757
 6478SOL     OW31069   2.935   0.566   2.720 -0.5800  0.0437  0.5265
 6478SOL    HW131070   2.879   0.601   2.789 -2.6834 -1.5570 -0.3707
 6478SOL    HW231071   2.880   0.587   2.645 -0.0574 -2.6836 -0.6241
 6479SOL     OW31072   0.120   0.296   4.270  0.5538  0.2725 -0.3451
 6479SOL    HW131073   0.209   0.264   4.286  1.0419  1.1724 -1.2352
 6479SOL    HW231074   0.140   0.377   4.222  0.3041  0.9240  0.6728
 6480SOL     OW31075   4.529   3.004   4.326 -0.6940  0.3610  0.3461
 6480SOL    HW131076   4.619   2.972   4.340 -0.8358 -0.5704 -0.8173
 6480SOL    HW231077   4.482   2.921   4.334  1.5039 -0.7711  1.4471
 6481SOL     OW31078   2.689   3.550   8.535 -0.7031  0.2569  0.3870
 6481SOL    HW131079   2.686   3.457   8.512 -0.3658 -0.2180  2.2619
 6481SOL    HW231080   2.711   3.587   8.449 -0.1003  0.6474  0.7093
 6482SOL     OW31081   3.089   1.489  16.758  0.3473 -0.1580 -0.2560
 6482SOL    HW131082   3.072   1.475  16.665  0.7762 -2.1411 -0.0394
 6482SOL    HW231083   3.022   1.553  16.779 -0.7626 -1.3056 -0.3114
 6483SOL     OW31084   0.226   3.717  15.234 -0.3093 -0.3464 -0.2703
 6483SOL    HW131085   0.205   3.770  15.311  1.8483 -2.1108  1.5364
 6483SOL    HW231086   0.154   3.654  15.243 -3.1760  2.9246 -0.1602
 6484SOL     OW31087   2.693   3.159   6.177 -0.4125  0.0270 -0.1797
 6484SOL    HW131088   2.782   3.191   6.159  0.0468 -0.3206  1.5230
 6484SOL    HW231089   2.668   3.117   6.095  2.4071 -0.3772 -0.8489
 6485SOL     OW31090   4.132   2.902   2.633 -0.4467 -0.1965 -0.0618
 6485SOL    HW131091   4.162   2.845   2.561  2.4969 -0.3346  1.2580
 6485SOL    HW231092   4.086   2.970   2.583 -0.1473 -0.4860 -0.7394
 6486SOL     OW31093   1.774   2.369   5.883  0.2842 -0.0155 -0.2759
 6486SOL    HW131094   1.841   2.436   5.873  2.0152 -1.8765 -1.1677
 6486SOL    HW231095   1.801   2.344   5.972  1.9415 -0.7189 -0.9794
 6487SOL     OW31096   3.757   0.894   7.323 -0.7431  0.3857 -0.1637
 6487SOL    HW131097   3.823   0.924   7.385 -2.0055  1.0879  0.8554
 6487SOL    HW231098   3.749   0.805   7.358 -2.8975 -0.0325 -1.7115
 6488SOL     OW31099   0.277   1.538   3.508  0.6108 -0.3885  0.7179
 6488SOL    HW131100   0.279   1.517   3.415 -1.1686 -2.1005  1.0519
 6488SOL    HW231101   0.286   1.633   3.506  1.5559 -0.4698  1.0582
 6489SOL     OW31102   4.113   2.040   8.507 -0.2890  0.0637 -0.2460
 6489SOL    HW131103   4.095   2.116   8.451  0.6121  0.0960 -0.4877
 6489SOL    HW231104   4.049   2.047   8.578  1.0780 -0.2946  1.0397
 6490SOL     OW31105   3.468   1.191   8.425  0.2269  0.1498  0.0766
 6490SOL    HW131106   3.559   1.164   8.410 -0.7607 -2.3622 -1.2050
 6490SOL    HW231107   3.474   1.255   8.496 -0.3920  1.2033 -0.8215
 6491SOL     OW31108   4.580   0.495  14.161  0.2727 -0.6798  0.9626
 6491SOL    HW131109   4.506   0.557  14.158  1.1717  0.4124  1.3288
 6491SOL    HW231110   4.576   0.455  14.074 -0.4090  0.0179  0.6624
 6492SOL     OW31111   4.544   0.154   2.449 -0.7662  0.0966 -0.1840
 6492SOL    HW131112   4.632   0.190   2.460 -0.8372  0.3269 -0.3718
 6492SOL    HW231113   4.536   0.074   2.501 -0.0815 -0.6960 -1.3168
 6493SOL     OW31114   1.911   1.171   7.015  0.2826  0.4919 -0.5332
 6493SOL    HW131115   1.859   1.252   7.016  0.8387  0.8430  0.1817
 6493SOL    HW231116   1.839   1.108   7.009  0.4651  0.0951  1.5351
 6494SOL     OW31117   1.163   0.149  16.387 -0.5016 -0.3284  0.4287
 6494SOL    HW131118   1.074   0.127  16.358 -0.0699  0.1573 -1.2708
 6494SOL    HW231119   1.188   0.173  16.298  1.5038  0.1305  1.1286
 6495SOL     OW31120   4.345   4.145   7.109  0.2166 -0.3223  0.2890
 6495SOL    HW131121   4.325   4.053   7.087  1.6954 -0.1703 -1.7745
 6495SOL    HW231122   4.440   4.152   7.121  0.1506  1.5542 -0.3749
 6496SOL     OW31123   2.406   3.152   2.831  0.4505  0.4852 -0.0495
 6496SOL    HW131124   2.318   3.133   2.864  0.6789 -0.9487 -0.2974
 6496SOL    HW231125   2.393   3.143   2.736 -4.2644 -3.0669  0.9464
 6497SOL     OW31126   3.793   2.736  13.722 -0.3036 -0.7980 -0.4456
 6497SOL    HW131127   3.820   2.738  13.630  0.2543  0.3296 -0.2564
 6497SOL    HW231128   3.772   2.828  13.740  2.7596 -0.0235 -0.9047
 6498SOL     OW31129   1.560   1.745   1.477  0.3735  0.2355  0.2643
 6498SOL    HW131130   1.487   1.684   1.473  0.3942  0.2767 -0.6939
 6498SOL    HW231131   1.628   1.678   1.477  0.2591  0.1176  2.0043
 6499SOL     OW31132   2.199   0.860   0.675 -0.2147 -0.1113  0.0236
 6499SOL    HW131133   2.187   0.804   0.751  1.8465 -0.4097  0.1281
 6499SOL    HW231134   2.285   0.831   0.645  1.2762  1.9259  2.3797
 6500SOL     OW31135   3.539   4.588   2.277  0.2412 -0.6032  0.0512
 6500SOL    HW131136   3.534   4.650   2.350  2.5275  0.7638 -0.9603
 6500SOL    HW231137   3.590   4.520   2.320  2.5570  0.5214 -0.8735
 6501SOL     OW31138   3.823   0.731  17.679  0.3766  0.2221  0.4431
 6501SOL    HW131139   3.810   0.824  17.658 -1.8391 -0.5737 -1.7858
 6501SOL    HW231140   3.775   0.688  17.607  0.5931  0.2600  0.2757
 6502SOL     OW31141   3.951   3.103  14.160  0.4639 -0.1808  0.6011
 6502SOL    HW131142   3.910   3.168  14.218  1.0889  0.1409  0.6848
 6502SOL    HW231143   3.913   3.128  14.076  0.3085  1.2918  1.1057
 6503SOL     OW31144   3.799   3.788  11.610 -0.5037 -0.0397 -0.5127
 6503SOL    HW131145   3.858   3.722  11.646  1.0202  1.5044 -0.1421
 6503SOL    HW231146   3.785   3.846  11.685 -1.0738 -1.6999  0.6582
 6504SOL     OW31147   1.047   2.889  14.930 -0.0087 -0.1331  0.2013
 6504SOL    HW131148   1.012   2.970  14.892 -0.9324  0.8438  3.1308
 6504SOL    HW231149   1.136   2.916  14.954  0.3794  0.2879 -1.6677
 6505SOL     OW31150   2.449   1.708   7.745 -0.6250 -0.1722  0.4403
 6505SOL    HW131151   2.424   1.798   7.725  1.5270  0.2571 -0.2941
 6505SOL    HW231152   2.489   1.693   7.659  0.4408 -0.3351  0.9705
 6506SOL     OW31153   2.739   4.085  17.685  0.7605 -0.1190  0.2186
 6506SOL    HW131154   2.692   4.129   0.007 -0.1914  2.0177 -1.7425
 6506SOL    HW231155   2.721   4.138  17.607 -1.3604  1.2469  1.6272
 6507SOL     OW31156   2.106   2.584   4.274 -0.1503 -0.1584  0.3734
 6507SOL    HW131157   2.033   2.642   4.291 -1.0099 -1.0746 -0.1767
 6507SOL    HW231158   2.115   2.531   4.353 -0.4358  2.2047  1.9743
 6508SOL     OW31159   4.128   0.635   7.752 -0.3057  0.0931  0.2488
 6508SOL    HW131160   4.084   0.551   7.768 -0.6708  0.2163 -0.1059
 6508SOL    HW231161   4.210   0.613   7.708 -0.3804  1.2149 -0.4381
 6509SOL     OW31162   2.836   1.666  12.716  0.5738 -0.4913  0.0687
 6509SOL    HW131163   2.786   1.640  12.794  1.5977 -1.5297  0.3825
 6509SOL    HW231164   2.879   1.584  12.693  2.4836  0.6920 -0.5715
 6510SOL     OW31165   1.216   1.745   5.701 -0.8243 -0.0360  0.1606
 6510SOL    HW131166   1.212   1.712   5.611  0.3817  0.9179 -0.2572
 6510SOL    HW231167   1.127   1.721   5.725 -0.8067 -0.6628 -0.4038
 6511SOL     OW31168   4.652   3.698  15.331 -0.1512  0.9262  0.1235
 6511SOL    HW131169   4.729   3.752  15.350 -0.7381  2.9012 -3.0504
 6511SOL    HW231170   4.697   3.615  15.314 -0.1000  0.9627  0.0805
 6512SOL     OW31171   3.536   3.446   7.218 -0.1035 -0.5053  0.2731
 6512SOL    HW131172   3.478   3.387   7.266  1.1908 -1.3251  0.8530
 6512SOL    HW231173   3.603   3.400   7.168  0.5160 -1.1407  1.6857
 6513SOL     OW31174   3.272   0.514   6.483 -0.1187  0.5700 -0.1321
 6513SOL    HW131175   3.245   0.522   6.391  0.9410 -0.8434 -0.5727
 6513SOL    HW231176   3.211   0.457   6.530  1.4591 -0.4058  0.7161
 6514SOL     OW31177   0.237   0.794   1.105 -0.4415 -0.6897  0.2003
 6514SOL    HW131178   0.152   0.778   1.064 -0.1368 -0.9834 -0.3167
 6514SOL    HW231179   0.286   0.790   1.023  0.5230  1.4911  0.6620
 6515SOL     OW31180   1.838   0.377   5.148 -0.3973  0.1842 -0.1131
 6515SOL    HW131181   1.746   0.364   5.125 -0.3455 -0.1148 -0.1536
 6515SOL    HW231182   1.842   0.464   5.107 -0.8009 -0.2159 -0.9912
 6516SOL     OW31183   2.408   0.636   8.225 -0.1494  0.0988 -0.1847
 6516SOL    HW131184   2.425   0.677   8.140 -1.0918  0.4727 -0.1954
 6516SOL    HW231185   2.323   0.675   8.246 -0.0314 -0.0489  0.5507
 6517SOL     OW31186   2.030   0.935   8.088 -0.1774  0.3084 -0.4181
 6517SOL    HW131187   1.949   0.888   8.109 -1.3765  2.9007  0.7674
 6517SOL    HW231188   2.004   1.022   8.059 -2.2613  0.1770  1.0985
 6518SOL     OW31189   0.005   3.235   2.340 -0.0127 -0.4398 -0.3572
 6518SOL    HW131190   4.702   3.233   2.253  1.6112 -1.6343 -1.0881
 6518SOL    HW231191   4.682   3.183   2.393  0.3091  0.1546  0.5850
 6519SOL     OW31192   0.953   1.424   5.456 -0.6711 -0.0759  0.4819
 6519SOL    HW131193   0.858   1.419   5.445 -0.9805  0.2126  2.9017
 6519SOL    HW231194   0.992   1.433   5.370  1.8282  2.8574  1.9302
 6520SOL     OW31195   3.538   0.377   6.254  0.1734 -0.5385 -0.6941
 6520SOL    HW131196   3.482   0.454   6.246 -0.5508 -1.0575 -0.6881
 6520SOL    HW231197   3.474   0.311   6.225  0.5687 -0.6181 -1.3655
 6521SOL     OW31198   1.682   4.133  13.479 -0.3116 -0.1000  0.0526
 6521SOL    HW131199   1.604   4.084  13.455 -0.7357  1.0560 -0.9113
 6521SOL    HW231200   1.695   4.125  13.574  0.0446  1.4743  0.1328
 6522SOL     OW31201   1.208   1.303   8.206 -0.7335 -0.4337 -0.3871
 6522SOL    HW131202   1.299   1.302   8.175 -0.3669 -0.7492  0.6877
 6522SOL    HW231203   1.160   1.316   8.124 -2.2514  2.3956  0.9748
 6523SOL     OW31204   0.069   0.705   6.277 -0.2230  0.5093 -0.3123
 6523SOL    HW131205   0.105   0.686   6.363 -2.2341 -1.8812 -0.0010
 6523SOL    HW231206   0.021   0.788   6.283  0.2509  0.9528 -2.5876
 6524SOL     OW31207   4.536   1.175  11.384  0.5000 -0.3101 -0.7508
 6524SOL    HW131208   4.564   1.263  11.410 -1.0920  0.6254 -2.2220
 6524SOL    HW231209   4.616   1.123  11.398  0.9736  0.3226 -1.0873
 6525SOL     OW31210   2.287   4.556   8.935  0.0007  0.2902  0.2715
 6525SOL    HW131211   2.316   4.580   8.847 -1.3200 -0.7386 -0.4536
 6525SOL    HW231212   2.237   4.636   8.950 -0.7324 -0.0535 -0.2889
 6526SOL     OW31213   0.921   2.559   5.349  0.5612  0.1443 -0.1522
 6526SOL    HW131214   0.987   2.562   5.419  1.3755  0.1004 -0.9198
 6526SOL    HW231215   0.840   2.568   5.399  1.2494  1.8964  0.6496
 6527SOL     OW31216   3.905   4.621   3.114  0.1689  0.2904  0.5482
 6527SOL    HW131217   3.989   4.589   3.149  0.6855  0.4481 -0.5491
 6527SOL    HW231218   3.902   4.576   3.029  0.5526  0.3950  0.4785
 6528SOL     OW31219   2.381   2.626   6.040 -0.7085 -0.1839 -0.0169
 6528SOL    HW131220   2.392   2.719   6.021 -0.4552 -0.4264 -1.0481
 6528SOL    HW231221   2.286   2.621   6.051 -0.5870 -0.1159  1.0761
 6529SOL     OW31222   3.992   2.298   7.766 -0.0627 -0.2700  0.1198
 6529SOL    HW131223   3.970   2.275   7.676 -1.4625 -1.0577  0.6548
 6529SOL    HW231224   3.963   2.218   7.809 -0.0361  0.1695  0.9622
 6530SOL     OW31225   1.588   3.168   7.780  0.0393 -0.6222  0.0930
 6530SOL    HW131226   1.556   3.206   7.862  0.7992  1.0143 -0.3520
 6530SOL    HW231227   1.678   3.147   7.804  0.7673  0.4605 -1.7006
 6531SOL     OW31228   0.836   3.724   9.336  0.6237 -0.3086 -0.4854
 6531SOL    HW131229   0.853   3.803   9.387  0.3684 -0.6134  0.0782
 6531SOL    HW231230   0.781   3.757   9.265  0.4028 -0.7961 -0.5446
 6532SOL     OW31231   2.087   0.368  17.415 -0.6439 -0.0386  0.3321
 6532SOL    HW131232   1.996   0.351  17.441 -0.4394 -0.8231  0.5171
 6532SOL    HW231233   2.070   0.446  17.362 -2.3707  0.2720  1.3433
 6533SOL     OW31234   3.281   0.565   6.220  0.6043  0.0020  0.2020
 6533SOL    HW131235   3.226   0.488   6.204  0.2842  0.3554 -0.3977
 6533SOL    HW231236   3.289   0.605   6.133 -2.5681 -0.7138 -0.4400
 6534SOL     OW31237   3.389   0.811   2.918  0.3449 -0.1925  0.0157
 6534SOL    HW131238   3.451   0.759   2.867  1.2306  1.5935 -0.7440
 6534SOL    HW231239   3.333   0.843   2.847  3.3672 -0.3757 -2.4375
 6535SOL     OW31240   0.712   4.269   3.160  0.5853  0.3791 -0.7089
 6535SOL    HW131241   0.772   4.199   3.133 -1.6252 -2.3154  1.5470
 6535SOL    HW231242   0.648   4.223   3.212 -0.7629  2.1054 -0.8452
 6536SOL     OW31243   2.441   2.448  15.883  0.1081  0.2312  0.0302
 6536SOL    HW131244   2.415   2.500  15.959 -2.7957  0.2303 -0.9693
 6536SOL    HW231245   2.387   2.481  15.811  1.4955  0.1293 -1.0611
 6537SOL     OW31246   1.842   0.011   0.478  0.2181  0.0688  0.0352
 6537SOL    HW131247   1.908   0.069   0.441  0.9959  0.4549  2.0044
 6537SOL    HW231248   1.822   0.055   0.561 -3.1284 -1.9887  0.3315
 6538SOL     OW31249   0.005   3.310   7.491  0.1591 -0.0511  0.1687
 6538SOL    HW131250   0.062   3.322   7.566  1.8629 -1.5851 -0.8942
 6538SOL    HW231251   4.668   3.366   7.515  0.7019  1.0142 -0.6142
 6539SOL     OW31252   2.571   3.066   8.021 -0.5261  0.2685  0.3849
 6539SOL    HW131253   2.615   3.085   7.938 -0.0383 -0.7001  0.4161
 6539SOL    HW231254   2.486   3.108   8.008  0.0613  1.2752 -0.2326
 6540SOL     OW31255   2.886   4.184  16.953  0.5577 -0.1971  0.0604
 6540SOL    HW131256   2.894   4.273  16.986 -2.5768 -0.0020  0.2675
 6540SOL    HW231257   2.964   4.190  16.898 -1.3843  0.9790 -2.5998
 6541SOL     OW31258   2.627   4.469   5.356 -0.0790 -0.1844  0.2133
 6541SOL    HW131259   2.642   4.547   5.410  2.6599  0.1907 -1.1093
 6541SOL    HW231260   2.592   4.510   5.277  1.2150 -1.3817 -0.9698
 6542SOL     OW31261   4.279   0.460   3.916 -0.8848 -0.0612 -0.0342
 6542SOL    HW131262   4.267   0.555   3.910 -0.4305 -0.1162 -2.0415
 6542SOL    HW231263   4.226   0.433   3.841  0.2845  0.7333 -1.1399
 6543SOL     OW31264   2.282   0.770   9.912  0.1840 -0.2640 -0.6714
 6543SOL    HW131265   2.350   0.725   9.861  1.2591 -0.2862  0.7861
 6543SOL    HW231266   2.286   0.720   9.993 -0.8892 -0.8530 -0.9858
 6544SOL     OW31267   2.617   0.610   4.825 -0.6404 -0.2127  0.2859
 6544SOL    HW131268   2.541   0.610   4.883 -0.9802 -0.3039 -0.1534
 6544SOL    HW231269   2.693   0.609   4.883 -0.4021 -1.2330 -0.0438
 6545SOL     OW31270   2.554   2.262   8.270 -0.0754  0.2428 -0.5197
 6545SOL    HW131271   2.541   2.194   8.204  2.0670 -0.3497 -0.3505
 6545SOL    HW231272   2.481   2.238   8.326  1.0474 -0.8117  0.4952
 6546SOL     OW31273   2.571   0.150   8.637  0.0969 -0.2233 -0.0824
 6546SOL    HW131274   2.613   0.187   8.559 -0.2523  1.3657  0.4780
 6546SOL    HW231275   2.590   0.218   8.702 -2.6892  1.1166 -0.6676
 6547SOL     OW31276   4.055   0.071  10.955  0.2179 -0.4134  0.5056
 6547SOL    HW131277   4.008   0.029  11.027 -2.3447 -0.4616 -1.2010
 6547SOL    HW231278   4.082   0.146  11.008  1.2905  0.8329 -1.8225
 6548SOL     OW31279   3.283   2.046   6.774  0.1809 -0.3174 -0.0474
 6548SOL    HW131280   3.282   2.132   6.817 -2.3007  0.7958 -2.3244
 6548SOL    HW231281   3.192   2.037   6.744 -0.0462  0.1859  0.4943
 6549SOL     OW31282   2.618   0.806   3.279  0.1968 -0.5729  0.1783
 6549SOL    HW131283   2.660   0.846   3.356  0.8193 -3.0222  1.1078
 6549SOL    HW231284   2.617   0.716   3.313 -1.2444 -1.9921 -3.6156
 6550SOL     OW31285   2.895   1.700   3.355  0.1728 -0.1015 -0.1112
 6550SOL    HW131286   2.859   1.713   3.267 -1.2727  3.7881  1.0554
 6550SOL    HW231287   2.983   1.738   3.349  1.9256 -4.0107  0.7125
 6551SOL     OW31288   2.588   2.523   7.611 -0.1419  0.1523  0.2492
 6551SOL    HW131289   2.656   2.456   7.611  1.5008  1.8342  0.4771
 6551SOL    HW231290   2.518   2.489   7.668 -0.4177 -0.3900 -0.4198
 6552SOL     OW31291   0.213   2.621   3.976  0.5041  0.2624 -0.2440
 6552SOL    HW131292   0.138   2.677   3.995  0.1064  0.1420 -1.4930
 6552SOL    HW231293   0.286   2.665   4.019 -2.2988  4.5374  0.0993
 6553SOL     OW31294   2.309   4.435   2.283  0.2443 -0.2944  0.0268
 6553SOL    HW131295   2.345   4.354   2.248  1.6258 -0.1034  1.0273
 6553SOL    HW231296   2.296   4.481   2.200  3.2747  1.6982  0.6239
 6554SOL     OW31297   1.049   0.847  13.719 -0.0818  0.1759 -0.7162
 6554SOL    HW131298   1.061   0.922  13.777  0.3477 -0.6269  0.2337
 6554SOL    HW231299   1.052   0.776  13.783 -2.4512 -0.2621 -1.0785
 6555SOL     OW31300   1.739   3.966   5.999  0.6454 -0.3558  0.1670
 6555SOL    HW131301   1.751   3.874   6.023  0.9856 -0.5832 -0.9144
 6555SOL    HW231302   1.814   4.005   6.044  0.3336  0.6982 -0.2117
 6556SOL     OW31303   4.010   2.185   5.149  0.6128 -0.2578  0.5069
 6556SOL    HW131304   4.066   2.194   5.072 -1.4815  2.4762 -0.6871
 6556SOL    HW231305   3.968   2.271   5.154  0.9158 -0.0456 -0.5654
 6557SOL     OW31306   1.567   2.426   9.921  0.5244  0.6028 -0.3603
 6557SOL    HW131307   1.582   2.469  10.004  0.8524 -0.5672  0.1926
 6557SOL    HW231308   1.657   2.417   9.888  1.7585  3.2453  2.3516
 6558SOL     OW31309   3.177   3.842   7.794 -0.2773  0.3572  0.8240
 6558SOL    HW131310   3.216   3.882   7.872 -1.2989 -0.5916  1.8245
 6558SOL    HW231311   3.174   3.920   7.739  0.5453  0.7194  1.2895
 6559SOL     OW31312   1.753   3.031   3.211  0.0719  0.0308  0.1587
 6559SOL    HW131313   1.723   3.067   3.294  0.8591 -1.0012  0.8953
 6559SOL    HW231314   1.842   3.066   3.203  0.2378 -1.0185 -2.7859
 6560SOL     OW31315   2.787   3.555  13.021  0.4170  0.1850 -0.8156
 6560SOL    HW131316   2.836   3.607  12.957  1.4905  0.8491  0.5401
 6560SOL    HW231317   2.762   3.624  13.082 -0.1261 -1.8151  1.2246
 6561SOL     OW31318   0.208   1.680  12.106 -0.3145 -0.0186  0.1492
 6561SOL    HW131319   0.176   1.768  12.123 -0.7324 -0.1969  0.2708
 6561SOL    HW231320   0.152   1.649  12.035 -0.3889  0.4752 -0.0123
 6562SOL     OW31321   3.057   0.357   0.450 -0.0478 -0.4197  0.1271
 6562SOL    HW131322   3.100   0.387   0.370  0.5086  1.1502  1.0269
 6562SOL    HW231323   2.974   0.404   0.441  1.0292  1.4007 -0.1494
 6563SOL     OW31324   0.843   2.454   2.505 -0.1143 -0.2369 -0.1311
 6563SOL    HW131325   0.896   2.528   2.476  1.2679 -0.5351  1.6252
 6563SOL    HW231326   0.837   2.412   2.420 -0.6326  0.6615 -0.5399
 6564SOL     OW31327   3.949   3.212   6.391  0.1973 -0.1730 -0.6970
 6564SOL    HW131328   3.969   3.118   6.386 -0.0692 -0.1723 -1.9825
 6564SOL    HW231329   3.897   3.217   6.311 -0.7581  2.0585  0.0955
 6565SOL     OW31330   3.048   2.493  12.874 -0.2142  0.0588  0.1778
 6565SOL    HW131331   3.067   2.568  12.930 -1.2148  0.8124 -0.5016
 6565SOL    HW231332   2.963   2.524  12.842  0.3801  1.4009 -0.1262
 6566SOL     OW31333   4.292   2.019  14.139 -0.1442 -0.0596 -0.4384
 6566SOL    HW131334   4.306   2.081  14.210  3.1001 -0.7661 -0.4580
 6566SOL    HW231335   4.197   2.017  14.146  0.1333 -1.7740  3.2009
 6567SOL     OW31336   1.578   3.222   5.236 -0.7419  0.5563 -0.8649
 6567SOL    HW131337   1.594   3.148   5.293 -1.2206  0.6361 -0.6339
 6567SOL    HW231338   1.575   3.177   5.152  0.1582 -1.2364  0.0755
 6568SOL     OW31339   0.569   4.572   4.076 -0.1612 -0.5157 -0.1954
 6568SOL    HW131340   0.607   4.510   4.014 -1.4454 -2.3059  0.8233
 6568SOL    HW231341   0.474   4.561   4.067 -0.4196  0.9554  0.8146
 6569SOL     OW31342   2.553   2.567   6.812  0.5277 -0.1175  0.4334
 6569SOL    HW131343   2.494   2.609   6.875 -1.2241 -1.3754 -0.3819
 6569SOL    HW231344   2.612   2.641   6.795  0.9664 -0.8453 -1.1366
 6570SOL     OW31345   3.781   1.274  15.729 -0.3429  0.1724  0.2438
 6570SOL    HW131346   3.748   1.355  15.690  3.0443  2.4437  2.0237
 6570SOL    HW231347   3.874   1.296  15.729 -0.1362 -0.6967  0.0047
 6571SOL     OW31348   2.691   2.174   2.171 -0.4085  0.2312 -0.3113
 6571SOL    HW131349   2.731   2.209   2.250  1.2797 -0.5748 -0.8068
 6571SOL    HW231350   2.611   2.226   2.164  0.2488  1.1218 -1.1974
 6572SOL     OW31351   2.691   4.602   3.070 -0.1618 -0.4189  0.4257
 6572SOL    HW131352   2.698   4.507   3.056  1.5413 -0.0469 -1.3818
 6572SOL    HW231353   2.692   4.616   2.975 -2.7003  0.5248  0.5403
 6573SOL     OW31354   4.717   3.442   5.537  0.2501 -0.0772 -0.2868
 6573SOL    HW131355   4.728   3.512   5.601 -0.6341  0.6891 -0.9735
 6573SOL    HW231356   4.679   3.372   5.590 -0.5454 -1.5044 -2.7223
 6574SOL     OW31357   1.994   3.274   0.940  0.5924 -0.4683 -0.2178
 6574SOL    HW131358   1.967   3.297   1.028  0.6973 -0.5489 -0.1642
 6574SOL    HW231359   2.081   3.241   0.964  0.6632 -1.2725 -1.5358
 6575SOL     OW31360   1.805   1.522   5.852  0.2636 -0.5571 -0.1263
 6575SOL    HW131361   1.749   1.509   5.776 -1.6784 -0.6729  1.3242
 6575SOL    HW231362   1.752   1.500   5.929 -1.4507 -0.0865 -1.1616
 6576SOL     OW31363   2.120   3.415   8.485  0.2018  0.2941  0.2130
 6576SOL    HW131364   2.165   3.367   8.555  0.3100  1.1082  0.7017
 6576SOL    HW231365   2.041   3.435   8.536 -0.4653 -1.5322 -0.0954
 6577SOL     OW31366   2.788   2.003  14.614  0.0797 -0.3486 -0.9853
 6577SOL    HW131367   2.706   2.022  14.660  0.5091  1.2813 -0.9218
 6577SOL    HW231368   2.777   1.907  14.617 -3.6028  0.0765 -0.7955
 6578SOL     OW31369   4.376   0.156   4.326 -0.4317  0.7980 -0.3785
 6578SOL    HW131370   4.371   0.138   4.420  0.2616 -0.4612 -0.5837
 6578SOL    HW231371   4.458   0.108   4.308 -0.4782  0.5933 -0.0363
 6579SOL     OW31372   3.868   0.362   3.654 -0.2247 -0.3329 -0.0474
 6579SOL    HW131373   3.879   0.284   3.600 -1.8371 -2.4109  2.5985
 6579SOL    HW231374   3.862   0.424   3.582 -2.0346 -1.2835 -0.7135
 6580SOL     OW31375   3.893   1.598   7.461 -0.5527 -0.3220 -0.3931
 6580SOL    HW131376   3.963   1.591   7.395 -0.1964  0.8869 -0.1468
 6580SOL    HW231377   3.912   1.525   7.519  3.3787  0.9968 -0.0005
 6581SOL     OW31378   2.806   4.445  10.591  0.1378 -0.0575 -0.3366
 6581SOL    HW131379   2.724   4.462  10.637  1.3694 -1.5378  2.4288
 6581SOL    HW231380   2.861   4.457  10.668 -0.0012  0.2380 -0.2854
 6582SOL     OW31381   1.811   1.758   5.509 -0.3332 -0.0160 -0.4607
 6582SOL    HW131382   1.751   1.694   5.548 -2.4727  0.4303 -3.0013
 6582SOL    HW231383   1.894   1.750   5.556 -1.3049  1.8597  1.5468
 6583SOL     OW31384   4.398   0.627   5.571 -0.0534  0.2184 -0.1319
 6583SOL    HW131385   4.405   0.568   5.646 -0.2827  2.8112  1.9044
 6583SOL    HW231386   4.491   0.629   5.547 -0.2192 -1.0177 -0.9027
 6584SOL     OW31387   0.344   2.493   3.304 -0.2983  0.0200  0.3641
 6584SOL    HW131388   0.419   2.534   3.348  1.2924 -2.1715 -0.2836
 6584SOL    HW231389   0.373   2.503   3.213 -1.4226 -0.7508 -0.0688
 6585SOL     OW31390   0.884   2.198   8.513  0.1471 -0.1970  0.4260
 6585SOL    HW131391   0.792   2.176   8.524 -0.4963  1.7778 -1.0114
 6585SOL    HW231392   0.923   2.205   8.600 -0.3245 -1.4642  0.7297
 6586SOL     OW31393   2.998   1.178  13.080  0.4903  0.3917  0.4748
 6586SOL    HW131394   3.033   1.241  13.143  0.5140  1.0886 -0.2339
 6586SOL    HW231395   2.927   1.224  13.034  0.6522  0.8510  0.6868
 6587SOL     OW31396   0.182   1.648   4.472  0.1026  0.1125  0.4787
 6587SOL    HW131397   0.186   1.561   4.431  0.0181  1.1116 -1.6432
 6587SOL    HW231398   0.163   1.693   4.390  2.2774 -0.7152 -0.4805
 6588SOL     OW31399   3.342   3.243   7.405 -0.4085  0.7128  0.1660
 6588SOL    HW131400   3.430   3.210   7.425  0.3153  0.9644 -2.5866
 6588SOL    HW231401   3.338   3.316   7.467  2.0419 -1.0728  2.3987
 6589SOL     OW31402   1.241   3.135   3.705  0.2134 -0.2257 -0.2605
 6589SOL    HW131403   1.335   3.119   3.698  0.9313  3.2831  1.3307
 6589SOL    HW231404   1.225   3.157   3.797 -1.5688  0.8449 -0.8303
 6590SOL     OW31405   4.106   2.576   6.010 -0.0236  0.6299 -0.1165
 6590SOL    HW131406   4.098   2.624   6.093 -2.4468  1.2918 -0.7370
 6590SOL    HW231407   4.164   2.506   6.040  1.5885  1.7750 -0.5663
 6591SOL     OW31408   3.008   3.644   6.180  0.6255 -0.1623  0.0052
 6591SOL    HW131409   2.951   3.569   6.195  0.8631 -0.4168 -0.3621
 6591SOL    HW231410   2.942   3.707   6.150 -0.5655 -0.9199  1.0430
 6592SOL     OW31411   2.260   2.374   5.726 -0.1437 -0.0941 -0.2327
 6592SOL    HW131412   2.269   2.462   5.690  2.6152  0.1942  1.1054
 6592SOL    HW231413   2.352   2.348   5.730 -0.7327 -1.8339  1.9242
 6593SOL     OW31414   3.708   3.758   4.194 -0.1821 -0.0796 -0.2376
 6593SOL    HW131415   3.776   3.723   4.252  2.0353  4.1625 -0.1864
 6593SOL    HW231416   3.709   3.707   4.114  1.5447  2.4964 -1.8607
 6594SOL     OW31417   4.112   3.220   8.881  0.2987  0.4841 -0.3712
 6594SOL    HW131418   4.172   3.247   8.811 -2.2723  0.0501 -2.7472
 6594SOL    HW231419   4.175   3.160   8.922 -1.2414 -0.2729  0.8757
 6595SOL     OW31420   1.529   1.782  11.322  0.5555  0.1035  0.1360
 6595SOL    HW131421   1.543   1.722  11.249  0.2728  0.5022 -0.2410
 6595SOL    HW231422   1.442   1.766  11.357  0.0630  0.5058 -0.9240
 6596SOL     OW31423   4.478   2.081   9.374 -0.0418 -0.3568  0.6212
 6596SOL    HW131424   4.554   2.092   9.317 -0.0934 -1.2958  0.3731
 6596SOL    HW231425   4.513   2.011   9.429 -2.9993 -1.6425  0.8284
 6597SOL     OW31426   2.914   3.163   6.873  0.1330 -0.4262 -0.0488
 6597SOL    HW131427   2.962   3.131   6.949  0.0389  0.9350  0.5878
 6597SOL    HW231428   2.878   3.246   6.906  0.3036 -0.2722 -0.2565
 6598SOL     OW31429   2.479   3.245   9.256  0.0169  0.0934  0.3781
 6598SOL    HW131430   2.553   3.225   9.198 -0.8734 -0.9041 -0.4183
 6598SOL    HW231431   2.410   3.203   9.204 -0.8498  1.2283  0.6132
 6599SOL     OW31432   3.822   0.307   1.742  0.3663  0.4335  0.1738
 6599SOL    HW131433   3.822   0.278   1.833  0.4033  0.5223  0.2022
 6599SOL    HW231434   3.831   0.401   1.755  1.6884  0.2383  0.6880
 6600SOL     OW31435   1.123   0.194   3.523 -0.2560  0.3804 -0.1889
 6600SOL    HW131436   1.042   0.143   3.523 -0.2379  0.3562 -0.6407
 6600SOL    HW231437   1.183   0.119   3.519 -0.1165  0.4344  0.9227
 6601SOL     OW31438   3.033   1.398   5.681 -0.1618 -0.1704  0.0839
 6601SOL    HW131439   3.007   1.490   5.687  1.8876  0.3891  0.6501
 6601SOL    HW231440   3.022   1.364   5.770 -0.3826 -0.7119 -0.1503
 6602SOL     OW31441   1.019   1.020  13.949 -0.2765 -0.0360 -0.3428
 6602SOL    HW131442   1.055   0.970  14.023  1.1188  1.5907  0.0823
 6602SOL    HW231443   0.928   0.989  13.947 -1.0471  2.4435 -2.9481
 6603SOL     OW31444   1.260   2.352  11.705 -0.3034  0.0955 -0.7167
 6603SOL    HW131445   1.232   2.261  11.689  1.3110 -0.7897  1.5578
 6603SOL    HW231446   1.174   2.377  11.739 -0.0841 -3.1818  2.2471
 6604SOL     OW31447   4.082   0.859   2.170 -0.2382 -0.1595 -0.0385
 6604SOL    HW131448   4.004   0.891   2.125 -1.9381 -2.2207  1.4539
 6604SOL    HW231449   4.056   0.827   2.256 -0.0681  0.3460  0.2025
 6605SOL     OW31450   0.964   4.056   7.131 -0.0427 -0.3676  0.2785
 6605SOL    HW131451   0.908   4.015   7.197 -1.9169  1.2505 -0.3003
 6605SOL    HW231452   1.051   4.033   7.163  0.9440 -0.2310 -2.3388
 6606SOL     OW31453   0.845   3.488   6.789 -0.5396 -0.1720 -0.3526
 6606SOL    HW131454   0.926   3.501   6.740  0.9505 -0.8925  1.9363
 6606SOL    HW231455   0.800   3.569   6.767  0.0046 -0.3531 -2.1626
 6607SOL     OW31456   2.414   3.601   8.306 -0.3486 -0.0625  0.3539
 6607SOL    HW131457   2.352   3.576   8.375  1.1905 -1.5197  1.2080
 6607SOL    HW231458   2.486   3.539   8.317  1.7323  2.2865 -0.0707
 6608SOL     OW31459   1.908   0.629   2.479 -0.3816  0.1651  0.3444
 6608SOL    HW131460   1.971   0.581   2.424 -1.1367 -1.2676  0.7580
 6608SOL    HW231461   1.925   0.713   2.436 -1.7226  0.2710  0.0436
 6609SOL     OW31462   2.557   3.950   2.879 -0.5482 -0.0632 -0.1730
 6609SOL    HW131463   2.559   3.855   2.866  0.7982 -0.3209  2.0004
 6609SOL    HW231464   2.545   3.964   2.972 -1.7701 -2.1552 -0.0426
 6610SOL     OW31465   2.691   0.184   2.606  0.0371  0.4031 -0.6293
 6610SOL    HW131466   2.652   0.137   2.532 -3.7843 -1.6522  2.7271
 6610SOL    HW231467   2.613   0.200   2.660 -0.5252 -0.6963 -1.1251
 6611SOL     OW31468   4.451   2.280  17.254  0.1348 -0.3235 -0.1907
 6611SOL    HW131469   4.380   2.246  17.199  0.9046 -0.4864 -1.1020
 6611SOL    HW231470   4.512   2.307  17.185 -1.0957  0.4532 -0.9679
 6612SOL     OW31471   0.796   0.550   7.174 -0.4413 -0.0855 -0.2924
 6612SOL    HW131472   0.839   0.629   7.207  1.4487 -2.0559  1.8414
 6612SOL    HW231473   0.852   0.489   7.221  1.6025  1.5764 -0.5796
 6613SOL     OW31474   0.776   2.173   5.990 -0.1731  0.5760 -0.4028
 6613SOL    HW131475   0.701   2.233   5.990  0.2419  1.1054 -1.3794
 6613SOL    HW231476   0.837   2.238   6.024  0.9253 -0.9137  0.4609
 6614SOL     OW31477   1.635   2.930  12.282  0.3312  0.5115 -0.4114
 6614SOL    HW131478   1.693   3.004  12.262  0.0803  0.9983  0.6726
 6614SOL    HW231479   1.664   2.864  12.218  3.5555  0.4878  1.0506
 6615SOL     OW31480   0.035   0.013   8.061 -0.2109 -0.3945  0.3523
 6615SOL    HW131481   0.053   0.059   7.979 -2.1376 -0.8870 -0.3463
 6615SOL    HW231482   4.699   0.070   8.083  0.7647  0.6367  0.9651
 6616SOL     OW31483   1.813   0.566   4.940  0.2232 -0.7028 -0.2261
 6616SOL    HW131484   1.721   0.546   4.926 -0.2298  1.5346 -0.3490
 6616SOL    HW231485   1.854   0.522   4.865 -1.1163  0.5443 -1.7006
 6617SOL     OW31486   1.780   0.987   3.437 -0.0157 -0.9385  0.2874
 6617SOL    HW131487   1.844   0.916   3.440  1.6741  0.5465 -0.5828
 6617SOL    HW231488   1.746   0.964   3.351  1.3683 -1.0586 -0.2284
 6618SOL     OW31489   4.216   2.236   8.769 -0.0223  0.0604  0.2982
 6618SOL    HW131490   4.207   2.298   8.697 -2.4375  1.3282  1.6951
 6618SOL    HW231491   4.123   2.230   8.791 -0.4423  3.7348 -0.5974
 6619SOL     OW31492   4.639   0.942   3.079 -0.1033 -0.2864 -0.1852
 6619SOL    HW131493   4.717   0.993   3.100  0.3911 -2.1502  2.5042
 6619SOL    HW231494   4.593   0.956   3.161 -1.0278  1.9561 -1.1047
 6620SOL     OW31495   1.146   3.988   4.883 -1.0378 -0.4554  0.3150
 6620SOL    HW131496   1.143   4.065   4.826 -1.0064 -1.6830 -1.3652
 6620SOL    HW231497   1.053   3.972   4.868 -0.2436 -3.5701 -1.3286
 6621SOL     OW31498   0.729   4.227   2.436 -0.0806 -0.0690 -0.0119
 6621SOL    HW131499   0.787   4.153   2.454  0.0663 -0.7902 -3.3811
 6621SOL    HW231500   0.711   4.257   2.525  1.9670  0.1207  0.3173
 6622SOL     OW31501   2.297   2.916   5.608 -0.3890  0.5175  0.1325
 6622SOL    HW131502   2.316   3.009   5.616 -1.8285  0.8802 -0.7050
 6622SOL    HW231503   2.236   2.908   5.535 -0.0094  0.6490 -0.1987
 6623SOL     OW31504   2.685   2.179   1.462 -0.6918  0.3797  0.1348
 6623SOL    HW131505   2.611   2.232   1.432  0.1668  1.0299 -0.8304
 6623SOL    HW231506   2.672   2.181   1.557  1.7328 -0.0609  0.4686
 6624SOL     OW31507   0.773   2.240   3.588 -0.1403  0.3516  0.0967
 6624SOL    HW131508   0.828   2.318   3.602  0.4436  0.2702 -1.7083
 6624SOL    HW231509   0.823   2.168   3.627  1.4945  1.0617 -0.6706
 6625SOL     OW31510   0.541   2.169  15.863  0.1147 -0.0685  0.0246
 6625SOL    HW131511   0.593   2.101  15.905  2.6167  1.9031  0.1426
 6625SOL    HW231512   0.616   2.227  15.847 -0.7217  1.1842  0.6509
 6626SOL     OW31513   1.954   0.839   1.731 -0.3715  0.0355 -0.3304
 6626SOL    HW131514   1.952   0.870   1.822  0.8052 -3.2502  0.8270
 6626SOL    HW231515   2.044   0.854   1.702 -0.4651 -0.0125 -0.6392
 6627SOL     OW31516   4.220   2.972   0.640 -0.1053 -0.1843  0.4348
 6627SOL    HW131517   4.229   2.877   0.630 -0.0135 -0.3184  1.7463
 6627SOL    HW231518   4.275   2.987   0.563 -1.1040  2.7733  0.2793
 6628SOL     OW31519   1.815   2.334   3.133 -0.6657  0.2513 -0.1048
 6628SOL    HW131520   1.830   2.380   3.050 -2.8274 -0.5919 -0.9547
 6628SOL    HW231521   1.726   2.359   3.159 -1.3962 -1.3888 -1.0567
 6629SOL     OW31522   0.716   2.749   3.879 -0.6370  0.1487  0.0881
 6629SOL    HW131523   0.646   2.813   3.885  0.0969  1.0475 -0.8053
 6629SOL    HW231524   0.670   2.666   3.889 -0.5782  0.3432  1.8352
 6630SOL     OW31525   3.212   2.130   3.877 -0.3418 -0.2171  0.1154
 6630SOL    HW131526   3.282   2.193   3.862  1.0384 -2.1876 -1.6871
 6630SOL    HW231527   3.261   2.056   3.913 -2.0357 -1.0927  0.6564
 6631SOL     OW31528   2.628   0.937   5.889 -0.5449 -0.7048 -0.2950
 6631SOL    HW131529   2.681   0.943   5.809 -0.6615 -2.3513 -0.4847
 6631SOL    HW231530   2.546   0.971   5.855  1.7482  2.9112 -2.2449
 6632SOL     OW31531   2.332   2.096   4.996 -0.3129  0.4998  0.0363
 6632SOL    HW131532   2.388   2.137   5.061 -0.5158  0.7668  0.0434
 6632SOL    HW231533   2.408   2.060   4.951 -0.7114  0.3109 -0.4920
 6633SOL     OW31534   0.450   3.681   4.200 -0.1489  0.1418  0.0805
 6633SOL    HW131535   0.379   3.617   4.193  2.1658 -2.4689  0.5251
 6633SOL    HW231536   0.463   3.681   4.295 -0.7641  0.7709  0.1598
 6634SOL     OW31537   4.723   1.222  10.361 -0.1945 -0.2181  0.0622
 6634SOL    HW131538   4.629   1.206  10.358 -0.2331  0.4500 -2.5274
 6634SOL    HW231539   4.732   1.269  10.444 -1.6720 -1.3649  0.8635
 6635SOL     OW31540   0.917   4.734   4.340  0.1820  0.1401  0.0338
 6635SOL    HW131541   0.974   0.012   4.415 -0.3606 -1.7729  0.8555
 6635SOL    HW231542   0.912   4.639   4.345  3.8061 -0.0524 -0.2813
 6636SOL     OW31543   0.070   4.023  12.494 -0.3482 -0.4346  0.1208
 6636SOL    HW131544   0.078   4.118  12.501 -0.3388 -0.5642  1.8990
 6636SOL    HW231545   4.718   4.012  12.528 -1.3989  0.0882 -2.4302
 6637SOL     OW31546   2.470   1.189  11.338  0.3914  0.1558  0.6104
 6637SOL    HW131547   2.506   1.165  11.423 -0.7640 -1.1509  0.7379
 6637SOL    HW231548   2.379   1.160  11.346  0.2233  0.0233 -1.7040
 6638SOL     OW31549   0.539   3.286   5.681 -0.3300 -0.0560  0.5251
 6638SOL    HW131550   0.451   3.311   5.653 -0.9160 -1.1110  1.3883
 6638SOL    HW231551   0.580   3.372   5.672  1.4383 -1.1148 -1.4937
 6639SOL     OW31552   0.027   4.120  10.397  0.1253  0.2560 -0.2872
 6639SOL    HW131553   0.107   4.173  10.399 -0.5081  1.1908  0.1023
 6639SOL    HW231554   0.024   4.083  10.485  0.6980  0.7920 -0.0394
 6640SOL     OW31555   4.606   2.075   8.233  0.4715 -0.2798 -0.2069
 6640SOL    HW131556   4.599   2.170   8.229 -0.9847 -0.3921 -0.5968
 6640SOL    HW231557   4.530   2.036   8.190 -0.0413 -1.0089  1.3629
 6641SOL     OW31558   1.725   1.894  15.332 -0.4118  0.0633  0.5442
 6641SOL    HW131559   1.645   1.855  15.294  1.4814 -1.3231 -2.0207
 6641SOL    HW231560   1.751   1.960  15.268  1.1652 -1.0958 -0.0097
 6642SOL     OW31561   3.264   4.025   8.924 -0.3685  0.5253  0.1941
 6642SOL    HW131562   3.355   4.036   8.896  0.2184  0.4593  2.0648
 6642SOL    HW231563   3.260   3.936   8.960  0.7181  0.7381  0.8355
 6643SOL     OW31564   2.677   1.083   4.849  0.2974  0.5246  0.6168
 6643SOL    HW131565   2.640   1.137   4.919  2.2271  1.0082  1.2564
 6643SOL    HW231566   2.604   1.103   4.791  0.8883 -1.0230 -0.6813
 6644SOL     OW31567   3.213   2.189   9.330  0.5104 -0.0380  0.1898
 6644SOL    HW131568   3.133   2.208   9.378  1.1337  3.5044 -0.1584
 6644SOL    HW231569   3.250   2.115   9.378  2.7142  1.4234  0.7547
 6645SOL     OW31570   0.428   1.146   2.498 -0.1010 -0.8829  0.2404
 6645SOL    HW131571   0.509   1.198   2.500 -1.8486  1.7782  0.9598
 6645SOL    HW231572   0.389   1.174   2.416 -2.1019 -0.5167  1.3409
 6646SOL     OW31573   0.537   3.429  11.562  0.3074  0.1619  0.5068
 6646SOL    HW131574   0.497   3.358  11.612  1.9549  0.2788  1.9860
 6646SOL    HW231575   0.484   3.497  11.604 -0.0975 -0.5105  1.0805
 6647SOL     OW31576   4.286   0.162   2.838 -0.0034 -0.3385 -0.0856
 6647SOL    HW131577   4.343   0.158   2.762 -0.4748 -3.9916 -0.2738
 6647SOL    HW231578   4.211   0.114   2.803 -0.2933  0.1548 -0.1367
 6648SOL     OW31579   0.988   0.293   8.026  0.0926  0.0187  0.9479
 6648SOL    HW131580   0.977   0.209   8.070  1.9298 -0.4812  0.4458
 6648SOL    HW231581   0.909   0.299   7.971  0.1712 -1.6619  0.6518
 6649SOL     OW31582   1.539   2.308   9.176 -0.0485 -0.1775 -0.5994
 6649SOL    HW131583   1.526   2.365   9.252  0.7254 -1.0423  0.1890
 6649SOL    HW231584   1.466   2.248   9.174 -1.0022  0.9879 -0.7588
 6650SOL     OW31585   4.397   1.650   3.018  0.0632  0.4154  0.3738
 6650SOL    HW131586   4.376   1.564   2.983  0.8941  0.3896 -0.0570
 6650SOL    HW231587   4.484   1.643   3.057  0.2763 -1.3433 -0.4367
 6651SOL     OW31588   3.871   4.441   0.882 -0.3053 -0.2051  0.7242
 6651SOL    HW131589   3.864   4.400   0.796  0.9882  0.6188  0.2304
 6651SOL    HW231590   3.949   4.496   0.883 -1.2935  1.2142 -0.6654
 6652SOL     OW31591   3.052   0.625   8.242  0.0610 -0.4133  0.1377
 6652SOL    HW131592   2.961   0.602   8.265 -1.3669  4.2840 -0.7490
 6652SOL    HW231593   3.084   0.543   8.205  0.0901  0.6988 -2.2714
 6653SOL     OW31594   1.437   2.137   5.167 -0.3480  0.2720 -0.4725
 6653SOL    HW131595   1.393   2.053   5.179 -1.3541  1.2094  2.5134
 6653SOL    HW231596   1.432   2.177   5.254 -0.7652 -0.2066 -0.2810
 6654SOL     OW31597   2.294   1.839  15.330  0.5547  0.1097  0.3281
 6654SOL    HW131598   2.286   1.764  15.272 -2.6278  0.4549  0.2952
 6654SOL    HW231599   2.204   1.837  15.363  0.9405 -1.5473  1.2792
 6655SOL     OW31600   1.293   4.116   6.930  0.3082  0.0220 -0.0133
 6655SOL    HW131601   1.219   4.176   6.944 -0.3518 -0.9017  0.4725
 6655SOL    HW231602   1.299   4.064   7.010 -0.6861 -1.4934 -0.9292
 6656SOL     OW31603   3.744   4.326   5.005 -0.2227  0.1963 -0.3807
 6656SOL    HW131604   3.781   4.248   4.965  0.9166  0.5201  0.0509
 6656SOL    HW231605   3.809   4.389   4.973  0.4029  0.5603  1.6414
 6657SOL     OW31606   4.512   3.850   7.927 -0.0518  0.5848 -0.2084
 6657SOL    HW131607   4.572   3.896   7.986 -0.3113 -0.7124  1.0528
 6657SOL    HW231608   4.442   3.916   7.927 -0.5266  0.0822  1.0827
 6658SOL     OW31609   0.602   1.683  14.680  0.4648  0.5357  0.1129
 6658SOL    HW131610   0.527   1.740  14.663  0.5361 -0.0873 -2.1980
 6658SOL    HW231611   0.574   1.596  14.711  0.9420  1.2957  2.7012
 6659SOL     OW31612   2.083   3.592   4.686 -0.2396 -0.4671 -0.7034
 6659SOL    HW131613   2.165   3.577   4.733 -0.1411  0.2909 -0.6463
 6659SOL    HW231614   2.130   3.636   4.615 -3.0082  1.7032 -1.1565
 6660SOL     OW31615   1.647   2.630   4.863 -0.1148 -0.5887 -0.1207
 6660SOL    HW131616   1.730   2.618   4.908 -1.2403 -1.7944  1.6064
 6660SOL    HW231617   1.674   2.597   4.777 -0.8182 -1.2263 -0.0923
 6661SOL     OW31618   1.889   0.562  16.845  0.6389 -0.1499  0.6831
 6661SOL    HW131619   1.828   0.488  16.846 -0.2505  0.5695 -0.0175
 6661SOL    HW231620   1.977   0.526  16.859  0.3799 -2.0726 -2.6357
 6662SOL     OW31621   0.325   2.960   5.217 -0.2422 -0.1319 -0.2689
 6662SOL    HW131622   0.381   2.884   5.206 -0.2844 -0.6787  3.2593
 6662SOL    HW231623   0.264   2.924   5.281  1.6552 -2.6175  0.1539
 6663SOL     OW31624   0.905   3.593   2.497  0.3596  0.0942  0.1313
 6663SOL    HW131625   0.971   3.558   2.556  0.1623  0.6480  0.6848
 6663SOL    HW231626   0.875   3.675   2.536 -0.4693  0.1794 -0.6588
 6664SOL     OW31627   4.035   1.449  12.455  0.2991  0.3442  0.6084
 6664SOL    HW131628   4.088   1.389  12.508  1.7607  0.7159 -0.4239
 6664SOL    HW231629   4.105   1.473  12.394 -1.9736  0.1726 -2.0594
 6665SOL     OW31630   0.297   3.130   3.074 -0.4365  0.0266 -0.5095
 6665SOL    HW131631   0.332   3.057   3.022 -1.3213 -1.8570  1.5139
 6665SOL    HW231632   0.258   3.187   3.008  0.3384  1.2495  0.0993
 6666SOL     OW31633   1.090   0.957   8.193  0.3572 -0.8180  0.6089
 6666SOL    HW131634   1.077   0.962   8.288 -0.3228  2.0259  0.3488
 6666SOL    HW231635   1.050   1.040   8.167  3.0380 -0.5665 -2.6962
 6667SOL     OW31636   3.842   3.305   2.627 -0.5626  0.7454  0.1627
 6667SOL    HW131637   3.897   3.363   2.574 -0.1737  1.5421  1.4374
 6667SOL    HW231638   3.755   3.340   2.606 -0.6368  0.1085 -0.6114
 6668SOL     OW31639   3.186   4.625   2.473 -0.0038  0.0969 -0.3851
 6668SOL    HW131640   3.193   4.555   2.408 -2.4589  1.4265 -2.0836
 6668SOL    HW231641   3.132   4.577   2.536  0.5141  0.5360  0.3940
 6669SOL     OW31642   0.298   4.511   4.014  0.2306 -0.7810 -0.5899
 6669SOL    HW131643   0.295   4.594   3.966 -0.1973 -0.6458 -0.3285
 6669SOL    HW231644   0.253   4.448   3.958 -0.8041  0.6271 -1.3553
 6670SOL     OW31645   2.606   1.475   1.071  0.0415  0.2183 -0.0750
 6670SOL    HW131646   2.574   1.421   0.999  1.1047  0.0739 -0.4337
 6670SOL    HW231647   2.673   1.523   1.023 -0.0075  1.1935  0.8472
 6671SOL     OW31648   4.149   4.160   5.345 -0.0471 -0.0444  0.2653
 6671SOL    HW131649   4.083   4.212   5.391  1.8880  1.2226  1.6428
 6671SOL    HW231650   4.148   4.084   5.404 -2.7113 -0.6650 -0.5876
 6672SOL     OW31651   2.948   2.049   1.860 -0.0347 -0.4147  0.2552
 6672SOL    HW131652   2.889   1.988   1.815 -1.7417  1.9874 -0.7468
 6672SOL    HW231653   2.893   2.124   1.881  1.8360  0.4100  2.2270
 6673SOL     OW31654   2.082   1.954   8.535  0.0590  0.0243 -0.0883
 6673SOL    HW131655   2.021   2.027   8.547 -0.3755 -0.6146  1.5878
 6673SOL    HW231656   2.147   1.987   8.472  1.2212  1.2493  1.7576
 6674SOL     OW31657   0.123   3.040   8.780 -0.0440  0.5143 -0.2349
 6674SOL    HW131658   0.216   3.055   8.797  0.0930  0.7948 -1.2344
 6674SOL    HW231659   0.138   2.982   8.704  1.2721 -0.8296  1.0569
 6675SOL     OW31660   3.106   3.691  12.150  0.4609  0.4211 -0.3813
 6675SOL    HW131661   3.166   3.753  12.191 -1.3751  1.0705  1.3542
 6675SOL    HW231662   3.116   3.613  12.205  1.5987  0.6476 -0.2834
 6676SOL     OW31663   3.389   1.778   9.194 -0.1019 -0.1007  0.0155
 6676SOL    HW131664   3.381   1.699   9.248  0.7727 -1.9343 -2.5733
 6676SOL    HW231665   3.299   1.804   9.174 -0.2851 -1.4013 -0.8184
 6677SOL     OW31666   2.519   3.865   7.838  0.1448 -0.2621  0.2060
 6677SOL    HW131667   2.457   3.814   7.785 -0.2770 -0.1622  0.6105
 6677SOL    HW231668   2.557   3.797   7.893 -0.2721  0.7083  1.6780
 6678SOL     OW31669   2.179   0.936   7.725 -0.2552  0.1256  0.5533
 6678SOL    HW131670   2.220   0.995   7.661 -1.1167 -0.2140 -0.3102
 6678SOL    HW231671   2.231   0.967   7.799 -0.8570 -1.3364  1.5687
 6679SOL     OW31672   2.444   0.614   5.410  0.3277 -0.1683 -0.0710
 6679SOL    HW131673   2.379   0.567   5.357 -1.5920  0.7752  1.4110
 6679SOL    HW231674   2.510   0.614   5.342  0.3708  0.5274 -0.0281
 6680SOL     OW31675   1.868   1.758   0.112 -0.0986  0.4900  0.1477
 6680SOL    HW131676   1.898   1.836   0.159  1.5570 -0.1719  0.1797
 6680SOL    HW231677   1.790   1.779   0.059 -0.9929  1.8358  2.0119
 6681SOL     OW31678   0.182   0.291  16.431  0.7082 -0.3141 -0.0905
 6681SOL    HW131679   0.180   0.366  16.372 -3.0595 -0.2534  0.1031
 6681SOL    HW231680   0.107   0.308  16.489  1.3245  0.7485  0.4030
 6682SOL     OW31681   3.602   2.781   3.681  0.1914 -0.1370  0.3282
 6682SOL    HW131682   3.509   2.767   3.662 -0.0588  0.8453  0.8355
 6682SOL    HW231683   3.594   2.875   3.668 -1.2048 -0.4837 -1.4479
 6683SOL     OW31684   2.971   1.142   3.061  0.0175 -0.7180  0.5801
 6683SOL    HW131685   2.891   1.127   3.111 -0.5713  0.7150  0.0588
 6683SOL    HW231686   3.036   1.121   3.128 -1.0109 -1.1297  1.4583
 6684SOL     OW31687   3.224   3.919   3.923 -0.2630 -0.0387 -0.5065
 6684SOL    HW131688   3.318   3.908   3.908 -0.5640 -2.9028 -0.2634
 6684SOL    HW231689   3.198   4.001   3.880 -0.0501 -0.0138 -0.5861
 6685SOL     OW31690   0.250   1.753   4.724 -0.2051 -0.3318 -0.3489
 6685SOL    HW131691   0.182   1.694   4.756 -0.8071  0.5419 -0.0138
 6685SOL    HW231692   0.243   1.722   4.634 -1.4034 -1.9244  0.2873
 6686SOL     OW31693   1.735   2.348   6.621 -0.4300  0.1605 -0.5081
 6686SOL    HW131694   1.682   2.381   6.693 -0.0475 -1.1215  0.3459
 6686SOL    HW231695   1.790   2.282   6.662  0.2936  1.5583  0.7489
 6687SOL     OW31696   2.241   0.083   5.334 -0.2143  0.2098  0.5496
 6687SOL    HW131697   2.212   0.167   5.371  0.7206  0.9723 -0.4462
 6687SOL    HW231698   2.335   0.101   5.325 -0.4441  0.4382 -1.4671
 6688SOL     OW31699   2.538   1.940   9.048  0.2055 -1.1222  0.0407
 6688SOL    HW131700   2.488   1.971   9.123 -0.7598  1.4147 -1.6591
 6688SOL    HW231701   2.610   1.893   9.089 -0.6655 -0.4833  2.2778
 6689SOL     OW31702   2.251   0.964   5.795  0.1534  0.4626  0.2704
 6689SOL    HW131703   2.314   0.983   5.725 -2.5733 -1.1129 -2.6242
 6689SOL    HW231704   2.209   0.879   5.778  1.0041  0.3017 -1.1154
 6690SOL     OW31705   0.538   3.901   6.728  0.5247 -0.5520  0.1414
 6690SOL    HW131706   0.527   3.979   6.674  2.1410  0.1575  0.8484
 6690SOL    HW231707   0.507   3.929   6.814  2.6716 -2.2385  1.4554
 6691SOL     OW31708   2.295   3.451   4.189 -0.4121 -0.1504  0.0760
 6691SOL    HW131709   2.272   3.409   4.272 -1.2551 -2.4276 -1.3290
 6691SOL    HW231710   2.373   3.402   4.166  0.2491  0.2159  1.5258
 6692SOL     OW31711   2.960   1.613   8.569  0.0282 -0.3891 -0.1876
 6692SOL    HW131712   2.939   1.631   8.478 -0.3972  0.8400  0.1483
 6692SOL    HW231713   3.048   1.580   8.550 -0.7231 -2.8279  0.5991
 6693SOL     OW31714   4.321   3.308   0.003 -0.5133 -0.6066 -0.1237
 6693SOL    HW131715   4.364   3.223  17.739  1.7742  0.7506 -1.4639
 6693SOL    HW231716   4.337   3.314   0.097 -1.0866 -1.8172  0.0614
 6694SOL     OW31717   3.532   2.975  12.041  0.0181 -0.4832 -0.2740
 6694SOL    HW131718   3.576   2.944  11.962 -0.1179 -1.0899 -0.1103
 6694SOL    HW231719   3.439   2.956  12.027  0.3756 -1.2126 -1.6564
 6695SOL     OW31720   2.343   4.092   4.571 -0.2270 -0.7321  0.3865
 6695SOL    HW131721   2.282   4.025   4.542 -0.4668 -0.4556  0.2545
 6695SOL    HW231722   2.415   4.032   4.590  1.1799  1.0198  0.5766
 6696SOL     OW31723   2.331   0.615  12.618 -0.1421 -0.4933  0.0103
 6696SOL    HW131724   2.257   0.664  12.654 -0.2010  1.3410 -2.5818
 6696SOL    HW231725   2.281   0.533  12.612 -1.1104  0.0051  1.2814
 6697SOL     OW31726   4.570   2.662   4.167  0.5253 -0.0902 -0.4272
 6697SOL    HW131727   4.600   2.599   4.232 -1.9622 -0.0330  0.7971
 6697SOL    HW231728   4.502   2.709   4.215  1.7745  1.8488 -0.5640
 6698SOL     OW31729   1.493   3.317   5.806 -0.6566  0.1258  0.2645
 6698SOL    HW131730   1.517   3.329   5.715  2.3144 -0.9819  0.9129
 6698SOL    HW231731   1.548   3.372   5.862 -0.4662 -0.0095  0.2086
 6699SOL     OW31732   3.139   3.494   5.357 -0.4685 -0.3555  0.1184
 6699SOL    HW131733   3.114   3.527   5.271 -0.7483 -0.7349  0.0570
 6699SOL    HW231734   3.089   3.549   5.418 -1.6509 -0.4599 -0.7707
 6700SOL     OW31735   3.584   0.315  15.309 -0.0712 -0.7668  0.3142
 6700SOL    HW131736   3.529   0.241  15.336 -0.9220  0.2334  1.3127
 6700SOL    HW231737   3.665   0.290  15.354  0.0210 -2.2383 -0.6763
 6701SOL     OW31738   1.825   3.460   6.361  0.1150  0.5719  0.6381
 6701SOL    HW131739   1.855   3.483   6.273 -3.2594  3.1290  0.1376
 6701SOL    HW231740   1.911   3.444   6.399  1.1794  1.4123 -1.4533
 6702SOL     OW31741   1.512   3.822   4.197 -0.8464 -0.2084  0.0763
 6702SOL    HW131742   1.570   3.754   4.232  0.8255  1.3494  0.2934
 6702SOL    HW231743   1.422   3.790   4.205 -0.5882 -1.5256 -2.2637
 6703SOL     OW31744   0.655   1.521   5.388  0.0272  0.1685  0.3549
 6703SOL    HW131745   0.563   1.505   5.369  0.2143  1.1197 -1.3864
 6703SOL    HW231746   0.678   1.442   5.437  0.5557  0.6247  0.8495
 6704SOL     OW31747   3.241   2.236  16.609  0.5996 -0.0820 -0.4094
 6704SOL    HW131748   3.268   2.196  16.691  1.3737  0.1598 -0.5510
 6704SOL    HW231749   3.215   2.150  16.576  0.7917 -0.4991  0.5433
 6705SOL     OW31750   3.429   4.256   0.833  0.4284  0.0059 -0.1704
 6705SOL    HW131751   3.507   4.216   0.796  1.1079 -1.5071  2.8592
 6705SOL    HW231752   3.461   4.242   0.922  1.1095  0.3091 -0.3686
 6706SOL     OW31753   2.432   2.831   1.946  0.0934 -0.0514  0.0858
 6706SOL    HW131754   2.505   2.772   1.969 -0.9470 -1.0710  0.7739
 6706SOL    HW231755   2.383   2.834   2.028  0.3247 -0.9924  0.2692
 6707SOL     OW31756   4.042   3.338   3.468 -0.1470  0.3803 -0.6531
 6707SOL    HW131757   3.964   3.284   3.478  0.5161 -0.4905 -0.2487
 6707SOL    HW231758   4.025   3.410   3.529 -1.2498  0.0275 -0.5404
 6708SOL     OW31759   1.655   0.568   9.596  0.1167  0.9954  0.2738
 6708SOL    HW131760   1.673   0.540   9.686 -0.1393  2.1645  0.6808
 6708SOL    HW231761   1.733   0.621   9.580  2.1062 -1.7859  0.6708
 6709SOL     OW31762   0.086   3.478   9.146  0.1878  1.0478 -0.8465
 6709SOL    HW131763   0.103   3.417   9.218 -0.3633  1.4382 -0.3883
 6709SOL    HW231764   0.157   3.542   9.153 -0.2265  1.4061  0.0442
 6710SOL     OW31765   1.609   1.154   5.108 -0.3270  0.6799 -0.0459
 6710SOL    HW131766   1.569   1.177   5.192  0.0341 -1.6828  0.7765
 6710SOL    HW231767   1.540   1.176   5.045  0.8117  0.5007 -1.3599
 6711SOL     OW31768   1.572   2.819   1.663 -0.1976  0.3285  0.2608
 6711SOL    HW131769   1.492   2.871   1.675 -0.8985 -0.2539 -1.9530
 6711SOL    HW231770   1.607   2.811   1.752  1.0598 -0.0237 -0.2733
 6712SOL     OW31771   4.142   0.614   4.995 -0.6206  0.2746  0.3086
 6712SOL    HW131772   4.214   0.620   5.057  1.4619  2.5306 -2.3261
 6712SOL    HW231773   4.112   0.705   4.983  0.6243  0.5673 -0.6078
 6713SOL     OW31774   1.318   4.525   5.721  0.7125  0.8944  0.5275
 6713SOL    HW131775   1.311   4.578   5.800 -2.4046 -0.8446  1.4151
 6713SOL    HW231776   1.277   4.585   5.659  0.8430  0.4505  0.0134
 6714SOL     OW31777   0.763   2.964   8.886 -0.0382  0.7707  0.4068
 6714SOL    HW131778   0.821   3.039   8.878 -3.3609  3.2003 -0.9863
 6714SOL    HW231779   0.803   2.927   8.964 -0.5453  1.2667  0.9018
 6715SOL     OW31780   4.411   2.402  16.848 -0.0682  0.1042 -0.0944
 6715SOL    HW131781   4.402   2.332  16.914  1.1295 -0.3001 -0.3580
 6715SOL    HW231782   4.481   2.359  16.799  1.0197  0.5025  1.0949
 6716SOL     OW31783   0.498   0.794   6.900 -0.1418 -0.2347 -0.3483
 6716SOL    HW131784   0.588   0.766   6.884  0.3552  0.6125  0.9643
 6716SOL    HW231785   0.494   0.860   6.831  1.9455 -0.0982 -0.3325
 6717SOL     OW31786   0.867   3.666   1.328 -0.5583 -0.4824 -0.4041
 6717SOL    HW131787   0.934   3.727   1.297 -1.0968 -1.0385 -2.6222
 6717SOL    HW231788   0.926   3.611   1.380  0.7827 -0.9089 -2.3837
 6718SOL     OW31789   4.114   3.775   2.940  0.3699  0.0662 -0.6914
 6718SOL    HW131790   4.204   3.792   2.911  0.2843  0.9607 -0.4428
 6718SOL    HW231791   4.085   3.867   2.933 -2.9972 -0.8125  1.6984
 6719SOL     OW31792   2.912   4.305   1.964 -0.5205  0.2622  0.2667
 6719SOL    HW131793   2.887   4.341   2.049 -4.0953  0.4488 -0.8431
 6719SOL    HW231794   2.896   4.385   1.913  1.1769 -0.2650 -1.0931
 6720SOL     OW31795   0.891   3.971   8.508  0.7358 -0.5025 -0.5140
 6720SOL    HW131796   0.837   4.046   8.484  0.8621 -0.1880  0.2024
 6720SOL    HW231797   0.828   3.899   8.515 -1.0842  1.2336  0.7331
 6721SOL     OW31798   4.664   1.697   2.494 -0.1513 -0.8576 -0.7606
 6721SOL    HW131799   0.010   1.737   2.518  0.0726 -1.4502 -0.5501
 6721SOL    HW231800   4.625   1.667   2.576 -0.5387  0.9807 -0.2865
 6722SOL     OW31801   1.285   1.694  16.830 -0.2060 -0.2275 -0.2180
 6722SOL    HW131802   1.233   1.696  16.911 -0.3852 -1.1580 -0.3071
 6722SOL    HW231803   1.363   1.655  16.870  0.2435  0.6887 -0.2069
 6723SOL     OW31804   1.762   0.799   1.982 -0.0767  0.5036  0.2197
 6723SOL    HW131805   1.770   0.704   1.992  1.7393  0.6322 -0.0527
 6723SOL    HW231806   1.681   0.796   1.930  0.4008  0.0872 -0.5074
 6724SOL     OW31807   4.616   2.657   5.797  0.2626  0.2000 -0.5212
 6724SOL    HW131808   4.665   2.638   5.876  0.3670  0.5083 -0.5136
 6724SOL    HW231809   4.541   2.682   5.850 -0.1332  0.6544 -1.2947
 6725SOL     OW31810   1.426   2.421  17.037 -0.0993  0.3013 -0.0620
 6725SOL    HW131811   1.407   2.401  16.945  0.4000  0.6856 -0.2520
 6725SOL    HW231812   1.339   2.448  17.065 -0.6345 -1.3599 -0.1502
 6726SOL     OW31813   3.526   4.167  17.218 -0.5711  0.9332 -0.2165
 6726SOL    HW131814   3.479   4.237  17.263  0.9216  1.8782 -0.1302
 6726SOL    HW231815   3.473   4.147  17.141 -0.4423 -0.0835 -0.0469
 6727SOL     OW31816   1.621   3.463   5.994  0.2683 -0.3582  0.2389
 6727SOL    HW131817   1.656   3.543   6.032  0.3486  0.0908 -0.7733
 6727SOL    HW231818   1.558   3.436   6.061  0.6130  0.3731  0.8551
 6728SOL     OW31819   2.750   2.259   7.165 -0.2603 -0.3756 -0.1282
 6728SOL    HW131820   2.774   2.170   7.193  1.2512  0.5739  1.5916
 6728SOL    HW231821   2.658   2.263   7.188 -0.0761  1.9703  0.2056
 6729SOL     OW31822   2.527   4.626  14.041 -0.0864  0.1814 -0.2120
 6729SOL    HW131823   2.467   4.552  14.040  1.2062 -0.8608 -1.0230
 6729SOL    HW231824   2.489   4.690  13.981  1.1248  1.4681  0.3791
 6730SOL     OW31825   0.239   1.526   8.527  0.2283  0.0325 -0.1544
 6730SOL    HW131826   0.161   1.550   8.477 -0.9911 -2.1312  0.7075
 6730SOL    HW231827   0.215   1.561   8.613  1.9902 -1.0643  0.7622
 6731SOL     OW31828   0.141   1.852  13.866  0.0887  0.4455 -0.6573
 6731SOL    HW131829   0.146   1.757  13.881  0.1720  0.1117 -2.9170
 6731SOL    HW231830   0.233   1.872  13.851  0.5369 -0.6966  0.4900
 6732SOL     OW31831   1.536   4.212   7.303 -0.4249 -0.5996 -0.3473
 6732SOL    HW131832   1.605   4.148   7.323  1.0292  1.6651  1.9350
 6732SOL    HW231833   1.553   4.228   7.210  0.1485  0.5687 -0.0483
 6733SOL     OW31834   4.067   1.451   0.913  0.5224 -0.2722  0.0651
 6733SOL    HW131835   4.120   1.428   0.837  1.0297  0.3591  0.2306
 6733SOL    HW231836   4.043   1.543   0.899  0.0708 -0.3776  0.1275
 6734SOL     OW31837   2.014   3.464   2.782 -0.3299 -0.1267  0.1366
 6734SOL    HW131838   2.010   3.458   2.687  2.4040  2.7845 -0.1679
 6734SOL    HW231839   1.977   3.381   2.813 -1.1318  0.2703  0.2493
 6735SOL     OW31840   3.865   3.756   4.591 -0.3306 -0.3201 -0.2541
 6735SOL    HW131841   3.882   3.832   4.536 -0.3287 -0.8055 -0.9232
 6735SOL    HW231842   3.936   3.758   4.655 -1.0572 -0.0828  0.5473
 6736SOL     OW31843   1.825   1.862   3.408  0.0733  0.0926  0.9108
 6736SOL    HW131844   1.747   1.846   3.355  1.1245  0.6359 -0.7964
 6736SOL    HW231845   1.787   1.903   3.486  0.6618 -1.2603  1.9130
 6737SOL     OW31846   4.709   1.811   5.629  0.1305 -0.3852 -0.4854
 6737SOL    HW131847   4.649   1.832   5.557  0.2641 -0.0905 -0.5104
 6737SOL    HW231848   4.715   1.899   5.665  0.9904 -0.8818  0.5701
 6738SOL     OW31849   3.554   4.723  14.984 -0.0174  0.1081 -0.2144
 6738SOL    HW131850   3.644   0.017  14.990 -0.0663  0.2951 -0.4555
 6738SOL    HW231851   3.564   4.645  14.928  0.4217  0.7502 -1.0351
 6739SOL     OW31852   1.354   0.413  12.922  0.5562  0.2643  0.0733
 6739SOL    HW131853   1.378   0.394  13.013 -0.5069  0.5913  0.4191
 6739SOL    HW231854   1.422   0.358  12.882 -0.5093  0.2992 -1.7616
 6740SOL     OW31855   0.549   4.359   2.691 -0.1132  0.1947  0.5437
 6740SOL    HW131856   0.503   4.326   2.768 -0.5773  3.0928  1.5116
 6740SOL    HW231857   0.596   4.278   2.673 -0.1905 -0.6124  3.8444
 6741SOL     OW31858   0.049   2.327   6.241 -0.1982 -0.4866  0.4834
 6741SOL    HW131859   4.694   2.345   6.228 -0.6000 -3.9039 -1.5796
 6741SOL    HW231860   0.051   2.242   6.197 -1.0355 -0.4142  0.3043
 6742SOL     OW31861   1.547   2.403   1.282 -0.1943 -0.4407 -0.4345
 6742SOL    HW131862   1.469   2.348   1.281 -0.3613 -0.2341  1.4768
 6742SOL    HW231863   1.610   2.334   1.261  1.0733  0.4933  0.2269
 6743SOL     OW31864   3.128   3.697   3.671 -0.1521  0.1796  0.3040
 6743SOL    HW131865   3.082   3.774   3.637  0.2191  0.2792  0.0168
 6743SOL    HW231866   3.216   3.735   3.681 -0.4585  0.9698  0.0220
 6744SOL     OW31867   0.922   0.785   6.734 -0.4128  0.0974  0.2918
 6744SOL    HW131868   0.910   0.841   6.657 -0.3190 -0.3306 -0.0345
 6744SOL    HW231869   0.912   0.854   6.800  2.2505 -0.9656  1.7851
 6745SOL     OW31870   3.163   0.250   4.478  0.1040  0.5011 -0.2919
 6745SOL    HW131871   3.203   0.218   4.397  0.4401 -0.5795  0.3012
 6745SOL    HW231872   3.228   0.317   4.498  0.5287  0.5475 -1.8056
 6746SOL     OW31873   3.512   4.560   3.181  0.7727  0.4071  1.0524
 6746SOL    HW131874   3.441   4.496   3.173 -1.1296  2.6534  0.2460
 6746SOL    HW231875   3.510   4.590   3.090 -1.2256 -0.9389  0.6427
 6747SOL     OW31876   0.337   3.156  12.626 -0.3766  0.3828  0.1721
 6747SOL    HW131877   0.413   3.142  12.682  0.9923  0.2362 -1.7515
 6747SOL    HW231878   0.370   3.228  12.573  0.2747 -0.4612 -0.5753
 6748SOL     OW31879   3.546   2.854   6.168  0.0763 -0.1467  0.4957
 6748SOL    HW131880   3.599   2.929   6.140 -1.9882  0.4892 -1.6639
 6748SOL    HW231881   3.620   2.797   6.192 -0.0889 -0.8659 -0.7136
 6749SOL     OW31882   2.890   4.282   9.658 -0.5916 -0.4315 -0.7326
 6749SOL    HW131883   2.898   4.375   9.682  0.3000 -0.6225 -0.2881
 6749SOL    HW231884   2.827   4.243   9.718  0.3325  0.5828  0.9257
 6750SOL     OW31885   3.442   2.790   7.812  0.0798  0.1619 -0.3985
 6750SOL    HW131886   3.531   2.781   7.776  0.3682 -1.8581  0.8726
 6750SOL    HW231887   3.393   2.771   7.732  0.2933 -0.7688 -0.3036
 6751SOL     OW31888   4.728   3.503   2.852 -0.4563 -0.1190 -0.1760
 6751SOL    HW131889   0.061   3.554   2.891 -0.0500 -0.7183 -0.1276
 6751SOL    HW231890   4.653   3.562   2.863  0.7656  1.5057 -0.5660
 6752SOL     OW31891   4.686   2.874   8.155  0.0562  0.4509 -0.5315
 6752SOL    HW131892   4.719   2.797   8.201  1.9079  0.3310 -2.0687
 6752SOL    HW231893   4.611   2.842   8.104  0.0674 -1.1091  0.4405
 6753SOL     OW31894   3.956   4.625   5.441 -0.1375  0.1838 -0.3501
 6753SOL    HW131895   3.978   4.715   5.417  3.2092 -0.4426  0.4050
 6753SOL    HW231896   3.987   4.581   5.362 -0.2593  0.3659 -0.4999
 6754SOL     OW31897   0.900   3.330   5.939  0.0496 -0.2813  0.1779
 6754SOL    HW131898   0.993   3.311   5.940 -0.1834 -1.4843 -0.4568
 6754SOL    HW231899   0.902   3.425   5.939 -3.2677 -0.1837 -0.0958
 6755SOL     OW31900   1.969   1.882   2.013 -0.2043 -0.7253  0.2600
 6755SOL    HW131901   1.937   1.870   1.924 -0.0740  0.9669 -0.0212
 6755SOL    HW231902   1.884   1.880   2.057 -0.3617 -1.2949 -0.0656
 6756SOL     OW31903   2.824   3.372   6.557 -0.1826  0.2710 -0.2026
 6756SOL    HW131904   2.762   3.319   6.606 -0.6109  0.2842 -0.7234
 6756SOL    HW231905   2.830   3.459   6.597  1.0412 -0.5096  1.3160
 6757SOL     OW31906   2.977   2.137   9.473 -0.0010 -0.3338  0.5748
 6757SOL    HW131907   3.000   2.061   9.420 -0.1144 -0.5198  0.7952
 6757SOL    HW231908   2.890   2.150   9.435  0.5886  2.0054  0.0421
 6758SOL     OW31909   3.323   0.510   1.608  0.3553 -0.0276 -0.0312
 6758SOL    HW131910   3.368   0.593   1.623 -0.0230  0.5878 -2.3966
 6758SOL    HW231911   3.238   0.529   1.649  0.6389  1.9180 -0.3917
 6759SOL     OW31912   1.974   1.108   4.630 -0.3365 -0.4902 -0.0344
 6759SOL    HW131913   2.023   1.054   4.567  1.7832  0.6902  0.5904
 6759SOL    HW231914   1.927   1.043   4.682  0.4528  0.8332  2.3489
 6760SOL     OW31915   1.965   1.367   1.336  0.7034  0.0351 -0.2545
 6760SOL    HW131916   2.037   1.378   1.274  0.3726  1.1925 -0.4452
 6760SOL    HW231917   1.913   1.305   1.285 -0.8405 -0.3256  1.7704
 6761SOL     OW31918   3.635   1.854   3.407  0.0281 -0.5818  0.0208
 6761SOL    HW131919   3.583   1.782   3.443 -2.5776  2.2528  1.8398
 6761SOL    HW231920   3.671   1.903   3.481  0.2980 -0.4319 -0.2103
 6762SOL     OW31921   3.196   4.222   4.358 -0.1691  0.0910 -0.0702
 6762SOL    HW131922   3.253   4.210   4.282 -0.1119 -0.2851  0.0320
 6762SOL    HW231923   3.211   4.314   4.378 -0.9680 -0.0516  1.1666
 6763SOL     OW31924   3.500   2.137   2.372  0.4308 -0.6297  0.2415
 6763SOL    HW131925   3.416   2.124   2.417  0.2692 -0.1002  0.0873
 6763SOL    HW231926   3.532   2.047   2.368  0.5678 -0.5884  0.3936
 6764SOL     OW31927   0.977   1.740   4.141 -0.0721  0.3906  0.1918
 6764SOL    HW131928   0.969   1.645   4.134  0.6224  0.4720 -1.6850
 6764SOL    HW231929   1.039   1.752   4.070 -0.8760  2.4534 -0.1583
 6765SOL     OW31930   4.570   0.830   6.459 -0.2073 -0.8563  0.3733
 6765SOL    HW131931   4.504   0.863   6.520 -0.3957  0.8459 -0.7519
 6765SOL    HW231932   4.536   0.740   6.455  1.5191 -1.4106 -2.0176
 6766SOL     OW31933   4.055   4.602   6.419 -0.2672 -0.3115  0.0398
 6766SOL    HW131934   3.980   4.650   6.383  0.3875 -1.5752 -2.9457
 6766SOL    HW231935   4.105   4.680   6.442  0.1163 -0.4769 -0.2435
 6767SOL     OW31936   1.749   2.243   1.234 -0.0977 -0.5113 -0.1118
 6767SOL    HW131937   1.792   2.164   1.266  0.2842 -0.1313  0.2982
 6767SOL    HW231938   1.802   2.316   1.264  0.1022 -0.5091 -0.4641
 6768SOL     OW31939   1.526   1.734   4.971 -0.0936  0.1706 -0.8447
 6768SOL    HW131940   1.452   1.774   4.926  1.4559  4.2178  0.2643
 6768SOL    HW231941   1.596   1.796   4.952  1.5852 -0.7580  2.2633
 6769SOL     OW31942   1.353   2.989  11.897  0.0889 -0.1599 -0.0912
 6769SOL    HW131943   1.427   2.941  11.860  1.7365  1.2079  1.4441
 6769SOL    HW231944   1.401   3.058  11.942 -0.8044  0.9779 -0.8865
 6770SOL     OW31945   3.479   3.816   4.540  0.4736  0.0365 -0.2292
 6770SOL    HW131946   3.391   3.802   4.576  0.0507  2.0454 -0.4637
 6770SOL    HW231947   3.535   3.866   4.599 -0.3751 -0.1521  0.7280
 6771SOL     OW31948   1.318   4.675   7.230  0.2563 -0.7518  0.7793
 6771SOL    HW131949   1.324   4.655   7.323  0.4798 -1.9784  0.5026
 6771SOL    HW231950   1.237   4.630   7.204 -0.1617 -0.7212  2.0344
 6772SOL     OW31951   2.344   0.494   9.651 -0.2139 -0.4746 -0.0779
 6772SOL    HW131952   2.401   0.421   9.625 -0.1719  0.0816 -1.5853
 6772SOL    HW231953   2.405   0.568   9.643  1.5420 -2.0828 -1.6407
 6773SOL     OW31954   4.139   0.835  15.825 -0.5926 -0.1753 -0.1816
 6773SOL    HW131955   4.216   0.866  15.873  1.3694 -2.2527 -2.0117
 6773SOL    HW231956   4.127   0.916  15.775  0.1316 -0.2566 -0.4870
 6774SOL     OW31957   0.990   4.160  10.558  0.3292  0.1632 -0.5973
 6774SOL    HW131958   1.050   4.091  10.530 -0.9075 -0.7309 -1.0325
 6774SOL    HW231959   0.910   4.110  10.574  0.0101  0.0803 -2.3893
 6775SOL     OW31960   1.458   4.431  17.048  0.6820  0.6405  0.2540
 6775SOL    HW131961   1.474   4.526  17.046 -1.2420  0.9688  0.0869
 6775SOL    HW231962   1.414   4.425  16.962 -2.7298  0.1501  2.0212
 6776SOL     OW31963   0.295   0.586   7.263  0.0285  0.5140 -0.3205
 6776SOL    HW131964   0.383   0.562   7.233  0.4585  0.4169  1.0186
 6776SOL    HW231965   0.317   0.610   7.353 -1.5819  0.2143  0.1602
 6777SOL     OW31966   0.593   4.180   5.550  0.3983 -0.7051  0.9313
 6777SOL    HW131967   0.585   4.247   5.481  0.5920 -1.8570 -0.2102
 6777SOL    HW231968   0.569   4.105   5.496  1.3086  0.1055 -0.5931
 6778SOL     OW31969   3.793   1.963  11.164  0.3483  0.2663 -0.1319
 6778SOL    HW131970   3.889   1.965  11.164  0.4013 -2.3394  0.8960
 6778SOL    HW231971   3.784   1.944  11.257  1.6324  0.0621 -0.0491
 6779SOL     OW31972   0.194   2.459   7.391  0.1956  0.2657  0.4741
 6779SOL    HW131973   0.150   2.419   7.316  2.1421 -0.3396 -0.3497
 6779SOL    HW231974   0.165   2.549   7.380  0.6725  0.6268  2.1915
 6780SOL     OW31975   0.472   2.207   8.793  0.7923 -0.5721 -0.5750
 6780SOL    HW131976   0.478   2.179   8.884 -0.5165  0.5056 -0.1532
 6780SOL    HW231977   0.423   2.289   8.805  0.2129 -0.5203 -3.3757
 6781SOL     OW31978   3.004   2.184  15.252  0.4685 -0.2145  0.0586
 6781SOL    HW131979   2.993   2.171  15.346 -0.3607 -1.1189 -0.1599
 6781SOL    HW231980   2.956   2.108  15.219 -0.3620  0.1231  0.4888
 6782SOL     OW31981   3.073   1.729   5.141 -0.3032  0.1722  0.0649
 6782SOL    HW131982   3.050   1.805   5.194  0.3834  0.0003  0.6089
 6782SOL    HW231983   2.992   1.679   5.145 -2.0140  2.9514  0.3128
 6783SOL     OW31984   3.976   0.953   2.512  0.0411  0.3398 -0.1614
 6783SOL    HW131985   4.026   0.873   2.499 -1.1200 -0.6829  1.6731
 6783SOL    HW231986   3.924   0.962   2.432 -0.7460 -0.8199  0.2188
 6784SOL     OW31987   0.941   0.193  11.546 -0.2166 -0.2406  0.3355
 6784SOL    HW131988   0.929   0.288  11.552 -3.0103 -0.5953 -0.0319
 6784SOL    HW231989   0.976   0.176  11.634  0.5914 -0.3104  0.0011
 6785SOL     OW31990   4.373   1.891   6.657 -0.0534 -0.0295 -0.5025
 6785SOL    HW131991   4.344   1.869   6.745 -0.7103 -0.6798 -0.8899
 6785SOL    HW231992   4.351   1.813   6.607  0.5932 -0.8968  0.5651
 6786SOL     OW31993   1.656   3.017   2.124  0.2208  0.1381  0.0445
 6786SOL    HW131994   1.615   3.096   2.089 -1.4676  0.0821  1.8711
 6786SOL    HW231995   1.606   3.015   2.205  2.1999 -1.6729  1.2154
 6787SOL     OW31996   4.507   4.239   7.426  0.5539 -0.2339  0.3866
 6787SOL    HW131997   4.426   4.197   7.453  0.8685  0.4494  2.3581
 6787SOL    HW231998   4.579   4.192   7.468 -0.5405 -1.0541  1.3170
 6788SOL     OW31999   3.834   2.515   8.266 -0.1620  0.1684 -0.2339
 6788SOL    HW132000   3.811   2.452   8.198 -0.4980  2.6628 -2.3991
 6788SOL    HW232001   3.787   2.592   8.234 -2.6085 -0.1772  2.4681
 6789SOL     OW32002   1.172   1.582  17.088  0.2329 -0.0302  0.6253
 6789SOL    HW132003   1.149   1.489  17.085  2.0684 -0.4221 -0.9422
 6789SOL    HW232004   1.195   1.589  17.181 -0.4185 -0.1613  0.7975
 6790SOL     OW32005   1.621   2.463   8.585  0.0172  0.0868  0.4842
 6790SOL    HW132006   1.535   2.425   8.604 -1.3919  2.1604 -1.7403
 6790SOL    HW232007   1.669   2.383   8.563  0.8350  0.8584 -0.5429
 6791SOL     OW32008   3.994   4.208   0.361  0.1681 -0.6332 -0.0057
 6791SOL    HW132009   3.990   4.186   0.453 -3.3739  0.8146  0.1846
 6791SOL    HW232010   4.027   4.298   0.354  1.0552 -0.8874  1.0421
 6792SOL     OW32011   0.640   0.980   8.008 -1.0806  0.0199  0.0189
 6792SOL    HW132012   0.638   1.050   8.073 -1.0411  0.7168 -0.7173
 6792SOL    HW232013   0.663   0.908   8.066 -0.4389 -0.8510 -1.3259
 6793SOL     OW32014   3.577   3.734   7.511 -0.0401  0.3182 -0.0334
 6793SOL    HW132015   3.566   3.802   7.577 -0.7044 -0.7072  0.9183
 6793SOL    HW232016   3.617   3.659   7.556 -1.3498  0.9853  2.2386
 6794SOL     OW32017   2.095   4.481   4.017  0.1561 -0.1029 -0.4681
 6794SOL    HW132018   2.066   4.431   4.093  1.8123 -0.0391  0.2059
 6794SOL    HW232019   2.188   4.457   4.020  0.3457  0.8806  1.6570
 6795SOL     OW32020   4.221   1.034   3.338 -0.1808 -0.3649 -0.3340
 6795SOL    HW132021   4.147   1.093   3.349  1.0350  1.6237 -2.9953
 6795SOL    HW232022   4.208   0.979   3.415  1.4339 -2.2147 -1.3766
 6796SOL     OW32023   1.280   4.385   4.774  0.3014  0.4713  0.1238
 6796SOL    HW132024   1.357   4.334   4.747  0.1961  0.8676 -0.9189
 6796SOL    HW232025   1.210   4.325   4.750  1.1785 -0.2318 -0.6839
 6797SOL     OW32026   4.489   1.729   8.564  0.2172 -0.3580  0.4553
 6797SOL    HW132027   4.401   1.713   8.530 -0.5596  0.7253  1.9578
 6797SOL    HW232028   4.480   1.813   8.608  2.6519 -0.3216  0.8517
 6798SOL     OW32029   4.358   1.352   9.538 -0.1218 -0.5054 -0.2008
 6798SOL    HW132030   4.358   1.442   9.569 -0.7696 -0.8988  0.9559
 6798SOL    HW232031   4.422   1.313   9.598 -0.3509 -0.8573 -0.1805
 6799SOL     OW32032   4.303   1.324   5.467 -0.6596  0.3494  0.1973
 6799SOL    HW132033   4.255   1.273   5.532  1.0121 -0.3967  0.8488
 6799SOL    HW232034   4.266   1.290   5.386  0.2293 -1.5216  0.5991
 6800SOL     OW32035   2.392   1.341   2.219  0.4640 -0.6944  0.1124
 6800SOL    HW132036   2.396   1.326   2.314  1.5605 -0.1404  0.1612
 6800SOL    HW232037   2.301   1.319   2.203  0.2581  0.3512 -0.1704
 6801SOL     OW32038   3.379   2.747   4.837  0.0912  0.1376 -0.6350
 6801SOL    HW132039   3.320   2.815   4.802  0.7829 -0.4148 -2.8797
 6801SOL    HW232040   3.315   2.676   4.836 -0.0163  0.2449 -1.2597
 6802SOL     OW32041   3.995   1.975  17.607 -0.1052  0.0873 -0.1333
 6802SOL    HW132042   4.069   1.981  17.667  0.6496 -2.3152 -0.8383
 6802SOL    HW232043   3.975   2.067  17.590 -0.4735 -0.2994 -1.8404
 6803SOL     OW32044   3.433   2.679   2.282 -0.0361  0.4823 -0.5985
 6803SOL    HW132045   3.516   2.701   2.326  0.3146  0.0311 -1.0268
 6803SOL    HW232046   3.375   2.679   2.358 -0.3019  0.6978 -0.8078
 6804SOL     OW32047   1.719   1.624   9.217 -0.1637 -0.4244  0.2382
 6804SOL    HW132048   1.783   1.681   9.175  0.1972  0.0599  1.4578
 6804SOL    HW232049   1.701   1.688   9.286  2.0969  0.3889  0.0597
 6805SOL     OW32050   3.005   2.076   3.563  0.1137  0.0663  0.4023
 6805SOL    HW132051   2.934   2.024   3.600 -0.2043  0.5606  0.4872
 6805SOL    HW232052   3.002   2.142   3.633 -0.0190  0.1427  0.3245
 6806SOL     OW32053   2.755   2.207   3.884 -0.3773  0.4483  0.1071
 6806SOL    HW132054   2.819   2.217   3.814  0.6061  1.5913  1.1974
 6806SOL    HW232055   2.725   2.119   3.860  0.0743  0.2632  0.2317
 6807SOL     OW32056   0.474   0.316   6.350 -0.0760 -0.4995  0.4591
 6807SOL    HW132057   0.506   0.393   6.398  2.0615 -0.9660 -0.2187
 6807SOL    HW232058   0.519   0.335   6.268 -2.3704 -0.8215 -0.8398
 6808SOL     OW32059   3.042   4.360   0.906  0.0596  0.2218 -0.6046
 6808SOL    HW132060   3.102   4.423   0.945 -0.7350  1.5987 -1.6219
 6808SOL    HW232061   3.040   4.401   0.819 -0.3395  1.0608 -0.1951
 6809SOL     OW32062   2.303   2.687   3.154 -0.0593  0.4050  0.1085
 6809SOL    HW132063   2.214   2.692   3.187  0.4263 -2.0292  1.8014
 6809SOL    HW232064   2.294   2.633   3.076 -0.0428 -0.7621  0.9202
 6810SOL     OW32065   3.206   1.940   3.418  0.0388 -0.1419  0.1726
 6810SOL    HW132066   3.211   1.995   3.340  0.4019 -0.6882 -0.1890
 6810SOL    HW232067   3.128   1.977   3.459 -1.1961 -0.4666 -1.9233
 6811SOL     OW32068   0.422   2.316   2.665 -0.5620  0.1980 -0.6469
 6811SOL    HW132069   0.425   2.221   2.661  0.6639  0.2047  0.0270
 6811SOL    HW232070   0.515   2.334   2.653 -0.8485  2.2731  0.0925
 6812SOL     OW32071   3.914   4.263   9.428 -0.0684 -0.1672  0.1587
 6812SOL    HW132072   3.969   4.189   9.450  0.7995  0.9088  1.5610
 6812SOL    HW232073   3.853   4.273   9.501  0.7656  2.9998  0.4236
 6813SOL     OW32074   1.899   2.188   1.726 -0.0854 -0.5304  0.1506
 6813SOL    HW132075   1.889   2.094   1.734  1.6278 -0.8516 -1.2583
 6813SOL    HW232076   1.858   2.208   1.642  0.0934 -0.0541  0.1739
 6814SOL     OW32077   0.039   2.781   0.291 -0.0898 -0.0691 -0.1057
 6814SOL    HW132078   0.102   2.811   0.225 -0.8772  0.4210 -0.6297
 6814SOL    HW232079   4.713   2.852   0.289 -0.4720 -0.4384 -1.2903
 6815SOL     OW32080   1.559   4.543   5.062  0.5579 -0.0594  0.3306
 6815SOL    HW132081   1.545   4.459   5.018 -1.1488 -0.3738  1.4639
 6815SOL    HW232082   1.477   4.537   5.110 -1.7053  0.3880 -3.4878
 6816SOL     OW32083   2.394   0.999   9.128  0.3341 -0.0617  0.6825
 6816SOL    HW132084   2.362   1.038   9.046  2.3424 -1.7664 -0.9302
 6816SOL    HW232085   2.472   0.951   9.100  0.9354  1.1286  0.2907
 6817SOL     OW32086   3.699   2.462  10.320 -0.1148 -0.1087  0.1588
 6817SOL    HW132087   3.709   2.443  10.413  0.7241 -1.1750 -0.1593
 6817SOL    HW232088   3.607   2.486  10.306 -0.9001 -2.1308  1.8898
 6818SOL     OW32089   1.148   2.111   2.322 -0.1104  0.2091 -0.0754
 6818SOL    HW132090   1.077   2.082   2.380 -1.5077 -0.7446 -2.2101
 6818SOL    HW232091   1.166   2.034   2.268 -0.7218 -0.5525  0.8065
 6819SOL     OW32092   3.648   3.193  10.801  0.2972 -0.7713 -0.1998
 6819SOL    HW132093   3.635   3.270  10.746 -1.8601 -0.7947  0.2966
 6819SOL    HW232094   3.713   3.223  10.865 -0.8815  2.6487 -0.6092
 6820SOL     OW32095   1.348   0.162   9.222  0.2076 -0.3716 -0.8219
 6820SOL    HW132096   1.354   0.128   9.311 -0.9244 -0.6506 -0.8542
 6820SOL    HW232097   1.281   0.109   9.179  0.1390 -1.4048  0.5438
 6821SOL     OW32098   1.967   1.307   5.546  0.2692  0.5851 -0.2867
 6821SOL    HW132099   1.923   1.269   5.622  3.2919  0.3885  1.3589
 6821SOL    HW232100   2.037   1.352   5.592 -0.6228  1.4828  0.1848
 6822SOL     OW32101   3.308   2.882   3.255 -0.5254  0.2588  0.6310
 6822SOL    HW132102   3.374   2.827   3.297 -0.3418  0.8789  1.1478
 6822SOL    HW232103   3.368   2.933   3.201  1.6340 -1.6011  1.2631
 6823SOL     OW32104   4.303   0.087   5.389  0.0963 -0.0218 -0.3874
 6823SOL    HW132105   4.355   0.112   5.466 -0.0613 -1.7924  0.2736
 6823SOL    HW232106   4.367   0.091   5.317 -1.0376  0.1623 -1.3811
 6824SOL     OW32107   4.217   2.084   2.060 -0.0822 -0.5500 -0.3717
 6824SOL    HW132108   4.301   2.041   2.075  0.2742  0.3332  0.1492
 6824SOL    HW232109   4.230   2.118   1.971  2.2033  3.0850  1.3398
 6825SOL     OW32110   0.927   2.328   4.918 -0.0533  0.3144 -0.1150
 6825SOL    HW132111   0.992   2.346   4.986  0.1553  2.1933 -0.7881
 6825SOL    HW232112   0.973   2.286   4.846  0.8513  1.1707 -0.0458
 6826SOL     OW32113   0.281   4.657   6.465 -0.0654  0.1716  0.2640
 6826SOL    HW132114   0.225   4.729   6.494 -0.4228  0.4972 -1.1901
 6826SOL    HW232115   0.231   4.614   6.396 -1.6536 -1.2850  2.3361
 6827SOL     OW32116   1.163   0.222  12.399  0.0893 -0.1069  0.5310
 6827SOL    HW132117   1.162   0.308  12.440 -2.2012  1.7676 -3.4392
 6827SOL    HW232118   1.226   0.175  12.454  2.6532 -1.4943 -3.5490
 6828SOL     OW32119   0.956   2.477   1.772 -0.3249  0.4566 -0.2957
 6828SOL    HW132120   1.016   2.550   1.784 -0.0620  0.4387 -1.5028
 6828SOL    HW232121   0.939   2.444   1.861  1.1530 -3.4675 -1.4580
 6829SOL     OW32122   0.531   1.047   4.779 -0.7045  0.0996 -0.0805
 6829SOL    HW132123   0.595   1.007   4.838 -0.1108  1.3845  0.1611
 6829SOL    HW232124   0.599   1.068   4.715  1.9337  0.8518  2.9836
 6830SOL     OW32125   0.245   0.584   4.121 -0.2977 -0.2944  0.3862
 6830SOL    HW132126   0.198   0.650   4.071 -3.0855 -0.8569  2.2486
 6830SOL    HW232127   0.279   0.528   4.051  0.7435 -1.5856  1.9124
 6831SOL     OW32128   1.527   4.474   8.284 -0.1824 -0.0762  0.2865
 6831SOL    HW132129   1.591   4.431   8.341  0.7443 -0.1407 -0.7869
 6831SOL    HW232130   1.525   4.564   8.316  0.1105  0.4473 -1.1857
 6832SOL     OW32131   4.606   0.320  10.240  0.6078 -0.2348  0.2151
 6832SOL    HW132132   4.542   0.369  10.188  2.3948  1.5685 -0.2730
 6832SOL    HW232133   4.585   0.347  10.329 -1.8814  0.0055 -0.4541
 6833SOL     OW32134   2.212   3.067   3.648  0.4459 -0.7151 -0.7966
 6833SOL    HW132135   2.155   3.112   3.585 -0.2071 -0.0699  0.2451
 6833SOL    HW232136   2.270   3.140   3.671 -2.0486  0.5016  1.6423
 6834SOL     OW32137   3.973   3.028   6.817 -0.0649  0.5315  0.2396
 6834SOL    HW132138   3.901   3.077   6.777 -0.7188 -1.2469 -0.7925
 6834SOL    HW232139   3.969   2.955   6.754 -2.3667 -0.7598  1.8633
 6835SOL     OW32140   4.631   4.580  10.185 -0.4764  0.1227  0.4406
 6835SOL    HW132141   4.659   4.515  10.249 -0.4959  0.1997  0.5265
 6835SOL    HW232142   4.598   4.521  10.117  0.9167 -1.1033  0.8234
 6836SOL     OW32143   3.905   0.348   0.484 -0.3866  0.3794  0.0440
 6836SOL    HW132144   3.883   0.260   0.513 -0.8982 -0.0314 -1.5673
 6836SOL    HW232145   3.818   0.388   0.486 -1.3234 -1.6232 -0.4552
 6837SOL     OW32146   0.397   4.470   6.126  0.7649 -0.4242  0.2062
 6837SOL    HW132147   0.421   4.542   6.068  0.2033 -0.1132  0.3646
 6837SOL    HW232148   0.402   4.389   6.075 -2.2390 -0.9672  0.8120
 6838SOL     OW32149   2.092   0.122   3.617 -0.4551 -0.2821  0.1289
 6838SOL    HW132150   2.022   0.057   3.605  1.9225 -2.6215 -1.0553
 6838SOL    HW232151   2.073   0.174   3.695  0.0106 -0.7389  0.5474
 6839SOL     OW32152   4.508   0.007   4.613  0.2757  0.0251  0.3805
 6839SOL    HW132153   4.443   0.066   4.651 -0.1350 -0.6628  0.7308
 6839SOL    HW232154   4.586   0.024   4.667 -2.1794  1.0346  3.5910
 6840SOL     OW32155   1.480   2.553   2.660  0.4720 -1.0201  0.2817
 6840SOL    HW132156   1.472   2.630   2.604  1.1601 -1.0519  0.1407
 6840SOL    HW232157   1.565   2.515   2.639  0.3258 -0.9517 -0.4330
 6841SOL     OW32158   0.991   3.808   1.822  0.0780  0.2748  0.2586
 6841SOL    HW132159   1.070   3.812   1.875  1.0741  0.2198 -1.2050
 6841SOL    HW232160   0.937   3.787   1.898 -1.0078  0.7935 -0.3539
 6842SOL     OW32161   0.410   0.666   9.931  0.2512  0.3682 -0.2781
 6842SOL    HW132162   0.352   0.686   9.858 -0.8035  1.8203  0.9763
 6842SOL    HW232163   0.363   0.592   9.969  1.5522 -0.2055  0.2295
 6843SOL     OW32164   2.519   1.702  10.760  0.1162 -0.4663  0.3742
 6843SOL    HW132165   2.561   1.617  10.745 -2.1660 -1.1644 -1.9901
 6843SOL    HW232166   2.478   1.681  10.843 -1.5804 -0.7308 -0.5334
 6844SOL     OW32167   0.036   1.019   2.414  0.6293 -0.1441 -0.2566
 6844SOL    HW132168   4.702   1.071   2.450  0.3035  1.6126 -3.5268
 6844SOL    HW232169   0.106   1.021   2.480  2.3998 -1.6934 -2.0864
 6845SOL     OW32170   0.318   1.009  15.869 -0.2423 -0.4811  0.0930
 6845SOL    HW132171   0.224   0.998  15.860 -0.0416 -1.4245 -0.8610
 6845SOL    HW232172   0.330   1.104  15.867  0.2292 -0.5290  0.8077
 6846SOL     OW32173   2.585   1.960  11.645 -0.5662 -0.0720  0.8310
 6846SOL    HW132174   2.663   2.004  11.678 -0.1215 -0.6413  0.5462
 6846SOL    HW232175   2.583   1.891  11.711  1.5724 -1.2586 -0.3453
 6847SOL     OW32176   4.554   0.999   4.575  0.2069  0.0466 -0.2263
 6847SOL    HW132177   4.476   1.006   4.630  0.5380  1.2915  0.0758
 6847SOL    HW232178   4.624   0.971   4.635 -1.1724 -1.7332  0.5748
 6848SOL     OW32179   3.022   4.468   3.185 -0.3901 -0.1516 -0.0225
 6848SOL    HW132180   3.060   4.549   3.219  1.6200 -0.8663 -0.5697
 6848SOL    HW232181   2.939   4.458   3.231 -0.2319  0.2729  0.3536
 6849SOL     OW32182   0.347   2.094  12.739 -1.0074 -0.2065 -0.0661
 6849SOL    HW132183   0.294   2.088  12.819 -2.1257  1.3150 -0.6843
 6849SOL    HW232184   0.379   2.005  12.728 -2.2166 -0.7083  0.3890
 6850SOL     OW32185   3.115   2.993  10.099  0.1584  0.6254 -0.4454
 6850SOL    HW132186   3.039   2.998  10.156  1.1059 -1.1671  0.9754
 6850SOL    HW232187   3.067   2.977  10.018 -3.0984 -1.3867  1.9209
 6851SOL     OW32188   4.260   4.560  14.508 -0.2142  0.1339 -0.4923
 6851SOL    HW132189   4.288   4.481  14.554  0.7608  0.5254 -0.3931
 6851SOL    HW232190   4.175   4.569  14.550 -0.2704  1.6442 -0.9298
 6852SOL     OW32191   3.959   0.982   3.475  0.7659 -0.3770  0.2712
 6852SOL    HW132192   3.966   0.950   3.565  2.7265 -0.8405 -0.0479
 6852SOL    HW232193   3.993   1.071   3.479  2.1909 -0.9419  0.6218
 6853SOL     OW32194   1.974   2.137   9.149 -0.0760 -0.1699  0.3751
 6853SOL    HW132195   2.037   2.170   9.213 -1.4057  0.4448  1.3677
 6853SOL    HW232196   2.032   2.094   9.086 -0.5681 -1.3613  0.7313
 6854SOL     OW32197   1.003   2.747   5.135  0.0116 -0.5259  0.6519
 6854SOL    HW132198   1.087   2.729   5.091  0.2743  1.1221  0.5057
 6854SOL    HW232199   0.992   2.674   5.196 -1.1721 -1.4819 -0.6999
 6855SOL     OW32200   2.672   2.415   5.118  0.3907  0.2247  0.2541
 6855SOL    HW132201   2.618   2.417   5.039  0.1936  0.5671  0.3972
 6855SOL    HW232202   2.708   2.503   5.123  1.6051 -0.3732  1.9185
 6856SOL     OW32203   3.603   4.563  15.965  0.5586 -0.1318  0.3578
 6856SOL    HW132204   3.511   4.578  15.944  0.7461  1.8300  0.9811
 6856SOL    HW232205   3.657   4.606  15.898  0.9352 -0.4727  0.4405
 6857SOL     OW32206   4.312   0.377   5.676  0.1565  0.1363  0.4472
 6857SOL    HW132207   4.361   0.337   5.747  1.8328  2.1171  0.3911
 6857SOL    HW232208   4.327   0.328   5.595 -1.3990  0.1027  0.1742
 6858SOL     OW32209   2.488   1.970   0.560 -0.5445 -0.2726  0.5555
 6858SOL    HW132210   2.463   1.962   0.468 -0.2888  0.2853  0.4379
 6858SOL    HW232211   2.515   2.061   0.566 -0.5777 -0.1952 -0.4462
 6859SOL     OW32212   1.690   0.819   6.696 -0.2625  0.0029 -0.3849
 6859SOL    HW132213   1.665   0.817   6.788  0.8580  0.4582 -0.0579
 6859SOL    HW232214   1.680   0.907   6.658 -1.3980 -0.5188 -1.2561
 6860SOL     OW32215   2.536   3.654   6.710 -0.8160 -0.0368 -0.5569
 6860SOL    HW132216   2.512   3.739   6.745  0.3674  0.6322 -1.3764
 6860SOL    HW232217   2.454   3.605   6.711  0.5074 -2.2403  1.2601
 6861SOL     OW32218   0.468   2.997  15.617  0.0544 -0.3946 -0.0528
 6861SOL    HW132219   0.548   3.049  15.624  1.2930 -2.2619 -0.5823
 6861SOL    HW232220   0.494   2.909  15.590 -2.4058 -1.3761  0.7470
 6862SOL     OW32221   4.678   4.379   5.775  0.2845 -0.0527  0.0901
 6862SOL    HW132222   4.645   4.397   5.687  0.6556  0.9318  0.1543
 6862SOL    HW232223   4.601   4.386   5.831  0.6354 -0.0735  0.5769
 6863SOL     OW32224   2.543   2.346   9.704  0.3266  0.0474 -0.2306
 6863SOL    HW132225   2.546   2.428   9.655 -0.5410  0.1898 -0.0470
 6863SOL    HW232226   2.449   2.342   9.724  0.1050 -0.5364 -1.3529
 6864SOL     OW32227   2.774   0.246  13.409 -0.0918 -0.1585 -0.4424
 6864SOL    HW132228   2.693   0.287  13.381  0.4250  0.0064 -1.6890
 6864SOL    HW232229   2.827   0.316  13.448 -0.6876  1.1182 -1.9106
 6865SOL     OW32230   0.462   0.316   1.954  0.6075 -0.1939  0.1023
 6865SOL    HW132231   0.373   0.332   1.923 -0.3750 -3.4059  1.2732
 6865SOL    HW232232   0.512   0.358   1.884  1.1596 -0.4944  0.3169
 6866SOL     OW32233   0.022   2.448  17.620 -0.3667  0.3628 -0.9186
 6866SOL    HW132234   4.720   2.410  17.542 -0.2212  0.9338 -1.2719
 6866SOL    HW232235   0.110   2.411  17.623 -0.8873 -0.7514  0.7454
 6867SOL     OW32236   1.593   2.399  13.818 -0.4675  0.1041 -0.0740
 6867SOL    HW132237   1.567   2.451  13.894 -3.0535 -1.4345  0.1095
 6867SOL    HW232238   1.511   2.368  13.778  0.5954 -2.4761 -0.2602
 6868SOL     OW32239   2.581   2.097   2.640  0.6153 -0.1215  0.4319
 6868SOL    HW132240   2.672   2.099   2.611  1.1912  0.1968  2.2563
 6868SOL    HW232241   2.560   2.009   2.607  0.5721  0.5287 -1.2410
 6869SOL     OW32242   3.718   0.772  16.695  0.8414 -0.4268  0.3143
 6869SOL    HW132243   3.762   0.816  16.622 -1.5875  2.1766  0.3827
 6869SOL    HW232244   3.666   0.703  16.653 -1.0057  1.3843 -0.3931
 6870SOL     OW32245   4.411   3.016   1.828  0.1014  0.0024 -0.2459
 6870SOL    HW132246   4.501   3.042   1.847 -0.2833 -0.0299  1.5696
 6870SOL    HW232247   4.360   3.092   1.801 -0.0691 -0.3092 -0.8094
 6871SOL     OW32248   3.732   1.084   1.070  0.4743 -0.3585  0.4792
 6871SOL    HW132249   3.661   1.149   1.073  0.0904 -0.8053  1.0967
 6871SOL    HW232250   3.756   1.106   0.980 -0.4198 -0.3526  0.2418
 6872SOL     OW32251   2.939   3.921   4.585  0.4054 -0.2779  0.1757
 6872SOL    HW132252   2.980   3.876   4.658  0.3871 -0.3006  0.1719
 6872SOL    HW232253   2.973   4.010   4.597  1.0845 -0.4155 -0.7721
 6873SOL     OW32254   3.517   1.421   3.747 -0.1215 -0.1207 -0.8287
 6873SOL    HW132255   3.424   1.441   3.749 -0.2936 -1.0422  0.1868
 6873SOL    HW232256   3.537   1.393   3.657  0.0268 -0.9267 -0.5462
 6874SOL     OW32257   0.211   2.876   2.828  0.5216  0.1280  0.5022
 6874SOL    HW132258   0.159   2.938   2.777  0.1375 -0.2393  0.4483
 6874SOL    HW232259   0.284   2.850   2.772  0.1718 -2.3082  1.1327
 6875SOL     OW32260   0.978   2.854   9.035  0.3097  0.2437  0.1765
 6875SOL    HW132261   1.053   2.897   8.995  0.7658 -1.0971 -0.4106
 6875SOL    HW232262   0.991   2.763   9.008 -0.3884  0.0367  0.5216
 6876SOL     OW32263   3.922   2.688   5.829 -0.1174 -0.4524  0.5855
 6876SOL    HW132264   3.957   2.631   5.897  1.5873  1.3314  1.2239
 6876SOL    HW232265   3.832   2.658   5.817  0.5439 -1.4122 -1.9569
 6877SOL     OW32266   0.029   2.304   7.534  0.3261  0.4583  0.4513
 6877SOL    HW132267   0.070   2.267   7.612  0.6207 -0.0656  0.0498
 6877SOL    HW232268   0.090   2.377   7.521  2.8447 -1.8169 -0.5984
 6878SOL     OW32269   0.940   2.608   6.187 -0.1017  0.7505  0.1608
 6878SOL    HW132270   0.972   2.584   6.100 -2.4433  0.9886 -0.7596
 6878SOL    HW232271   0.975   2.536   6.240 -3.5511 -1.0126  0.0027
 6879SOL     OW32272   0.975   1.936   8.405 -0.4071  0.7424 -0.8633
 6879SOL    HW132273   0.998   1.987   8.483 -0.7423 -1.6965  0.7989
 6879SOL    HW232274   0.899   1.885   8.434  1.2539 -0.7191  0.8046
 6880SOL     OW32275   2.536   4.314  16.137 -0.0809  0.3331 -0.6873
 6880SOL    HW132276   2.626   4.346  16.150 -0.1247  0.0493  0.2929
 6880SOL    HW232277   2.562   4.230  16.100 -2.6991 -1.5316  1.7310
 6881SOL     OW32278   0.026   3.753  11.537 -0.2105  0.3710  0.1349
 6881SOL    HW132279   4.705   3.764  11.463  1.6787 -0.5288 -1.5007
 6881SOL    HW232280   0.090   3.823  11.526 -0.4140  0.3063 -1.4730
 6882SOL     OW32281   1.161   1.333  17.155 -0.1786  0.4221 -0.1995
 6882SOL    HW132282   1.146   1.282  17.235  2.1703  0.1467  0.0626
 6882SOL    HW232283   1.104   1.287  17.093  0.2805 -0.4929  0.0561
 6883SOL     OW32284   0.678   4.333   3.629 -1.0843 -1.1963  0.3200
 6883SOL    HW132285   0.609   4.372   3.577 -0.4654 -3.5704 -2.2836
 6883SOL    HW232286   0.661   4.243   3.600  0.1402 -1.1603 -0.4893
 6884SOL     OW32287   2.240   2.836   7.149  0.0551  0.2590 -0.3113
 6884SOL    HW132288   2.164   2.842   7.208 -0.1179  2.0133 -0.7045
 6884SOL    HW232289   2.300   2.901   7.185  0.6996 -0.8507  0.6196
 6885SOL     OW32290   3.525   3.682   5.857 -0.3530 -0.0225  0.1243
 6885SOL    HW132291   3.496   3.760   5.810 -2.4066 -0.0849  1.2447
 6885SOL    HW232292   3.466   3.686   5.933 -0.0055  0.4163  0.3735
 6886SOL     OW32293   3.210   0.638   2.691  0.1508  0.0338 -0.3598
 6886SOL    HW132294   3.116   0.620   2.696 -0.1785  1.1644 -2.6938
 6886SOL    HW232295   3.214   0.717   2.638 -0.9515 -0.1969 -0.7730
 6887SOL     OW32296   2.086   1.538   9.880 -0.0681  0.3799  0.4465
 6887SOL    HW132297   2.148   1.507   9.945  1.8436 -1.3354 -2.2226
 6887SOL    HW232298   2.024   1.585   9.937  2.0745 -0.1390  3.1941
 6888SOL     OW32299   3.464   2.519   3.532 -0.4661  0.5971 -0.2897
 6888SOL    HW132300   3.526   2.577   3.489  2.3239 -0.0714  2.8261
 6888SOL    HW232301   3.398   2.585   3.555 -0.7481 -0.5934  2.2624
 6889SOL     OW32302   4.413   2.264   2.967 -0.0686  0.4249 -0.2855
 6889SOL    HW132303   4.406   2.336   2.903 -2.5272  1.3685  1.0399
 6889SOL    HW232304   4.318   2.256   2.976  0.2590 -0.8325  2.0414
 6890SOL     OW32305   0.886   2.902  11.815  0.1756 -0.2604 -0.3851
 6890SOL    HW132306   0.829   2.882  11.889  0.0809 -0.2718 -0.4614
 6890SOL    HW232307   0.931   2.981  11.846  1.8974 -0.8285 -1.3957
 6891SOL     OW32308   4.689   3.780   2.942  1.0044  0.7826 -0.0954
 6891SOL    HW132309   0.025   3.813   2.992 -0.8452 -0.4608  3.4347
 6891SOL    HW232310   4.635   3.740   3.010  0.7595 -1.3366 -1.5379
 6892SOL     OW32311   3.869   2.987  11.260 -0.2267 -0.5795  0.0403
 6892SOL    HW132312   3.944   2.956  11.210 -0.2904 -0.6607 -0.0053
 6892SOL    HW232313   3.798   2.957  11.202  0.0150 -0.2110 -0.4484
 6893SOL     OW32314   3.997   3.001  11.968  0.5656 -0.1224 -0.7212
 6893SOL    HW132315   3.971   3.010  11.877 -1.9094 -0.5918 -0.0596
 6893SOL    HW232316   4.085   2.964  11.964  0.4827 -0.4281  0.2344
 6894SOL     OW32317   1.260   1.449   2.091 -0.2937  0.6745 -0.1442
 6894SOL    HW132318   1.247   1.432   1.998  2.9629  0.4249 -0.5643
 6894SOL    HW232319   1.323   1.379   2.107 -0.1915  0.7173 -0.3549
 6895SOL     OW32320   1.465   4.213   4.709  0.0407  0.2508 -0.1589
 6895SOL    HW132321   1.553   4.197   4.675  0.0147  0.2830 -0.2401
 6895SOL    HW232322   1.430   4.124   4.717  2.0756 -0.6731 -1.6390
 6896SOL     OW32323   2.649   0.715   6.445 -0.0485 -0.4330 -0.0452
 6896SOL    HW132324   2.623   0.807   6.433  0.9265 -0.0463  0.7354
 6896SOL    HW232325   2.627   0.696   6.536  2.3344 -1.1550  0.3879
 6897SOL     OW32326   2.749   1.163  10.838 -0.1455 -0.4437 -0.2914
 6897SOL    HW132327   2.686   1.177  10.908 -0.8863  1.5283 -1.3606
 6897SOL    HW232328   2.838   1.150  10.870 -0.3251  1.4704  0.9982
 6898SOL     OW32329   3.345   3.165  10.011 -0.2887 -0.5688 -0.4585
 6898SOL    HW132330   3.282   3.105  10.051 -2.0771  1.4888 -0.2201
 6898SOL    HW232331   3.363   3.112   9.933 -0.6905  1.1888 -1.7513
 6899SOL     OW32332   1.608   2.848  11.000  0.0963  0.0072  0.0696
 6899SOL    HW132333   1.684   2.790  10.995 -2.4999 -3.3159 -0.5509
 6899SOL    HW232334   1.621   2.875  11.091  1.2669  0.5487 -0.2605
 6900SOL     OW32335   3.473   0.983  17.499 -0.2146  0.0223 -0.3579
 6900SOL    HW132336   3.400   0.923  17.487  0.1421  0.0475 -2.6150
 6900SOL    HW232337   3.471   1.048  17.429  0.5460  2.1667  1.5690
 6901SOL     OW32338   4.637   0.725   9.187  0.6951  0.2595  0.2867
 6901SOL    HW132339   4.680   0.754   9.106 -1.3821  2.2851 -0.0865
 6901SOL    HW232340   4.672   0.637   9.198  1.1346  0.1979 -1.5619
 6902SOL     OW32341   2.395   3.161  15.813 -0.0316 -0.2399  0.0199
 6902SOL    HW132342   2.414   3.151  15.719  1.3277 -1.7051  0.4335
 6902SOL    HW232343   2.313   3.208  15.803  0.8755  1.9980  3.1658
 6903SOL     OW32344   2.869   1.552  15.615 -0.3593  0.6470 -0.3641
 6903SOL    HW132345   2.918   1.517  15.690 -1.1014  1.1116  0.3407
 6903SOL    HW232346   2.885   1.644  15.636 -0.1247  0.5970 -0.3263
 6904SOL     OW32347   1.332   1.800  16.602 -0.1510 -0.3250 -0.5060
 6904SOL    HW132348   1.409   1.749  16.576  0.1527 -1.0498  1.8405
 6904SOL    HW232349   1.301   1.750  16.678  1.3381 -1.4181 -0.6161
 6905SOL     OW32350   0.635   2.015  14.576  0.1931  0.6421  0.5742
 6905SOL    HW132351   0.613   2.102  14.610  0.0031  1.2450 -1.0888
 6905SOL    HW232352   0.555   1.977  14.540  0.0283  0.9804  0.5801
 6906SOL     OW32353   3.713   1.455  10.324 -0.1794  0.4604 -0.0613
 6906SOL    HW132354   3.670   1.421  10.403  0.8605 -0.3400  0.1634
 6906SOL    HW232355   3.738   1.541  10.357  0.2556  0.4826 -0.4528
 6907SOL     OW32356   4.659   1.799   4.827 -0.0394 -0.5179  0.3720
 6907SOL    HW132357   4.569   1.769   4.830 -0.0498 -0.4186  0.9423
 6907SOL    HW232358   4.696   1.741   4.760  0.0391  1.0178 -0.9071
 6908SOL     OW32359   4.342   3.221   6.861 -0.0893  0.0701  0.0897
 6908SOL    HW132360   4.273   3.163   6.894 -0.9164  0.5160 -0.8477
 6908SOL    HW232361   4.352   3.285   6.931 -0.7993 -0.5693  0.7803
 6909SOL     OW32362   1.539   0.046   5.845 -0.6640  0.2933 -0.0942
 6909SOL    HW132363   1.602   4.718   5.817 -1.4647 -0.0575 -1.0699
 6909SOL    HW232364   1.461   0.027   5.794 -0.6614 -0.2982  0.1311
 6910SOL     OW32365   2.681   3.358   9.903  0.0122  0.0234 -0.0218
 6910SOL    HW132366   2.587   3.373   9.910 -0.1157 -0.9724  0.5828
 6910SOL    HW232367   2.695   3.333   9.995 -0.2036 -1.3435 -0.3626
 6911SOL     OW32368   2.135   0.237  10.194  0.2038 -0.3189  0.1917
 6911SOL    HW132369   2.075   0.181  10.243  1.2214  0.6850  2.5664
 6911SOL    HW232370   2.221   0.226  10.233  0.4293 -0.0213 -0.2093
 6912SOL     OW32371   0.781   0.363   6.246  0.2754 -0.3260 -0.1272
 6912SOL    HW132372   0.784   0.272   6.215 -4.1557 -0.8881  1.0009
 6912SOL    HW232373   0.792   0.348   6.340 -0.3048 -0.8696 -0.1422
 6913SOL     OW32374   0.919   3.542   6.429  0.0623  0.2535  0.7615
 6913SOL    HW132375   0.937   3.635   6.443  0.8678 -0.1125  2.2520
 6913SOL    HW232376   0.974   3.506   6.499 -1.8046 -2.5080  0.8045
 6914SOL     OW32377   1.342   1.511   3.309  0.7157  0.7747 -0.1474
 6914SOL    HW132378   1.367   1.458   3.385  2.1357  1.3957 -0.1821
 6914SOL    HW232379   1.413   1.498   3.246  0.0825  0.0707 -0.7250
 6915SOL     OW32380   0.360   1.836   8.850  0.1077 -0.5327  0.4057
 6915SOL    HW132381   0.448   1.843   8.886  0.6958  1.5738 -1.4018
 6915SOL    HW232382   0.309   1.911   8.882 -0.3216 -1.2039  1.2876
 6916SOL     OW32383   0.785   0.607   9.115 -0.5217 -0.3831  0.2718
 6916SOL    HW132384   0.702   0.560   9.115 -0.7098 -0.0431 -0.3304
 6916SOL    HW232385   0.844   0.536   9.141 -1.0939 -0.2337  2.0304
 6917SOL     OW32386   2.885   0.002   8.213 -0.5521  0.1394 -0.1775
 6917SOL    HW132387   2.830   4.711   8.140  0.1496 -1.8421  0.0801
 6917SOL    HW232388   2.813   4.735   8.276 -0.9046  0.5318 -0.5488
 6918SOL     OW32389   1.286   0.421   2.804  0.0387  0.3163  0.2828
 6918SOL    HW132390   1.372   0.451   2.836  0.3125 -2.1422  1.8296
 6918SOL    HW232391   1.227   0.472   2.859 -1.2446 -1.1187  0.2067
 6919SOL     OW32392   2.964   3.649   5.516  0.0453  0.0403  0.3339
 6919SOL    HW132393   2.936   3.740   5.519 -0.9998 -0.3544  2.6855
 6919SOL    HW232394   2.888   3.611   5.559 -0.5963  2.0661  0.9756
 6920SOL     OW32395   4.376   4.064   5.899 -0.8254  0.1365  0.0424
 6920SOL    HW132396   4.345   4.136   5.954 -2.4573 -0.9140  0.5010
 6920SOL    HW232397   4.333   3.984   5.930 -0.0514  0.9183  3.1125
 6921SOL     OW32398   3.819   2.769   3.844  0.1708 -0.4011 -0.1564
 6921SOL    HW132399   3.734   2.770   3.800 -0.6898  1.1492  1.5303
 6921SOL    HW232400   3.825   2.859   3.875 -1.0636  0.0100 -1.1110
 6922SOL     OW32401   2.896   2.491   8.897  0.2349  0.4501 -0.7355
 6922SOL    HW132402   2.900   2.402   8.931  2.6232  1.5797  1.9470
 6922SOL    HW232403   2.981   2.492   8.853  0.0490 -0.2531 -1.1030
 6923SOL     OW32404   2.877   3.881   3.304 -0.0836  0.1488 -0.1050
 6923SOL    HW132405   2.962   3.912   3.274  0.4764 -1.0329  0.2791
 6923SOL    HW232406   2.847   3.861   3.216 -0.7229 -1.0061  0.3714
 6924SOL     OW32407   2.429   1.632   9.448 -0.1916  0.2896 -0.1102
 6924SOL    HW132408   2.395   1.690   9.516 -0.5565  1.3978 -1.2528
 6924SOL    HW232409   2.374   1.554   9.451  1.4425 -0.7757  2.6219
 6925SOL     OW32410   0.972   0.493   6.109 -0.1770  0.2301  0.1997
 6925SOL    HW132411   0.900   0.466   6.167 -0.8338  0.0757 -0.6818
 6925SOL    HW232412   0.933   0.505   6.022  0.2935  0.6801  0.0520
 6926SOL     OW32413   2.092   3.069  13.035  0.0506 -0.7916 -0.1765
 6926SOL    HW132414   2.147   3.038  13.107  0.9526  1.9624  0.3204
 6926SOL    HW232415   2.027   2.999  13.034  0.4579 -1.1403 -2.0438
 6927SOL     OW32416   2.116   4.678   5.036 -0.2122  0.0989  0.0824
 6927SOL    HW132417   2.099   0.033   5.052 -1.2594  0.0871 -0.9350
 6927SOL    HW232418   2.096   4.650   5.126 -0.7622  2.6322  0.7375
 6928SOL     OW32419   1.236   2.017   6.332 -0.2841 -0.3583 -0.5782
 6928SOL    HW132420   1.160   1.970   6.296  0.3329 -2.1147  0.3953
 6928SOL    HW232421   1.216   2.104   6.298  1.3033  0.3893  0.4314
 6929SOL     OW32422   1.417   0.569  11.769 -0.2790  0.2026 -0.0840
 6929SOL    HW132423   1.420   0.662  11.744  1.7381 -0.2489 -1.4915
 6929SOL    HW232424   1.332   0.564  11.814  0.2481  2.0619  1.1201
 6930SOL     OW32425   4.321   2.233  17.500  0.2552  0.6358  0.2933
 6930SOL    HW132426   4.388   2.243  17.433 -1.7296 -1.6601 -2.0240
 6930SOL    HW232427   4.252   2.292  17.469 -0.8311 -0.5152  0.5096
 6931SOL     OW32428   4.712   3.666   5.712  1.2540 -0.3012 -0.0939
 6931SOL    HW132429   4.707   3.632   5.801 -1.6486 -1.2833 -0.6269
 6931SOL    HW232430   4.662   3.748   5.718  1.7797  0.0593 -0.5671
 6932SOL     OW32431   2.511   0.014   6.645 -0.0720 -0.5395 -0.1831
 6932SOL    HW132432   2.553   0.085   6.597 -0.1363 -1.5349 -1.7171
 6932SOL    HW232433   2.453   0.054   6.710  0.4408  0.2646 -0.2252
 6933SOL     OW32434   2.767   1.256  12.969  0.4548 -0.6550  0.4131
 6933SOL    HW132435   2.740   1.347  12.956  1.1418 -0.4761  0.2704
 6933SOL    HW232436   2.709   1.227  13.040 -0.9568 -1.6759 -1.1737
 6934SOL     OW32437   3.222   2.488   3.200 -0.1644  0.0302  0.7603
 6934SOL    HW132438   3.127   2.477   3.194 -0.2391  0.3702  1.3227
 6934SOL    HW232439   3.227   2.514   3.292  1.1599  2.9194 -0.1286
 6935SOL     OW32440   4.580   1.888  16.135  0.3239  0.5660 -0.0677
 6935SOL    HW132441   4.551   1.952  16.200  1.4855  0.2654  0.7315
 6935SOL    HW232442   4.555   1.802  16.167 -2.4121  0.9583 -1.1207
 6936SOL     OW32443   2.606   0.241   2.994  0.0020  0.4746  0.0903
 6936SOL    HW132444   2.552   0.248   2.916 -0.1567  0.0827  0.1632
 6936SOL    HW232445   2.617   0.333   3.016  3.3654  0.3472 -1.0156
 6937SOL     OW32446   1.937   3.125   4.773  1.0668  0.2380 -0.9140
 6937SOL    HW132447   1.893   3.070   4.837  0.9489 -0.3081 -1.4693
 6937SOL    HW232448   1.962   3.204   4.822 -1.0310  0.9018 -0.9375
 6938SOL     OW32449   1.900   4.232  13.857 -0.3414  0.2686  0.3983
 6938SOL    HW132450   1.874   4.145  13.827  1.8772  0.5319 -2.2569
 6938SOL    HW232451   1.812   4.257  13.885  0.1202  0.9778  1.2350
 6939SOL     OW32452   0.869   4.669  10.931  0.0279 -0.5860  0.2048
 6939SOL    HW132453   0.913   4.589  10.962  3.5203  1.1213 -0.3587
 6939SOL    HW232454   0.929   4.678  10.858  0.6077  3.1955  1.1802
 6940SOL     OW32455   1.136   2.965  15.663 -0.8269  0.0406 -0.3147
 6940SOL    HW132456   1.172   2.934  15.580  0.5882 -1.0329  0.7038
 6940SOL    HW232457   1.174   2.899  15.720  2.1850 -0.5398 -2.9820
 6941SOL     OW32458   2.709   3.550   1.909 -0.2098  0.5490  0.1457
 6941SOL    HW132459   2.775   3.614   1.935  0.3816 -0.1770  0.4459
 6941SOL    HW232460   2.655   3.608   1.856 -0.7077 -0.9827 -1.0452
 6942SOL     OW32461   1.342   2.762  11.016  1.0475  0.3997  0.2405
 6942SOL    HW132462   1.437   2.773  11.015  1.0609  0.3703  1.1100
 6942SOL    HW232463   1.332   2.719  11.100 -0.7444 -0.1592 -0.2628
 6943SOL     OW32464   3.773   3.992  17.701  0.6076  0.0795 -0.9753
 6943SOL    HW132465   3.852   3.982  17.648  0.4500  0.7194 -1.3354
 6943SOL    HW232466   3.720   4.040  17.637  1.5995  2.2563 -0.1669
 6944SOL     OW32467   1.450   1.193   5.893 -0.1107  0.1481  0.0456
 6944SOL    HW132468   1.425   1.269   5.946  1.7609 -0.5249  1.8970
 6944SOL    HW232469   1.495   1.230   5.817 -2.1720  1.2644 -0.6358
 6945SOL     OW32470   0.038   3.605   5.297 -0.5511  0.3590  0.2266
 6945SOL    HW132471   4.711   3.627   5.364  0.3266  3.0501  0.1809
 6945SOL    HW232472   0.054   3.512   5.316 -0.1922  0.3565 -0.0690
 6946SOL     OW32473   1.633   1.613   3.483 -0.4090  0.0080 -0.1577
 6946SOL    HW132474   1.607   1.537   3.431 -1.0590 -0.6150  1.0785
 6946SOL    HW232475   1.614   1.682   3.420 -0.9406 -0.7613 -0.8392
 6947SOL     OW32476   3.236   0.890  14.464 -0.7844  0.0064 -0.0452
 6947SOL    HW132477   3.307   0.920  14.521  1.2658  0.4997 -2.8599
 6947SOL    HW232478   3.158   0.936  14.496 -0.0209 -0.4594  2.4898
 6948SOL     OW32479   1.441   0.660   4.391  0.8752 -0.1602 -0.5716
 6948SOL    HW132480   1.356   0.704   4.394  0.5045 -0.9522  0.4610
 6948SOL    HW232481   1.464   0.689   4.303  1.5028  0.2846 -0.2544
 6949SOL     OW32482   3.423   1.960   3.602  0.3562 -0.1831 -0.9297
 6949SOL    HW132483   3.399   1.999   3.519 -2.3279  0.1735  0.0318
 6949SOL    HW232484   3.337   1.951   3.643  0.9715 -3.0523 -0.2623
 6950SOL     OW32485   3.182   3.104   2.835  0.1071 -0.0986 -0.2006
 6950SOL    HW132486   3.160   3.175   2.775  1.2170 -1.0422 -1.7234
 6950SOL    HW232487   3.276   3.088   2.821 -0.0603 -0.9551 -0.3284
 6951SOL     OW32488   2.906   0.368   8.535  0.3599 -0.0786 -0.2179
 6951SOL    HW132489   2.947   0.386   8.619 -2.4692 -0.2106  1.1608
 6951SOL    HW232490   2.888   0.454   8.499  0.4006  0.2561  0.5802
 6952SOL     OW32491   1.103   2.323  17.209  0.0032 -0.2907 -0.4665
 6952SOL    HW132492   1.064   2.410  17.197  0.0375 -0.1383  0.5060
 6952SOL    HW232493   1.075   2.291  17.295 -2.9584 -1.3409 -1.8297
 6953SOL     OW32494   1.812   2.564   9.162 -0.3157  0.1125 -0.1926
 6953SOL    HW132495   1.829   2.606   9.078 -0.2066  1.7295  0.6498
 6953SOL    HW232496   1.809   2.470   9.141 -2.0092 -0.0380  0.7336
 6954SOL     OW32497   3.195   0.570  14.451 -0.1220  0.4378  0.2735
 6954SOL    HW132498   3.202   0.661  14.478  0.0470  0.2987  0.7062
 6954SOL    HW232499   3.179   0.529  14.536  0.7410 -2.5179 -0.9929
 6955SOL     OW32500   4.214   4.397   5.671 -1.0817  0.0084  0.3099
 6955SOL    HW132501   4.165   4.468   5.712  0.9829  0.2924  2.3262
 6955SOL    HW232502   4.164   4.320   5.696 -0.4390 -0.5749 -0.2081
 6956SOL     OW32503   4.136   2.871   9.189  0.5851 -0.0097 -0.0896
 6956SOL    HW132504   4.064   2.935   9.182  0.5441  0.1287  1.6308
 6956SOL    HW232505   4.085   2.791   9.202  1.1766 -0.2872  0.5196
 6957SOL     OW32506   0.230   3.625   6.362  0.1483 -0.5545  0.1677
 6957SOL    HW132507   0.237   3.564   6.435 -0.9169 -0.8010  0.0641
 6957SOL    HW232508   0.316   3.667   6.359  1.0214 -2.2858  1.1777
 6958SOL     OW32509   0.176   1.566  14.845 -0.0833  0.2748  0.2176
 6958SOL    HW132510   0.231   1.632  14.889  0.4777 -0.1865  0.2108
 6958SOL    HW232511   0.245   1.504  14.819 -0.9612  0.7203 -3.2049
 6959SOL     OW32512   4.555   4.678  11.943 -0.6347  0.2389 -0.1252
 6959SOL    HW132513   4.487   4.737  11.976  1.0228  1.6924  0.7471
 6959SOL    HW232514   4.604   4.651  12.021  0.1149  0.4149 -0.5364
 6960SOL     OW32515   2.445   1.083   2.967  0.1219  0.2468  0.1163
 6960SOL    HW132516   2.409   1.099   2.880  1.7514 -1.5398 -0.8906
 6960SOL    HW232517   2.479   0.994   2.954  0.7032  0.7358 -1.6625
 6961SOL     OW32518   3.974   4.098   0.637  0.0137  0.1335 -0.1360
 6961SOL    HW132519   4.034   4.094   0.711  2.3075 -1.2191 -2.0513
 6961SOL    HW232520   3.931   4.012   0.645  1.4650 -0.8996 -3.2978
 6962SOL     OW32521   2.315   1.759   5.135 -0.1234 -0.1454  0.1805
 6962SOL    HW132522   2.236   1.808   5.114  1.0276  1.0437 -1.3882
 6962SOL    HW232523   2.294   1.725   5.223 -1.4477  0.2850  0.0308
 6963SOL     OW32524   3.937   2.027   7.894  0.6264  0.3944  0.2043
 6963SOL    HW132525   3.934   1.975   7.814 -1.5247 -1.0961  1.2638
 6963SOL    HW232526   3.868   1.994   7.952  1.8509 -0.9362  0.9050
 6964SOL     OW32527   3.252   4.492   8.517 -0.6785 -0.0417 -0.3017
 6964SOL    HW132528   3.293   4.562   8.467  0.8890 -0.4554  0.3832
 6964SOL    HW232529   3.188   4.452   8.458  0.0732 -1.1363 -0.3829
 6965SOL     OW32530   2.423   3.300   3.967  0.1306 -0.5186  0.0142
 6965SOL    HW132531   2.393   3.298   3.876 -0.2792  0.1148  0.1354
 6965SOL    HW232532   2.378   3.226   4.009 -0.5012 -1.0514 -1.5798
 6966SOL     OW32533   0.150   2.384  13.024  0.1422 -0.1888 -0.2677
 6966SOL    HW132534   0.205   2.462  13.033 -0.0158 -0.1521  0.3369
 6966SOL    HW232535   0.105   2.384  13.108  1.0777  2.0487  0.2293
 6967SOL     OW32536   3.614   3.344   4.513  0.1319 -0.0868 -0.2936
 6967SOL    HW132537   3.629   3.256   4.547  1.0252  0.6540  1.1934
 6967SOL    HW232538   3.706   3.360   4.493  0.5119 -0.1179  1.4474
 6968SOL     OW32539   1.046   2.849   3.160  0.2024  0.3539  0.1781
 6968SOL    HW132540   1.072   2.760   3.185 -1.4266 -0.6556 -1.7199
 6968SOL    HW232541   1.125   2.866   3.109 -0.5483  0.6529 -0.8649
 6969SOL     OW32542   0.860   1.556  16.683  0.5992 -0.2024  0.1713
 6969SOL    HW132543   0.913   1.630  16.715  3.0429 -0.9140 -2.2778
 6969SOL    HW232544   0.932   1.515  16.635  1.5011  2.0220 -0.3819
 6970SOL     OW32545   0.317   1.029   7.621 -0.2123  0.2208  0.3197
 6970SOL    HW132546   0.355   0.989   7.543 -0.5675  0.9023 -0.2122
 6970SOL    HW232547   0.267   0.954   7.651  1.4043 -1.2622 -0.7053
 6971SOL     OW32548   0.566   1.177   8.438 -0.0471  0.1441  0.2098
 6971SOL    HW132549   0.633   1.243   8.453 -0.1120  0.0746  0.8068
 6971SOL    HW232550   0.502   1.187   8.508  0.4995  0.4204  0.6579
 6972SOL     OW32551   2.471   2.188   4.647 -0.3197 -0.8712  0.1898
 6972SOL    HW132552   2.423   2.106   4.656 -1.6373 -0.0435  0.5730
 6972SOL    HW232553   2.541   2.161   4.587 -1.1828 -1.6983 -0.4379
 6973SOL     OW32554   0.578   1.101   6.171 -0.4457  0.3925  0.1621
 6973SOL    HW132555   0.557   1.023   6.120  2.2736 -0.7238  0.7541
 6973SOL    HW232556   0.611   1.166   6.108  0.3643  0.0859  0.2604
 6974SOL     OW32557   2.101   2.508  17.215  0.4144  0.4188  0.3255
 6974SOL    HW132558   2.008   2.485  17.213  0.2875  0.8313  1.5463
 6974SOL    HW232559   2.104   2.598  17.183 -0.9358 -0.6796 -2.8783
 6975SOL     OW32560   1.009   2.392  15.505  0.0010  0.1359  0.2585
 6975SOL    HW132561   0.957   2.350  15.436 -1.5995  2.0154  0.3109
 6975SOL    HW232562   1.097   2.359  15.486  0.6295  2.7935 -1.6449
 6976SOL     OW32563   0.265   3.690   9.440 -0.3339 -0.2356 -0.0418
 6976SOL    HW132564   0.354   3.720   9.459 -1.1870  1.5071  1.2270
 6976SOL    HW232565   0.291   3.616   9.386 -0.2261 -1.2394  1.3918
 6977SOL     OW32566   3.481   4.592  12.198 -0.0148  0.3409 -0.3607
 6977SOL    HW132567   3.410   4.656  12.190  0.9680  1.4634 -0.1545
 6977SOL    HW232568   3.474   4.551  12.112 -0.7776  1.4380 -0.8282
 6978SOL     OW32569   1.457   2.506   0.073 -0.0292  0.6139 -0.4606
 6978SOL    HW132570   1.502   2.591   0.076 -0.9343  1.0342  1.3856
 6978SOL    HW232571   1.454   2.503  17.725 -0.0071 -0.2566 -0.4297
 6979SOL     OW32572   2.450   0.285   4.847 -0.0014  0.1614 -0.2897
 6979SOL    HW132573   2.412   0.364   4.810  0.0954 -0.1149 -0.9745
 6979SOL    HW232574   2.404   0.214   4.802  0.4327  0.5694 -1.3853
 6980SOL     OW32575   0.405   3.732   0.446 -0.0177  0.4025  0.4326
 6980SOL    HW132576   0.351   3.665   0.406  1.5568  1.1839 -2.9730
 6980SOL    HW232577   0.463   3.682   0.504 -0.5427  1.7076  2.1151
 6981SOL     OW32578   1.013   0.802   0.839  0.1273  0.1322 -0.7564
 6981SOL    HW132579   1.093   0.783   0.888 -0.8361 -4.6252 -1.1024
 6981SOL    HW232580   0.957   0.777   0.912  0.6741 -0.5063 -0.5547
 6982SOL     OW32581   1.706   1.767   2.915  0.1636  0.1494 -0.3678
 6982SOL    HW132582   1.651   1.805   2.983  0.1278  0.5870 -0.6380
 6982SOL    HW232583   1.707   1.839   2.851  0.0934  0.0330 -0.5018
 6983SOL     OW32584   0.468   1.367   5.587  0.7170  0.0181 -0.0396
 6983SOL    HW132585   0.400   1.429   5.561  1.2519  0.1459 -1.1647
 6983SOL    HW232586   0.423   1.326   5.660 -1.6259  1.7864 -0.5101
 6984SOL     OW32587   1.438   0.283   8.923  0.0758 -0.2533  0.3750
 6984SOL    HW132588   1.502   0.255   8.988  1.5700 -0.6674 -1.2516
 6984SOL    HW232589   1.488   0.312   8.847 -1.1826 -0.2085 -0.4424
 6985SOL     OW32590   0.818   2.087   5.081 -0.8366 -0.3383 -0.0465
 6985SOL    HW132591   0.831   2.152   5.013  0.8765 -1.7361 -1.0557
 6985SOL    HW232592   0.808   2.005   5.033 -0.2549 -0.0299 -0.6857
 6986SOL     OW32593   2.018   2.694   8.649 -0.2194  0.3240 -0.5536
 6986SOL    HW132594   1.955   2.664   8.715  1.1056 -2.3842 -0.5113
 6986SOL    HW232595   2.056   2.769   8.694 -1.9878  0.2507  1.0699
 6987SOL     OW32596   3.366   0.386  16.844  0.1673  0.5106  0.2480
 6987SOL    HW132597   3.321   0.419  16.766 -1.9536 -2.0545  0.3625
 6987SOL    HW232598   3.456   0.405  16.818  0.2687 -0.5682 -0.1947
 6988SOL     OW32599   0.005   0.329  16.618  0.0941  0.1809 -0.3779
 6988SOL    HW132600   4.700   0.399  16.569 -0.0266  0.8536  0.6690
 6988SOL    HW232601   4.675   0.264  16.634  0.3673  0.5399  2.3464
 6989SOL     OW32602   1.926   0.373  16.120 -0.2594 -1.1241 -0.3475
 6989SOL    HW132603   1.969   0.299  16.078 -0.9455 -1.9364  0.4011
 6989SOL    HW232604   2.004   0.421  16.150 -0.2642 -1.1797 -0.2454
 6990SOL     OW32605   1.293   3.123   9.098 -0.8957  0.3187 -0.2873
 6990SOL    HW132606   1.298   3.181   9.022 -1.0780 -0.3759 -0.8276
 6990SOL    HW232607   1.204   3.135   9.132 -0.9784 -0.7791 -0.1178
 6991SOL     OW32608   4.388   1.464   5.776 -0.4116  0.2122  0.2141
 6991SOL    HW132609   4.305   1.418   5.763 -0.8343  0.4616  1.9538
 6991SOL    HW232610   4.361   1.553   5.800 -1.8121 -0.6582  1.8902
 6992SOL     OW32611   3.706   4.486   8.989  0.2500  0.0448 -0.3130
 6992SOL    HW132612   3.659   4.527   9.062  0.5746  0.5025 -0.3600
 6992SOL    HW232613   3.753   4.417   9.035 -0.5423  0.9705  1.8746
 6993SOL     OW32614   0.412   4.570   8.150  0.3347 -0.0131 -0.1810
 6993SOL    HW132615   0.497   4.529   8.167  0.3526  0.6009  1.2018
 6993SOL    HW232616   0.361   4.529   8.220 -2.1237  0.3376 -1.7493
 6994SOL     OW32617   4.559   1.536   3.444 -0.1114 -0.5957  0.1422
 6994SOL    HW132618   4.651   1.548   3.470  0.2902 -2.1293 -0.6014
 6994SOL    HW232619   4.569   1.584   3.362  2.1427 -1.1757  0.0592
 6995SOL     OW32620   3.062   4.651   4.336  0.3518 -0.0562  0.2955
 6995SOL    HW132621   3.084   4.726   4.391 -2.1347  1.9532 -1.3961
 6995SOL    HW232622   3.006   4.595   4.389  0.1055  0.1622  0.2646
 6996SOL     OW32623   2.510   3.261  11.389  0.0083 -0.0247 -0.0545
 6996SOL    HW132624   2.576   3.326  11.415  1.0039 -0.4031 -1.6979
 6996SOL    HW232625   2.431   3.299  11.428 -0.6801  2.1111 -3.5004
 6997SOL     OW32626   2.155   1.852  12.210 -0.8150 -0.0443  0.9554
 6997SOL    HW132627   2.162   1.944  12.232  0.3669  0.0686  0.1437
 6997SOL    HW232628   2.141   1.857  12.115  1.6371 -1.7045  0.4922
 6998SOL     OW32629   0.824   4.156   0.467  0.6070 -0.4841  0.0865
 6998SOL    HW132630   0.776   4.162   0.550 -0.0124  0.5586 -0.3472
 6998SOL    HW232631   0.840   4.062   0.477  1.8389 -0.4166 -1.2531
 6999SOL     OW32632   1.770   1.384   8.145 -0.0138  0.4440 -0.3758
 6999SOL    HW132633   1.820   1.465   8.139 -1.9535  1.7332  0.6222
 6999SOL    HW232634   1.762   1.375   8.240 -0.2610 -1.1985 -0.5579
 7000SOL     OW32635   4.425   1.317   4.937  0.3361 -0.3586  0.3752
 7000SOL    HW132636   4.509   1.318   4.982  1.0892 -1.6190 -0.9898
 7000SOL    HW232637   4.440   1.370   4.859 -2.3660  1.4681  1.0995
 7001SOL     OW32638   2.531   1.303  14.333  0.3359 -0.5917 -0.6756
 7001SOL    HW132639   2.504   1.318  14.242  1.3150 -0.1696 -0.8977
 7001SOL    HW232640   2.492   1.216  14.343  0.1712 -0.7845 -2.9847
 7002SOL     OW32641   3.900   0.007   7.556 -0.6188  0.1567 -0.2534
 7002SOL    HW132642   3.851   0.021   7.475 -3.4475  1.0348  1.6157
 7002SOL    HW232643   3.961   0.079   7.538 -0.4045 -0.0927 -0.5114
 7003SOL     OW32644   2.567   2.809   3.851 -0.2107  0.4680  0.5093
 7003SOL    HW132645   2.552   2.716   3.834  0.8212  0.1494  1.3199
 7003SOL    HW232646   2.482   2.838   3.819  0.5394  1.8359 -0.2098
 7004SOL     OW32647   1.630   1.925   0.416 -0.2938  0.0648  0.4370
 7004SOL    HW132648   1.726   1.922   0.419 -0.4026 -1.3140  2.2493
 7004SOL    HW232649   1.602   1.988   0.350  1.3730  0.2376 -0.1222
 7005SOL     OW32650   2.933   0.154  12.842  0.1013 -0.2112 -0.2867
 7005SOL    HW132651   2.949   0.143  12.748  0.0348 -1.9866 -0.0924
 7005SOL    HW232652   2.974   0.076  12.880 -0.4340 -0.1139  0.4883
 7006SOL     OW32653   2.162   2.874   8.940 -0.8288 -0.3170  0.1376
 7006SOL    HW132654   2.203   2.936   9.000  0.9107 -2.2164  0.9017
 7006SOL    HW232655   2.070   2.892   8.956 -1.3531 -1.8313 -1.1403
 7007SOL     OW32656   2.586   3.255   3.400  0.3635 -0.4707  0.3953
 7007SOL    HW132657   2.558   3.169   3.432 -2.7115  0.0304 -0.9638
 7007SOL    HW232658   2.662   3.236   3.344  1.1469 -0.2865  1.3897
 7008SOL     OW32659   3.307   1.364   2.923 -1.0947 -0.1817 -0.2379
 7008SOL    HW132660   3.376   1.323   2.872 -0.0417  1.0484  0.1916
 7008SOL    HW232661   3.225   1.328   2.889  0.9693 -2.1815 -3.0261
 7009SOL     OW32662   0.815   0.185  10.860  0.1971 -0.2505 -0.4093
 7009SOL    HW132663   0.783   0.173  10.771  0.9228 -1.3513 -0.5271
 7009SOL    HW232664   0.818   0.096  10.895 -1.3771 -0.0900  0.1534
 7010SOL     OW32665   1.481   1.235   7.081 -0.1475  0.2293 -0.3647
 7010SOL    HW132666   1.416   1.274   7.140  1.2820  1.2456  0.5522
 7010SOL    HW232667   1.433   1.256   7.002  0.4821  3.1867  0.0305
 7011SOL     OW32668   4.628   3.556   6.285 -0.3672 -0.1799 -0.3917
 7011SOL    HW132669   4.672   3.485   6.332 -0.3769  1.1414  1.5844
 7011SOL    HW232670   4.659   3.637   6.325 -1.7913  0.2907 -0.2749
 7012SOL     OW32671   2.663   0.890   1.497 -0.3009  0.2924 -0.4571
 7012SOL    HW132672   2.678   0.984   1.504  1.9370  0.0770 -2.1605
 7012SOL    HW232673   2.689   0.874   1.406 -1.5000 -1.2939 -0.5277
 7013SOL     OW32674   0.462   3.664   3.813  0.4939 -0.1411 -0.0495
 7013SOL    HW132675   0.533   3.703   3.864  1.6155 -2.8568  0.4977
 7013SOL    HW232676   0.439   3.735   3.752  1.5504  0.4682  0.2552
 7014SOL     OW32677   3.750   1.848   0.736 -0.0107 -0.4848 -0.6673
 7014SOL    HW132678   3.693   1.867   0.662  0.1806  1.5446 -0.2863
 7014SOL    HW232679   3.758   1.937   0.771 -0.9249 -0.9196  0.6429
 7015SOL     OW32680   0.256   1.972  11.354 -0.4674 -0.3577 -0.3912
 7015SOL    HW132681   0.344   1.966  11.392 -0.5844  1.3022  0.1408
 7015SOL    HW232682   0.235   1.886  11.318  1.4663 -0.7703 -0.5797
 7016SOL     OW32683   4.543   3.131  15.252 -0.3378  0.2006 -0.0693
 7016SOL    HW132684   4.551   3.201  15.187 -1.1321 -0.0009 -0.3859
 7016SOL    HW232685   4.452   3.148  15.274  0.3465  0.8582  2.2457
 7017SOL     OW32686   0.941   4.017  16.825  0.1312 -0.4144 -0.7426
 7017SOL    HW132687   0.868   4.000  16.765 -0.4093  3.3156 -1.1458
 7017SOL    HW232688   1.016   3.975  16.785  1.5560  1.6441 -0.2520
 7018SOL     OW32689   4.024   2.677  12.039  0.0204  0.4094  0.3841
 7018SOL    HW132690   4.041   2.761  12.081 -0.1547  0.5761  0.1283
 7018SOL    HW232691   4.095   2.677  11.975 -2.3632 -0.0723 -2.2665
 7019SOL     OW32692   0.261   2.870   8.340 -0.5708  0.0331 -0.6445
 7019SOL    HW132693   0.203   2.799   8.313 -0.7175 -0.6559  1.4493
 7019SOL    HW232694   0.344   2.838   8.306  0.8506  0.5965  2.2590
 7020SOL     OW32695   3.727   4.560   0.580  0.3004 -0.5328 -0.2886
 7020SOL    HW132696   3.675   4.537   0.503 -0.5169 -1.1250  0.4420
 7020SOL    HW232697   3.769   4.475   0.599  0.7584  0.2038  1.9845
 7021SOL     OW32698   1.666   0.726   1.606 -0.1740 -0.5560 -0.6509
 7021SOL    HW132699   1.663   0.799   1.544  1.4274  1.3630  1.5392
 7021SOL    HW232700   1.754   0.738   1.641  0.4659  0.7961 -2.6891
 7022SOL     OW32701   1.287   0.237   5.870 -0.3904  0.2012 -0.0618
 7022SOL    HW132702   1.361   0.291   5.899 -1.0669  1.0037  0.1838
 7022SOL    HW232703   1.270   0.206   5.959  0.7672 -0.3888 -0.0452
 7023SOL     OW32704   3.113   0.572   3.826 -0.6499 -0.6563  0.0037
 7023SOL    HW132705   3.078   0.576   3.915  1.9515 -1.4858  1.0874
 7023SOL    HW232706   3.181   0.640   3.827 -3.9949  2.6645 -0.4928
 7024SOL     OW32707   0.868   3.812   2.076  0.1077  0.6455  0.0815
 7024SOL    HW132708   0.849   3.753   2.149  1.0892  0.7029  0.3848
 7024SOL    HW232709   0.928   3.868   2.126 -0.7660  3.2229 -1.7531
 7025SOL     OW32710   1.445   3.457   2.768 -0.3588 -0.2142 -0.0839
 7025SOL    HW132711   1.482   3.530   2.719  1.1219  0.2716  1.7741
 7025SOL    HW232712   1.501   3.383   2.741  0.9698  0.3933  1.0456
 7026SOL     OW32713   3.051   0.729  12.205  0.5762 -0.2614 -0.2778
 7026SOL    HW132714   3.117   0.687  12.150 -1.2720 -1.6915 -1.4274
 7026SOL    HW232715   3.038   0.663  12.273 -0.5881 -0.1802 -0.4284
 7027SOL     OW32716   1.439   3.381   4.710 -0.2697 -0.2312 -0.0700
 7027SOL    HW132717   1.468   3.459   4.662 -1.3496  1.2278  1.6438
 7027SOL    HW232718   1.392   3.322   4.651  0.3728 -0.1517 -0.6709
 7028SOL     OW32719   1.496   2.119   4.599 -0.0163  0.0134  0.0995
 7028SOL    HW132720   1.511   2.082   4.686 -0.0600 -1.0986 -0.3687
 7028SOL    HW232721   1.534   2.048   4.548 -1.0552  0.9040 -1.8949
 7029SOL     OW32722   0.810   2.808   9.253 -0.3697  0.6397  0.0967
 7029SOL    HW132723   0.873   2.804   9.181 -3.2247 -1.0633 -2.2577
 7029SOL    HW232724   0.823   2.900   9.279  0.9731  0.7825 -1.0986
 7030SOL     OW32725   1.631   4.226   0.128 -0.0706  0.2823  0.3771
 7030SOL    HW132726   1.617   4.282   0.204 -0.8142 -0.5320  0.8432
 7030SOL    HW232727   1.704   4.173   0.159  0.7825 -0.0319 -2.1723
 7031SOL     OW32728   0.022   2.813   4.012 -0.1720  0.0675  0.3090
 7031SOL    HW132729   4.681   2.762   4.030  0.0240 -0.6909 -0.9774
 7031SOL    HW232730   0.042   2.844   4.100 -0.5609 -0.6654  0.6450
 7032SOL     OW32731   0.851   0.549   4.497  0.3928  0.3033  0.0305
 7032SOL    HW132732   0.836   0.538   4.403 -0.2596  1.9392 -0.0502
 7032SOL    HW232733   0.869   0.457   4.515 -0.4454 -0.1196 -1.3161
 7033SOL     OW32734   3.224   3.203  16.651  0.0766  0.0463 -0.0475
 7033SOL    HW132735   3.315   3.196  16.679 -0.2986  1.1750  1.5157
 7033SOL    HW232736   3.186   3.160  16.728  1.5328  0.3900  0.8637
 7034SOL     OW32737   1.625   3.398  14.110  0.1602  0.5080  0.1309
 7034SOL    HW132738   1.530   3.387  14.103 -0.1398  2.5432  0.9877
 7034SOL    HW232739   1.646   3.459  14.040  1.4297  1.6780  1.5335
 7035SOL     OW32740   2.325   3.254  10.989 -0.0273 -0.3168 -0.3426
 7035SOL    HW132741   2.272   3.329  10.962 -0.9840  0.0949  2.7347
 7035SOL    HW232742   2.358   3.229  10.903  2.1078 -2.0131  0.9758
 7036SOL     OW32743   1.594   2.094   3.059 -0.1770 -0.2952  0.3724
 7036SOL    HW132744   1.669   2.109   3.117  1.0074 -3.4273 -0.3270
 7036SOL    HW232745   1.563   2.182   3.037 -0.0413 -0.3508 -0.0308
 7037SOL     OW32746   3.299   2.272   6.249 -0.1492 -0.1330 -0.0957
 7037SOL    HW132747   3.342   2.346   6.205 -0.8326 -0.8240 -1.8935
 7037SOL    HW232748   3.247   2.318   6.315 -0.4464 -0.9826  0.2577
 7038SOL     OW32749   1.172   2.367   4.170 -0.2588 -0.0663 -0.5828
 7038SOL    HW132750   1.077   2.361   4.163 -0.1924  0.5179 -2.0960
 7038SOL    HW232751   1.180   2.302   4.240  1.2298  2.0062  1.1820
 7039SOL     OW32752   1.375   1.823  11.739  0.3064  0.3080  0.2636
 7039SOL    HW132753   1.413   1.735  11.734  0.8348  0.4272  2.0609
 7039SOL    HW232754   1.342   1.837  11.650 -1.5409 -1.5574  0.6531
 7040SOL     OW32755   4.673   2.933  10.543 -0.2542  0.1049  0.1906
 7040SOL    HW132756   0.000   2.868  10.568 -0.4901  0.1219  0.8453
 7040SOL    HW232757   4.640   2.910  10.456  0.6831  0.0706 -0.1559
 7041SOL     OW32758   0.541   1.540  13.974  0.2119  0.7352  0.0944
 7041SOL    HW132759   0.471   1.558  14.037 -0.1983  3.7097 -1.1952
 7041SOL    HW232760   0.522   1.471  13.911 -1.3413  1.6691 -0.4681
 7042SOL     OW32761   4.397   2.240  15.493  0.0386 -0.1271 -0.0607
 7042SOL    HW132762   4.440   2.160  15.523  1.2651  0.8145  0.7229
 7042SOL    HW232763   4.475   2.296  15.486  1.3095 -1.5813  2.4522
 7043SOL     OW32764   1.619   0.394  15.712  0.0372  0.4316 -0.4183
 7043SOL    HW132765   1.673   0.316  15.710 -0.6202 -0.0159 -0.8431
 7043SOL    HW232766   1.620   0.428  15.622 -0.6377  1.6865  0.0466
 7044SOL     OW32767   3.103   4.060   6.439  0.3394 -0.5815 -0.2374
 7044SOL    HW132768   3.162   4.135   6.437 -4.1778  2.9605 -2.1613
 7044SOL    HW232769   3.055   4.087   6.517  0.4968 -0.3267 -0.2291
 7045SOL     OW32770   4.526   2.556   5.343 -0.0407  0.0123  0.3359
 7045SOL    HW132771   4.484   2.475   5.316  0.1861 -0.5609  1.6927
 7045SOL    HW232772   4.582   2.533   5.417  1.1464  0.6040 -0.3831
 7046SOL     OW32773   0.142   1.888   7.956  0.2127 -0.0794 -0.8103
 7046SOL    HW132774   0.058   1.918   7.921  0.3144  0.3466 -0.6930
 7046SOL    HW232775   0.200   1.962   7.942 -1.0044  0.8081 -1.1734
 7047SOL     OW32776   2.722   4.723   7.015  0.0814  0.0525  0.0619
 7047SOL    HW132777   2.752   4.733   6.925 -0.5487 -1.3718 -0.3168
 7047SOL    HW232778   2.678   0.067   7.040 -0.3670  0.3985 -1.8720
 7048SOL     OW32779   0.253   0.625  10.299 -0.3079 -0.0348  0.6377
 7048SOL    HW132780   0.228   0.545  10.253  0.7342  0.0221 -0.0197
 7048SOL    HW232781   0.232   0.594  10.387 -1.3382  1.3034  0.8587
 7049SOL     OW32782   0.772   4.405   6.538  0.6724 -0.3368 -0.0855
 7049SOL    HW132783   0.824   4.333   6.502  1.9766  0.8576 -0.5726
 7049SOL    HW232784   0.718   4.420   6.460  2.2400  0.8213 -0.9444
 7050SOL     OW32785   2.870   2.614   5.787  0.2630  0.0063  0.9094
 7050SOL    HW132786   2.794   2.662   5.819  0.5955  1.2869 -0.1968
 7050SOL    HW232787   2.940   2.644   5.846 -1.0095  1.0999  1.8728
 7051SOL     OW32788   2.564   1.244   6.924  0.1086  0.5328 -0.2882
 7051SOL    HW132789   2.519   1.306   6.981  1.6445 -0.1947  1.7289
 7051SOL    HW232790   2.542   1.280   6.838 -0.3600 -1.2187 -0.8878
 7052SOL     OW32791   0.941   4.585  12.460 -0.3106  0.1676 -0.0431
 7052SOL    HW132792   1.019   4.590  12.404  0.1386 -1.3137  0.4520
 7052SOL    HW232793   0.985   4.581  12.545 -0.0854  1.2832 -0.0997
 7053SOL     OW32794   2.055   3.232  10.850  0.1637  0.0812  0.3292
 7053SOL    HW132795   2.050   3.273  10.763  0.8119  1.5534  0.9756
 7053SOL    HW232796   2.074   3.304  10.911 -2.0875  0.7928  0.1852
 7054SOL     OW32797   0.780   1.251   0.428  0.1720  0.1376 -0.6409
 7054SOL    HW132798   0.775   1.347   0.430  0.1598  0.1452 -1.1851
 7054SOL    HW232799   0.716   1.227   0.495  1.1093 -1.4621 -0.3163
 7055SOL     OW32800   2.814   2.645   8.256 -0.2877  0.6763  0.2576
 7055SOL    HW132801   2.835   2.555   8.282  0.9885  1.0866  0.6436
 7055SOL    HW232802   2.740   2.652   8.316 -0.1507 -0.2348  0.5262
 7056SOL     OW32803   1.064   1.517   4.689 -0.0557  0.4570  0.2103
 7056SOL    HW132804   0.970   1.532   4.677  0.2092 -0.7644 -3.5305
 7056SOL    HW232805   1.094   1.448   4.630  1.6159  1.9436 -0.6901
 7057SOL     OW32806   1.707   3.954   0.624 -0.1370  0.8220 -0.5037
 7057SOL    HW132807   1.661   4.038   0.629 -2.3396 -0.4064  0.0097
 7057SOL    HW232808   1.749   3.957   0.710 -0.5319  2.2695 -0.3581
 7058SOL     OW32809   0.910   0.380   6.970 -0.0362 -0.4679 -0.7040
 7058SOL    HW132810   0.882   0.441   7.038  1.4643  1.8694 -2.1972
 7058SOL    HW232811   0.973   0.436   6.925 -0.8685  0.8183 -0.2487
 7059SOL     OW32812   2.573   1.858   5.150  0.3861 -0.0997 -0.5855
 7059SOL    HW132813   2.529   1.926   5.202  1.3748 -0.5114  0.7776
 7059SOL    HW232814   2.490   1.817   5.126 -0.5392  0.5149  1.4678
 7060SOL     OW32815   2.435   2.337  10.893 -0.8813 -0.2406 -0.1741
 7060SOL    HW132816   2.351   2.379  10.877 -1.0716 -1.0571 -1.3598
 7060SOL    HW232817   2.489   2.407  10.856  1.8414 -1.2563  1.8402
 7061SOL     OW32818   3.902   3.945   5.150 -0.0612 -0.3127  0.3568
 7061SOL    HW132819   3.824   3.973   5.198 -1.0260 -1.4826 -0.5144
 7061SOL    HW232820   3.957   3.921   5.225 -0.0610  0.3730  0.5691
 7062SOL     OW32821   0.551   1.064   3.555 -0.2021  0.0907 -0.0155
 7062SOL    HW132822   0.470   1.014   3.542 -1.2729  1.8417 -0.0937
 7062SOL    HW232823   0.609   0.990   3.574 -2.0359 -1.1612  0.7335
 7063SOL     OW32824   2.847   2.218   5.201  0.5824 -0.3306 -0.1514
 7063SOL    HW132825   2.796   2.296   5.181  0.1277 -0.5949 -0.0139
 7063SOL    HW232826   2.827   2.164   5.125  1.6399 -0.8011 -0.0928
 7064SOL     OW32827   4.268   4.688   2.473  0.1342 -0.4996 -0.1272
 7064SOL    HW132828   4.353   4.667   2.510  0.4432 -4.5667 -3.1406
 7064SOL    HW232829   4.219   4.609   2.495 -0.8770  0.0206 -0.5144
 7065SOL     OW32830   4.563   3.963   3.340 -0.4303 -0.1906 -0.0978
 7065SOL    HW132831   4.592   4.007   3.260 -0.1061  3.9787  2.3091
 7065SOL    HW232832   4.642   3.965   3.395 -0.6462 -3.0826  0.3138
 7066SOL     OW32833   3.758   1.142   4.271 -0.0595  0.3873 -0.1950
 7066SOL    HW132834   3.784   1.201   4.201 -1.7053  1.3780  0.0338
 7066SOL    HW232835   3.755   1.195   4.351  2.5269 -1.8591  1.3804
 7067SOL     OW32836   2.461   2.220   5.193 -0.1224 -0.3035  0.5150
 7067SOL    HW132837   2.542   2.268   5.176 -0.4411 -0.9006 -2.5958
 7067SOL    HW232838   2.464   2.218   5.289  1.8274 -1.5841  0.4178
 7068SOL     OW32839   2.441   0.411   8.458  0.2092  0.1966  0.3886
 7068SOL    HW132840   2.429   0.399   8.552 -1.0708  1.5049  0.3932
 7068SOL    HW232841   2.485   0.496   8.458  0.9021 -0.1607  1.8659
 7069SOL     OW32842   2.984   2.427   9.804 -0.3169  0.4292 -0.1959
 7069SOL    HW132843   3.041   2.394   9.736 -2.2668 -3.1353 -0.0758
 7069SOL    HW232844   2.928   2.481   9.748 -0.3827  1.6257  1.0149
 7070SOL     OW32845   3.727   0.996  17.626 -0.2125  0.3896 -0.0309
 7070SOL    HW132846   3.782   0.986  17.548  1.9204  1.8055  1.3015
 7070SOL    HW232847   3.643   0.962  17.597 -0.5049  1.0910 -0.0057
 7071SOL     OW32848   0.626   1.315   6.016  0.1166 -0.3166 -0.0361
 7071SOL    HW132849   0.719   1.318   6.039  0.1932 -0.4456 -0.3256
 7071SOL    HW232850   0.600   1.390   5.962  0.9942  0.4527  0.6168
 7072SOL     OW32851   2.193   1.555  15.250  0.4668 -0.5523 -0.0689
 7072SOL    HW132852   2.128   1.500  15.293 -1.0881  0.1863 -1.4942
 7072SOL    HW232853   2.161   1.583  15.164  0.4462  2.2855  0.8743
 7073SOL     OW32854   0.450   2.338   7.370 -0.5446  0.0307  0.1713
 7073SOL    HW132855   0.364   2.379   7.385 -1.4147 -1.7001 -0.0351
 7073SOL    HW232856   0.427   2.266   7.310 -1.7696  0.0874  0.5741
 7074SOL     OW32857   2.083   2.362   2.130  0.3999 -0.3052 -0.3160
 7074SOL    HW132858   2.126   2.436   2.086 -1.5703  1.2699  0.4059
 7074SOL    HW232859   2.122   2.368   2.217 -0.1025  0.1278 -0.1207
 7075SOL     OW32860   2.753   1.752   2.181  0.0034  0.8673  0.0817
 7075SOL    HW132861   2.838   1.796   2.182  0.7775 -0.5596 -1.6964
 7075SOL    HW232862   2.749   1.713   2.268  1.1795 -1.0140 -0.7069
 7076SOL     OW32863   0.784   3.642  13.708  0.0806  0.3295  0.0418
 7076SOL    HW132864   0.718   3.578  13.734 -0.1868  0.8643  0.6790
 7076SOL    HW232865   0.793   3.615  13.617 -2.2622  0.4137 -0.2178
 7077SOL     OW32866   4.080   0.687   6.893 -0.4189  0.0568  0.3625
 7077SOL    HW132867   3.998   0.669   6.940  0.1637  0.5736  1.5887
 7077SOL    HW232868   4.074   0.604   6.845 -2.1207 -0.0786  0.7909
 7078SOL     OW32869   0.613   1.219   5.381 -0.3443 -0.2294 -0.3066
 7078SOL    HW132870   0.564   1.266   5.449  0.1599 -0.2784  0.0895
 7078SOL    HW232871   0.541   1.178   5.333 -1.0471  0.4327  0.1654
 7079SOL     OW32872   0.271   1.897   5.748 -0.5058  0.6038 -0.5981
 7079SOL    HW132873   0.179   1.912   5.768 -0.9881 -1.4988 -1.1865
 7079SOL    HW232874   0.284   1.951   5.670  1.8512  0.0868 -0.5785
 7080SOL     OW32875   2.419   2.457  17.136  0.1666 -0.2730 -0.1156
 7080SOL    HW132876   2.389   2.450  17.045 -2.9444  2.8515  0.6777
 7080SOL    HW232877   2.506   2.489  17.115  0.4189  0.1611  1.6317
 7081SOL     OW32878   4.243   3.617   8.765  0.0392 -0.4651 -0.3737
 7081SOL    HW132879   4.306   3.673   8.810 -0.2979 -0.1943 -0.2388
 7081SOL    HW232880   4.239   3.535   8.815  2.3805 -0.3115  0.0774
 7082SOL     OW32881   4.283   2.348   6.828  0.3388 -0.5644  0.0135
 7082SOL    HW132882   4.192   2.330   6.853  0.1989 -0.0695 -0.1410
 7082SOL    HW232883   4.316   2.279   6.771  0.2196 -0.8695  0.3150
 7083SOL     OW32884   3.974   1.229   6.653 -0.1146 -0.3484 -0.3840
 7083SOL    HW132885   4.069   1.243   6.654  0.2636 -2.8038 -1.8255
 7083SOL    HW232886   3.962   1.214   6.746 -0.6742 -1.2530 -0.6060
 7084SOL     OW32887   3.241   1.059   1.972 -0.7893 -0.5495  0.2705
 7084SOL    HW132888   3.161   1.107   1.994  0.2707  1.8348 -1.0949
 7084SOL    HW232889   3.216   1.040   1.882  0.2917  0.4312 -0.2374
 7085SOL     OW32890   4.119   3.669   9.268  0.0806 -0.1978 -0.4722
 7085SOL    HW132891   4.189   3.674   9.334 -0.8034  1.2110  0.3548
 7085SOL    HW232892   4.096   3.579   9.290 -0.1374 -0.0814 -0.2208
 7086SOL     OW32893   3.206   4.701  14.604 -0.0505 -0.0367  0.4753
 7086SOL    HW132894   3.241   0.052  14.595 -0.9464  0.4709  1.9796
 7086SOL    HW232895   3.277   4.672  14.663  0.0492 -0.0342  0.3568
 7087SOL     OW32896   2.393   2.890  10.102 -0.6852 -0.6222  0.4802
 7087SOL    HW132897   2.407   2.888  10.008  2.3848 -0.3929  0.9299
 7087SOL    HW232898   2.322   2.954  10.109  1.0737  1.4435 -0.9697
 7088SOL     OW32899   4.159   0.326   2.083  0.3747  0.1682  0.2840
 7088SOL    HW132900   4.189   0.242   2.118 -0.9867 -0.0849  0.8342
 7088SOL    HW232901   4.195   0.318   1.995  0.6539  1.2325  0.2995
 7089SOL     OW32902   2.832   1.230   4.074 -0.0721  0.1431 -0.1053
 7089SOL    HW132903   2.828   1.287   3.997 -2.4539  0.0545 -0.0250
 7089SOL    HW232904   2.879   1.281   4.139 -0.4085 -0.7154  0.8156
 7090SOL     OW32905   3.148   4.244   7.874  0.2502  0.1189  0.0118
 7090SOL    HW132906   3.136   4.175   7.809  1.3444 -0.4318  0.3964
 7090SOL    HW232907   3.081   4.232   7.941  1.3974  1.1031  1.3477
 7091SOL     OW32908   3.776   2.944   5.745 -0.5285 -0.6255  0.0369
 7091SOL    HW132909   3.815   3.030   5.759 -3.5946  0.5805  1.1794
 7091SOL    HW232910   3.832   2.880   5.789  0.6819 -0.1804 -0.8684
 7092SOL     OW32911   4.489   1.696   5.408  0.8000 -1.0335  0.0724
 7092SOL    HW132912   4.426   1.748   5.457  0.5758 -1.0255 -0.2251
 7092SOL    HW232913   4.489   1.613   5.456 -1.0267 -1.3961 -0.5429
 7093SOL     OW32914   1.122   3.251   2.519 -0.5006  0.5070  0.2276
 7093SOL    HW132915   1.169   3.237   2.601 -2.1539 -1.8738  0.7522
 7093SOL    HW232916   1.033   3.224   2.541 -0.9123  2.0212  0.3756
 7094SOL     OW32917   1.282   3.496   6.910 -0.2425 -0.2159 -0.1115
 7094SOL    HW132918   1.272   3.562   6.979 -3.0878  1.3017 -1.9419
 7094SOL    HW232919   1.376   3.493   6.897 -0.1346 -1.4888  1.0950
 7095SOL     OW32920   2.178   0.682   5.915 -0.2314 -0.2061 -0.2557
 7095SOL    HW132921   2.240   0.666   5.845 -1.8896 -0.3780 -1.7009
 7095SOL    HW232922   2.159   0.595   5.950 -0.2837 -0.4288 -0.8375
 7096SOL     OW32923   3.657   4.048  17.429  0.4605 -0.0069 -0.0782
 7096SOL    HW132924   3.593   4.081  17.366  0.7753  1.6948  0.4810
 7096SOL    HW232925   3.668   3.957  17.401 -1.8149 -1.0662  2.4302
 7097SOL     OW32926   3.191   1.638   4.509  0.0075  0.2189  0.0824
 7097SOL    HW132927   3.210   1.675   4.595 -0.4336 -0.3770  0.4400
 7097SOL    HW232928   3.101   1.607   4.519 -0.3947  1.3485 -0.0337
 7098SOL     OW32929   1.514   0.015   6.959  0.2292 -0.0283  0.0674
 7098SOL    HW132930   1.424   4.737   6.930  0.0171 -0.4812  0.9480
 7098SOL    HW232931   1.545   0.065   6.884  0.9872 -0.9166 -0.2056
 7099SOL     OW32932   4.367   4.308   6.873  0.1373  0.4350  0.3485
 7099SOL    HW132933   4.343   4.266   6.955  2.1498  1.6750  1.5670
 7099SOL    HW232934   4.283   4.345   6.846 -0.8590 -1.7589  0.4813
 7100SOL     OW32935   0.401   4.677   7.787 -0.3818 -0.2153  0.4493
 7100SOL    HW132936   0.343   4.604   7.810  2.7914 -3.8654 -3.2591
 7100SOL    HW232937   0.405   4.717   7.874 -0.9137  0.2462  0.2546
 7101SOL     OW32938   0.794   3.257   5.448 -0.0344  0.0427 -0.3614
 7101SOL    HW132939   0.881   3.232   5.477  0.5842  0.9661 -1.4367
 7101SOL    HW232940   0.812   3.287   5.359  0.2598  0.1972 -0.2484
 7102SOL     OW32941   4.260   1.085   8.655  0.0940  0.1461  0.2047
 7102SOL    HW132942   4.272   1.020   8.724  0.5312 -1.1981 -1.1069
 7102SOL    HW232943   4.336   1.142   8.670  0.2130 -0.0810  0.4604
 7103SOL     OW32944   4.391   2.004   5.756  0.6622 -0.8566 -0.1721
 7103SOL    HW132945   4.419   2.047   5.837 -1.4121 -1.2259  0.7214
 7103SOL    HW232946   4.463   2.036   5.701  0.2998  0.5284  0.1557
 7104SOL     OW32947   4.410   2.315  14.550  0.4899  0.2367  0.3417
 7104SOL    HW132948   4.368   2.400  14.533  1.2836  0.1818 -1.7972
 7104SOL    HW232949   4.498   2.334  14.520  0.0546  0.6805 -0.6581
 7105SOL     OW32950   2.289   1.825   1.699 -0.4248  0.3975 -0.1309
 7105SOL    HW132951   2.199   1.792   1.700 -0.9127  1.8942  2.4235
 7105SOL    HW232952   2.318   1.769   1.627  3.6623 -1.3799  2.9533
 7106SOL     OW32953   0.359   3.261   7.658 -0.3504  0.0298 -0.7501
 7106SOL    HW132954   0.419   3.255   7.732 -1.6286  0.4981  0.3315
 7106SOL    HW232955   0.328   3.170   7.653 -0.5824  0.2000 -2.2909
 7107SOL     OW32956   3.983   2.971   4.235 -0.1400 -0.2892  0.3882
 7107SOL    HW132957   3.955   3.057   4.205 -1.6597 -0.3566  1.6148
 7107SOL    HW232958   3.904   2.938   4.278 -0.7595  0.6137 -0.0654
 7108SOL     OW32959   2.651   0.781   6.712  0.1021 -0.4041 -0.1490
 7108SOL    HW132960   2.746   0.768   6.716  0.1234  0.4903  2.1451
 7108SOL    HW232961   2.635   0.854   6.772 -2.7479  0.1173 -1.5598
 7109SOL     OW32962   2.718   2.891   2.272 -0.2100  0.0230 -0.0919
 7109SOL    HW132963   2.678   2.967   2.231  1.3369  0.1594 -1.3156
 7109SOL    HW232964   2.789   2.878   2.210 -0.4626  1.9182 -0.7693
 7110SOL     OW32965   1.329   3.308   3.932  0.1735  0.1366 -0.9409
 7110SOL    HW132966   1.249   3.361   3.927  0.6264  0.7938 -1.2651
 7110SOL    HW232967   1.385   3.370   3.885  0.2526 -1.1907 -2.5842
 7111SOL     OW32968   3.155   2.727   8.088 -0.2652 -0.3033  0.0807
 7111SOL    HW132969   3.109   2.811   8.082  0.7054  0.1702 -0.8095
 7111SOL    HW232970   3.125   2.690   8.005 -1.7097  0.6888  0.1607
 7112SOL     OW32971   1.431   2.278  11.911  0.7017  0.4272  0.5699
 7112SOL    HW132972   1.370   2.295  11.839  0.7586 -1.7625  0.0049
 7112SOL    HW232973   1.475   2.205  11.870  2.4533  0.9537  1.5278
 7113SOL     OW32974   2.851   1.663  13.643  0.0586  0.5949 -0.1212
 7113SOL    HW132975   2.837   1.586  13.698  0.9004  0.8226  0.4108
 7113SOL    HW232976   2.939   1.693  13.666 -0.5877  0.6584  2.3389
 7114SOL     OW32977   0.275   1.659  13.609  0.3988 -0.1624 -0.1842
 7114SOL    HW132978   0.201   1.720  13.603  1.6526  1.4824  1.1817
 7114SOL    HW232979   0.244   1.609  13.685  1.0705 -0.0553  0.1601
 7115SOL     OW32980   2.810   0.729  10.198 -0.8189 -0.9068 -0.5508
 7115SOL    HW132981   2.781   0.680  10.275 -1.1108  2.5383  1.4790
 7115SOL    HW232982   2.900   0.696  10.189 -0.9219 -0.6746 -2.4548
 7116SOL     OW32983   1.011   3.841   8.305  0.2374 -0.3114 -0.2285
 7116SOL    HW132984   0.950   3.851   8.378 -0.5662 -1.4149 -0.7322
 7116SOL    HW232985   1.075   3.910   8.321 -2.1894  1.9765 -0.4076
 7117SOL     OW32986   4.046   3.003   5.210  0.2779 -0.5897  0.1658
 7117SOL    HW132987   4.136   3.027   5.189  0.0684 -1.7393 -2.0760
 7117SOL    HW232988   4.007   3.082   5.172 -3.0701 -2.1351  0.4365
 7118SOL     OW32989   2.693   1.676   4.688  0.1778 -0.2909  0.4906
 7118SOL    HW132990   2.664   1.587   4.706  0.0642  0.1890  2.6841
 7118SOL    HW232991   2.769   1.662   4.631  0.6567  0.5159  0.9315
 7119SOL     OW32992   3.409   1.206  12.746  0.3873  0.1059 -0.5073
 7119SOL    HW132993   3.394   1.226  12.654 -1.3976  1.2237  0.0099
 7119SOL    HW232994   3.430   1.114  12.732  1.0023  0.0244  0.9626
 7120SOL     OW32995   0.555   2.816   5.274  0.0785 -0.5093 -0.4581
 7120SOL    HW132996   0.637   2.839   5.229  0.4165 -1.9450 -0.6036
 7120SOL    HW232997   0.568   2.873   5.349 -0.1713 -0.7463 -0.2339
 7121SOL     OW32998   1.964   3.882   7.797  0.4418  0.1128  0.1392
 7121SOL    HW132999   1.951   3.787   7.796  1.0625  0.0552 -2.0216
 7121SOL    HW233000   1.940   3.912   7.885  2.3514 -1.9998  1.3862
 7122SOL     OW33001   3.493   2.075   8.406 -0.6616  0.1974  0.6208
 7122SOL    HW133002   3.482   2.169   8.391  1.4708  0.4300  0.5882
 7122SOL    HW233003   3.585   2.061   8.384 -1.3409 -1.5336 -1.2258
 7123SOL     OW33004   2.062   1.804  15.478  0.3120  0.1807  0.3639
 7123SOL    HW133005   1.971   1.775  15.474  1.3018 -2.8262  0.0943
 7123SOL    HW233006   2.106   1.747  15.540 -2.4845 -0.0947  2.0704
 7124SOL     OW33007   2.760   3.575   8.808 -0.4578  0.3210 -0.0011
 7124SOL    HW133008   2.823   3.647   8.808  1.8314 -1.6996 -0.0694
 7124SOL    HW233009   2.755   3.538   8.720 -0.1020  0.7738 -0.2134
 7125SOL     OW33010   4.545   3.679  15.051  0.0781  0.2445  0.0746
 7125SOL    HW133011   4.614   3.629  15.007 -2.2403 -1.7932 -1.2151
 7125SOL    HW233012   4.600   3.689  15.129  1.1435  0.1605 -0.6666
 7126SOL     OW33013   0.011   0.922   4.759  0.0136  0.1473  0.1223
 7126SOL    HW133014   0.006   0.958   4.847  0.9301 -0.4571  0.4158
 7126SOL    HW233015   0.102   0.935   4.733  0.3439 -2.2481  0.0702
 7127SOL     OW33016   3.648   2.565   1.519 -0.3200 -0.2701 -0.1671
 7127SOL    HW133017   3.669   2.653   1.550  0.7485  0.2980 -2.5659
 7127SOL    HW233018   3.730   2.523   1.545 -1.9971 -2.5424  1.3726
 7128SOL     OW33019   3.041   0.702  15.123 -0.2058  0.3336 -0.2560
 7128SOL    HW133020   2.998   0.654  15.051  2.0944  1.6352 -2.5077
 7128SOL    HW233021   3.107   0.756  15.080  0.2714 -0.6786 -0.8007
 7129SOL     OW33022   3.249   0.980  16.997 -0.1408  0.0244 -0.0501
 7129SOL    HW133023   3.189   1.017  16.932  0.8527  0.9945 -0.3995
 7129SOL    HW233024   3.268   0.903  16.943  1.6930  2.4130 -2.7521
 7130SOL     OW33025   3.259   2.336   7.207  0.0894 -0.1672 -0.4722
 7130SOL    HW133026   3.181   2.371   7.163 -0.8440 -1.5701  0.0554
 7130SOL    HW233027   3.316   2.332   7.130 -1.1810 -1.9054 -1.3243
 7131SOL     OW33028   1.741   2.952   9.237  0.3936 -0.0088  0.2051
 7131SOL    HW133029   1.762   3.032   9.286  2.0744  0.1781 -0.8235
 7131SOL    HW233030   1.645   2.952   9.236  0.3874  0.5802  0.9648
 7132SOL     OW33031   4.084   1.212  10.783 -0.3297  0.8213  0.1258
 7132SOL    HW133032   4.052   1.234  10.870  0.8603 -0.0540  0.7904
 7132SOL    HW233033   4.113   1.121  10.791 -0.9542  0.5672 -0.5350
 7133SOL     OW33034   3.234   2.929  16.327  0.0041 -0.5163  0.0007
 7133SOL    HW133035   3.241   2.931  16.232  3.6530  0.4706  0.2565
 7133SOL    HW233036   3.187   2.847  16.339 -2.3359  0.9006  0.3865
 7134SOL     OW33037   3.296   3.500   8.822 -0.0785  0.5411 -0.2251
 7134SOL    HW133038   3.388   3.517   8.844 -0.2410 -0.0591  0.9242
 7134SOL    HW233039   3.248   3.509   8.904  0.8177  1.0055  0.2558
 7135SOL     OW33040   2.093   3.440   6.468 -0.1977  0.7487  0.2017
 7135SOL    HW133041   2.105   3.367   6.529  0.6942  0.3491 -0.4425
 7135SOL    HW233042   2.140   3.400   6.395 -1.5673  2.7170 -1.7138
 7136SOL     OW33043   3.307   3.075   8.516  0.0601 -0.2507  0.5642
 7136SOL    HW133044   3.268   3.099   8.600 -1.9248 -1.7855  0.0793
 7136SOL    HW233045   3.306   3.158   8.467 -0.0830 -0.5399  0.0806
 7137SOL     OW33046   0.897   0.199   3.018  0.2056 -0.0296 -0.1427
 7137SOL    HW133047   0.813   0.189   3.063  0.7990 -1.4176  0.6952
 7137SOL    HW233048   0.935   0.116   3.049  1.3442  0.2995 -0.6506
 7138SOL     OW33049   2.789   0.893   2.668  0.1261  0.1045 -0.3964
 7138SOL    HW133050   2.842   0.899   2.747 -1.7393 -2.3244  1.0616
 7138SOL    HW233051   2.830   0.817   2.627  0.4295 -0.5779  1.1609
 7139SOL     OW33052   0.454   0.792   3.831 -0.3703 -0.1985  0.6824
 7139SOL    HW133053   0.478   0.715   3.780 -1.3476  0.9896 -1.5367
 7139SOL    HW233054   0.468   0.755   3.919  0.9750 -1.8565 -0.2272
 7140SOL     OW33055   2.285   2.559  16.882  0.4114  0.3438 -0.2726
 7140SOL    HW133056   2.334   2.545  16.801 -1.4206 -1.7790 -1.0022
 7140SOL    HW233057   2.225   2.630  16.862  0.0634  0.3606  0.8424
 7141SOL     OW33058   0.853   4.235  15.577  0.1534  0.3749 -0.0246
 7141SOL    HW133059   0.829   4.224  15.485  1.1604  1.1659 -0.3722
 7141SOL    HW233060   0.807   4.157  15.608  1.4732 -0.3770  0.0462
 7142SOL     OW33061   0.332   3.113   8.096  0.4102  0.4435  0.0207
 7142SOL    HW133062   0.244   3.125   8.060  0.5761 -1.3987 -0.9733
 7142SOL    HW233063   0.306   3.086   8.184 -0.2573  0.6010 -0.1251
 7143SOL     OW33064   4.504   3.505   6.851 -0.4089  0.1839 -0.5352
 7143SOL    HW133065   4.505   3.439   6.782  0.9616 -0.1288 -0.2274
 7143SOL    HW233066   4.593   3.532   6.876 -0.3757 -1.8621  1.5866
 7144SOL     OW33067   1.399   3.862   2.474 -0.3169 -0.3375  0.3638
 7144SOL    HW133068   1.424   3.836   2.563  3.9186  0.4429 -0.6047
 7144SOL    HW233069   1.480   3.898   2.438 -1.6072  0.2751 -1.9184
 7145SOL     OW33070   3.999   1.241   2.920 -0.5808  0.4948 -0.3686
 7145SOL    HW133071   4.081   1.263   2.964 -1.4044  2.9809 -0.0549
 7145SOL    HW233072   3.988   1.148   2.938 -0.4695  0.9891  2.2674
 7146SOL     OW33073   4.516   3.469   7.467  0.0405 -0.0509 -0.0273
 7146SOL    HW133074   4.443   3.422   7.508 -1.1326  1.6703 -0.1398
 7146SOL    HW233075   4.492   3.561   7.478  2.1442  0.5636 -0.6089
 7147SOL     OW33076   1.196   3.249   8.001  0.0294  0.4624  0.0187
 7147SOL    HW133077   1.114   3.225   7.958  0.6398 -0.0101 -0.8798
 7147SOL    HW233078   1.164   3.291   8.081  1.2528 -1.0057  1.2828
 7148SOL     OW33079   2.000   2.980  10.173 -0.1008 -0.0467 -0.8584
 7148SOL    HW133080   2.044   2.899  10.197 -0.5549  0.1284  0.5789
 7148SOL    HW233081   2.034   3.041  10.238 -1.4486 -0.0196 -0.1739
 7149SOL     OW33082   0.818   0.412   2.853 -0.1936  0.7242 -0.7375
 7149SOL    HW133083   0.872   0.345   2.893 -0.2070  0.5222 -1.0611
 7149SOL    HW233084   0.729   0.399   2.887  1.1161 -1.6400  1.7115
 7150SOL     OW33085   3.272   4.501   2.817 -0.1536  0.2976 -0.1485
 7150SOL    HW133086   3.332   4.575   2.824 -0.4586  0.5833 -0.5704
 7150SOL    HW233087   3.255   4.458   2.901 -0.5097  0.3090 -0.2135
 7151SOL     OW33088   3.808   1.252  11.492 -0.4018 -0.5439  0.0973
 7151SOL    HW133089   3.868   1.212  11.554 -0.8788 -1.3069  0.0584
 7151SOL    HW233090   3.720   1.249  11.530  0.2024 -4.1491  1.1712
 7152SOL     OW33091   0.136   3.419   4.653 -0.2121  0.6201  0.0054
 7152SOL    HW133092   0.042   3.412   4.669  0.0145 -1.0611  0.6835
 7152SOL    HW233093   0.152   3.504   4.613  0.1975  0.3255 -0.4458
 7153SOL     OW33094   2.715   4.655   4.682  0.1047 -0.2372 -0.4285
 7153SOL    HW133095   2.633   4.606   4.688  0.8123 -1.3480  0.0556
 7153SOL    HW233096   2.702   4.708   4.761  3.1019  0.7113 -0.6052
 7154SOL     OW33097   4.438   4.334  17.453  0.7028 -0.2442  0.8934
 7154SOL    HW133098   4.464   4.394  17.523  1.1031 -0.0383  0.5681
 7154SOL    HW233099   4.343   4.344  17.450  0.8424  0.5414 -1.0321
 7155SOL     OW33100   0.659   3.599  13.125 -0.4545 -0.1113  0.2332
 7155SOL    HW133101   0.683   3.519  13.170  1.4551  0.9114  1.0376
 7155SOL    HW233102   0.703   3.659  13.185 -1.3031 -0.6349  1.3712
 7156SOL     OW33103   1.886   2.190   6.786 -0.1633  0.3395 -0.1699
 7156SOL    HW133104   1.900   2.100   6.815 -0.4034  0.2912 -0.2039
 7156SOL    HW233105   1.969   2.217   6.747  1.6166 -0.6718  2.8450
 7157SOL     OW33106   0.150   0.137  15.981  0.0010  0.2045 -0.1923
 7157SOL    HW133107   0.148   0.051  15.940 -3.0569  0.2653 -0.1087
 7157SOL    HW233108   0.138   0.106  16.071 -0.4464 -0.7283 -0.5782
 7158SOL     OW33109   2.275   2.161   6.853 -0.5663  0.2168  0.6642
 7158SOL    HW133110   2.249   2.191   6.940 -1.2887  0.1693  0.4658
 7158SOL    HW233111   2.328   2.233   6.818 -0.2494 -0.9031 -1.2095
 7159SOL     OW33112   1.018   1.337  15.874 -0.4200 -0.2873 -0.2347
 7159SOL    HW133113   0.999   1.295  15.790  0.4929  0.1493 -0.6547
 7159SOL    HW233114   1.031   1.429  15.854  2.1757 -1.0482 -1.9925
 7160SOL     OW33115   3.852   0.568   6.954 -0.4000 -0.2432  0.0779
 7160SOL    HW133116   3.882   0.485   6.916  1.4996  0.0525  0.9267
 7160SOL    HW233117   3.797   0.598   6.882 -0.8564 -1.4309 -0.0707
 7161SOL     OW33118   1.877   2.064   8.233 -0.2161 -0.0697  0.5323
 7161SOL    HW133119   1.785   2.050   8.254  0.0300  0.0862  1.6915
 7161SOL    HW233120   1.905   2.111   8.311  1.6075 -1.4911  0.7343
 7162SOL     OW33121   0.167   3.576  11.953 -0.2371  0.2294 -0.3483
 7162SOL    HW133122   0.234   3.512  11.931 -1.1106 -0.6762 -0.3379
 7162SOL    HW233123   0.218   3.638  12.007 -1.7815  1.2777 -0.0941
 7163SOL     OW33124   4.533   0.105   8.428  0.3571  0.5329 -0.1249
 7163SOL    HW133125   4.560   0.016   8.405  0.7551  1.0761 -1.7664
 7163SOL    HW233126   4.546   0.100   8.523 -0.2745  1.3551  0.0011
 7164SOL     OW33127   2.053   0.632   3.666 -0.2497  0.7587 -0.4956
 7164SOL    HW133128   2.108   0.607   3.740  0.9373  3.3671 -0.5048
 7164SOL    HW233129   1.996   0.556   3.656  0.6818  0.2868 -2.2461
 7165SOL     OW33130   2.786   2.255   1.929 -0.1838  0.0107  0.0983
 7165SOL    HW133131   2.738   2.220   2.005  2.8371 -1.5595  1.3109
 7165SOL    HW233132   2.821   2.335   1.966 -0.9764 -0.3973  1.7238
 7166SOL     OW33133   4.041   2.804  16.865 -0.3349  0.0576 -0.1510
 7166SOL    HW133134   4.117   2.774  16.815 -0.9506  2.0769 -2.2728
 7166SOL    HW233135   3.967   2.768  16.816  1.5359 -1.8896 -1.5749
 7167SOL     OW33136   0.063   2.902   4.326  0.2398 -0.4127 -0.2680
 7167SOL    HW133137   0.117   2.977   4.301  0.2274 -0.7351 -1.2433
 7167SOL    HW233138   0.127   2.855   4.379 -0.1217  2.4135  2.7166
 7168SOL     OW33139   3.914   4.546   8.539  0.4675  0.6802  0.0918
 7168SOL    HW133140   3.870   4.605   8.600  2.3245  0.8775  1.2529
 7168SOL    HW233141   3.845   4.498   8.493  0.9999 -1.2118  1.2570
 7169SOL     OW33142   2.085   3.083   7.546 -0.5045 -0.3672  0.4684
 7169SOL    HW133143   2.102   3.113   7.457 -0.9585  2.9509  1.4939
 7169SOL    HW233144   2.005   3.130   7.570  1.1577  1.5576  2.2511
 7170SOL     OW33145   2.766   2.422  13.465  0.4967  0.4076  0.0148
 7170SOL    HW133146   2.726   2.436  13.551 -0.4364 -1.4550 -0.1296
 7170SOL    HW233147   2.843   2.477  13.479  0.1619  0.2198  2.6843
 7171SOL     OW33148   4.527   0.998   3.320  0.3121  0.0325 -0.1169
 7171SOL    HW133149   4.575   1.058   3.377  0.2919  1.0735 -1.1972
 7171SOL    HW233150   4.437   1.002   3.351  0.9892  0.6893  1.7731
 7172SOL     OW33151   3.772   1.362  16.471  0.1495 -0.0201 -0.1482
 7172SOL    HW133152   3.785   1.325  16.384 -0.8629  0.0166 -0.3136
 7172SOL    HW233153   3.741   1.288  16.523 -1.4440 -0.0425 -1.1478
 7173SOL     OW33154   4.450   2.648   8.518 -0.2482 -0.6407  0.4350
 7173SOL    HW133155   4.410   2.658   8.604  0.5709 -0.7477  0.8253
 7173SOL    HW233156   4.518   2.715   8.522  0.7216 -1.5688 -0.5087
 7174SOL     OW33157   4.046   1.721   0.903  0.5301 -0.2757 -0.0355
 7174SOL    HW133158   4.098   1.782   0.955 -0.0177  0.7069 -0.6465
 7174SOL    HW233159   4.065   1.747   0.813  2.2809 -1.7502 -0.0989
 7175SOL     OW33160   4.468   0.030   3.204  0.6993  0.3138 -0.1845
 7175SOL    HW133161   4.516   4.715   3.140  1.8074 -0.0718  0.9441
 7175SOL    HW233162   4.382   0.041   3.165 -0.5969 -0.6043  2.3836
 7176SOL     OW33163   2.460   1.146   5.765  0.3039 -0.8606  0.3602
 7176SOL    HW133164   2.406   1.186   5.697  0.7386  0.5625  0.8697
 7176SOL    HW233165   2.413   1.184   5.839  0.1864 -1.9892  0.8727
 7177SOL     OW33166   0.718   2.245   8.291  0.4264 -0.2756 -0.6029
 7177SOL    HW133167   0.801   2.289   8.310  0.7102 -1.4572  1.0154
 7177SOL    HW233168   0.743   2.155   8.267 -2.9751 -0.8498 -1.9281
 7178SOL     OW33169   2.578   1.343   3.083  0.1964 -0.6758  0.0591
 7178SOL    HW133170   2.637   1.289   3.135  0.1340  1.2287  2.1199
 7178SOL    HW233171   2.531   1.268   3.046  0.5028 -0.3113 -1.0507
 7179SOL     OW33172   1.918   2.784   3.955 -0.0629 -0.2896 -0.2587
 7179SOL    HW133173   1.888   2.750   4.039 -1.6452 -1.8394 -1.4438
 7179SOL    HW233174   1.922   2.879   3.962  0.6821 -0.4676  1.6312
 7180SOL     OW33175   2.907   3.933   7.810  0.1943  0.5123 -0.5429
 7180SOL    HW133176   2.824   3.952   7.766  0.2904 -1.7885 -1.7040
 7180SOL    HW233177   2.980   3.938   7.748 -1.0452 -1.1205 -2.1177
 7181SOL     OW33178   0.985   3.156  15.553 -0.0855 -0.3399 -0.2012
 7181SOL    HW133179   1.038   3.080  15.579 -0.9873 -0.8539  0.1225
 7181SOL    HW233180   1.060   3.208  15.523 -0.0722 -1.3739 -1.9187
 7182SOL     OW33181   1.107   2.593   2.485  0.0320 -0.1128  0.8854
 7182SOL    HW133182   1.147   2.520   2.534  1.3281  0.2089  0.3181
 7182SOL    HW233183   1.161   2.602   2.406 -3.0605  0.0969 -1.2042
 7183SOL     OW33184   2.753   1.246  14.500  0.0708  0.1546 -0.1304
 7183SOL    HW133185   2.730   1.225  14.591  2.5322  0.9471  0.6756
 7183SOL    HW233186   2.668   1.256  14.457 -0.3964 -1.5406  0.3790
 7184SOL     OW33187   3.072   1.278  14.941 -0.1894 -0.2594 -0.1508
 7184SOL    HW133188   3.056   1.372  14.939 -2.5722 -0.6278  1.7248
 7184SOL    HW233189   2.992   1.225  14.944 -2.1250  2.6223 -0.4374
 7185SOL     OW33190   4.079   2.502   2.915  0.6188  0.0774  0.7284
 7185SOL    HW133191   4.125   2.583   2.936  0.2553 -0.1328  2.2996
 7185SOL    HW233192   4.071   2.514   2.820  2.2835  1.6047  0.7822
 7186SOL     OW33193   4.638   1.378   2.786  0.7472 -0.0121 -0.4049
 7186SOL    HW133194   4.685   1.377   2.703 -0.7871  1.4193 -1.2636
 7186SOL    HW233195   4.573   1.446   2.770  0.4808 -0.9527 -3.3331
 7187SOL     OW33196   1.782   2.057  17.163  0.0145 -0.0210 -0.2938
 7187SOL    HW133197   1.848   2.124  17.142 -1.5051  1.8580  0.9367
 7187SOL    HW233198   1.700   2.106  17.154  0.2560  0.5655  0.7994
 7188SOL     OW33199   2.171   4.486   2.719  0.0283  0.3426 -0.1681
 7188SOL    HW133200   2.205   4.564   2.676  2.2698 -1.3175 -1.4202
 7188SOL    HW233201   2.090   4.475   2.670  0.0307  0.2494 -0.1519
 7189SOL     OW33202   0.957   0.503   4.805  0.4420  0.4681  0.6784
 7189SOL    HW133203   1.031   0.562   4.817 -0.4040  1.8051 -0.6706
 7189SOL    HW233204   0.969   0.452   4.886  2.3452 -0.0293  0.0808
 7190SOL     OW33205   0.378   2.536   6.501  0.6056  0.5549 -0.1014
 7190SOL    HW133206   0.436   2.535   6.577 -1.0831 -0.4772  1.1858
 7190SOL    HW233207   0.300   2.486   6.526  1.0310 -0.2644 -0.4376
 7191SOL     OW33208   2.386   0.436  14.866 -0.4168 -0.4516  0.6004
 7191SOL    HW133209   2.421   0.502  14.806  0.2711 -0.6902  0.7434
 7191SOL    HW233210   2.446   0.362  14.858 -0.6878 -0.3842 -1.9441
 7192SOL     OW33211   0.145   1.108   4.438 -0.1822  0.1314  0.4529
 7192SOL    HW133212   0.059   1.134   4.470 -1.1865 -1.9587 -0.4998
 7192SOL    HW233213   0.186   1.160   4.507  2.1994 -0.1261 -0.7918
 7193SOL     OW33214   4.540   0.601   4.752  0.1972  0.1541  0.7031
 7193SOL    HW133215   4.630   0.631   4.745  0.8290 -2.1416 -0.9320
 7193SOL    HW233216   4.531   0.538   4.680 -1.9641  2.7213 -1.2811
 7194SOL     OW33217   0.895   3.584   5.935  0.1534 -0.7317 -0.7659
 7194SOL    HW133218   0.965   3.650   5.943 -2.0068  1.2387  1.5092
 7194SOL    HW233219   0.826   3.633   5.978 -1.0530 -0.4122 -3.0747
 7195SOL     OW33220   1.490   4.712  17.063 -0.8438 -0.0031 -0.3274
 7195SOL    HW133221   1.441   0.056  17.049  1.9925  1.6626 -0.5540
 7195SOL    HW233222   1.573   4.728  17.019 -0.4390  1.5912  0.9960
 7196SOL     OW33223   1.206   4.145   0.850 -0.5246 -0.4741 -0.6493
 7196SOL    HW133224   1.166   4.137   0.937 -0.8394  0.1631 -0.7432
 7196SOL    HW233225   1.132   4.162   0.793  0.2154  0.2889 -1.3691
 7197SOL     OW33226   1.080   1.686   2.651 -0.3140  0.0772  0.1810
 7197SOL    HW133227   1.106   1.616   2.592  3.3247  1.8798 -0.3223
 7197SOL    HW233228   1.016   1.734   2.599  0.2767 -0.4568 -1.0145
 7198SOL     OW33229   0.856   1.790   3.738 -0.3703  0.6239  0.1558
 7198SOL    HW133230   0.811   1.721   3.786  0.5897 -0.6658 -0.8020
 7198SOL    HW233231   0.948   1.771   3.755 -1.3567 -1.1912  3.4358
 7199SOL     OW33232   2.699   1.303   9.072  0.0312 -0.4212 -0.3512
 7199SOL    HW133233   2.740   1.320   8.987 -3.3000  1.0895 -1.6441
 7199SOL    HW233234   2.609   1.333   9.057  0.5583  1.1697 -0.3007
 7200SOL     OW33235   1.546   3.751   0.472 -0.3737  0.1625  0.6460
 7200SOL    HW133236   1.468   3.782   0.517 -1.4130 -2.9380  0.9871
 7200SOL    HW233237   1.611   3.804   0.519 -2.0461  0.8605  2.1478
 7201SOL     OW33238   0.078   1.404   4.143 -0.2555 -0.1931 -0.5593
 7201SOL    HW133239   0.087   1.499   4.133  0.0408 -0.3046 -1.4017
 7201SOL    HW233240   0.001   1.395   4.087  0.0173  3.9914 -1.6386
 7202SOL     OW33241   0.951   4.246   6.395 -0.0578  0.0933 -0.1536
 7202SOL    HW133242   1.037   4.252   6.436 -0.6381  0.4933  0.9940
 7202SOL    HW233243   0.967   4.245   6.300 -0.0055 -1.2905 -0.1290
 7203SOL     OW33244   3.125   0.350   2.766  0.2868  0.0921  0.0040
 7203SOL    HW133245   3.061   0.301   2.714 -0.0595  1.5104 -0.9104
 7203SOL    HW233246   3.085   0.437   2.766 -1.5278 -0.7360 -0.1891
 7204SOL     OW33247   4.228   0.080   6.455  0.0613  0.3316  0.2126
 7204SOL    HW133248   4.216   0.138   6.531 -1.1382  2.3135 -1.5039
 7204SOL    HW233249   4.305   0.039   6.495 -0.7832 -0.3245  1.1552
 7205SOL     OW33250   0.861   3.344   5.194  0.2408  0.2113 -0.2376
 7205SOL    HW133251   0.815   3.361   5.112  0.1150  0.9592 -0.0138
 7205SOL    HW233252   0.954   3.357   5.173 -0.1831 -0.4938 -2.5605
 7206SOL     OW33253   0.914   1.582   6.632  0.0626  0.2513  0.5738
 7206SOL    HW133254   0.896   1.555   6.722  0.8666 -2.3352 -0.0519
 7206SOL    HW233255   0.891   1.502   6.586  2.1362  0.9707 -1.7393
 7207SOL     OW33256   1.770   4.016  13.768 -0.1198 -0.1490  0.2294
 7207SOL    HW133257   1.820   3.934  13.769  0.9925  0.5128 -0.8303
 7207SOL    HW233258   1.680   3.989  13.750 -0.5706  0.3128  1.7870
 7208SOL     OW33259   0.152   2.419  12.636  0.0117 -0.1095  0.7247
 7208SOL    HW133260   0.209   2.494  12.655 -0.0527  0.3743 -0.9500
 7208SOL    HW233261   0.078   2.466  12.599  0.6347 -0.6125 -1.1658
 7209SOL     OW33262   2.179   4.134  12.287  0.2819  0.5690  0.4993
 7209SOL    HW133263   2.269   4.118  12.314 -0.2089 -0.5581  1.4573
 7209SOL    HW233264   2.144   4.180  12.363 -1.5635 -0.9830  0.5964
 7210SOL     OW33265   1.896   2.186  11.484  0.0896  0.1333 -0.1675
 7210SOL    HW133266   1.830   2.133  11.438  1.1467  0.2966 -1.8604
 7210SOL    HW233267   1.928   2.127  11.552 -1.7367 -1.3207 -0.5702
 7211SOL     OW33268   1.751   0.092  16.572 -0.1973  0.2291  0.0303
 7211SOL    HW133269   1.816   0.091  16.642 -3.0587  1.9111  2.7308
 7211SOL    HW233270   1.808   0.101  16.495 -0.0684  0.5522  0.1657
 7212SOL     OW33271   0.967   3.641   2.824  0.0101 -0.1614 -0.0808
 7212SOL    HW133272   1.038   3.615   2.765 -2.4204 -0.8982 -2.6675
 7212SOL    HW233273   0.989   3.733   2.838 -1.0860  0.2720 -1.2326
 7213SOL     OW33274   3.879   0.607   3.493  0.1693  0.1498  0.6274
 7213SOL    HW133275   3.892   0.659   3.573 -2.5410 -1.3266  2.0618
 7213SOL    HW233276   3.957   0.633   3.445 -0.6521  0.5557 -0.4744
 7214SOL     OW33277   2.932   1.054   4.669  0.1086 -0.2037  0.0810
 7214SOL    HW133278   2.990   1.106   4.725 -2.0253 -0.8084  2.7996
 7214SOL    HW233279   2.855   1.039   4.723 -1.0578 -1.1191 -1.8376
 7215SOL     OW33280   0.882   4.103   4.564 -0.5331  0.6498 -0.0994
 7215SOL    HW133281   0.890   4.022   4.514 -0.0124  0.5392  0.1589
 7215SOL    HW233282   0.786   4.105   4.566 -0.6122 -2.2640 -0.6139
 7216SOL     OW33283   4.732   0.907  10.978 -0.4252  0.5277  0.1850
 7216SOL    HW133284   4.676   0.829  10.973  0.7528 -0.3528  0.7574
 7216SOL    HW233285   4.665   0.969  11.006 -1.6209 -0.6360 -0.0732
 7217SOL     OW33286   2.032   3.110   7.147  0.3741  0.6475 -0.0588
 7217SOL    HW133287   2.124   3.134   7.161  0.2369  0.7339  0.7093
 7217SOL    HW233288   2.014   3.116   7.053  0.6202 -0.4332 -0.1787
 7218SOL     OW33289   1.809   4.492   0.769  0.8747  0.6168 -0.0360
 7218SOL    HW133290   1.783   4.478   0.678  0.3143  0.3289  0.1749
 7218SOL    HW233291   1.811   4.401   0.798  4.1318  0.5013 -0.5692
 7219SOL     OW33292   3.618   2.305   7.523  0.6721 -0.2202 -0.0683
 7219SOL    HW133293   3.636   2.221   7.481  1.4986 -0.5863  1.0175
 7219SOL    HW233294   3.596   2.357   7.446 -1.5079  0.1478  0.7978
 7220SOL     OW33295   1.469   1.845  15.245  0.4210 -0.1515 -0.3011
 7220SOL    HW133296   1.382   1.877  15.269  0.6703 -0.1223  0.5829
 7220SOL    HW233297   1.433   1.795  15.172 -0.2982 -1.1358  0.7185
 7221SOL     OW33298   3.407   2.533  16.243  0.6395 -0.2990 -0.3917
 7221SOL    HW133299   3.417   2.615  16.196 -1.4981  0.4377  0.4878
 7221SOL    HW233300   3.414   2.569  16.331 -1.7978 -1.7410  0.3935
 7222SOL     OW33301   1.793   1.379  12.766  0.1608  0.2863  0.3067
 7222SOL    HW133302   1.802   1.374  12.671 -0.9311  0.8257  0.1708
 7222SOL    HW233303   1.716   1.434  12.780 -0.9202 -0.7437 -1.5029
 7223SOL     OW33304   4.540   0.945   8.093  0.0459  0.4047 -0.0728
 7223SOL    HW133305   4.522   1.036   8.070  1.0139  0.7281  0.5147
 7223SOL    HW233306   4.451   0.913   8.111  0.1974  0.3493  0.5716
 7224SOL     OW33307   1.837   1.664  15.422 -0.3635 -0.6994 -0.0350
 7224SOL    HW133308   1.780   1.617  15.483  1.0048 -3.3686 -0.8402
 7224SOL    HW233309   1.792   1.748  15.410  0.0481 -0.2790  1.3685
 7225SOL     OW33310   1.436   0.110  16.099  0.3532 -0.4311  0.5954
 7225SOL    HW133311   1.523   0.144  16.118  0.4802  0.8060 -2.1836
 7225SOL    HW233312   1.459   0.023  16.067  0.1639 -0.9032  1.7487
 7226SOL     OW33313   1.778   1.054   3.726 -0.2819 -0.3366 -0.3006
 7226SOL    HW133314   1.808   0.968   3.754 -1.0846 -0.3656  0.4705
 7226SOL    HW233315   1.822   1.056   3.641  0.0569  1.9481 -0.0850
 7227SOL     OW33316   1.315   4.233  17.527  0.2795  0.3605  0.0812
 7227SOL    HW133317   1.385   4.270  17.581  1.1805 -2.1386  0.6506
 7227SOL    HW233318   1.367   4.197  17.455 -2.2361  1.1241 -2.1026
 7228SOL     OW33319   4.287   4.047  12.652 -0.1343 -0.1536  0.4182
 7228SOL    HW133320   4.238   4.002  12.721 -0.3616  1.5762  1.3838
 7228SOL    HW233321   4.308   4.131  12.694 -2.0232  1.3187 -1.6131
 7229SOL     OW33322   1.541   1.402   4.312 -0.8219  0.0446 -0.1817
 7229SOL    HW133323   1.605   1.426   4.379  0.4000  0.0291 -1.3436
 7229SOL    HW233324   1.598   1.396   4.235 -0.9567  1.4914 -0.4016
 7230SOL     OW33325   2.127   2.680   3.800  0.8137  0.3581  0.3590
 7230SOL    HW133326   2.138   2.613   3.868  2.0469 -1.3032 -1.4728
 7230SOL    HW233327   2.043   2.723   3.817  1.2196  0.6099  1.7354
 7231SOL     OW33328   1.783   2.339  10.138  0.2250 -0.2106 -0.2853
 7231SOL    HW133329   1.826   2.340  10.052  0.9872  1.2347  0.1157
 7231SOL    HW233330   1.786   2.250  10.172  1.0770  0.4614  1.3841
 7232SOL     OW33331   2.315   2.640   8.429  0.3054  0.2687 -0.4194
 7232SOL    HW133332   2.340   2.703   8.497  0.4486 -0.2807  0.0444
 7232SOL    HW233333   2.379   2.676   8.367  0.0989  2.1157  0.4334
 7233SOL     OW33334   0.045   0.857   3.664  0.0032  0.1089 -0.3041
 7233SOL    HW133335   0.017   0.853   3.573  2.5794  0.6056 -1.1359
 7233SOL    HW233336   4.716   0.801   3.702  0.0936  0.7568  0.8334
 7234SOL     OW33337   4.289   4.245   8.648 -0.4074  0.1559 -0.0653
 7234SOL    HW133338   4.254   4.329   8.677  2.6027  2.1005 -2.0465
 7234SOL    HW233339   4.257   4.185   8.715 -0.6686  0.4560  0.0814
 7235SOL     OW33340   4.590   3.369   6.012 -0.1766 -0.2918 -0.1257
 7235SOL    HW133341   4.670   3.401   5.970 -1.3375 -0.5456 -2.5395
 7235SOL    HW233342   4.584   3.433   6.083 -3.3438  1.9495 -2.4138
 7236SOL     OW33343   3.336   2.337   6.940 -0.5715 -0.2457 -0.5035
 7236SOL    HW133344   3.389   2.384   6.876 -2.2117 -0.7440 -2.2063
 7236SOL    HW233345   3.249   2.341   6.900  0.1856 -1.2219 -2.2437
 7237SOL     OW33346   3.144   1.488   7.635  0.0908  0.1361 -0.3397
 7237SOL    HW133347   3.193   1.568   7.651 -0.8869  0.4136  1.2855
 7237SOL    HW233348   3.058   1.527   7.649  0.1685  0.3486 -0.4489
 7238SOL     OW33349   1.683   0.063   5.155  0.3820  0.2089  0.4765
 7238SOL    HW133350   1.704   0.087   5.065  1.8909 -0.2720  0.6976
 7238SOL    HW233351   1.649   4.711   5.148  0.6370  0.1944 -0.4413
 7239SOL     OW33352   3.845   2.871   7.316  0.1440 -0.3770 -0.6402
 7239SOL    HW133353   3.903   2.829   7.380  1.2847  3.1135  0.6651
 7239SOL    HW233354   3.890   2.955   7.302 -1.6521  0.5352 -0.8823
 7240SOL     OW33355   3.144   1.291   5.309 -0.0179  0.1674 -0.1565
 7240SOL    HW133356   3.135   1.326   5.220 -0.7128 -1.4565 -0.7313
 7240SOL    HW233357   3.126   1.199   5.290  0.3394  0.4116 -1.7032
 7241SOL     OW33358   4.057   1.154   7.759 -0.1412  0.6294  0.4426
 7241SOL    HW133359   4.123   1.156   7.828 -0.1600 -1.9303  0.5416
 7241SOL    HW233360   4.033   1.061   7.760  0.4114  0.5423  2.9423
 7242SOL     OW33361   4.146   0.413   5.333  0.4304  0.4756 -0.0767
 7242SOL    HW133362   4.078   0.408   5.266 -2.2256 -2.4206  2.8129
 7242SOL    HW233363   4.225   0.375   5.295 -2.1629 -4.4865 -0.4922
 7243SOL     OW33364   2.913   1.205   6.779 -0.8498  0.4257  0.4651
 7243SOL    HW133365   2.848   1.198   6.849 -0.0898 -1.4078  1.0097
 7243SOL    HW233366   2.904   1.299   6.766 -0.1374  0.4895  0.4307
 7244SOL     OW33367   4.418   1.700   2.008  0.9591  0.5278  0.5767
 7244SOL    HW133368   4.356   1.704   2.081 -1.7449 -1.1094 -1.6249
 7244SOL    HW233369   4.491   1.664   2.057  1.4920  1.1336  0.2272
 7245SOL     OW33370   0.232   1.364   8.174  0.3732  0.0121  0.2732
 7245SOL    HW133371   0.198   1.441   8.128  1.7837  0.7867  0.5226
 7245SOL    HW233372   0.306   1.350   8.115 -1.0606 -0.0787 -1.4967
 7246SOL     OW33373   3.307   3.729   7.455  0.1542 -0.1657 -0.4359
 7246SOL    HW133374   3.327   3.816   7.490  1.2297 -0.8798  0.7353
 7246SOL    HW233375   3.396   3.710   7.426  0.5460 -1.5806  1.6903
 7247SOL     OW33376   4.410   4.616  14.861  0.0038 -0.3586  0.4648
 7247SOL    HW133377   4.492   4.581  14.896 -0.1013  0.5862  1.6627
 7247SOL    HW233378   4.432   4.683  14.796 -1.8402 -1.3502 -1.1902
 7248SOL     OW33379   0.683   1.730   8.915 -0.4945  0.1442  0.6790
 7248SOL    HW133380   0.755   1.762   8.969  0.4702  1.1112 -1.1608
 7248SOL    HW233381   0.727   1.727   8.830 -0.2758  2.9586  0.6811
 7249SOL     OW33382   1.527   1.792   1.736 -0.3434 -0.0138  0.3420
 7249SOL    HW133383   1.464   1.862   1.718 -0.2279  0.2507  0.9526
 7249SOL    HW233384   1.577   1.813   1.657  0.9241  0.9895  1.4165
 7250SOL     OW33385   4.339   1.849   5.559 -0.3965  0.4647  0.2052
 7250SOL    HW133386   4.250   1.866   5.528 -0.4794  1.1086  0.8209
 7250SOL    HW233387   4.343   1.905   5.637  1.1968  0.2946  0.2337
 7251SOL     OW33388   0.062   3.109  12.180 -0.0035 -0.5978 -0.7443
 7251SOL    HW133389   0.052   3.153  12.096  0.8592  1.3236  0.1646
 7251SOL    HW233390   0.014   3.157  12.247  1.3953  1.0955 -0.9589
 7252SOL     OW33391   3.969   1.763   5.870  0.0509  0.6479 -0.1343
 7252SOL    HW133392   3.991   1.856   5.877  0.1726  0.6880 -1.0368
 7252SOL    HW233393   4.053   1.717   5.865 -0.9400 -1.2717  0.8508
 7253SOL     OW33394   2.563   1.504  14.516 -0.4419  0.4424  0.0736
 7253SOL    HW133395   2.488   1.482  14.571 -0.6955  1.3258  0.0796
 7253SOL    HW233396   2.563   1.442  14.443 -0.9007  0.3019  0.1911
 7254SOL     OW33397   4.466   0.301  17.485  0.0925  0.3789 -0.4971
 7254SOL    HW133398   4.454   0.351  17.404  0.2720 -1.5115 -1.6758
 7254SOL    HW233399   4.388   0.336  17.529 -1.4006 -0.2309 -2.6662
 7255SOL     OW33400   1.879   2.220   5.654 -0.3742 -0.3257 -0.6951
 7255SOL    HW133401   1.856   2.140   5.701 -1.1917  0.2742 -0.0736
 7255SOL    HW233402   1.875   2.289   5.721  0.3157 -0.4551 -0.5156
 7256SOL     OW33403   2.912   3.325   1.939  0.0262 -0.4097  0.1730
 7256SOL    HW133404   2.845   3.389   1.961  0.6058  0.1904  0.2126
 7256SOL    HW233405   2.871   3.238   1.936 -0.5558 -0.0642 -1.5441
 7257SOL     OW33406   0.881   3.535   5.558 -0.3241  0.9043 -0.8135
 7257SOL    HW133407   0.826   3.529   5.636  0.6792 -2.5391 -0.3591
 7257SOL    HW233408   0.827   3.525   5.480 -0.9373 -0.5970 -0.2005
 7258SOL     OW33409   4.086   2.559   5.292 -0.3518 -0.6410 -0.6463
 7258SOL    HW133410   4.011   2.593   5.244 -1.2233  1.0247  1.9267
 7258SOL    HW233411   4.063   2.580   5.382 -1.1797  0.0728 -1.0312
 7259SOL     OW33412   4.097   3.784   2.457  0.0451 -0.3688  0.0040
 7259SOL    HW133413   4.165   3.760   2.521 -0.9262 -0.5277  0.9802
 7259SOL    HW233414   4.079   3.697   2.422  1.1867 -0.9769  0.9033
 7260SOL     OW33415   0.338   2.615   9.217  0.2646  0.6671 -0.0919
 7260SOL    HW133416   0.400   2.543   9.221  0.6072  0.8939 -1.4940
 7260SOL    HW233417   0.372   2.672   9.287  1.5980  0.7864 -0.8344
 7261SOL     OW33418   2.753   2.590   2.542 -0.2450  0.4041  0.3494
 7261SOL    HW133419   2.718   2.618   2.626 -1.1103 -1.1496  0.5145
 7261SOL    HW233420   2.846   2.599   2.562 -0.8759  1.0886  2.9277
 7262SOL     OW33421   0.705   0.630   0.191  0.4047 -0.6492 -0.1230
 7262SOL    HW133422   0.725   0.540   0.166  1.9332 -0.7433  1.4666
 7262SOL    HW233423   0.631   0.649   0.133  1.4236  0.1358 -1.1530
 7263SOL     OW33424   3.331   4.259   5.129 -0.2594  0.4396  0.0874
 7263SOL    HW133425   3.344   4.348   5.097  2.4941 -0.4927 -1.3606
 7263SOL    HW233426   3.411   4.256   5.180  0.5644 -0.8636 -1.2668
 7264SOL     OW33427   1.198   0.679   5.155  0.0563 -0.2564  0.1471
 7264SOL    HW133428   1.269   0.715   5.208 -0.8643  0.7604  0.6605
 7264SOL    HW233429   1.186   0.593   5.195  0.6759 -0.4746 -0.1292
 7265SOL     OW33430   1.595   1.524   3.208  0.0522  0.1145 -0.0332
 7265SOL    HW133431   1.665   1.482   3.158  0.9497  0.3036  1.0709
 7265SOL    HW233432   1.594   1.614   3.174  1.7111  0.1829  0.0933
 7266SOL     OW33433   4.182   3.877   5.989 -0.5732 -0.5263  0.2653
 7266SOL    HW133434   4.178   3.811   6.058 -0.3712 -1.4143 -0.5655
 7266SOL    HW233435   4.122   3.945   6.020  0.4503  0.8357 -0.7442
 7267SOL     OW33436   3.159   2.467   8.750  0.0052  0.1925  0.3339
 7267SOL    HW133437   3.121   2.528   8.686  0.7819  0.6365  0.3035
 7267SOL    HW233438   3.176   2.391   8.695  0.2684  1.0617 -0.7884
 7268SOL     OW33439   2.903   0.359   5.471 -0.0052  0.4925  0.0692
 7268SOL    HW133440   2.822   0.378   5.520  0.1665 -0.1076  0.5878
 7268SOL    HW233441   2.969   0.376   5.539 -0.1005 -0.5591  0.4178
 7269SOL     OW33442   0.247   2.222  12.493  0.2174 -0.2364 -0.2308
 7269SOL    HW133443   0.299   2.192  12.568 -0.8104  0.0535  0.6138
 7269SOL    HW233444   0.198   2.293  12.535  1.2122 -0.0934  0.6838
 7270SOL     OW33445   4.356   0.606   5.153 -0.0997  0.1239  0.7798
 7270SOL    HW133446   4.405   0.686   5.171  1.4941 -1.4286  3.5101
 7270SOL    HW233447   4.397   0.548   5.218  0.9616 -0.8628 -0.7710
 7271SOL     OW33448   0.872   2.368   8.817 -0.1279  0.1633 -0.2494
 7271SOL    HW133449   0.826   2.369   8.901  1.2027  1.0068  0.4704
 7271SOL    HW233450   0.940   2.304   8.835 -0.3503 -0.6153 -2.1144
 7272SOL     OW33451   3.514   0.332   9.689 -0.2874 -0.7733 -0.6144
 7272SOL    HW133452   3.465   0.279   9.752  0.1245 -1.2415 -0.6822
 7272SOL    HW233453   3.586   0.367   9.740 -1.7753  2.5598 -0.8111
 7273SOL     OW33454   4.604   2.368   7.053  0.2937 -0.4229  1.0503
 7273SOL    HW133455   4.624   2.385   6.961  0.5522 -1.0060  0.9997
 7273SOL    HW233456   4.690   2.381   7.093  0.7740 -2.0862  0.5614
 7274SOL     OW33457   1.164   1.505   8.553  0.0588 -0.0028 -0.0261
 7274SOL    HW133458   1.083   1.534   8.596 -0.1706 -1.1057  0.2892
 7274SOL    HW233459   1.165   1.547   8.467  1.0236  1.0422  0.5065
 7275SOL     OW33460   1.050   2.566   5.590 -0.1630  0.1757 -0.1851
 7275SOL    HW133461   1.143   2.584   5.598  0.3588 -3.4605  1.8364
 7275SOL    HW233462   1.024   2.496   5.651 -1.8748 -0.5081 -1.6662
 7276SOL     OW33463   4.163   3.564   6.830  0.1269  0.6083  0.1473
 7276SOL    HW133464   4.091   3.580   6.769 -0.5049  2.5102  1.3621
 7276SOL    HW233465   4.144   3.480   6.872 -2.5397  1.3258  0.3960
 7277SOL     OW33466   3.772   0.365   4.235 -0.0349  0.2853 -0.0090
 7277SOL    HW133467   3.859   0.372   4.197  1.2315 -0.8803  2.7149
 7277SOL    HW233468   3.735   0.452   4.250 -0.2883  0.2452 -0.4177
 7278SOL     OW33469   0.522   3.314   6.052  0.1594  0.1653 -0.0935
 7278SOL    HW133470   0.580   3.391   6.057 -0.3807  0.6373 -0.9736
 7278SOL    HW233471   0.594   3.251   6.057  0.0703  0.0942  0.2726
 7279SOL     OW33472   0.362   2.451   5.088 -0.5245  0.1410  0.4279
 7279SOL    HW133473   0.446   2.497   5.087 -0.3579 -0.1816 -0.8841
 7279SOL    HW233474   0.389   2.365   5.055 -0.9215 -0.6272  2.0974
 7280SOL     OW33475   0.419   1.393   9.896 -0.6014  0.3857  0.0592
 7280SOL    HW133476   0.430   1.479   9.856  0.6825  0.1053 -0.1706
 7280SOL    HW233477   0.491   1.341   9.861 -0.7446  0.6970 -0.7016
 7281SOL     OW33478   3.898   2.666   8.013 -0.0194  0.5211  0.9656
 7281SOL    HW133479   3.958   2.709   7.952  0.0781  1.1346  1.4930
 7281SOL    HW233480   3.856   2.739   8.059 -2.4229 -0.3488  0.1522
 7282SOL     OW33481   0.429   3.581   5.822  0.0738 -0.4547  0.3924
 7282SOL    HW133482   0.425   3.616   5.911 -2.2921  0.5614 -0.1004
 7282SOL    HW233483   0.353   3.620   5.779 -1.5618 -1.2975  2.5087
 7283SOL     OW33484   2.564   1.973   3.047 -0.6028  0.0286  0.1454
 7283SOL    HW133485   2.557   1.957   3.141  0.4845  1.2493  0.4249
 7283SOL    HW233486   2.625   2.046   3.039 -0.9743  0.2331 -0.7828
 7284SOL     OW33487   1.962   4.161   4.093 -0.8194  0.5863  0.8415
 7284SOL    HW133488   2.006   4.204   4.019 -1.6689  2.1570  1.2500
 7284SOL    HW233489   2.043   4.131   4.134 -0.5016  2.4752  1.6310
 7285SOL     OW33490   2.977   3.467   3.308  0.2324 -0.2048 -0.3294
 7285SOL    HW133491   2.991   3.471   3.403  0.9102 -1.3095 -0.3930
 7285SOL    HW233492   2.932   3.384   3.297  1.9622 -1.1736 -0.0404
 7286SOL     OW33493   3.779   2.201   5.935 -0.8236 -0.3688  0.0597
 7286SOL    HW133494   3.698   2.151   5.924 -2.0144  1.8313 -1.0975
 7286SOL    HW233495   3.758   2.282   5.888 -2.4981 -0.0813  1.3101
 7287SOL     OW33496   0.728   1.721  12.198 -0.2640  0.3065  0.0489
 7287SOL    HW133497   0.660   1.734  12.132  0.6882 -1.7936 -1.3410
 7287SOL    HW233498   0.677   1.694  12.274  0.9773 -1.2171  0.3367
 7288SOL     OW33499   0.067   1.670   4.194 -0.1293  0.2467 -0.7105
 7288SOL    HW133500   4.713   1.671   4.165 -0.4961  0.5271  0.4943
 7288SOL    HW233501   0.064   1.757   4.234 -2.0936  0.1685 -0.7140
 7289SOL     OW33502   4.111   2.998   7.503  0.5295  0.0880  0.1395
 7289SOL    HW133503   4.075   3.068   7.448  0.5272 -0.5501 -0.6728
 7289SOL    HW233504   4.198   3.036   7.502  1.0548 -1.1653 -1.9095
 7290SOL     OW33505   0.754   1.033   6.702  0.5797  0.0046  0.2135
 7290SOL    HW133506   0.697   1.104   6.730 -0.0421  0.5166 -2.3014
 7290SOL    HW233507   0.691   0.972   6.663  0.7394  1.9194 -3.0578
 7291SOL     OW33508   4.436   1.901   6.268 -0.4231  0.2275 -0.0904
 7291SOL    HW133509   4.386   1.854   6.334 -2.3799  1.0802 -0.9583
 7291SOL    HW233510   4.510   1.920   6.325 -0.0946 -1.7270  0.1421
 7292SOL     OW33511   1.116   3.262   8.512 -0.1406  0.2068  0.3404
 7292SOL    HW133512   1.077   3.175   8.508 -1.0324  0.6931 -1.6782
 7292SOL    HW233513   1.038   3.313   8.535 -0.4267  0.2768 -0.7807
 7293SOL     OW33514   3.013   0.268  11.799 -0.5427 -0.2095 -0.5471
 7293SOL    HW133515   2.936   0.218  11.826  0.3938 -0.6084  1.3984
 7293SOL    HW233516   3.071   0.198  11.770 -1.0049 -0.7515 -0.1843
 7294SOL     OW33517   0.662   3.835   0.690 -0.2944 -0.6481  0.7553
 7294SOL    HW133518   0.738   3.837   0.632  0.9316 -0.7248  2.3548
 7294SOL    HW233519   0.617   3.756   0.660 -1.2080 -0.4983  1.7271
 7295SOL     OW33520   2.763   0.300  14.405 -0.0432  1.1567  0.3357
 7295SOL    HW133521   2.704   0.333  14.337 -0.1076 -3.4035 -1.7941
 7295SOL    HW233522   2.804   0.222  14.367 -2.4540 -0.6709  1.4690
 7296SOL     OW33523   2.358   3.534   0.364 -0.3392  0.5834  0.7504
 7296SOL    HW133524   2.272   3.541   0.405 -1.1074  1.9435 -1.0702
 7296SOL    HW233525   2.366   3.627   0.343  0.4328  0.8273  2.1108
 7297SOL     OW33526   2.304   1.989   8.300  0.2749 -0.1676 -0.1781
 7297SOL    HW133527   2.349   1.947   8.374 -0.2643 -1.1681 -0.4085
 7297SOL    HW233528   2.296   2.075   8.340  1.8665 -0.0198 -0.1808
 7298SOL     OW33529   0.642   0.682   8.874 -0.0055  0.0885 -0.2819
 7298SOL    HW133530   0.548   0.691   8.889  0.5091  0.7761  2.6145
 7298SOL    HW233531   0.683   0.626   8.941 -1.0188 -0.1583  0.1375
 7299SOL     OW33532   2.754   0.584  17.021  0.1647  0.7866  0.0571
 7299SOL    HW133533   2.809   0.623  16.954  3.4097 -0.9881  1.6532
 7299SOL    HW233534   2.674   0.635  17.028 -0.7619 -0.9341  2.1111
 7300SOL     OW33535   0.308   2.711   8.960  0.2072 -0.0408 -0.2058
 7300SOL    HW133536   0.315   2.674   9.048  0.2168 -0.3492 -0.3361
 7300SOL    HW233537   0.359   2.792   8.969  2.1669 -1.2095 -0.8395
 7301SOL     OW33538   1.983   4.638   8.245 -0.2103 -0.2583  0.0685
 7301SOL    HW133539   2.066   4.628   8.197  0.3094 -0.4038  0.9875
 7301SOL    HW233540   1.915   4.632   8.179 -0.4868  0.4791  0.2915
 7302SOL     OW33541   4.144   3.797  10.201 -0.1280 -0.4263 -0.6658
 7302SOL    HW133542   4.197   3.806  10.123  0.5181  1.2872 -0.0387
 7302SOL    HW233543   4.180   3.875  10.243  0.4618 -1.0292 -0.0614
 7303SOL     OW33544   4.281   3.416   8.041 -0.1436  0.2291  0.2526
 7303SOL    HW133545   4.223   3.492   8.037 -1.9626 -1.1084  0.7944
 7303SOL    HW233546   4.370   3.446   8.027 -0.3321  0.3859 -0.6212
 7304SOL     OW33547   4.161   2.795  13.663  0.4600 -0.1439  0.0283
 7304SOL    HW133548   4.181   2.863  13.598 -1.4919  0.1110 -0.3293
 7304SOL    HW233549   4.235   2.739  13.640 -1.0982 -1.3624 -1.9995
 7305SOL     OW33550   4.078   2.589  15.637 -0.2478  0.1540 -0.0042
 7305SOL    HW133551   3.992   2.547  15.647 -0.1784  0.1055  0.4234
 7305SOL    HW233552   4.120   2.527  15.697  1.6573  0.8834 -0.5897
 7306SOL     OW33553   3.724   1.114  14.966 -0.4093 -0.6926  0.1128
 7306SOL    HW133554   3.652   1.056  14.940  0.3618 -1.7758  0.3938
 7306SOL    HW233555   3.769   1.132  14.883  0.4499 -0.8679  0.5473
 7307SOL     OW33556   2.742   2.602   3.406  0.0727 -0.3490  0.0460
 7307SOL    HW133557   2.782   2.558   3.481 -0.1877  0.6763  0.7841
 7307SOL    HW233558   2.659   2.635   3.441  0.3123 -0.1313  0.4101
 7308SOL     OW33559   2.701   4.111   0.270 -0.2624 -0.1324 -0.1449
 7308SOL    HW133560   2.655   4.179   0.220 -0.1714 -0.6984 -0.9964
 7308SOL    HW233561   2.644   4.038   0.245  2.0658 -1.2397 -2.1101
 7309SOL     OW33562   1.170   2.609   7.530 -0.2932  0.0982 -0.0618
 7309SOL    HW133563   1.221   2.656   7.597 -0.4771  0.3513 -0.0988
 7309SOL    HW233564   1.140   2.540   7.589  2.4209 -1.1256 -0.1156
 7310SOL     OW33565   4.259   0.048  11.244 -0.3366  0.0135  0.1440
 7310SOL    HW133566   4.326   0.044  11.176 -1.4762  0.9880 -1.0479
 7310SOL    HW233567   4.192   0.102  11.202  1.2920  1.1904 -0.9233
 7311SOL     OW33568   3.761   3.352   5.685 -0.2030  0.8443 -0.0625
 7311SOL    HW133569   3.787   3.262   5.706  1.0039  1.3088  0.3990
 7311SOL    HW233570   3.756   3.395   5.770  2.6666 -0.9375  1.0205
 7312SOL     OW33571   1.547   3.377   5.537  0.1657  0.0732 -0.6122
 7312SOL    HW133572   1.513   3.462   5.510  1.8416  0.8257 -0.3625
 7312SOL    HW233573   1.546   3.329   5.454 -0.9882  0.6315 -0.9113
 7313SOL     OW33574   1.281   3.697   4.686 -0.0302  0.2146 -0.1972
 7313SOL    HW133575   1.193   3.731   4.706  0.5466  0.8813  1.1946
 7313SOL    HW233576   1.262   3.613   4.644 -0.4791  0.6846 -0.9390
 7314SOL     OW33577   4.541   1.114  10.961  0.2176 -0.7827 -0.1089
 7314SOL    HW133578   4.449   1.087  10.958  0.2397 -0.8244 -0.4079
 7314SOL    HW233579   4.529   1.198  11.006 -0.4869 -0.5297 -0.7687
 7315SOL     OW33580   1.412   2.580   6.578  0.5401 -0.0651  0.1945
 7315SOL    HW133581   1.399   2.490   6.547 -1.4348  0.5139 -0.5820
 7315SOL    HW233582   1.373   2.612   6.498 -0.0131 -3.2997 -0.8195
 7316SOL     OW33583   3.377   2.457  14.248 -0.0132  0.1653  0.1361
 7316SOL    HW133584   3.413   2.524  14.305  3.6319 -1.7596  0.1103
 7316SOL    HW233585   3.448   2.452  14.183 -1.9493  0.9385 -2.0260
 7317SOL     OW33586   2.551   1.541   5.721 -0.6029 -0.2802  0.1002
 7317SOL    HW133587   2.458   1.534   5.743 -0.6747  0.7794  0.1442
 7317SOL    HW233588   2.535   1.610   5.657 -3.5232  1.5256  2.7354
 7318SOL     OW33589   2.760   2.057   5.004  0.6369 -0.3893 -0.2382
 7318SOL    HW133590   2.696   1.993   5.036  0.7964 -0.3421  0.1737
 7318SOL    HW233591   2.805   2.021   4.927  2.0382 -0.0086  0.4055
 7319SOL     OW33592   3.038   2.599   7.846 -0.1147  0.6737 -0.2472
 7319SOL    HW133593   2.970   2.581   7.912 -0.2432 -1.5848 -1.0107
 7319SOL    HW233594   2.985   2.621   7.770 -0.3598 -0.6130 -0.4468
 7320SOL     OW33595   0.013   4.462   8.073  0.3948  0.0430  0.2692
 7320SOL    HW133596   4.721   4.553   8.081 -2.2460 -0.7338 -0.5574
 7320SOL    HW233597   4.682   4.408   8.034 -1.4385  2.2233  0.4246
 7321SOL     OW33598   2.713   0.614  13.147  0.1733  0.1220  0.2347
 7321SOL    HW133599   2.705   0.519  13.153  0.0691  0.3074  3.1762
 7321SOL    HW233600   2.659   0.642  13.073 -1.2432 -0.3682  1.0852
 7322SOL     OW33601   4.032   3.549   2.344  0.1218 -0.5465  0.5843
 7322SOL    HW133602   4.041   3.497   2.424  2.0111 -0.1299  0.6372
 7322SOL    HW233603   3.978   3.494   2.288  0.3819 -0.5325  0.3246
 7323SOL     OW33604   1.742   4.212   2.350 -0.0754  0.1939  0.2657
 7323SOL    HW133605   1.715   4.296   2.386 -2.9361 -0.2327 -0.8482
 7323SOL    HW233606   1.805   4.245   2.285 -0.2863 -1.0271 -0.5656
 7324SOL     OW33607   3.974   2.091   2.665  0.1139 -0.0563  0.0842
 7324SOL    HW133608   4.024   2.031   2.609 -2.1761 -2.2643  0.3731
 7324SOL    HW233609   3.896   2.039   2.686 -0.1810  0.3438 -0.0129
 7325SOL     OW33610   4.734   2.204   3.674  0.3348 -0.3837  0.0763
 7325SOL    HW133611   0.041   2.280   3.712  2.3835 -0.8102 -1.5055
 7325SOL    HW233612   4.652   2.197   3.723  0.5694 -0.9512  0.3876
 7326SOL     OW33613   1.025   2.608   8.921  0.5766  0.4319  0.0506
 7326SOL    HW133614   0.943   2.574   8.958  1.7315 -2.1546  0.2477
 7326SOL    HW233615   1.054   2.545   8.856  0.6446 -0.0361  0.5330
 7327SOL     OW33616   0.065   0.586   3.814  0.5063  0.2016  0.7137
 7327SOL    HW133617   0.115   0.653   3.860 -0.1675  0.4026  1.1475
 7327SOL    HW233618   4.732   0.571   3.876 -0.6740  1.5517 -0.3152
 7328SOL     OW33619   0.545   0.131   2.761 -0.5906  0.1300 -0.0166
 7328SOL    HW133620   0.556   0.048   2.714 -0.3250 -0.3131  0.8263
 7328SOL    HW233621   0.586   0.187   2.695  1.4228  0.0982  1.1921
 7329SOL     OW33622   3.173   1.689   1.907 -0.0746 -0.0498  0.1468
 7329SOL    HW133623   3.230   1.764   1.893 -0.2869 -0.2687 -1.9436
 7329SOL    HW233624   3.085   1.727   1.909  0.1809  0.5549 -0.0477
 7330SOL     OW33625   2.537   0.125   5.291  0.0773  0.6559 -0.3771
 7330SOL    HW133626   2.631   0.138   5.307  0.5136 -0.8868 -1.6982
 7330SOL    HW233627   2.529   0.172   5.208  2.0833  0.2177 -0.8156
 7331SOL     OW33628   1.820   3.598  12.580  0.0841 -0.6519  0.3627
 7331SOL    HW133629   1.875   3.672  12.604 -0.0229 -0.6208  0.5191
 7331SOL    HW233630   1.875   3.545  12.523 -0.9825 -0.9243 -0.4125
 7332SOL     OW33631   3.568   1.602   3.219  0.0203  0.3732 -0.0114
 7332SOL    HW133632   3.504   1.531   3.221 -1.8187  2.0001 -1.4486
 7332SOL    HW233633   3.643   1.546   3.236 -1.4757 -1.7756 -0.5780
 7333SOL     OW33634   0.198   4.499   7.546  0.2960  0.0019  0.2358
 7333SOL    HW133635   0.216   4.430   7.610 -1.7850 -3.2554 -2.7145
 7333SOL    HW233636   0.199   4.447   7.466  2.5960 -0.5520  0.6285
 7334SOL     OW33637   0.544   2.806   2.913  0.0670 -0.4844  0.0855
 7334SOL    HW133638   0.554   2.875   2.848 -0.7914 -0.2704  0.1773
 7334SOL    HW233639   0.631   2.767   2.909  1.0734  1.9250 -1.7366
 7335SOL     OW33640   2.147   1.741  16.756  0.1376  0.0869 -0.0066
 7335SOL    HW133641   2.190   1.686  16.690 -0.9041  1.4557 -1.8235
 7335SOL    HW233642   2.060   1.702  16.755  0.0519  0.2434  1.5163
 7336SOL     OW33643   0.945   2.530   7.810  0.1580  0.1139 -0.0656
 7336SOL    HW133644   0.973   2.591   7.879  0.0373  0.7530 -0.5817
 7336SOL    HW233645   0.906   2.470   7.874  0.1732 -1.5018 -1.5784
 7337SOL     OW33646   3.295   0.387  17.741  0.2225  0.4145  0.2726
 7337SOL    HW133647   3.314   0.370   0.085  2.2864  0.3814 -0.1737
 7337SOL    HW233648   3.290   0.294  17.721 -3.4538  0.3303  1.4857
 7338SOL     OW33649   1.571   2.284   7.526  0.4818 -0.1080 -0.6766
 7338SOL    HW133650   1.542   2.303   7.437 -1.4762  0.8790  0.1738
 7338SOL    HW233651   1.568   2.376   7.551  1.7854 -0.2978  0.1899
 7339SOL     OW33652   3.028   4.148   2.350 -0.2387 -0.1305 -0.1257
 7339SOL    HW133653   2.957   4.084   2.342 -0.2009 -0.0003 -1.5184
 7339SOL    HW233654   3.087   4.124   2.422  2.2045 -1.3238 -2.5557
 7340SOL     OW33655   2.595   4.546   6.107 -0.0870 -0.6385 -0.5985
 7340SOL    HW133656   2.545   4.478   6.153 -0.7011  0.1537 -0.1014
 7340SOL    HW233657   2.630   4.501   6.030 -0.5580  0.9749 -1.7604
 7341SOL     OW33658   1.337   0.827   2.787 -0.0976 -0.3893 -0.3917
 7341SOL    HW133659   1.319   0.751   2.731  1.5798 -0.1698 -1.2519
 7341SOL    HW233660   1.414   0.795   2.835  1.2291  1.1717 -1.4654
 7342SOL     OW33661   1.301   0.216   4.973  0.6710 -0.0178 -0.0366
 7342SOL    HW133662   1.352   0.221   5.054 -0.6321 -0.7450  0.8334
 7342SOL    HW233663   1.312   0.304   4.938 -0.2243  0.1308  0.0596
 7343SOL     OW33664   3.089   3.644   5.870 -0.0595  0.0414 -0.1070
 7343SOL    HW133665   3.127   3.728   5.897 -0.9393  0.0230  1.1718
 7343SOL    HW233666   3.011   3.669   5.820  0.7222  1.2444 -0.7175
 7344SOL     OW33667   4.399   1.792   4.550  0.5862  0.0518 -0.1064
 7344SOL    HW133668   4.405   1.749   4.465  0.7092  0.2723 -0.2069
 7344SOL    HW233669   4.445   1.873   4.528 -0.5661  0.9524  0.7979
 7345SOL     OW33670   2.688   0.824   9.375 -0.4140 -0.0687  0.5068
 7345SOL    HW133671   2.596   0.833   9.397 -0.1453  0.5248  1.4229
 7345SOL    HW233672   2.697   0.899   9.317  1.3751  0.4828  1.4917
 7346SOL     OW33673   1.685   0.926  14.762 -0.3679 -0.4109  0.3402
 7346SOL    HW133674   1.714   0.862  14.698 -0.9310 -0.3139 -0.0080
 7346SOL    HW233675   1.764   0.958  14.806 -1.0688  0.6541  0.8218
 7347SOL     OW33676   3.202   2.778   6.354 -0.0490  0.5453  0.2974
 7347SOL    HW133677   3.273   2.842   6.356 -1.8033  2.5587 -1.4926
 7347SOL    HW233678   3.150   2.827   6.290 -0.9456 -1.6987 -0.6918
 7348SOL     OW33679   0.967   4.624   0.123 -0.2670  0.1847 -0.2303
 7348SOL    HW133680   1.037   4.690   0.117 -1.1652  0.8202 -3.5677
 7348SOL    HW233681   0.895   4.686   0.136  0.0901  0.7344 -0.8716
 7349SOL     OW33682   2.042   4.486   9.036 -0.4755  0.2136 -0.0354
 7349SOL    HW133683   2.067   4.541   9.110 -2.1739  1.7142 -0.6067
 7349SOL    HW233684   2.123   4.490   8.985  0.9572 -2.3832  1.9747
 7350SOL     OW33685   2.924   3.441   7.558  0.4235  0.4596  0.0212
 7350SOL    HW133686   2.845   3.402   7.593  0.7986 -0.9837 -0.7232
 7350SOL    HW233687   2.985   3.401   7.620  1.5623  0.6885 -0.9471
 7351SOL     OW33688   1.042   3.561   5.026 -0.1876  0.0075  0.1636
 7351SOL    HW133689   0.980   3.627   4.996  1.5732  1.4951 -0.1711
 7351SOL    HW233690   1.114   3.609   5.067  1.2073 -2.6521  0.8616
 7352SOL     OW33691   0.815   0.878   9.147  0.1427  0.1577 -0.4108
 7352SOL    HW133692   0.799   0.783   9.140 -0.6975  0.2584  0.2293
 7352SOL    HW233693   0.878   0.882   9.219  1.4451 -0.6592 -1.4878
 7353SOL     OW33694   1.056   4.285   7.311 -0.2963 -0.2331  0.5847
 7353SOL    HW133695   1.087   4.234   7.386  0.1124  0.9010  1.1852
 7353SOL    HW233696   1.079   4.227   7.239  0.7692  0.4661  0.3698
 7354SOL     OW33697   0.169   1.961   3.998  0.0964 -0.3479 -0.2994
 7354SOL    HW133698   0.115   2.032   3.963 -3.2290 -2.0487  1.3791
 7354SOL    HW233699   0.150   1.890   3.936 -0.0150  0.6878 -1.4526
 7355SOL     OW33700   3.354   1.429   7.416  0.5300 -0.2540 -0.3537
 7355SOL    HW133701   3.302   1.409   7.494 -0.1076  0.3523 -0.6258
 7355SOL    HW233702   3.442   1.415   7.452 -0.5515 -1.7049  1.7270
 7356SOL     OW33703   2.005   4.578   6.222  0.0601  0.7334 -0.1896
 7356SOL    HW133704   2.002   4.590   6.317 -0.9336  1.5130 -0.3218
 7356SOL    HW233705   1.969   4.491   6.205 -2.3947  1.5910  0.6556
 7357SOL     OW33706   1.553   0.458   2.914  0.5954 -0.4234  0.2304
 7357SOL    HW133707   1.526   0.379   2.960  1.8782 -0.9168  0.1151
 7357SOL    HW233708   1.592   0.425   2.833 -0.1210  0.4376 -0.4710
 7358SOL     OW33709   2.889   4.149   4.938  0.0148 -0.1782 -0.7251
 7358SOL    HW133710   2.865   4.220   4.997  0.0626 -0.9317  0.2048
 7358SOL    HW233711   2.855   4.183   4.855 -1.7675 -1.4567 -0.5203
 7359SOL     OW33712   2.226   4.414   7.914  0.2785 -0.2234  0.2653
 7359SOL    HW133713   2.309   4.442   7.875  1.5018 -1.6728  1.8201
 7359SOL    HW233714   2.162   4.446   7.850  1.2856 -0.0292 -0.6349
 7360SOL     OW33715   2.200   4.139   6.323 -0.5670 -0.6630  0.6143
 7360SOL    HW133716   2.279   4.168   6.369 -0.6153  1.0688 -0.3930
 7360SOL    HW233717   2.216   4.183   6.239  1.1453 -0.8677  0.8288
 7361SOL     OW33718   0.161   4.007   7.919  0.3644 -0.5440 -0.3193
 7361SOL    HW133719   0.241   4.059   7.922 -1.3109  1.9182  1.6330
 7361SOL    HW233720   0.162   3.979   7.827 -1.8634  1.4687 -0.9696
 7362SOL     OW33721   4.342   4.694  10.992 -0.8110  0.4089 -0.1015
 7362SOL    HW133722   4.339   4.627  10.925 -2.3918 -0.3948  0.7648
 7362SOL    HW233723   4.287   0.023  10.950  1.3958  1.6480 -1.0017
 7363SOL     OW33724   4.411   1.112  15.596 -0.4550  0.1396 -0.3563
 7363SOL    HW133725   4.429   1.064  15.515  1.3844  0.2528 -0.0125
 7363SOL    HW233726   4.373   1.193  15.564  0.1393  1.5075  2.3552
 7364SOL     OW33727   2.552   2.282   7.413 -0.0638  0.2986  0.1595
 7364SOL    HW133728   2.497   2.271   7.492 -1.1511 -2.1603 -0.9402
 7364SOL    HW233729   2.634   2.264   7.458  0.2136  0.8626 -0.1319
 7365SOL     OW33730   3.056   2.613   4.090  0.3575 -0.1749  0.4964
 7365SOL    HW133731   3.145   2.649   4.085  0.3717 -0.3333 -0.5109
 7365SOL    HW233732   3.013   2.683   4.041 -0.3683 -0.6712  0.4283
 7366SOL     OW33733   1.463   1.711   3.936  0.0060  0.4908 -0.2019
 7366SOL    HW133734   1.538   1.711   3.995 -0.0433  1.2962 -0.1494
 7366SOL    HW233735   1.492   1.769   3.866 -0.0442  0.8720  0.0911
 7367SOL     OW33736   0.763   2.477   5.843 -0.6563  0.1384 -0.5727
 7367SOL    HW133737   0.850   2.462   5.880  1.0882  0.1804 -4.6020
 7367SOL    HW233738   0.754   2.414   5.772 -1.2010 -0.3150 -0.0969
 7368SOL     OW33739   2.920   1.970   4.818  1.1078  0.1816  0.0608
 7368SOL    HW133740   3.002   1.949   4.863  0.8646 -1.1125 -0.1137
 7368SOL    HW233741   2.933   1.940   4.729 -0.3302 -3.0980  0.9788
 7369SOL     OW33742   1.131   4.213   5.522 -0.8735  0.0394  0.6588
 7369SOL    HW133743   1.048   4.184   5.483 -1.0275  0.2196  0.8526
 7369SOL    HW233744   1.109   4.241   5.610 -0.6956  0.5688  0.5389
 7370SOL     OW33745   2.336   3.294  10.392  0.1240  0.1306 -0.1194
 7370SOL    HW133746   2.281   3.220  10.365  1.3036 -1.4030  1.6615
 7370SOL    HW233747   2.352   3.266  10.483  0.3200  0.6053 -0.0099
 7371SOL     OW33748   2.103   0.979  15.908  0.2011  0.1622  0.0573
 7371SOL    HW133749   2.018   1.022  15.901 -1.4968 -3.1299  0.4160
 7371SOL    HW233750   2.145   0.997  15.824 -0.4856  1.8250  0.0745
 7372SOL     OW33751   4.665   1.453  14.512 -0.0081  0.2471  0.1063
 7372SOL    HW133752   4.637   1.365  14.490  0.3860 -0.0196  0.6682
 7372SOL    HW233753   0.015   1.455  14.472  0.2390  2.5997  0.7512
 7373SOL     OW33754   1.036   2.215  14.356  0.1461 -0.3273 -0.5223
 7373SOL    HW133755   0.941   2.209  14.352 -0.0163  2.0702 -0.3239
 7373SOL    HW233756   1.066   2.138  14.405 -3.6483 -0.5616  1.3870
 7374SOL     OW33757   0.353   4.040   2.502 -0.6149  0.5208  0.0305
 7374SOL    HW133758   0.287   3.978   2.472  1.5732 -1.3227 -0.9893
 7374SOL    HW233759   0.435   3.992   2.491 -0.4805  0.7207  0.1538
 7375SOL     OW33760   2.123   3.375  10.609  1.1195 -0.1793  0.0194
 7375SOL    HW133761   2.206   3.418  10.588  0.7096  0.8158  0.4527
 7375SOL    HW233762   2.067   3.407  10.538  0.6546 -0.2361  0.3585
 7376SOL     OW33763   0.957   1.976   5.858  0.2712  0.2036  0.1874
 7376SOL    HW133764   0.993   2.000   5.773 -1.4195  0.2579 -0.5156
 7376SOL    HW233765   0.895   2.045   5.880  0.1448  0.8168 -2.1288
 7377SOL     OW33766   0.077   4.142   0.050 -0.2748 -0.0178  0.0583
 7377SOL    HW133767   0.030   4.147  17.715  1.6741  2.1143 -0.9109
 7377SOL    HW233768   0.011   4.179   0.109 -0.6529  0.8289 -0.8982
 7378SOL     OW33769   1.532   3.056   6.370 -0.9200  0.1054 -0.0599
 7378SOL    HW133770   1.539   2.961   6.375 -0.4770  0.1572  0.2845
 7378SOL    HW233771   1.570   3.071   6.456 -0.1395 -1.2084 -0.1736
 7379SOL     OW33772   4.257   2.997  12.793 -0.5072  0.4884 -0.1009
 7379SOL    HW133773   4.224   3.066  12.851  0.6471  0.4222  0.6285
 7379SOL    HW233774   4.353   3.002  12.791 -0.5639  0.7447 -2.5994
 7380SOL     OW33775   0.431   2.439   7.857  0.2710  0.0301 -0.3623
 7380SOL    HW133776   0.493   2.469   7.790  2.7340  1.4196  2.5584
 7380SOL    HW233777   0.468   2.352   7.872 -2.6545 -1.1989 -0.4066
 7381SOL     OW33778   1.575   0.887   4.993 -0.0478 -0.0853  0.0962
 7381SOL    HW133779   1.588   0.831   5.070  0.6653  1.2003  0.9100
 7381SOL    HW233780   1.578   0.967   5.045  1.7736  0.0159 -0.1503
 7382SOL     OW33781   2.457   1.898   8.506  0.3349 -0.6953  0.3152
 7382SOL    HW133782   2.468   1.982   8.551  0.5943 -0.8302  0.5064
 7382SOL    HW233783   2.502   1.840   8.567  0.7326  1.0752  1.7010
 7383SOL     OW33784   3.954   2.514   3.278 -0.1251 -0.3239 -0.3087
 7383SOL    HW133785   3.923   2.593   3.323  1.0574  0.4350 -0.8407
 7383SOL    HW233786   3.997   2.550   3.201  0.0168 -0.9720 -0.5368
 7384SOL     OW33787   0.499   3.316   6.567 -0.1842  0.1379  0.4352
 7384SOL    HW133788   0.552   3.321   6.488 -3.5155 -0.7621 -1.8811
 7384SOL    HW233789   0.563   3.326   6.637  1.3911  2.3009 -1.3328
 7385SOL     OW33790   3.673   0.583  13.504 -0.0978  0.2709  0.6296
 7385SOL    HW133791   3.611   0.628  13.446  0.9452  0.0755 -0.6557
 7385SOL    HW233792   3.645   0.604  13.593  1.8488 -0.0783  1.3323
 7386SOL     OW33793   4.684   4.450  10.413 -0.0844  0.2736 -0.0098
 7386SOL    HW133794   4.726   4.413  10.491  0.7280 -1.1886 -1.1678
 7386SOL    HW233795   4.593   4.425  10.430  0.4857 -1.4797  0.4305
 7387SOL     OW33796   3.983   1.901   1.724  0.2354 -0.3616 -0.3763
 7387SOL    HW133797   3.926   1.823   1.725 -0.4460  0.1275 -1.3776
 7387SOL    HW233798   3.964   1.933   1.812  0.2817 -1.8892  0.1903
 7388SOL     OW33799   1.300   2.789   8.970 -0.4960  0.2661  0.1353
 7388SOL    HW133800   1.300   2.702   8.931  0.3129 -1.3218  3.7222
 7388SOL    HW233801   1.345   2.776   9.053  1.1534  1.0609 -0.6276
 7389SOL     OW33802   2.822   4.001   1.913  0.6580  0.3430  0.1169
 7389SOL    HW133803   2.841   4.044   1.829  0.0370  0.3492 -0.0169
 7389SOL    HW233804   2.890   4.042   1.966  0.1481  1.7720 -0.3337
 7390SOL     OW33805   4.333   1.612  17.510 -0.6175  0.1858 -0.2270
 7390SOL    HW133806   4.313   1.584  17.599 -3.0721 -0.5736 -1.0122
 7390SOL    HW233807   4.388   1.689  17.526  1.6815 -1.2683 -1.0525
 7391SOL     OW33808   2.162   2.077   8.938  0.5744  0.0650  0.1648
 7391SOL    HW133809   2.145   2.171   8.931 -1.4351 -0.3760 -0.9106
 7391SOL    HW233810   2.257   2.068   8.948  0.1010 -2.9421  2.0460
 7392SOL     OW33811   0.279   0.203   3.117  0.0272 -0.2625 -0.4502
 7392SOL    HW133812   0.184   0.208   3.102  0.0751 -0.5018 -0.8326
 7392SOL    HW233813   0.294   0.298   3.124 -1.8940 -0.1909  2.7592
 7393SOL     OW33814   1.347   3.823   9.513  0.5971 -0.5300 -0.0187
 7393SOL    HW133815   1.345   3.805   9.607 -0.8500  1.2286  0.2956
 7393SOL    HW233816   1.358   3.918   9.513  1.0361 -0.5804  0.1707
 7394SOL     OW33817   4.688   4.083   0.400 -0.1327  0.4052 -0.1176
 7394SOL    HW133818   0.016   4.018   0.375  0.5439  0.0958  2.4385
 7394SOL    HW233819   0.006   4.161   0.403  0.5902 -0.0714 -1.0536
 7395SOL     OW33820   0.288   3.053  17.520 -0.4442 -0.2138 -0.0993
 7395SOL    HW133821   0.362   3.097  17.479  0.1026  0.2743  1.4414
 7395SOL    HW233822   0.210   3.067  17.465 -0.9827  2.4956  1.3920
 7396SOL     OW33823   4.172   0.659   5.439  0.1320  0.5227 -0.0974
 7396SOL    HW133824   4.161   0.574   5.395  1.2853 -0.1199  0.8323
 7396SOL    HW233825   4.256   0.644   5.482 -0.2378 -1.1945  0.0342
 7397SOL     OW33826   3.615   4.396   4.256 -0.5450  0.0772 -0.1933
 7397SOL    HW133827   3.562   4.418   4.179 -2.0964 -1.2581  0.5111
 7397SOL    HW233828   3.698   4.440   4.239  0.2348 -1.6529 -0.8945
 7398SOL     OW33829   2.165   3.921   4.487 -0.1749  0.2121 -0.3174
 7398SOL    HW133830   2.124   3.906   4.572 -0.4479 -2.1483 -0.8691
 7398SOL    HW233831   2.104   3.868   4.437  0.3428 -0.3834 -0.3222
 7399SOL     OW33832   3.247   4.298   8.685  0.3303  0.3225 -0.0889
 7399SOL    HW133833   3.263   4.258   8.600  0.8569  2.2708 -0.9122
 7399SOL    HW233834   3.263   4.390   8.662  1.0701  0.1027 -0.4253
 7400SOL     OW33835   1.431   3.965   6.395  0.0163  0.0836 -0.3755
 7400SOL    HW133836   1.484   4.043   6.413  1.1834 -0.6681 -0.5704
 7400SOL    HW233837   1.499   3.904   6.367 -1.8615 -2.6025  0.9443
 7401SOL     OW33838   1.001   4.224   4.314 -0.6332  0.1969 -0.2880
 7401SOL    HW133839   1.000   4.148   4.255  0.4542 -1.5174  1.9064
 7401SOL    HW233840   0.970   4.190   4.398  0.1429  0.0038 -0.0747
 7402SOL     OW33841   4.328   0.294   8.282 -0.3061  0.0163 -0.7864
 7402SOL    HW133842   4.244   0.249   8.288 -1.2555  2.2036  1.9498
 7402SOL    HW233843   4.389   0.253   8.343 -0.2667  1.5219  0.1743
 7403SOL     OW33844   2.138   2.607  11.998  0.2830  0.2211 -0.1090
 7403SOL    HW133845   2.160   2.699  11.982 -1.2040  0.6248  0.1495
 7403SOL    HW233846   2.183   2.605  12.082 -0.8299 -2.8021  0.3794
 7404SOL     OW33847   4.268   3.589   4.726 -0.1011  0.0424 -0.2738
 7404SOL    HW133848   4.318   3.565   4.803  2.8263 -0.5313 -2.3626
 7404SOL    HW233849   4.262   3.684   4.735 -0.9936 -0.0604  0.2340
 7405SOL     OW33850   0.271   2.116  15.658 -0.0091  0.2878 -0.5294
 7405SOL    HW133851   0.314   2.035  15.630 -4.7106 -1.8486 -1.4793
 7405SOL    HW233852   0.337   2.180  15.632  0.1344  1.4121  2.5683
 7406SOL     OW33853   1.639   2.630   3.893  0.1625  0.0635  0.1947
 7406SOL    HW133854   1.619   2.680   3.814 -0.2600  1.1561  0.9815
 7406SOL    HW233855   1.620   2.694   3.962  1.9709  1.6645 -0.7878
 7407SOL     OW33856   0.648   4.669   6.178  0.5442 -0.1972 -0.0666
 7407SOL    HW133857   0.705   0.005   6.201  0.3897  0.1787 -0.9008
 7407SOL    HW233858   0.689   4.636   6.098  2.1518  0.9810  0.2586
 7408SOL     OW33859   0.395   4.139   0.664 -0.1991  0.4098 -0.3894
 7408SOL    HW133860   0.358   4.088   0.736 -3.0472  1.9931 -0.7385
 7408SOL    HW233861   0.345   4.096   0.595  1.1460 -0.3481 -0.9066
 7409SOL     OW33862   0.357   0.305   2.500 -0.3653  0.3921 -0.2045
 7409SOL    HW133863   0.342   0.383   2.553  0.2214  0.2914  0.1019
 7409SOL    HW233864   0.433   0.337   2.452 -1.2030  1.7733 -0.6113
 7410SOL     OW33865   2.118   2.316   6.061  0.1490  0.4038 -0.0047
 7410SOL    HW133866   2.131   2.408   6.085 -0.0998  0.1328  1.1396
 7410SOL    HW233867   2.033   2.309   6.105 -0.5689 -0.2134 -1.4996
 7411SOL     OW33868   2.915   3.481  13.706  0.0393  0.2291  0.0589
 7411SOL    HW133869   2.824   3.467  13.682 -0.1991  0.0335  1.0748
 7411SOL    HW233870   2.906   3.473  13.801 -0.8367 -0.1170 -0.0545
 7412SOL     OW33871   1.276   4.657   8.109 -0.0961 -0.0942 -0.5694
 7412SOL    HW133872   1.325   4.576   8.123  1.2133  0.4726 -1.8239
 7412SOL    HW233873   1.253   4.633   8.019 -1.0527  2.0618 -0.9061
 7413SOL     OW33874   4.516   4.690  11.461 -0.2164  0.3623  0.5532
 7413SOL    HW133875   4.564   0.019  11.511 -0.1185  1.3493 -0.8569
 7413SOL    HW233876   4.547   4.718  11.375  0.7285  2.3535  1.5478
 7414SOL     OW33877   0.243   0.499  16.259 -0.4652 -0.1441 -0.3000
 7414SOL    HW133878   0.337   0.510  16.273 -0.4659 -0.4820 -0.0138
 7414SOL    HW233879   0.224   0.575  16.205 -0.7839 -0.5611 -0.7881
 7415SOL     OW33880   4.646   1.794   6.849  0.0935 -0.5316 -0.0182
 7415SOL    HW133881   4.582   1.807   6.919 -0.5736 -1.0807 -0.5329
 7415SOL    HW233882   4.723   1.848   6.869 -0.4115  0.3292 -0.3758
 7416SOL     OW33883   2.133   2.414  15.768 -0.1172 -0.2048  0.0821
 7416SOL    HW133884   2.079   2.390  15.692 -0.8974 -2.2227  1.2535
 7416SOL    HW233885   2.211   2.418  15.713 -0.8896 -0.3501 -1.0368
 7417SOL     OW33886   3.822   2.073   3.274 -0.3263  0.1866 -0.5112
 7417SOL    HW133887   3.900   2.097   3.225  2.2884 -1.7635  2.7006
 7417SOL    HW233888   3.770   2.153   3.264  0.7016  0.6460 -2.0557
 7418SOL     OW33889   3.488   3.916  16.555 -0.1139 -0.3412 -0.6294
 7418SOL    HW133890   3.536   3.835  16.538 -0.1362 -0.1877 -1.3961
 7418SOL    HW233891   3.486   3.953  16.467 -0.2179  0.9976 -0.0588
 7419SOL     OW33892   3.191   0.056   9.995  0.6903  0.1977 -0.1888
 7419SOL    HW133893   3.152   4.707   9.988  0.2412  0.4645 -1.0392
 7419SOL    HW233894   3.227   0.059  10.083  0.4155 -2.2326 -0.0047
 7420SOL     OW33895   3.506   2.516   4.144  0.1314 -0.7175 -0.1578
 7420SOL    HW133896   3.545   2.454   4.083 -1.7623 -1.6096 -0.4443
 7420SOL    HW233897   3.566   2.590   4.129 -0.3576 -0.2242  0.3126
 7421SOL     OW33898   1.946   3.117   3.509 -0.1835  0.0391  0.3891
 7421SOL    HW133899   1.871   3.164   3.473  3.1064  2.2011 -3.7437
 7421SOL    HW233900   1.912   3.035   3.544  0.1376 -0.4392 -0.4317
 7422SOL     OW33901   4.391   2.264   5.983  0.3063 -0.0802  0.5258
 7422SOL    HW133902   4.397   2.297   5.894  0.5583 -0.4288  0.4110
 7422SOL    HW233903   4.299   2.243   5.991  0.8152 -2.1787  0.7581
 7423SOL     OW33904   0.962   3.921  12.338 -0.1819 -0.1172 -0.2721
 7423SOL    HW133905   0.975   3.904  12.245 -0.9370 -1.5716 -0.1072
 7423SOL    HW233906   0.990   3.837  12.375  0.9009 -0.2166 -1.3220
 7424SOL     OW33907   0.679   2.304  16.547 -0.2173 -0.1618  0.5053
 7424SOL    HW133908   0.682   2.224  16.600  2.8847 -0.1862  0.3078
 7424SOL    HW233909   0.604   2.283  16.491 -0.3014  0.4279  0.3946
 7425SOL     OW33910   0.850   1.310   4.166 -0.5567 -0.2507  0.2025
 7425SOL    HW133911   0.788   1.350   4.105 -0.6230 -0.3124  0.2298
 7425SOL    HW233912   0.818   1.221   4.152 -0.5216 -0.0569 -1.1356
 7426SOL     OW33913   3.778   1.733   4.105  0.2802 -0.3635  0.3320
 7426SOL    HW133914   3.712   1.720   4.037  1.1198  0.4174 -0.6220
 7426SOL    HW233915   3.746   1.662   4.160  2.2090 -0.5811  1.1956
 7427SOL     OW33916   3.004   0.175  13.288 -0.8307  0.5899  0.4182
 7427SOL    HW133917   2.931   0.194  13.347 -0.1299 -0.2034  1.5304
 7427SOL    HW233918   2.963   0.214  13.211 -1.8499 -0.2433  0.5391
 7428SOL     OW33919   1.812   2.352   4.356  0.2030 -0.1115  0.2013
 7428SOL    HW133920   1.730   2.381   4.397  0.4022 -0.5286  0.8895
 7428SOL    HW233921   1.788   2.375   4.266 -1.9286 -1.7467  0.3465
 7429SOL     OW33922   0.109   3.082  16.265  0.0280  0.0840  0.0108
 7429SOL    HW133923   0.153   3.146  16.210 -1.9151  1.5951  0.2431
 7429SOL    HW233924   0.074   3.140  16.333 -2.1489 -0.8374 -0.3438
 7430SOL     OW33925   4.684   1.951   1.125  0.3642  0.2428  0.0298
 7430SOL    HW133926   4.674   1.906   1.041  0.4665 -2.0980  1.2876
 7430SOL    HW233927   4.717   2.033   1.087  1.5518 -0.3462 -0.2175
 7431SOL     OW33928   0.728   3.055  17.433 -0.2444  0.5501 -0.3692
 7431SOL    HW133929   0.654   3.108  17.406 -0.2354 -1.0080 -3.5324
 7431SOL    HW233930   0.787   3.042  17.359 -0.0728 -1.3579  0.1003
 7432SOL     OW33931   3.770   4.456   8.097 -0.4622  0.2874  0.1695
 7432SOL    HW133932   3.845   4.505   8.130 -0.4501 -0.3241  1.0321
 7432SOL    HW233933   3.696   4.507   8.129 -0.7727  0.2917 -0.5560
 7433SOL     OW33934   2.804   0.901   5.677  0.7973  0.4798  0.9830
 7433SOL    HW133935   2.861   0.879   5.603 -0.7456  1.6772 -0.5647
 7433SOL    HW233936   2.737   0.834   5.667  0.0045  1.6262 -1.3204
 7434SOL     OW33937   1.097   0.072   4.898 -0.0252 -0.0345 -0.6940
 7434SOL    HW133938   1.179   0.112   4.927  1.0780 -1.4197 -1.9335
 7434SOL    HW233939   1.083   0.000   4.961 -0.1017 -0.0367 -0.7130
 7435SOL     OW33940   4.290   4.160   6.375  0.2875  0.0835 -0.0181
 7435SOL    HW133941   4.295   4.236   6.432 -1.1219  1.8994 -2.3110
 7435SOL    HW233942   4.353   4.097   6.410 -0.3444 -1.4307 -1.5743
 7436SOL     OW33943   2.991   1.648  13.953 -0.4199 -0.4013  0.3741
 7436SOL    HW133944   3.055   1.624  14.021  2.1394 -1.5403 -2.4257
 7436SOL    HW233945   2.927   1.701  14.000  1.1652  0.0592  2.0374
 7437SOL     OW33946   2.299   2.962  13.308 -0.0749  0.6971  0.2211
 7437SOL    HW133947   2.326   2.945  13.399 -0.2335  0.5929  0.2472
 7437SOL    HW233948   2.349   2.894  13.264 -0.8427 -0.1566  0.6811
 7438SOL     OW33949   1.824   1.716   0.840  0.3899 -0.1337  0.6502
 7438SOL    HW133950   1.733   1.744   0.824  0.3027 -0.6592  0.2306
 7438SOL    HW233951   1.837   1.770   0.918  3.0355 -0.7703  0.6246
 7439SOL     OW33952   0.923   0.251   6.535  0.0388  0.4751 -0.4976
 7439SOL    HW133953   0.884   0.332   6.570  1.2491  0.1571  1.5905
 7439SOL    HW233954   0.999   0.247   6.593 -0.4200 -2.2494 -0.1052
 7440SOL     OW33955   4.061   0.836  14.717  0.9380  0.1734 -0.4822
 7440SOL    HW133956   4.041   0.838  14.623 -0.8497 -0.9490 -0.1250
 7440SOL    HW233957   4.068   0.744  14.743  2.5766  0.8914  1.5929
 7441SOL     OW33958   0.359   2.676  15.119  0.1226  0.1654  0.0318
 7441SOL    HW133959   0.289   2.681  15.185  0.9226  1.0868  0.8066
 7441SOL    HW233960   0.422   2.636  15.178  0.5046  0.4380 -0.1940
 7442SOL     OW33961   2.756   1.002  11.308 -0.0293 -0.1585 -0.1743
 7442SOL    HW133962   2.774   0.971  11.397 -0.1180  0.4261  0.0485
 7442SOL    HW233963   2.661   0.992  11.300 -0.1191  0.5978 -0.0088
 7443SOL     OW33964   0.875   4.489  14.957  0.1105  0.2967 -0.3860
 7443SOL    HW133965   0.898   4.499  15.050  1.9116  0.7584 -0.8701
 7443SOL    HW233966   0.914   4.571  14.925  1.1208  0.7410  1.9854
 7444SOL     OW33967   4.379   0.431   0.816 -0.0842 -0.2093 -0.2163
 7444SOL    HW133968   4.308   0.487   0.848  0.0316 -1.2314  1.8108
 7444SOL    HW233969   4.353   0.347   0.853  0.1322  0.2617  1.0025
 7445SOL     OW33970   3.565   1.897   8.610 -0.4285 -0.1470  0.2483
 7445SOL    HW133971   3.541   1.967   8.550 -1.1010  0.1976  0.9158
 7445SOL    HW233972   3.565   1.942   8.695  0.9950 -1.6491  1.0364
 7446SOL     OW33973   2.373   0.520   6.562  0.2527  0.0962  0.2342
 7446SOL    HW133974   2.309   0.588   6.584  0.0803  0.1438 -0.4192
 7446SOL    HW233975   2.357   0.512   6.468  4.4992 -1.9269 -0.3186
 7447SOL     OW33976   2.445   3.109   6.570  0.0515 -0.2066 -0.4852
 7447SOL    HW133977   2.447   3.195   6.527  2.6076  0.0030  0.0670
 7447SOL    HW233978   2.538   3.101   6.589 -0.6995 -2.2426  2.2265
 7448SOL     OW33979   2.508   1.201   9.834 -0.2699  0.3069  0.3324
 7448SOL    HW133980   2.510   1.183   9.740 -3.0596 -0.4398  0.3944
 7448SOL    HW233981   2.443   1.138   9.867 -1.2796  1.0374 -0.2599
 7449SOL     OW33982   3.404   1.747   6.581  0.0891  0.3586  0.7433
 7449SOL    HW133983   3.439   1.835   6.565 -0.5769  0.2628 -1.2590
 7449SOL    HW233984   3.379   1.753   6.674 -1.5005 -2.6877  0.5121
 7450SOL     OW33985   4.137   3.541   1.895  0.1572  0.2388  0.2734
 7450SOL    HW133986   4.076   3.614   1.901 -0.2757 -0.0855 -0.1059
 7450SOL    HW233987   4.079   3.466   1.879  0.3758  0.3136 -0.9288
 7451SOL     OW33988   2.687   2.075   6.052 -0.6694 -0.2809  0.3292
 7451SOL    HW133989   2.620   2.066   6.120 -0.0422  1.9175  1.2474
 7451SOL    HW233990   2.641   2.068   5.969 -1.8333 -0.8501  1.0146
 7452SOL     OW33991   1.608   1.494   5.075 -1.0097 -0.3004 -0.2921
 7452SOL    HW133992   1.621   1.516   5.167  0.2996 -1.2561 -0.2469
 7452SOL    HW233993   1.591   1.583   5.045 -0.3486 -0.0845 -0.0311
 7453SOL     OW33994   3.499   2.968   6.766 -0.0503 -0.1901 -0.0223
 7453SOL    HW133995   3.531   2.957   6.676  1.9544  3.7145  0.2051
 7453SOL    HW233996   3.406   2.957   6.747 -0.0865  0.1396 -0.0302
 7454SOL     OW33997   1.156   1.238   4.977  0.3193 -0.2636  0.2580
 7454SOL    HW133998   1.245   1.254   5.008  0.7034 -2.0602  0.0948
 7454SOL    HW233999   1.169   1.275   4.889 -2.1018  0.8944  0.3935
 7455SOL     OW34000   3.225   4.563   5.254 -0.1092  0.2084  0.9763
 7455SOL    HW134001   3.176   4.606   5.184  1.5922 -3.0072 -2.2188
 7455SOL    HW234002   3.307   4.543   5.208  0.0049  1.0898  0.7994
 7456SOL     OW34003   2.006   0.242   7.279  0.2825 -0.0799 -0.2094
 7456SOL    HW134004   2.039   0.332   7.285  0.0935 -0.1110  1.1812
 7456SOL    HW234005   1.933   0.249   7.217  1.9694 -0.3953 -2.2520
 7457SOL     OW34006   2.053   4.220  11.773 -0.0974  0.3093 -0.9684
 7457SOL    HW134007   2.066   4.193  11.864  0.6335 -0.2350 -1.2369
 7457SOL    HW234008   1.983   4.285  11.777 -2.1159 -2.0475  2.4332
 7458SOL     OW34009   3.456   4.735   2.558 -0.2727  0.5181 -0.4111
 7458SOL    HW134010   3.497   4.653   2.585  0.4872  1.5287  1.4856
 7458SOL    HW234011   3.364   4.716   2.537 -0.9769  0.9563  2.2313
 7459SOL     OW34012   0.542   3.926   1.996  0.1191 -0.0656  0.1370
 7459SOL    HW134013   0.575   3.996   2.053  0.3319  1.5226 -1.9085
 7459SOL    HW234014   0.622   3.915   1.945 -2.0340 -0.5628 -3.0839
 7460SOL     OW34015   4.258   0.854   8.042  0.4947 -0.6385  0.2958
 7460SOL    HW134016   4.226   0.943   8.055  1.6630  0.0026 -1.2770
 7460SOL    HW234017   4.178   0.803   8.058  0.0137  0.1668  0.4443
 7461SOL     OW34018   4.546   0.133  14.318 -0.1449 -0.3064  0.5935
 7461SOL    HW134019   4.501   0.217  14.330 -0.0681 -0.0827 -0.7069
 7461SOL    HW234020   4.477   0.077  14.356 -0.1013 -1.8635 -1.6185
 7462SOL     OW34021   2.450   2.695   4.662 -0.3348  0.4405 -0.2470
 7462SOL    HW134022   2.539   2.704   4.696 -0.9275  0.8905  1.1603
 7462SOL    HW234023   2.451   2.602   4.639  0.3485 -0.0596  1.8206
 7463SOL     OW34024   1.901   1.697   4.197 -0.0791 -0.2144 -0.3087
 7463SOL    HW134025   1.987   1.679   4.160 -0.4374 -1.5730 -0.4888
 7463SOL    HW234026   1.919   1.703   4.290  0.2108  1.2547 -0.4588
 7464SOL     OW34027   1.580   4.256  17.604  0.1361 -0.1953 -0.3546
 7464SOL    HW134028   1.585   4.160  17.599  2.9619  0.0063 -1.2140
 7464SOL    HW234029   1.596   4.273  17.696  2.7983  1.3284 -1.1084
 7465SOL     OW34030   1.249   3.939   8.042 -0.3905  0.0995 -0.3347
 7465SOL    HW134031   1.229   3.880   8.115  0.4005  0.1501 -0.0773
 7465SOL    HW234032   1.286   3.879   7.976 -2.1379  0.5426 -1.7220
 7466SOL     OW34033   3.260   0.303   8.517  0.0868  0.3787 -0.0688
 7466SOL    HW134034   3.195   0.282   8.451 -1.4357  2.8627  0.6449
 7466SOL    HW234035   3.252   0.226   8.574  0.5918 -0.5966 -1.3151
 7467SOL     OW34036   4.378   0.218   7.258  0.5298  0.3384  0.1583
 7467SOL    HW134037   4.297   0.254   7.223 -0.2562 -1.5473  0.0505
 7467SOL    HW234038   4.374   0.261   7.344  2.7979  1.6969 -0.3983
 7468SOL     OW34039   1.632   3.202   4.833 -0.0157 -0.1905  0.0341
 7468SOL    HW134040   1.723   3.230   4.827 -0.1279  0.1827  0.0690
 7468SOL    HW234041   1.586   3.271   4.786  1.0250 -0.0264 -0.7468
 7469SOL     OW34042   1.075   4.034  10.802  0.4539 -0.0233 -0.1521
 7469SOL    HW134043   1.165   4.014  10.777  0.2537 -0.7113 -0.3291
 7469SOL    HW234044   1.057   4.110  10.747  0.8819  0.7980  0.8515
 7470SOL     OW34045   4.250   3.006   8.697 -0.0272 -0.1441 -0.0435
 7470SOL    HW134046   4.199   2.926   8.683 -3.0829  1.8547 -0.4719
 7470SOL    HW234047   4.273   3.001   8.790 -0.6168  1.5235  0.2024
 7471SOL     OW34048   3.257   1.692   8.232 -0.0502  0.1986 -0.2443
 7471SOL    HW134049   3.265   1.772   8.285 -0.0195 -0.0961  0.1959
 7471SOL    HW234050   3.263   1.629   8.304 -1.1188  1.7234  1.1725
 7472SOL     OW34051   3.917   1.712   7.878 -0.1132  0.2894 -0.6358
 7472SOL    HW134052   3.830   1.745   7.901 -0.0760  0.4947 -0.7883
 7472SOL    HW234053   3.949   1.681   7.963 -2.5160  1.7200  0.7753
 7473SOL     OW34054   2.861   0.469  16.215 -0.3704 -0.0743  0.4943
 7473SOL    HW134055   2.918   0.545  16.203  0.4529 -1.3218 -3.5394
 7473SOL    HW234056   2.776   0.505  16.189  0.0913 -0.2764 -1.3447
 7474SOL     OW34057   1.875   2.682  11.844  0.0683 -0.6298 -0.2749
 7474SOL    HW134058   1.966   2.697  11.818  0.7701  0.5303  2.8811
 7474SOL    HW234059   1.892   2.624  11.918  0.5793 -0.7043 -0.4519
 7475SOL     OW34060   1.611   0.103   9.901  0.0120 -0.2086 -0.1777
 7475SOL    HW134061   1.570   0.027   9.861 -0.9310 -0.4578  1.2921
 7475SOL    HW234062   1.654   0.068   9.979 -0.0412 -1.0615 -0.5258
 7476SOL     OW34063   1.544   0.997   9.074 -0.0549 -0.7442 -0.2958
 7476SOL    HW134064   1.550   0.904   9.097  1.1576 -0.6282 -0.1248
 7476SOL    HW234065   1.593   0.998   8.992  0.8248 -0.4833  0.2248
 7477SOL     OW34066   4.008   1.008   3.790  0.5514  0.1181  0.9108
 7477SOL    HW134067   3.915   1.023   3.807  0.3671 -0.9272  0.8652
 7477SOL    HW234068   4.038   1.096   3.812  1.1049  0.3126 -0.5800
 7478SOL     OW34069   0.255   4.665   1.805 -0.1407 -0.0581 -0.5236
 7478SOL    HW134070   0.183   4.620   1.849 -0.3164 -1.3899 -2.1709
 7478SOL    HW234071   0.235   4.643   1.714  1.3407  0.8909 -1.0772
 7479SOL     OW34072   0.120   4.377  16.188  0.7242  0.1026  0.5293
 7479SOL    HW134073   0.111   4.453  16.244 -0.7257  0.9476 -0.8242
 7479SOL    HW234074   0.211   4.375  16.159  1.0470 -1.3796  1.6543
 7480SOL     OW34075   1.437   0.897   7.098 -0.0703  0.0957  0.0342
 7480SOL    HW134076   1.402   0.868   7.182 -1.5972 -0.9921 -0.9812
 7480SOL    HW234077   1.489   0.971   7.129 -0.1408 -0.3224  1.1397
 7481SOL     OW34078   1.216   3.441   5.938  0.7159  0.4113 -0.2115
 7481SOL    HW134079   1.302   3.400   5.941  0.5874  0.3566  2.6484
 7481SOL    HW234080   1.188   3.433   5.847 -0.6514  0.1700  0.2401
 7482SOL     OW34081   2.565   4.664  12.205  0.4451 -0.3096  0.4618
 7482SOL    HW134082   2.656   4.681  12.178 -0.0498 -0.8882 -1.5698
 7482SOL    HW234083   2.523   0.012  12.214  0.8973 -0.2320  1.9266
 7483SOL     OW34084   3.635   0.430   0.556 -0.7858  0.3119  0.3193
 7483SOL    HW134085   3.561   0.370   0.543  2.3442 -3.3518 -0.6851
 7483SOL    HW234086   3.627   0.446   0.650 -1.9936  0.6909  0.1501
 7484SOL     OW34087   4.418   4.360   2.967  0.3135  0.1200  0.2855
 7484SOL    HW134088   4.437   4.362   3.061 -0.2955  2.1519  0.3757
 7484SOL    HW234089   4.458   4.276   2.946  1.1413  0.7619 -0.6815
 7485SOL     OW34090   0.308   0.657   8.737 -0.2958  0.5984  0.5503
 7485SOL    HW134091   0.272   0.743   8.755  0.1653  0.6809  1.0731
 7485SOL    HW234092   0.362   0.678   8.660 -2.2060  1.0424 -0.6717
 7486SOL     OW34093   4.061   4.576  13.787 -0.8882  0.3279  0.2582
 7486SOL    HW134094   4.091   4.538  13.869 -1.1505 -0.1227  0.1449
 7486SOL    HW234095   4.112   4.656  13.797 -2.4647  1.5028 -1.0345
 7487SOL     OW34096   2.561   1.186   9.569 -0.1021 -0.3039  0.4599
 7487SOL    HW134097   2.606   1.262   9.533 -2.0247  0.8840  0.5645
 7487SOL    HW234098   2.509   1.160   9.493 -0.6141  1.4883  0.1984
 7488SOL     OW34099   0.125   3.645   0.326 -0.3197  0.1512 -0.1243
 7488SOL    HW134100   0.202   3.590   0.313 -0.6819 -0.9051  2.2087
 7488SOL    HW234101   0.115   3.642   0.421  0.0140  1.9983 -0.0413
 7489SOL     OW34102   0.035   0.259   9.342  0.9814  0.6622 -0.0889
 7489SOL    HW134103   0.034   0.179   9.395  3.5075  0.8336  0.1843
 7489SOL    HW234104   0.026   0.324   9.412 -1.3881  2.4472 -2.0325
 7490SOL     OW34105   4.106   4.655  15.459  0.2657  0.3837  0.1395
 7490SOL    HW134106   4.076   4.565  15.460 -1.8083  1.0811  0.0246
 7490SOL    HW234107   4.039   4.696  15.514 -0.7757 -2.6610  1.0946
 7491SOL     OW34108   3.433   3.452   9.209  0.1712 -0.6106  0.1863
 7491SOL    HW134109   3.424   3.540   9.245  0.1495 -0.2088 -0.8241
 7491SOL    HW234110   3.521   3.455   9.171 -0.1799 -0.8774 -0.6436
 7492SOL     OW34111   1.629   0.417   0.718 -0.0128  0.1073 -0.1948
 7492SOL    HW134112   1.636   0.459   0.804 -0.6880 -1.9630  0.8664
 7492SOL    HW234113   1.616   0.491   0.658  2.4570  0.9138  0.2562
 7493SOL     OW34114   0.410   3.121   8.590  0.2252 -0.9113 -0.2790
 7493SOL    HW134115   0.398   3.173   8.670 -2.9571 -2.7205  0.4295
 7493SOL    HW234116   0.471   3.052   8.618  1.9506  0.8422  0.2688
 7494SOL     OW34117   0.404   1.142   0.318  0.0887  0.0210 -0.1915
 7494SOL    HW134118   0.485   1.092   0.315 -1.2197 -2.2300  1.9949
 7494SOL    HW234119   0.343   1.069   0.305  1.3262 -0.9946 -0.2767
 7495SOL     OW34120   2.997   2.539   6.551  0.6499 -0.0714 -0.3420
 7495SOL    HW134121   2.952   2.468   6.597 -1.1460  1.9557  1.0020
 7495SOL    HW234122   2.979   2.611   6.611 -1.1241  0.7956 -1.9234
 7496SOL     OW34123   1.999   4.680   2.427  0.4098 -0.9475  0.0175
 7496SOL    HW134124   1.974   4.618   2.496 -0.0000  0.4781  1.1456
 7496SOL    HW234125   1.950   4.640   2.356 -2.2069 -2.3414  2.6005
 7497SOL     OW34126   2.772   3.580  12.404 -0.1254  0.0021  0.2870
 7497SOL    HW134127   2.842   3.644  12.389 -2.1666  1.5972 -2.2778
 7497SOL    HW234128   2.811   3.494  12.387  2.8647  1.4611 -0.1845
 7498SOL     OW34129   1.806   2.068  17.717 -0.0512  0.1541 -0.5631
 7498SOL    HW134130   1.842   2.064   0.057 -0.2113 -1.3821 -0.5656
 7498SOL    HW234131   1.734   2.005  17.722 -0.1182  0.3284  0.5761
 7499SOL     OW34132   0.355   2.534  13.365  0.1785 -0.0158 -0.2256
 7499SOL    HW134133   0.359   2.553  13.272 -3.9190  2.9785  0.1913
 7499SOL    HW234134   0.417   2.462  13.376  0.1843 -0.3932 -2.7380
 7500SOL     OW34135   1.809   3.056  10.670 -0.1528 -0.1414 -0.3871
 7500SOL    HW134136   1.745   3.076  10.739  1.4409  1.8589  0.5424
 7500SOL    HW234137   1.743   3.025  10.609 -0.5087  1.3685 -0.7641
 7501SOL     OW34138   2.631   1.405   4.295  0.5887 -0.0197  0.7203
 7501SOL    HW134139   2.675   1.489   4.285  0.3701 -0.1019 -0.9937
 7501SOL    HW234140   2.607   1.409   4.388 -1.2615 -1.6715  0.2979
 7502SOL     OW34141   3.847   4.237  17.470 -0.5617  0.4297  0.4657
 7502SOL    HW134142   3.794   4.158  17.455 -0.0085  0.3003 -0.8517
 7502SOL    HW234143   3.830   4.264  17.560  1.2258  0.9155  0.6516
 7503SOL     OW34144   0.740   2.544  15.541 -0.0798 -0.3524  0.1359
 7503SOL    HW134145   0.779   2.483  15.478  0.5698  1.0609 -0.8196
 7503SOL    HW234146   0.731   2.489  15.619  1.4990 -0.3732  0.2902
 7504SOL     OW34147   0.476   3.242  10.268 -0.3717 -0.1598 -0.1040
 7504SOL    HW134148   0.451   3.250  10.360  1.2115  0.0864  0.3062
 7504SOL    HW234149   0.453   3.329  10.236  2.3706  0.5533 -0.0869
 7505SOL     OW34150   4.414   0.045   1.306 -0.2209  0.0029  0.1218
 7505SOL    HW134151   4.350   0.105   1.344 -0.4076  0.1349 -0.4021
 7505SOL    HW234152   4.453   0.093   1.233  1.3117 -1.4760 -0.0406
 7506SOL     OW34153   1.881   2.153  14.791 -0.1774  0.5647  0.3961
 7506SOL    HW134154   1.875   2.156  14.887  0.6334 -1.3537  0.4974
 7506SOL    HW234155   1.795   2.191  14.773 -0.1316  0.3809 -0.1915
 7507SOL     OW34156   2.684   0.885   1.205  0.1146  0.6138 -0.7545
 7507SOL    HW134157   2.687   0.980   1.215  3.4074  0.3403  0.6867
 7507SOL    HW234158   2.601   0.890   1.157  0.8974  0.7451 -2.0772
 7508SOL     OW34159   4.710   3.362   6.445 -0.2292  0.3754  0.6193
 7508SOL    HW134160   4.735   3.270   6.450  2.2695  0.9216 -1.7517
 7508SOL    HW234161   0.044   3.405   6.493  0.0526  0.7685 -0.1486
 7509SOL     OW34162   0.657   3.685   2.821  0.4658  0.5043  0.5198
 7509SOL    HW134163   0.627   3.663   2.732  1.1160 -0.0922  0.4503
 7509SOL    HW234164   0.738   3.634   2.821 -1.1379 -2.0799 -0.4363
 7510SOL     OW34165   2.831   3.863   6.161  0.0353 -0.1761 -0.3639
 7510SOL    HW134166   2.800   3.833   6.246 -0.0249  2.3980  0.5261
 7510SOL    HW234167   2.794   3.951   6.155  1.7995  0.6723  1.3306
 7511SOL     OW34168   4.554   3.985  12.599 -0.3415 -0.1875  0.3663
 7511SOL    HW134169   4.461   4.005  12.609 -0.5393 -0.1810 -1.5713
 7511SOL    HW234170   4.546   3.890  12.594 -0.3339 -0.1157 -1.0637
 7512SOL     OW34171   4.373   3.005   5.436 -0.4293 -0.0766 -0.3143
 7512SOL    HW134172   4.388   2.913   5.455 -1.9781  0.0950  1.7396
 7512SOL    HW234173   4.408   3.041   5.517  0.8444  0.6878 -1.2005
 7513SOL     OW34174   0.793   1.029   2.688 -0.6744  0.0225 -0.7503
 7513SOL    HW134175   0.798   1.067   2.775  2.3168  0.8678 -1.3054
 7513SOL    HW234176   0.723   0.966   2.707 -1.0215  0.6795  0.1536
 7514SOL     OW34177   3.080   0.137   3.831 -0.0410  0.7151 -0.4768
 7514SOL    HW134178   3.093   0.057   3.779  0.8357  0.1938  0.5424
 7514SOL    HW234179   3.142   0.193   3.785  0.2001  0.2400 -0.7366
 7515SOL     OW34180   1.722   1.666  16.857 -0.1641  0.2232 -0.0163
 7515SOL    HW134181   1.787   1.671  16.927  1.1694 -2.4686 -1.0481
 7515SOL    HW234182   1.775   1.633  16.784  0.0738 -1.2981  0.8331
 7516SOL     OW34183   1.035   2.390   7.245 -0.2357  0.3556 -0.4439
 7516SOL    HW134184   0.993   2.472   7.222 -0.3357  0.1767 -0.9132
 7516SOL    HW234185   1.048   2.348   7.160 -1.7385  0.5840 -0.7845
 7517SOL     OW34186   4.525   3.306   5.719  0.0800 -0.1172  0.2293
 7517SOL    HW134187   4.453   3.245   5.705 -1.6956  1.9862  0.0957
 7517SOL    HW234188   4.494   3.345   5.801  1.1037 -1.4843  1.2534
 7518SOL     OW34189   0.688   4.578   2.610 -0.0065  0.0997 -0.2807
 7518SOL    HW134190   0.643   4.496   2.630 -1.5801  0.9237 -0.3504
 7518SOL    HW234191   0.639   4.611   2.534  1.8355  2.1135 -0.5944
 7519SOL     OW34192   0.457   0.577   2.541  0.0582  0.1020 -0.8198
 7519SOL    HW134193   0.403   0.563   2.619 -1.4757 -1.1018 -2.1116
 7519SOL    HW234194   0.544   0.566   2.579 -0.2143  1.4119  0.1871
 7520SOL     OW34195   2.010   2.058   0.702  0.2568  0.0602 -0.5032
 7520SOL    HW134196   1.962   2.083   0.781  0.0195 -1.4867 -0.1586
 7520SOL    HW234197   2.098   2.034   0.732  0.6260  1.3756 -0.5369
 7521SOL     OW34198   1.227   4.637  15.981  0.0190 -0.1440 -0.1565
 7521SOL    HW134199   1.314   4.622  15.942 -0.8912  0.3229 -2.3412
 7521SOL    HW234200   1.227   4.732  15.997  1.3258 -0.1293 -0.2289
 7522SOL     OW34201   4.428   1.382   2.167 -0.4956 -0.6199 -0.3786
 7522SOL    HW134202   4.454   1.432   2.244 -0.1282 -0.6803 -0.4656
 7522SOL    HW234203   4.497   1.316   2.174 -0.6600 -0.7285  0.2179
 7523SOL     OW34204   0.805   3.758   6.749  0.3369 -0.1966 -0.1769
 7523SOL    HW134205   0.744   3.826   6.778 -1.4537 -2.2283  0.8731
 7523SOL    HW234206   0.870   3.758   6.819  0.3951 -1.8921 -0.2271
 7524SOL     OW34207   3.454   0.750  10.244 -0.3088 -0.0699  0.4134
 7524SOL    HW134208   3.527   0.804  10.276 -0.5938 -0.2380  1.3562
 7524SOL    HW234209   3.414   0.805  10.177 -0.5427 -0.1984  0.4510
 7525SOL     OW34210   1.382   2.871   4.202  0.0593  0.5961  0.1973
 7525SOL    HW134211   1.294   2.837   4.182  0.0294  1.8494 -1.7327
 7525SOL    HW234212   1.403   2.829   4.285  0.1741 -2.5809 -1.4413
 7526SOL     OW34213   0.687   1.124   9.244  0.2882 -0.2527 -0.4558
 7526SOL    HW134214   0.769   1.173   9.233  0.0617  0.1790 -0.2257
 7526SOL    HW234215   0.721   1.035   9.238  2.8078  0.7182 -0.5442
 7527SOL     OW34216   1.618   1.911  14.524 -0.3676  0.3960  0.3490
 7527SOL    HW134217   1.596   1.881  14.612  0.3012 -3.5238 -0.8102
 7527SOL    HW234218   1.566   1.852  14.471 -0.1164  1.0516 -0.6285
 7528SOL     OW34219   2.276   4.468   5.211  0.3521 -0.4435  0.5186
 7528SOL    HW134220   2.266   4.381   5.172  0.7418 -0.4103  0.3452
 7528SOL    HW234221   2.184   4.489   5.227  0.3578 -0.3235  0.3923
 7529SOL     OW34222   2.461   2.457  13.884  0.5367  0.4359  1.0671
 7529SOL    HW134223   2.461   2.363  13.899  1.0838 -0.0410 -2.0614
 7529SOL    HW234224   2.429   2.456  13.794 -1.3918  0.2523  1.7395
 7530SOL     OW34225   1.703   3.304   3.704  0.3442 -0.3874  0.2558
 7530SOL    HW134226   1.771   3.340   3.761  0.1003  0.6501 -0.1041
 7530SOL    HW234227   1.750   3.267   3.629 -0.3106 -0.5529 -0.0776
 7531SOL     OW34228   0.605   1.967  17.709  0.0867  0.2504  0.7073
 7531SOL    HW134229   0.649   2.047  17.739 -1.7268  1.0891  1.1631
 7531SOL    HW234230   0.513   1.981  17.733 -0.2222  0.5686 -0.6969
 7532SOL     OW34231   1.451   2.982   6.896  0.1666  0.2096 -0.1435
 7532SOL    HW134232   1.363   2.968   6.860  0.8312 -1.0783 -1.3110
 7532SOL    HW234233   1.489   2.944   6.816 -1.4594 -1.2202 -0.2383
 7533SOL     OW34234   1.877   2.117   0.922 -0.3057  0.5716 -0.6514
 7533SOL    HW134235   1.844   2.038   0.966  1.6162 -0.6708 -1.4489
 7533SOL    HW234236   1.800   2.174   0.921 -0.1071  0.8592  0.1374
 7534SOL     OW34237   1.706   3.214  15.080 -0.2501  0.3415 -0.1687
 7534SOL    HW134238   1.669   3.287  15.030  2.5798  0.5516 -1.9647
 7534SOL    HW234239   1.701   3.135  15.026  3.5854 -0.4496  0.5776
 7535SOL     OW34240   3.161   2.263   9.059  0.2390 -0.9269  0.4395
 7535SOL    HW134241   3.215   2.343   9.061  1.0901 -1.4806 -0.5224
 7535SOL    HW234242   3.172   2.219   9.143  1.0925 -1.5519  0.0076
 7536SOL     OW34243   0.996   3.305   0.402 -0.0853 -0.0382 -0.2072
 7536SOL    HW134244   1.030   3.221   0.430 -0.6130 -0.2828 -0.3003
 7536SOL    HW234245   1.023   3.312   0.310  2.2607  2.3446  0.6345
 7537SOL     OW34246   4.321   3.350   8.766 -0.7946  0.5411 -0.2055
 7537SOL    HW134247   4.395   3.397   8.803 -1.3360  2.3792 -1.4115
 7537SOL    HW234248   4.352   3.322   8.680 -2.3234 -1.1794 -0.2070
 7538SOL     OW34249   1.847   3.292   6.647  0.0688 -0.8628 -0.4731
 7538SOL    HW134250   1.768   3.260   6.602 -0.1559 -2.6934  1.2183
 7538SOL    HW234251   1.914   3.235   6.609  0.7073 -0.1957 -0.3286
 7539SOL     OW34252   4.047   0.494   5.661  0.2084 -0.0286 -0.5503
 7539SOL    HW134253   4.068   0.533   5.576  2.6400  1.5086  0.7499
 7539SOL    HW234254   4.132   0.458   5.686  0.2131  0.7201  0.5330
 7540SOL     OW34255   2.506   1.016  16.908 -0.3280  0.2545 -0.2858
 7540SOL    HW134256   2.466   1.074  16.973  1.9768  1.7430 -0.1987
 7540SOL    HW234257   2.485   0.936  16.954  0.4819 -0.6678 -1.5099
 7541SOL     OW34258   1.241   3.110   0.438 -0.1508  0.3712  0.1860
 7541SOL    HW134259   1.327   3.096   0.479 -0.6273 -0.2547  0.9780
 7541SOL    HW234260   1.188   3.063   0.502  1.4414 -0.4685  0.8945
 7542SOL     OW34261   3.687   4.222   8.150  0.3072 -0.4117 -0.3374
 7542SOL    HW134262   3.615   4.266   8.197 -0.4156  2.1757 -3.9151
 7542SOL    HW234263   3.745   4.296   8.134 -0.7018  0.5254  0.3297
 7543SOL     OW34264   0.566   0.624   4.050 -0.3852  0.1357 -0.0970
 7543SOL    HW134265   0.541   0.537   4.021 -2.8408  0.8695 -0.1219
 7543SOL    HW234266   0.539   0.618   4.142 -0.5181 -0.1496 -0.1550
 7544SOL     OW34267   0.772   1.961  10.361  0.2146  0.3300  0.2202
 7544SOL    HW134268   0.679   1.969  10.339  0.8816  0.6538 -2.4748
 7544SOL    HW234269   0.797   1.871  10.339  0.8552  0.4698  0.4038
 7545SOL     OW34270   2.839   1.644   5.342 -0.6960 -0.2100 -0.1480
 7545SOL    HW134271   2.843   1.700   5.420 -0.0147  0.7020 -0.8370
 7545SOL    HW234272   2.829   1.559   5.385 -2.0435  0.0380  0.0027
 7546SOL     OW34273   3.506   2.633   7.087  0.3885  0.7042 -0.0728
 7546SOL    HW134274   3.519   2.593   7.001 -1.1058  0.4865 -0.1970
 7546SOL    HW234275   3.577   2.697   7.088  0.5005  0.5921 -0.8086
 7547SOL     OW34276   0.885   1.691   1.505 -0.1205 -0.1944 -0.0909
 7547SOL    HW134277   0.841   1.759   1.453  1.1410  0.8815  0.2510
 7547SOL    HW234278   0.815   1.626   1.504  0.6258 -1.0176  0.9390
 7548SOL     OW34279   3.201   2.726   3.056  0.4532  0.1278 -0.0218
 7548SOL    HW134280   3.207   2.776   3.137 -0.2681 -0.4386  0.3779
 7548SOL    HW234281   3.241   2.644   3.085 -1.1428 -0.7030 -0.2020
 7549SOL     OW34282   2.573   2.276  16.689  0.7804 -0.2316  0.4731
 7549SOL    HW134283   2.578   2.194  16.738  4.2888 -0.8388 -0.8704
 7549SOL    HW234284   2.562   2.251  16.597 -2.6508  1.2520  0.4742
 7550SOL     OW34285   2.622   0.060   1.350  0.7597  0.6363  0.2739
 7550SOL    HW134286   2.649   4.725   1.293  0.3999 -0.2425  1.2269
 7550SOL    HW234287   2.597   0.131   1.290 -0.9121 -1.0779 -1.0576
 7551SOL     OW34288   1.014   0.266   0.208 -0.2166 -0.5317 -0.1534
 7551SOL    HW134289   1.011   0.209   0.285 -1.5512  1.2455  1.1111
 7551SOL    HW234290   1.075   0.222   0.149  1.3295  0.0666  0.9890
 7552SOL     OW34291   3.079   0.464   8.732 -0.0653  0.2634 -0.3566
 7552SOL    HW134292   3.110   0.545   8.774  2.5739 -0.5058 -0.8373
 7552SOL    HW234293   3.160   0.424   8.703 -0.1607 -0.9021  0.9911
 7553SOL     OW34294   4.094   0.668   3.325 -0.0056 -0.3025  0.1996
 7553SOL    HW134295   4.022   0.718   3.287  0.0896 -0.3575 -0.0550
 7553SOL    HW234296   4.135   0.627   3.249 -1.5583 -1.9704  0.2625
 7554SOL     OW34297   2.807   3.793   5.888  0.1813 -0.3157 -0.5556
 7554SOL    HW134298   2.840   3.855   5.952 -0.1529 -1.8014  1.0595
 7554SOL    HW234299   2.725   3.765   5.927  0.3868 -1.2209 -0.7550
 7555SOL     OW34300   1.459   1.736   5.833 -0.1753  0.3267  0.2716
 7555SOL    HW134301   1.371   1.740   5.796  0.3335 -1.2104 -1.0769
 7555SOL    HW234302   1.446   1.739   5.928  0.3095 -1.3402  0.3856
 7556SOL     OW34303   1.305   0.679  12.619 -0.2943  0.2413 -0.6797
 7556SOL    HW134304   1.235   0.661  12.682 -1.0486  0.9556 -1.3188
 7556SOL    HW234305   1.254   0.697  12.540 -0.5227 -0.7277 -0.7557
 7557SOL     OW34306   2.392   1.688   1.490 -0.0587  0.2285  0.3455
 7557SOL    HW134307   2.346   1.605   1.491  0.0404  0.1747  0.5244
 7557SOL    HW234308   2.378   1.714   1.399  0.2616  0.3135  0.3181
 7558SOL     OW34309   1.676   3.022   8.665 -0.4428  0.4753 -0.2267
 7558SOL    HW134310   1.595   3.031   8.715  0.0786  0.9033  0.5494
 7558SOL    HW234311   1.712   2.944   8.708 -3.1310  0.2424  1.5625
 7559SOL     OW34312   3.366   3.813   0.674 -0.0519  0.0748 -0.1641
 7559SOL    HW134313   3.306   3.856   0.735  1.1502  1.7720 -0.1520
 7559SOL    HW234314   3.356   3.856   0.589  0.1245  0.9184  0.2416
 7560SOL     OW34315   2.028   1.418  15.413  0.5842  0.0086 -0.1980
 7560SOL    HW134316   1.956   1.356  15.407 -0.3073  0.8532  1.5793
 7560SOL    HW234317   1.989   1.496  15.453  0.6175  0.1984 -0.5344
 7561SOL     OW34318   2.471   4.147   7.962  0.2438  0.1564  0.1476
 7561SOL    HW134319   2.483   4.053   7.978 -1.4800  0.2943  2.2767
 7561SOL    HW234320   2.380   4.153   7.933  0.0836  0.1649  0.6560
 7562SOL     OW34321   3.827   4.158  15.399 -0.0469 -0.2023 -0.1538
 7562SOL    HW134322   3.857   4.137  15.487  0.5302 -1.4707 -0.6506
 7562SOL    HW234323   3.906   4.147  15.346 -0.5335  1.5191 -1.2401
 7563SOL     OW34324   2.642   0.918   2.404 -0.3687  0.8436  0.1625
 7563SOL    HW134325   2.730   0.956   2.407 -0.9898  2.0322  2.8991
 7563SOL    HW234326   2.660   0.827   2.428 -0.1313  0.6627 -0.7144
 7564SOL     OW34327   1.282   1.361   6.602 -0.0336 -0.9487  0.7044
 7564SOL    HW134328   1.235   1.443   6.616  1.2125 -0.2925  0.9834
 7564SOL    HW234329   1.310   1.366   6.511 -0.3691  0.5366  0.6895
 7565SOL     OW34330   0.216   2.051  17.555  0.5735 -0.0996  0.5712
 7565SOL    HW134331   0.263   2.067  17.637  2.3027  3.4865 -1.1042
 7565SOL    HW234332   0.275   2.098  17.496 -0.6170  0.7511  0.0699
 7566SOL     OW34333   3.302   1.250   6.952  0.0733  0.3304 -0.1286
 7566SOL    HW134334   3.262   1.278   7.035  2.4489 -1.1368  1.5102
 7566SOL    HW234335   3.395   1.232   6.967  0.8747  3.3526 -1.5814
 7567SOL     OW34336   4.547   1.354  16.895  0.3464 -0.2975 -0.0748
 7567SOL    HW134337   4.460   1.365  16.933  0.4894 -0.1227  0.2008
 7567SOL    HW234338   4.541   1.269  16.852  0.2426  0.7628 -2.1797
 7568SOL     OW34339   1.779   0.206   7.113 -0.7040  0.1460  0.6106
 7568SOL    HW134340   1.695   0.252   7.113  0.0678  1.5848 -0.5586
 7568SOL    HW234341   1.756   0.120   7.147  0.3061 -0.2888  0.2007
 7569SOL     OW34342   1.424   0.358   1.040  0.4706  0.4752 -0.5168
 7569SOL    HW134343   1.349   0.384   0.986  0.2832  0.7121 -0.1428
 7569SOL    HW234344   1.501   0.372   0.985  0.0634 -1.2123 -1.4904
 7570SOL     OW34345   1.345   4.515  12.775 -0.4982  0.5287 -0.0642
 7570SOL    HW134346   1.429   4.470  12.788 -1.6610 -1.8055 -0.5994
 7570SOL    HW234347   1.361   4.602  12.811 -1.4204  0.9395 -0.6494
 7571SOL     OW34348   0.474   0.160  12.268 -0.5316 -0.3624  0.0787
 7571SOL    HW134349   0.403   0.100  12.245 -0.3941 -0.9249  1.1208
 7571SOL    HW234350   0.514   0.101  12.332  0.0925  0.5807  0.5549
 7572SOL     OW34351   0.091   2.900  15.921 -0.3958 -0.5437  0.2215
 7572SOL    HW134352   0.172   2.952  15.920 -0.3276 -0.6660 -0.7695
 7572SOL    HW234353   0.028   2.971  15.933 -0.5469 -0.1801 -2.6557
 7573SOL     OW34354   1.816   3.856   6.611  0.2296  0.0856 -0.0458
 7573SOL    HW134355   1.886   3.912   6.646  0.9258 -0.7571 -0.0980
 7573SOL    HW234356   1.843   3.765   6.620  1.5567  0.3964 -1.0340
 7574SOL     OW34357   3.632   3.934   4.741 -0.0341  0.6669  0.0402
 7574SOL    HW134358   3.692   3.934   4.815 -0.5362  1.1770  0.4536
 7574SOL    HW234359   3.689   3.968   4.672 -0.6878  1.7781  0.0425
 7575SOL     OW34360   0.800   3.797   3.439 -0.2150  1.3289 -0.5014
 7575SOL    HW134361   0.836   3.820   3.353 -2.8588  0.9485 -1.6934
 7575SOL    HW234362   0.879   3.784   3.492  0.0598 -0.1571 -1.2636
 7576SOL     OW34363   0.264   4.547   4.555 -0.4376  0.4485  0.2817
 7576SOL    HW134364   0.346   4.498   4.550 -0.5646  0.1338  1.1793
 7576SOL    HW234365   0.197   4.492   4.514 -0.6459 -1.4310  3.1063
 7577SOL     OW34366   3.010   0.460   2.337 -0.4021  0.4942  0.3891
 7577SOL    HW134367   3.007   0.366   2.357  2.0734  0.6297  1.3758
 7577SOL    HW234368   3.103   0.473   2.321 -0.3486  0.4071  0.6270
 7578SOL     OW34369   4.320   4.290   1.699 -0.5068  0.8936  0.3572
 7578SOL    HW134370   4.257   4.219   1.708 -1.4531  1.9286  1.7737
 7578SOL    HW234371   4.372   4.264   1.775  0.9135  1.5999 -0.3705
 7579SOL     OW34372   2.536   4.284   6.056 -0.3030 -0.4891 -0.3583
 7579SOL    HW134373   2.519   4.307   5.965  0.8070 -2.3463 -1.0455
 7579SOL    HW234374   2.594   4.207   6.055  3.8624  2.6823 -2.1876
 7580SOL     OW34375   4.429   1.379   6.451 -0.2224  0.7571  0.2197
 7580SOL    HW134376   4.460   1.431   6.377 -1.4564 -0.9763 -1.5062
 7580SOL    HW234377   4.511   1.375   6.502 -0.5330 -0.9854  0.6040
 7581SOL     OW34378   2.852   4.673  15.452 -0.1354 -0.0112  0.1627
 7581SOL    HW134379   2.936   4.629  15.464 -0.9103 -1.5665 -0.1369
 7581SOL    HW234380   2.805   4.599  15.416  2.8844 -2.8210  2.0221
 7582SOL     OW34381   3.787   3.954   8.717 -0.0802 -0.3373  0.0327
 7582SOL    HW134382   3.868   3.903   8.720  0.6043  0.8677  2.2145
 7582SOL    HW234383   3.727   3.879   8.712  0.0572 -0.2664 -2.6149
 7583SOL     OW34384   2.333   3.650   6.989 -0.2289  0.4867  0.1547
 7583SOL    HW134385   2.425   3.637   7.013 -0.3728 -1.7821 -0.5285
 7583SOL    HW234386   2.292   3.568   7.017  1.3236 -0.7322 -1.1009
 7584SOL     OW34387   4.528   3.512  11.755 -0.0670 -0.0295  0.5349
 7584SOL    HW134388   4.515   3.603  11.730  1.3513  0.1345  0.3718
 7584SOL    HW234389   4.482   3.457  11.691  1.6833 -1.7745  0.7828
 7585SOL     OW34390   3.239   2.363   4.065 -0.5011 -0.8434 -0.0543
 7585SOL    HW134391   3.303   2.337   3.998 -1.1800 -1.7135 -0.3632
 7585SOL    HW234392   3.234   2.457   4.053 -0.3588 -0.6463  1.4490
 7586SOL     OW34393   0.050   0.420   5.835 -0.3365 -0.3321  0.1445
 7586SOL    HW134394   0.110   0.463   5.895 -2.1936  1.5558  0.6192
 7586SOL    HW234395   0.077   0.463   5.754  0.7334  0.0050  0.6872
 7587SOL     OW34396   2.938   0.156   2.672  0.1847  0.1906  0.0170
 7587SOL    HW134397   2.909   0.127   2.759 -1.6155 -0.8525 -0.9340
 7587SOL    HW234398   2.854   0.180   2.635  0.2878  1.4971  0.6250
 7588SOL     OW34399   2.403   0.720   3.684  0.3637 -0.0154 -0.1692
 7588SOL    HW134400   2.467   0.782   3.718  0.7835 -0.8140  0.5305
 7588SOL    HW234401   2.380   0.764   3.603 -0.8239  1.9664  1.2591
 7589SOL     OW34402   4.179   2.062   3.924 -0.0903  0.2790 -0.3709
 7589SOL    HW134403   4.262   2.035   3.964  0.2260  1.1551 -0.4462
 7589SOL    HW234404   4.136   2.102   4.000 -2.2981 -2.8301  0.0642
 7590SOL     OW34405   3.734   1.501  15.320  0.7954  0.1715 -0.0016
 7590SOL    HW134406   3.772   1.573  15.270  0.4613  0.1344 -0.3071
 7590SOL    HW234407   3.640   1.517  15.317  0.6182 -0.5300  1.7166
 7591SOL     OW34408   1.817   1.868   1.062 -0.2032 -0.0708 -0.4448
 7591SOL    HW134409   1.887   1.845   1.123  0.0662  0.9422 -0.3784
 7591SOL    HW234410   1.755   1.888   1.132 -0.8632  1.2119 -1.3931
 7592SOL     OW34411   3.825   0.121   5.727  0.0672  0.2884  0.3571
 7592SOL    HW134412   3.847   0.206   5.765 -0.8472  1.1619 -1.0656
 7592SOL    HW234413   3.771   0.135   5.649  1.1393 -0.0632 -0.4307
 7593SOL     OW34414   2.261   3.016   9.142 -0.0662 -0.3435  0.2676
 7593SOL    HW134415   2.242   2.952   9.210  2.1851  0.1397  1.3608
 7593SOL    HW234416   2.182   3.069   9.137  0.1027 -0.0601  0.6537
 7594SOL     OW34417   1.452   1.260   2.164  0.1696 -0.1170  0.6749
 7594SOL    HW134418   1.440   1.223   2.252  0.7196  0.3347  0.9313
 7594SOL    HW234419   1.434   1.181   2.113  0.8605 -0.3781  0.8385
 7595SOL     OW34420   1.710   4.092   3.338 -0.0253 -0.3049  0.3480
 7595SOL    HW134421   1.677   4.182   3.337 -0.2949 -0.4089 -0.1094
 7595SOL    HW234422   1.644   4.040   3.383 -1.6532  1.8363  0.4757
 7596SOL     OW34423   2.238   3.985  16.539  0.8566  0.1687  0.3034
 7596SOL    HW134424   2.310   3.998  16.479  1.3095 -0.1974  0.7651
 7596SOL    HW234425   2.163   4.000  16.481 -0.2265 -0.9907  1.3962
 7597SOL     OW34426   0.304   1.017  10.334  0.2431  0.4544 -0.0631
 7597SOL    HW134427   0.270   1.023  10.245 -0.3490  0.0247  0.1339
 7597SOL    HW234428   0.226   1.019  10.390  0.9677 -0.4226  0.9546
 7598SOL     OW34429   2.965   2.975   5.681 -0.0797  0.1133  0.1650
 7598SOL    HW134430   2.981   2.947   5.590 -2.3187  0.1412 -0.2245
 7598SOL    HW234431   3.039   3.034   5.697  0.7704 -0.4366 -1.7175
 7599SOL     OW34432   2.061   3.903  15.411  0.6816 -0.1935 -0.4462
 7599SOL    HW134433   2.101   3.971  15.466 -0.9663  0.1999  0.2741
 7599SOL    HW234434   2.084   3.828  15.466  0.2982 -0.4056 -0.5794
 7600SOL     OW34435   4.554   1.092  15.085  0.1749  0.4373 -0.5780
 7600SOL    HW134436   4.459   1.086  15.089  0.0144  1.3366 -2.8401
 7600SOL    HW234437   4.560   1.179  15.125  0.4605 -0.3175  0.9922
 7601SOL     OW34438   3.774   2.938  10.979 -0.7026  0.3154 -0.0504
 7601SOL    HW134439   3.813   2.852  10.963 -0.5760  0.0253  1.8569
 7601SOL    HW234440   3.816   2.986  10.908  1.6300 -1.3083  0.2510
 7602SOL     OW34441   0.316   2.851   4.449  0.2227 -0.2470  0.4704
 7602SOL    HW134442   0.299   2.764   4.484  0.0246 -0.5004 -0.2526
 7602SOL    HW234443   0.298   2.907   4.524  0.5326  0.6651 -0.1274
 7603SOL     OW34444   2.533   3.545  12.549  0.1144 -0.4355 -0.2461
 7603SOL    HW134445   2.613   3.563  12.500  0.3554  1.4967  0.8268
 7603SOL    HW234446   2.572   3.523  12.633  0.7806 -1.1094 -0.7348
 7604SOL     OW34447   2.318   1.341   4.327  0.1755  0.0216 -0.3404
 7604SOL    HW134448   2.333   1.417   4.384 -0.2809 -0.5484  0.5608
 7604SOL    HW234449   2.344   1.263   4.376 -0.5938 -1.8713 -2.9640
 7605SOL     OW34450   0.211   1.533   7.744  0.1701 -0.1671 -0.3979
 7605SOL    HW134451   0.237   1.447   7.779  1.0024  0.0102 -0.5869
 7605SOL    HW234452   0.214   1.582   7.826 -2.7699 -2.3121  1.0067
 7606SOL     OW34453   0.666   1.839   4.975  0.6783  0.1512  0.3264
 7606SOL    HW134454   0.587   1.794   4.947  0.1700  0.9857  0.4294
 7606SOL    HW234455   0.702   1.770   5.030 -1.9644  0.0012  1.8661
 7607SOL     OW34456   1.041   1.615  11.115  0.2039  0.5602 -0.6926
 7607SOL    HW134457   1.040   1.520  11.124  3.1011  0.7025  1.1836
 7607SOL    HW234458   1.020   1.638  11.025  1.8099  4.5419 -0.0830
 7608SOL     OW34459   3.177   3.458  16.594  0.4215  0.5991 -0.0184
 7608SOL    HW134460   3.195   3.369  16.626 -1.1134  0.3644  0.1964
 7608SOL    HW234461   3.082   3.453  16.586  0.6560 -0.7783 -2.2660
 7609SOL     OW34462   4.591   2.345   0.070 -0.3608 -0.1505 -0.4092
 7609SOL    HW134463   4.664   2.364   0.011  0.6066 -1.4469  0.3674
 7609SOL    HW234464   4.600   2.422   0.126  0.0135 -1.1791  0.9368
 7610SOL     OW34465   1.893   4.209   7.926  0.1390  0.4392  0.0485
 7610SOL    HW134466   1.850   4.263   7.993 -1.3027  0.5989 -1.0056
 7610SOL    HW234467   1.871   4.124   7.963 -0.8753  0.6032 -0.1771
 7611SOL     OW34468   0.654   3.979   1.310 -0.0923 -0.2806  0.7704
 7611SOL    HW134469   0.637   3.902   1.364  0.0762  1.4410  3.3112
 7611SOL    HW234470   0.573   3.990   1.262  0.1238 -0.1430  0.4390
 7612SOL     OW34471   2.291   0.103   4.730  0.2866 -0.0680 -0.0276
 7612SOL    HW134472   2.271   0.142   4.645  0.0359 -0.6676 -0.2452
 7612SOL    HW234473   2.237   0.024   4.725 -2.9034  2.0341  0.7261
 7613SOL     OW34474   1.466   3.288   7.987  0.3572  0.3865 -0.2016
 7613SOL    HW134475   1.373   3.310   7.985  0.3050  0.2060  0.1548
 7613SOL    HW234476   1.467   3.224   8.059 -1.3163 -0.4601 -0.9233
 7614SOL     OW34477   2.536   0.209   6.408  0.2997  0.3204  0.2080
 7614SOL    HW134478   2.453   0.200   6.361 -0.1210  1.1997  0.7993
 7614SOL    HW234479   2.553   0.297   6.375  0.5532  0.3946  0.5429
 7615SOL     OW34480   3.287   3.833   6.997  0.5276 -0.2857 -0.2795
 7615SOL    HW134481   3.229   3.806   7.068 -1.5859  0.0601 -1.8733
 7615SOL    HW234482   3.372   3.807   7.033  1.2134  2.2169 -0.0838
 7616SOL     OW34483   4.633   4.109   3.110 -0.2451 -0.1679 -0.2386
 7616SOL    HW134484   4.658   4.194   3.147 -0.6669  1.3028 -3.3765
 7616SOL    HW234485   4.629   4.129   3.017  0.2836  1.3339  0.0728
 7617SOL     OW34486   4.011   4.217   6.601  0.3978 -0.0736  0.2286
 7617SOL    HW134487   4.071   4.291   6.588  1.9512 -1.3607  0.0994
 7617SOL    HW234488   3.966   4.213   6.517  0.9274  1.2323 -0.1186
 7618SOL     OW34489   3.686   1.214   3.606 -0.1481 -0.0797 -0.0679
 7618SOL    HW134490   3.727   1.208   3.692  1.5512  0.8085 -0.8167
 7618SOL    HW234491   3.644   1.128   3.603  0.2641 -0.3698  2.3076
 7619SOL     OW34492   3.598   2.794   7.387  0.1147  0.0285  0.0945
 7619SOL    HW134493   3.691   2.805   7.369 -0.0001 -0.9470 -1.1375
 7619SOL    HW234494   3.601   2.835   7.473  2.2295 -1.1740  0.6022
 7620SOL     OW34495   1.893   1.055   8.532 -0.5017 -0.6452 -0.2002
 7620SOL    HW134496   1.932   1.140   8.550 -0.5128 -0.4765 -0.9858
 7620SOL    HW234497   1.799   1.071   8.531 -0.2192  1.0706  0.6219
 7621SOL     OW34498   0.292   0.294   2.818  0.5656 -0.1590  0.0401
 7621SOL    HW134499   0.326   0.224   2.762 -2.8047  0.0938 -2.3027
 7621SOL    HW234500   0.236   0.239   2.872  0.8847  1.5411  2.0908
 7622SOL     OW34501   3.129   3.789   0.935 -0.4141  0.3113  0.2644
 7622SOL    HW134502   3.196   3.766   1.000 -2.1017 -0.8393  1.5990
 7622SOL    HW234503   3.070   3.845   0.985 -0.6320 -0.9454  1.4163
 7623SOL     OW34504   3.381   3.777   5.274 -0.3614 -0.9368  0.0102
 7623SOL    HW134505   3.326   3.854   5.262  1.1230  0.4333  1.9742
 7623SOL    HW234506   3.356   3.715   5.206 -0.7607 -1.1966  0.3944
 7624SOL     OW34507   3.603   1.075   4.907 -0.5842  0.4673  0.2884
 7624SOL    HW134508   3.644   1.070   4.993 -0.1350 -0.6966  0.0099
 7624SOL    HW234509   3.680   1.112   4.864  0.1733 -0.3498  0.9502
 7625SOL     OW34510   3.311   0.127  17.687  0.3880  0.4020  0.2729
 7625SOL    HW134511   3.248   0.056  17.687  0.8102  0.0257  0.8220
 7625SOL    HW234512   3.392   0.078  17.700  0.4101  0.3926  0.0897
 7626SOL     OW34513   4.675   0.788  13.337 -0.2826 -0.1146 -0.2072
 7626SOL    HW134514   0.025   0.827  13.336 -0.9989  1.4737  0.5634
 7626SOL    HW234515   4.696   0.701  13.372  0.7444 -0.0369 -0.6249
 7627SOL     OW34516   1.342   3.603   7.613 -0.8165 -0.0739 -0.3432
 7627SOL    HW134517   1.428   3.637   7.640 -1.1341  1.3125 -1.0693
 7627SOL    HW234518   1.295   3.687   7.614 -1.9019 -0.7015  1.5728
 7628SOL     OW34519   2.530   3.022   1.530 -0.2201 -0.1566 -0.4923
 7628SOL    HW134520   2.623   3.040   1.512 -0.3169 -1.6873 -2.5061
 7628SOL    HW234521   2.524   3.052   1.620 -2.1998 -1.4293 -0.2095
 7629SOL     OW34522   4.106   2.105   8.097  0.3788 -0.4632 -0.0988
 7629SOL    HW134523   4.049   2.078   8.025 -0.7371  1.4945  0.0374
 7629SOL    HW234524   4.178   2.135   8.042  1.7096  0.8545  2.3387
 7630SOL     OW34525   2.538   2.806   3.045 -0.0136  0.2730  0.1515
 7630SOL    HW134526   2.583   2.724   3.027 -0.8784 -0.4405  1.2682
 7630SOL    HW234527   2.448   2.777   3.055  0.4760 -1.5847 -0.8373
 7631SOL     OW34528   1.055   0.179  15.802 -0.0006  0.5972  0.4343
 7631SOL    HW134529   1.076   0.234  15.878  2.1240  1.0587 -0.4737
 7631SOL    HW234530   0.976   0.135  15.831  0.0822 -0.9634 -1.6592
 7632SOL     OW34531   1.822   2.440   9.446  0.4674 -0.9473  0.1733
 7632SOL    HW134532   1.852   2.381   9.377  2.0441  2.0302 -1.6736
 7632SOL    HW234533   1.858   2.523   9.414 -1.2837 -0.2260  0.0721
 7633SOL     OW34534   1.817   2.261   2.154 -0.1143  0.5862 -0.5640
 7633SOL    HW134535   1.908   2.288   2.140 -0.3943  2.5409  1.3981
 7633SOL    HW234536   1.774   2.300   2.077 -3.0268 -1.2908  0.1510
 7634SOL     OW34537   2.885   0.476   6.876  0.6930 -0.1996  0.3671
 7634SOL    HW134538   2.791   0.457   6.876  0.7099 -0.2951 -0.2845
 7634SOL    HW234539   2.898   0.534   6.951 -0.6125  0.1782  0.2922
 7635SOL     OW34540   3.990   2.592   0.593 -0.2423  0.3042 -0.3727
 7635SOL    HW134541   3.916   2.641   0.557  2.4470  3.0093 -2.1571
 7635SOL    HW234542   4.045   2.588   0.514 -0.3577  0.2094 -0.4488
 7636SOL     OW34543   0.996   0.335  12.754 -0.4453  0.0530 -0.2558
 7636SOL    HW134544   0.911   0.332  12.798 -0.1296 -1.4404  0.2576
 7636SOL    HW234545   1.042   0.271  12.809  1.4091  0.2979 -1.5378
 7637SOL     OW34546   1.249   4.422   8.476 -0.2857 -0.5747  0.2488
 7637SOL    HW134547   1.160   4.392   8.457  1.6191 -3.3110 -4.6371
 7637SOL    HW234548   1.294   4.364   8.414 -0.3619  1.2655 -1.5406
 7638SOL     OW34549   4.491   2.992  11.931 -0.7263  0.0369  0.9319
 7638SOL    HW134550   4.573   2.975  11.884 -0.5443  0.7348  0.9990
 7638SOL    HW234551   4.485   3.085  11.909 -1.0272  0.0708  1.1555
 7639SOL     OW34552   3.279   2.670  17.563  0.1134 -0.0191  0.8685
 7639SOL    HW134553   3.312   2.711  17.483 -1.0729  1.0766  0.9346
 7639SOL    HW234554   3.254   2.751  17.609  0.3828 -0.0395  1.0510
 7640SOL     OW34555   1.518   4.018   4.412  0.2065 -0.5500  0.0164
 7640SOL    HW134556   1.526   3.941   4.355  0.7255  0.0817 -0.7573
 7640SOL    HW234557   1.607   4.021   4.445  0.7312  1.6192 -1.5956
 7641SOL     OW34558   3.687   1.629  15.817 -0.6933 -0.0608  0.1661
 7641SOL    HW134559   3.703   1.597  15.728  0.9299  3.7719 -0.8844
 7641SOL    HW234560   3.644   1.547  15.842  1.2019 -1.2112 -0.4227
 7642SOL     OW34561   1.730   2.342   9.686 -0.6427 -0.2809  0.3342
 7642SOL    HW134562   1.745   2.377   9.598 -2.7408  1.7215  0.7778
 7642SOL    HW234563   1.666   2.272   9.670  0.1205 -0.5882 -1.3982
 7643SOL     OW34564   2.384   2.517  12.473 -0.0592 -0.5285  0.5491
 7643SOL    HW134565   2.407   2.559  12.555 -3.6923  0.0607  1.2618
 7643SOL    HW234566   2.446   2.445  12.458  1.8699  1.1135  0.7816
 7644SOL     OW34567   3.589   0.678   7.093  0.4889  0.2207 -0.3873
 7644SOL    HW134568   3.562   0.611   7.156 -0.3019  0.8134 -0.0980
 7644SOL    HW234569   3.519   0.741   7.106 -0.4352 -0.5637 -1.6254
 7645SOL     OW34570   2.877   3.744   9.400 -0.3070  0.0836  0.1015
 7645SOL    HW134571   2.970   3.758   9.416 -0.2355  0.5550 -0.7378
 7645SOL    HW234572   2.880   3.651   9.424 -0.3598  0.4825  1.6835
 7646SOL     OW34573   2.275   3.194   7.226 -0.2969  0.4234  0.2359
 7646SOL    HW134574   2.320   3.251   7.163 -0.3375 -0.7427 -0.8548
 7646SOL    HW234575   2.347   3.132   7.239 -0.2724  0.8669  2.1985
 7647SOL     OW34576   3.425   3.926   5.735  0.1090  1.0221 -0.5667
 7647SOL    HW134577   3.358   3.894   5.673  0.0153 -2.3878  1.2502
 7647SOL    HW234578   3.387   4.004   5.774 -0.8177  0.3843 -0.1734
 7648SOL     OW34579   0.541   0.943   0.037  0.1053 -0.1373  0.1373
 7648SOL    HW134580   0.506   0.857   0.016  1.5527 -0.7542  0.2294
 7648SOL    HW234581   0.604   0.953  17.714  0.6068  0.4606  0.6658
 7649SOL     OW34582   0.682   3.890  11.645 -0.2674 -0.8315  0.3105
 7649SOL    HW134583   0.734   3.816  11.614 -0.7548 -0.6411 -0.9583
 7649SOL    HW234584   0.642   3.913  11.561 -0.5902  2.5853  1.3858
 7650SOL     OW34585   1.097   3.983   2.173  0.7900  0.1452  0.4288
 7650SOL    HW134586   1.146   3.959   2.251  0.4313 -0.5705  0.4309
 7650SOL    HW234587   1.058   4.068   2.196  0.5309  0.3326 -0.6808
 7651SOL     OW34588   1.646   2.446   5.146 -0.6613 -0.4092  0.6157
 7651SOL    HW134589   1.722   2.396   5.115  0.9682  1.5134  1.4989
 7651SOL    HW234590   1.648   2.435   5.241 -0.6422 -4.0042  0.1908
 7652SOL     OW34591   3.540   0.380   7.254 -0.4374  0.1431  0.0907
 7652SOL    HW134592   3.616   0.356   7.306 -2.6568 -2.8291  1.9251
 7652SOL    HW234593   3.570   0.353   7.167 -1.4497  0.8489 -0.4785
 7653SOL     OW34594   3.738   2.984  13.754 -0.1867 -0.3262 -0.2204
 7653SOL    HW134595   3.767   3.031  13.675 -2.4099  0.8140 -0.3741
 7653SOL    HW234596   3.644   3.004  13.753  0.1284  1.1203 -1.7948
 7654SOL     OW34597   2.705   3.000   8.857 -0.2549  0.1003 -0.3472
 7654SOL    HW134598   2.800   3.003   8.857 -0.3180  1.8788 -0.6463
 7654SOL    HW234599   2.679   3.003   8.765 -1.2663 -0.7057 -0.0916
 7655SOL     OW34600   2.876   1.717   1.900 -0.1113 -0.5802  0.7372
 7655SOL    HW134601   2.799   1.736   1.954 -1.7203 -1.6993 -1.1690
 7655SOL    HW234602   2.846   1.745   1.813  2.5049  1.2365  0.4124
 7656SOL     OW34603   2.375   1.698   9.204  0.3313 -0.0652  0.1335
 7656SOL    HW134604   2.316   1.768   9.234  1.0616  0.5141  0.2078
 7656SOL    HW234605   2.422   1.676   9.285 -2.0257  0.7048  1.7258
 7657SOL     OW34606   2.915   1.058   2.385 -0.0594 -0.0427 -0.1396
 7657SOL    HW134607   2.992   1.020   2.344 -0.5195 -2.1600  0.9524
 7657SOL    HW234608   2.883   1.125   2.323 -1.9320  0.3140  1.2144
 7658SOL     OW34609   3.781   3.543   5.262 -0.3835  0.3116  0.6012
 7658SOL    HW134610   3.829   3.568   5.341  2.5250 -0.2553 -0.9844
 7658SOL    HW234611   3.698   3.508   5.295 -1.3176  0.8637 -1.1786
 7659SOL     OW34612   0.922   1.290   9.206  0.2870  0.0009  0.6594
 7659SOL    HW134613   0.999   1.236   9.187 -1.3136 -1.4294 -1.8312
 7659SOL    HW234614   0.939   1.377   9.169 -4.2174  0.6826  0.1847
 7660SOL     OW34615   0.123   1.400   6.380  0.2135  0.4210 -0.4906
 7660SOL    HW134616   0.157   1.377   6.294 -1.8083 -0.2990 -1.0825
 7660SOL    HW234617   0.133   1.320   6.432 -0.5691 -0.5876 -1.9068
 7661SOL     OW34618   3.999   2.346   2.463  0.0224 -0.0305 -0.0332
 7661SOL    HW134619   3.939   2.274   2.485  0.7655 -0.4220  0.7317
 7661SOL    HW234620   4.063   2.295   2.415  1.3702  0.8424  0.8534
 7662SOL     OW34621   2.247   2.619   5.619 -0.0551 -0.0643  0.1273
 7662SOL    HW134622   2.320   2.674   5.592 -0.8759  0.2639 -1.4194
 7662SOL    HW234623   2.175   2.681   5.629  0.2072  0.0771  1.1933
 7663SOL     OW34624   1.521   3.930   3.505  0.5352  0.4155 -0.4490
 7663SOL    HW134625   1.573   3.880   3.568 -0.5863  0.5960  0.6013
 7663SOL    HW234626   1.511   4.013   3.552 -0.5210 -0.7518  1.3444
 7664SOL     OW34627   0.242   2.611   7.997  0.1131 -0.9049 -0.2304
 7664SOL    HW134628   0.276   2.564   8.073  0.0124 -2.2817 -1.0271
 7664SOL    HW234629   0.267   2.552   7.926 -2.2788 -0.9071 -1.0799
 7665SOL     OW34630   2.901   0.327   4.539  0.3760 -0.5985  0.0070
 7665SOL    HW134631   2.932   0.418   4.535  0.4843 -0.7648 -2.9540
 7665SOL    HW234632   2.984   0.281   4.533  1.4766  1.3796 -0.0050
 7666SOL     OW34633   3.128   1.232   1.729  0.2658  0.1157 -0.0014
 7666SOL    HW134634   3.214   1.240   1.689  1.5265  0.6132  2.8321
 7666SOL    HW234635   3.102   1.324   1.732 -0.3115 -0.1194  2.4453
 7667SOL     OW34636   3.677   3.106   4.603  0.1566  0.1445  0.4945
 7667SOL    HW134637   3.635   3.021   4.590  1.2412 -0.1796 -0.8810
 7667SOL    HW234638   3.770   3.099   4.581 -0.0988  0.7413 -0.7573
 7668SOL     OW34639   2.283   2.457   8.223  0.1060 -0.9526  0.3696
 7668SOL    HW134640   2.299   2.512   8.300  0.0691 -0.6037  0.1274
 7668SOL    HW234641   2.353   2.480   8.163  0.2465  1.2909  1.3927
 7669SOL     OW34642   2.789   1.952  16.992 -0.2897  0.9808  0.2274
 7669SOL    HW134643   2.831   2.033  17.023 -0.6823  1.3311 -0.1526
 7669SOL    HW234644   2.741   1.989  16.918 -1.9854 -0.0140  0.8586
 7670SOL     OW34645   3.837   2.172   4.479 -0.2390  0.5684  0.3442
 7670SOL    HW134646   3.818   2.153   4.387 -0.5290 -1.1233  0.7498
 7670SOL    HW234647   3.915   2.118   4.495 -0.6844 -0.2521 -0.2513
 7671SOL     OW34648   4.080   0.268   1.676 -0.7842 -0.2076  0.4505
 7671SOL    HW134649   4.114   0.350   1.713 -1.1123  0.4187 -0.6535
 7671SOL    HW234650   3.986   0.276   1.692 -1.4980  0.0154 -3.9857
 7672SOL     OW34651   0.512   1.492   4.779 -0.7392  0.1910 -0.3164
 7672SOL    HW134652   0.460   1.485   4.699  1.8979 -0.4667 -1.9672
 7672SOL    HW234653   0.597   1.473   4.741 -0.4196  1.4876 -0.2632
 7673SOL     OW34654   4.706   4.620   3.574  0.0548 -0.0022 -0.3803
 7673SOL    HW134655   4.696   4.561   3.499 -0.6849 -0.2144 -0.1195
 7673SOL    HW234656   4.654   4.691   3.537  0.9071  1.4510  1.2446
 7674SOL     OW34657   2.022   2.413   8.354 -0.3369  0.0611 -0.2393
 7674SOL    HW134658   2.109   2.403   8.317 -0.5249 -1.1684 -0.3281
 7674SOL    HW234659   1.971   2.421   8.273 -1.7788  2.7278  0.9359
 7675SOL     OW34660   3.141   3.924   3.288  0.9430 -0.3404 -0.4835
 7675SOL    HW134661   3.194   3.846   3.303 -1.1270 -1.3234  1.7729
 7675SOL    HW234662   3.145   3.958   3.377  2.5395 -0.6618 -0.4378
 7676SOL     OW34663   0.934   0.786   7.194  0.3212  0.5523  0.6144
 7676SOL    HW134664   0.882   0.865   7.179 -0.0296  0.2446  0.1900
 7676SOL    HW234665   0.967   0.801   7.283  0.3846 -0.1554  0.7050
 7677SOL     OW34666   2.837   3.781   0.497 -0.2231 -0.3677 -0.3993
 7677SOL    HW134667   2.884   3.713   0.449  1.4128 -0.1618  0.9194
 7677SOL    HW234668   2.902   3.806   0.562 -0.9098 -0.7748  0.4467
 7678SOL     OW34669   2.621   1.598   7.237 -0.1596 -0.0887  0.2052
 7678SOL    HW134670   2.675   1.523   7.261 -0.1144 -0.2334 -0.3396
 7678SOL    HW234671   2.678   1.648   7.178 -1.9311  1.0242 -0.5790
 7679SOL     OW34672   2.292   2.484   2.962 -0.5373 -0.0149  0.1659
 7679SOL    HW134673   2.290   2.389   2.965  0.5159 -0.0539 -0.3029
 7679SOL    HW234674   2.386   2.500   2.957 -0.8588  1.4707 -1.5879
 7680SOL     OW34675   0.014   0.517  10.898  0.4002 -0.2130 -0.1772
 7680SOL    HW134676   4.722   0.427  10.883  1.7856 -0.5128 -1.0445
 7680SOL    HW234677   0.092   0.512  10.953 -0.5020 -0.3198  1.0967
 7681SOL     OW34678   0.519   3.107   9.437  0.0938 -0.2506  0.0048
 7681SOL    HW134679   0.470   3.086   9.358 -0.6561 -0.2056  0.4641
 7681SOL    HW234680   0.466   3.175   9.478 -0.7901 -0.5724 -0.6138
 7682SOL     OW34681   4.681   0.012  17.689  0.2549 -0.1930  0.4280
 7682SOL    HW134682   0.024   4.701  17.707  0.3840  0.6704  2.1239
 7682SOL    HW234683   4.664   0.053   0.025  0.0608 -1.0458  0.8012
 7683SOL     OW34684   3.897   0.278   2.875  0.1867  0.6757 -0.1191
 7683SOL    HW134685   3.905   0.264   2.781 -1.5151 -1.4709  0.0621
 7683SOL    HW234686   3.826   0.341   2.865 -1.0542 -0.5575  0.8166
 7684SOL     OW34687   2.173   4.119   3.154 -0.4439 -0.0352 -0.5697
 7684SOL    HW134688   2.126   4.112   3.237  0.1626  0.2694 -0.1992
 7684SOL    HW234689   2.213   4.204   3.171  1.3333 -0.9500 -0.1550
 7685SOL     OW34690   0.155   1.969  12.365  0.0013 -0.0409  0.2330
 7685SOL    HW134691   0.148   2.064  12.369  0.2981  0.0167 -0.6859
 7685SOL    HW234692   0.239   1.952  12.324 -0.2257 -0.9005  0.1033
 7686SOL     OW34693   3.807   0.031  13.451  0.5878 -0.2050 -0.1836
 7686SOL    HW134694   3.842   0.019  13.539 -0.1428  0.5677  0.2133
 7686SOL    HW234695   3.796   4.676  13.431  0.5507 -0.0255 -1.0029
 7687SOL     OW34696   3.945   1.972   2.317  0.3647  0.3585 -0.0292
 7687SOL    HW134697   3.966   1.961   2.224 -0.6395  1.4610 -0.3978
 7687SOL    HW234698   4.018   1.926   2.357 -0.6490 -1.0191  0.2448
 7688SOL     OW34699   3.735   3.443   6.394 -0.3746 -0.2138 -0.7968
 7688SOL    HW134700   3.786   3.520   6.370 -0.6897 -0.1579 -1.3003
 7688SOL    HW234701   3.643   3.465   6.409 -0.7400 -0.0003 -3.2955
 7689SOL     OW34702   4.251   3.228   1.147 -0.3303  0.3161  0.2636
 7689SOL    HW134703   4.282   3.315   1.124 -1.6398  1.8155  4.2290
 7689SOL    HW234704   4.330   3.182   1.175 -2.1700 -2.1698  1.4298
 7690SOL     OW34705   1.848   1.413  13.530  0.4740  0.1557 -0.5516
 7690SOL    HW134706   1.867   1.471  13.457  0.5415  0.0372 -0.6278
 7690SOL    HW234707   1.880   1.471  13.599 -2.0796  1.0544 -0.1066
 7691SOL     OW34708   2.815   1.096  12.745  0.0106  0.1755  0.0302
 7691SOL    HW134709   2.805   1.127  12.835 -1.5778 -1.7512  0.5142
 7691SOL    HW234710   2.801   1.003  12.758 -2.9749  0.6112  0.0413
 7692SOL     OW34711   1.939   4.316   6.162 -0.5532  0.2494 -0.0721
 7692SOL    HW134712   1.846   4.316   6.141 -0.8892 -1.1267  1.4541
 7692SOL    HW234713   1.955   4.222   6.166  0.8717  0.5366  1.0084
 7693SOL     OW34714   1.362   1.096   3.789 -0.1582 -0.1883 -0.0463
 7693SOL    HW134715   1.433   1.159   3.797 -0.2470  0.1255 -1.6856
 7693SOL    HW234716   1.419   1.020   3.782  0.7775  0.2827  2.4483
 7694SOL     OW34717   3.068   0.075   1.865 -0.2660  0.5803 -0.8741
 7694SOL    HW134718   3.151   0.067   1.911 -2.0230 -0.4718  2.1824
 7694SOL    HW234719   3.039   0.159   1.900  0.6874  0.8073 -0.6385
 7695SOL     OW34720   0.604   2.373   6.057  0.9934  0.4379 -0.2429
 7695SOL    HW134721   0.559   2.422   6.126 -0.9635 -2.7688  0.7963
 7695SOL    HW234722   0.631   2.443   5.998  1.5542  1.1818  0.9200
 7696SOL     OW34723   3.678   4.116   6.232 -0.2183 -0.6223 -0.2279
 7696SOL    HW134724   3.704   4.170   6.157 -1.4397 -0.4613 -0.5304
 7696SOL    HW234725   3.585   4.111   6.212 -0.3282  1.6864 -0.2819
 7697SOL     OW34726   4.002   3.146  12.512  0.2426  0.2410  0.0581
 7697SOL    HW134727   3.989   3.241  12.513 -1.4331 -0.0193  1.4481
 7697SOL    HW234728   4.056   3.149  12.432 -2.0699 -2.8467 -1.6404
 7698SOL     OW34729   1.345   2.043  13.658  0.1700  0.3871  0.7001
 7698SOL    HW134730   1.285   1.993  13.713  0.3045 -0.4095  0.1268
 7698SOL    HW234731   1.292   2.122  13.660  2.1847  1.6830  2.7228
 7699SOL     OW34732   2.295   4.689   5.970 -0.2906 -0.2155  0.1971
 7699SOL    HW134733   2.353   4.677   5.895 -0.9588 -0.6754 -0.2368
 7699SOL    HW234734   2.208   4.689   5.930  0.3528  1.4651 -1.2282
 7700SOL     OW34735   0.985   4.503   5.284 -0.4596  0.1585  0.2409
 7700SOL    HW134736   1.006   4.423   5.236 -0.0303 -0.6380  1.7599
 7700SOL    HW234737   0.952   4.478   5.371 -0.9113  1.2411  0.3901
 7701SOL     OW34738   1.198   4.454   7.602  0.4867 -0.1864  0.3701
 7701SOL    HW134739   1.248   4.401   7.540 -1.1670  0.5387 -1.6053
 7701SOL    HW234740   1.235   4.539   7.578  1.0858 -1.0784 -1.9098
 7702SOL     OW34741   4.312   2.402   6.463  0.3402 -0.2752  0.4539
 7702SOL    HW134742   4.322   2.347   6.540  1.6540 -0.5555  0.0760
 7702SOL    HW234743   4.268   2.347   6.398 -1.6575 -1.4699  2.7938
 7703SOL     OW34744   4.115   2.871  12.246 -0.0703  0.5060 -0.2754
 7703SOL    HW134745   4.209   2.869  12.263 -0.1670  2.6027  0.6084
 7703SOL    HW234746   4.110   2.965  12.267  0.0170  0.5065 -0.2591
 7704SOL     OW34747   0.728   2.744   6.217 -0.3190  0.1336 -0.4527
 7704SOL    HW134748   0.806   2.689   6.222  0.7563  1.6093 -0.9894
 7704SOL    HW234749   0.750   2.769   6.127  0.4001  0.3063 -0.2310
 7705SOL     OW34750   1.517   3.513   7.835  0.1840 -0.5013  0.0977
 7705SOL    HW134751   1.531   3.424   7.870  1.0973 -0.9175 -1.3203
 7705SOL    HW234752   1.595   3.518   7.780 -0.4058  1.6754 -0.5318
 7706SOL     OW34753   1.610   1.454   2.869 -0.0512  0.4735 -0.2440
 7706SOL    HW134754   1.690   1.497   2.840  0.0313  0.8482  0.5455
 7706SOL    HW234755   1.545   1.523   2.854 -0.0220  0.4540 -0.4618
 7707SOL     OW34756   0.767   2.227   9.072  0.5671  0.2672 -0.1998
 7707SOL    HW134757   0.832   2.168   9.034  0.2245 -0.0129 -0.3599
 7707SOL    HW234758   0.817   2.278   9.136 -0.7463 -1.2030  1.9929
 7708SOL     OW34759   3.180   2.782  12.155  0.5169  0.9307 -0.3618
 7708SOL    HW134760   3.247   2.729  12.197  0.9786  1.3342 -0.5933
 7708SOL    HW234761   3.222   2.795  12.070  0.6130 -0.2261 -0.4916
 7709SOL     OW34762   0.826   1.451  11.335  0.0342 -0.4265  0.4235
 7709SOL    HW134763   0.808   1.545  11.333  1.3193 -0.2281 -2.5866
 7709SOL    HW234764   0.883   1.453  11.258 -1.4016  1.5898 -0.5987
 7710SOL     OW34765   1.446   1.360   2.592  0.3867  0.3944  0.4629
 7710SOL    HW134766   1.412   1.323   2.673  0.5341  1.9874  1.2473
 7710SOL    HW234767   1.492   1.282   2.559 -1.6530 -1.0364  1.0130
 7711SOL     OW34768   3.311   2.366   4.541 -0.4505 -0.6402  0.0638
 7711SOL    HW134769   3.242   2.303   4.563  0.7766 -1.1646  2.3340
 7711SOL    HW234770   3.373   2.349   4.611  0.5123 -1.8075 -1.0715
 7712SOL     OW34771   2.201   4.218   5.089  0.2450  0.9203 -0.2139
 7712SOL    HW134772   2.270   4.212   5.023  0.1578  3.1394 -0.5185
 7712SOL    HW234773   2.219   4.157   5.160 -4.4236  0.7008  0.8342
 7713SOL     OW34774   1.498   2.834  11.733  0.0746  0.1470 -0.0049
 7713SOL    HW134775   1.592   2.830  11.714  0.4537 -0.2148  1.9663
 7713SOL    HW234776   1.487   2.739  11.740  0.5271  0.0093 -1.1136
 7714SOL     OW34777   1.786   4.538   8.983  0.1393 -0.3011  0.6126
 7714SOL    HW134778   1.798   4.626   8.947  0.0746 -0.6325 -0.2162
 7714SOL    HW234779   1.878   4.521   9.000 -0.4017 -1.1660  2.5820
 7715SOL     OW34780   1.307   0.867  11.715 -0.2368  0.1374 -0.2544
 7715SOL    HW134781   1.309   0.962  11.725  1.2408 -0.0639  1.2351
 7715SOL    HW234782   1.297   0.846  11.622  2.3750  1.7856 -0.9084
 7716SOL     OW34783   1.701   1.942   5.214  0.2134 -0.3082 -0.7902
 7716SOL    HW134784   1.739   1.973   5.296 -0.4513 -0.9919 -0.2278
 7716SOL    HW234785   1.629   1.886   5.244 -1.4870  2.4022  0.1490
 7717SOL     OW34786   3.232   0.648  15.871 -0.1434 -0.3876 -0.4871
 7717SOL    HW134787   3.182   0.708  15.816 -1.4523  0.2933  1.4359
 7717SOL    HW234788   3.254   0.577  15.811 -0.3054 -0.9824  0.1515
 7718SOL     OW34789   4.396   0.427  14.524 -0.2853 -0.1817 -0.1004
 7718SOL    HW134790   4.491   0.441  14.531 -0.6121  1.0383  1.8123
 7718SOL    HW234791   4.390   0.407  14.431  0.0471 -1.9262  0.2589
 7719SOL     OW34792   4.536   1.209   6.191  0.5568 -0.2569  0.3016
 7719SOL    HW134793   4.559   1.240   6.103 -0.5182  0.6500  0.3454
 7719SOL    HW234794   4.441   1.208   6.202  0.3479 -1.1650 -1.5249
 7720SOL     OW34795   4.701   1.351   2.057 -0.0740  0.0335  0.1393
 7720SOL    HW134796   4.703   1.270   2.106  1.9977 -0.1465 -0.2726
 7720SOL    HW234797   0.048   1.393   2.039  0.0117 -0.2762 -0.1873
 7721SOL     OW34798   0.242   3.683   1.509 -0.2380 -0.0692  0.1765
 7721SOL    HW134799   0.338   3.677   1.510 -0.2254  0.3134  1.7061
 7721SOL    HW234800   0.227   3.707   1.418  1.9857  0.9356  0.0801
 7722SOL     OW34801   2.177   3.017  12.759 -0.1370 -0.3391 -0.3257
 7722SOL    HW134802   2.159   3.088  12.821  1.9481 -0.4847  0.4324
 7722SOL    HW234803   2.112   3.038  12.692 -1.2007 -1.4821  0.3217
 7723SOL     OW34804   3.760   0.022  15.822  0.3996 -0.1594 -0.0229
 7723SOL    HW134805   3.836   0.043  15.876  0.0753 -0.1492  0.4310
 7723SOL    HW234806   3.808   0.020  15.739 -1.9630  1.3735 -1.4232
 7724SOL     OW34807   1.394   2.623   9.815 -1.0002 -0.0484 -0.4100
 7724SOL    HW134808   1.437   2.561   9.874 -0.9840  1.3854  1.0822
 7724SOL    HW234809   1.467   2.676   9.783 -2.0893  1.0090 -1.1344
 7725SOL     OW34810   2.957   1.381   4.258  0.7417 -0.3238  0.4702
 7725SOL    HW134811   2.925   1.336   4.335  0.1635 -0.7050  0.0080
 7725SOL    HW234812   3.050   1.363   4.269 -0.0799 -5.6258 -1.5507
 7726SOL     OW34813   4.053   3.692  13.869 -0.0159 -0.1970  0.7310
 7726SOL    HW134814   4.051   3.664  13.960  0.5017 -2.5505  0.0204
 7726SOL    HW234815   4.146   3.711  13.858  0.2384 -1.4937  0.6211
 7727SOL     OW34816   4.310   4.356  15.126  0.4000 -0.1050 -0.3270
 7727SOL    HW134817   4.344   4.282  15.076  1.1429  1.7685 -2.5670
 7727SOL    HW234818   4.351   4.325  15.207 -0.1167  1.5490  0.5696
 7728SOL     OW34819   3.050   2.353   4.252  0.1920 -0.7056 -0.4240
 7728SOL    HW134820   3.010   2.439   4.240  2.4287  0.7315  2.2520
 7728SOL    HW234821   3.105   2.353   4.174  2.1484 -3.6315  0.9475
 7729SOL     OW34822   3.099   3.864   2.872 -0.6366  0.8130  0.1305
 7729SOL    HW134823   3.111   3.849   2.778 -1.8570  0.5023  0.0234
 7729SOL    HW234824   3.184   3.836   2.906  0.4018  1.2538 -2.0979
 7730SOL     OW34825   3.855   2.066  10.763 -0.8200  0.7693  0.1702
 7730SOL    HW134826   3.927   2.100  10.816 -1.8322  3.0206  0.0839
 7730SOL    HW234827   3.861   1.974  10.788 -0.6351  0.1893 -1.9691
 7731SOL     OW34828   3.710   2.849   1.555 -0.4956 -0.3936 -0.1752
 7731SOL    HW134829   3.742   2.938   1.564 -0.6121 -0.1238 -2.3571
 7731SOL    HW234830   3.658   2.864   1.476 -0.8797 -0.4138  0.0736
 7732SOL     OW34831   3.863   0.733   9.443 -0.9121  0.0532 -0.1922
 7732SOL    HW134832   3.811   0.671   9.494  1.8934  1.2917  4.2148
 7732SOL    HW234833   3.948   0.689   9.446 -1.0997 -0.2836  0.1981
 7733SOL     OW34834   3.023   1.206   2.034  0.7723 -0.2716  0.1639
 7733SOL    HW134835   3.006   1.292   1.996 -0.8264 -1.8369 -2.6149
 7733SOL    HW234836   2.988   1.222   2.121 -1.7085  0.1116 -0.9239
 7734SOL     OW34837   1.126   0.453  17.085 -0.1121 -0.5875  0.2449
 7734SOL    HW134838   1.212   0.491  17.067 -0.3313 -1.5997 -2.9402
 7734SOL    HW234839   1.165   0.387  17.142 -0.4862 -0.6434  0.4406
 7735SOL     OW34840   0.355   3.058  11.614  0.1982  0.2126 -0.6129
 7735SOL    HW134841   0.278   3.113  11.600  0.0950  0.2108 -0.0561
 7735SOL    HW234842   0.319   2.990  11.671  1.9521  0.7275  1.1108
 7736SOL     OW34843   2.656   3.239   7.308  1.1303 -0.3637 -0.3450
 7736SOL    HW134844   2.717   3.168   7.287 -0.1272 -1.4194 -0.4151
 7736SOL    HW234845   2.672   3.243   7.403 -0.8442  0.1428 -0.0343
 7737SOL     OW34846   0.949   2.333   9.598 -0.1040  0.6481  0.0182
 7737SOL    HW134847   1.003   2.316   9.675  0.1998  0.2422 -0.2862
 7737SOL    HW234848   1.009   2.374   9.535  2.0061  1.1879  2.4027
 7738SOL     OW34849   3.469   3.383   4.280  0.1622  0.4918 -0.1967
 7738SOL    HW134850   3.535   3.351   4.341 -2.4983  0.3390  2.5834
 7738SOL    HW234851   3.450   3.470   4.316  0.9329  0.1112  1.1327
 7739SOL     OW34852   1.141   4.720   6.475 -0.0206 -0.1741  0.3569
 7739SOL    HW134853   1.167   0.063   6.518 -1.5935  0.8935 -0.7063
 7739SOL    HW234854   1.057   4.701   6.518  0.4798 -0.5718  1.1403
 7740SOL     OW34855   0.580   0.210  13.495 -0.2447 -0.0895  0.3549
 7740SOL    HW134856   0.647   0.275  13.474  0.2624 -0.7709 -0.1570
 7740SOL    HW234857   0.634   0.145  13.541 -1.3669 -1.1066  0.2523
 7741SOL     OW34858   3.354   4.126  17.000  0.1623  0.1122 -0.3421
 7741SOL    HW134859   3.385   4.100  16.913  2.9024  1.3326  0.2760
 7741SOL    HW234860   3.284   4.189  16.981 -0.5453 -0.8027 -0.7449
 7742SOL     OW34861   1.741   4.620   6.681  0.2153  0.4070 -0.7687
 7742SOL    HW134862   1.747   4.605   6.776 -2.3819  1.0557 -0.4849
 7742SOL    HW234863   1.659   4.576   6.657 -0.6142  1.3780  0.2528
 7743SOL     OW34864   0.519   2.155   9.044 -0.0990  0.1072 -0.4753
 7743SOL    HW134865   0.614   2.148   9.050 -0.2127 -1.6103 -0.7814
 7743SOL    HW234866   0.501   2.099   9.119  1.7183 -1.7505 -1.4491
 7744SOL     OW34867   3.890   3.375   4.522  0.0872 -0.1334 -0.4794
 7744SOL    HW134868   3.983   3.374   4.501  0.2089  0.3947  0.0465
 7744SOL    HW234869   3.889   3.351   4.614 -1.5308 -1.3862 -0.8189
 7745SOL     OW34870   0.605   4.695  17.468  0.3652 -0.0319 -0.1652
 7745SOL    HW134871   0.667   4.657  17.406  0.8353  2.3689 -1.1785
 7745SOL    HW234872   0.522   4.666  17.431  0.2387 -2.0501  1.7417
 7746SOL     OW34873   0.661   4.587  11.760 -0.0952  0.1299 -0.1603
 7746SOL    HW134874   0.665   4.653  11.691  0.3591 -1.9552 -2.1042
 7746SOL    HW234875   0.631   4.504  11.723 -1.1900  0.2442  0.4672
 7747SOL     OW34876   3.597   4.490  14.847  0.1025  0.4387  0.3478
 7747SOL    HW134877   3.685   4.461  14.821 -1.0498 -4.2494  1.5806
 7747SOL    HW234878   3.559   4.410  14.883 -0.5509 -0.3988 -2.2163
 7748SOL     OW34879   2.188   3.849   8.920 -0.4641 -0.3330  0.3799
 7748SOL    HW134880   2.162   3.935   8.888  2.0219  0.7511  1.2455
 7748SOL    HW234881   2.272   3.845   8.873 -2.1491 -0.8812 -2.5875
 7749SOL     OW34882   1.473   4.466   7.115  0.1576  0.1845  0.7787
 7749SOL    HW134883   1.455   4.547   7.163  0.0682  0.7974 -0.2790
 7749SOL    HW234884   1.403   4.451   7.051  1.2150  3.3894 -1.1458
 7750SOL     OW34885   4.373   2.425   4.729 -0.0049 -0.0531  0.6677
 7750SOL    HW134886   4.348   2.508   4.771 -0.9823  0.0571 -0.1446
 7750SOL    HW234887   4.450   2.459   4.682 -0.6391 -0.0056 -0.3366
 7751SOL     OW34888   2.705   4.569   1.225 -0.0818 -0.5132  0.5229
 7751SOL    HW134889   2.684   4.559   1.132  2.8534  0.3393 -0.2171
 7751SOL    HW234890   2.799   4.582   1.224 -0.0789 -0.4695  1.2374
 7752SOL     OW34891   3.441   4.703   8.737  0.3400 -0.0065  0.4970
 7752SOL    HW134892   3.520   4.651   8.727 -0.7059 -1.6974  0.9672
 7752SOL    HW234893   3.433   4.710   8.832  1.0726 -1.1765  0.6463
 7753SOL     OW34894   1.779   4.319   6.585 -0.3100  0.1080 -0.4737
 7753SOL    HW134895   1.753   4.273   6.665  1.4834 -0.7121 -0.3623
 7753SOL    HW234896   1.871   4.297   6.570  0.0172  0.6941  0.7251
 7754SOL     OW34897   3.860   3.381   8.894  0.3489 -0.1202  0.5563
 7754SOL    HW134898   3.937   3.326   8.911  0.8090  1.0011  2.0876
 7754SOL    HW234899   3.877   3.403   8.802  1.5358 -4.3788 -0.2649
 7755SOL     OW34900   1.628   0.192   9.356  0.0281  0.1797  0.0788
 7755SOL    HW134901   1.659   0.207   9.445  0.0949 -1.5095  0.3371
 7755SOL    HW234902   1.545   0.241   9.357  0.6574  1.2612 -0.1797
 7756SOL     OW34903   4.441   0.849  14.961  0.0043 -0.0312 -0.1158
 7756SOL    HW134904   4.495   0.927  14.946 -0.5711  0.1225 -1.3968
 7756SOL    HW234905   4.384   0.894  15.023  1.5162  1.6070  0.0976
 7757SOL     OW34906   0.908   3.941   3.771  0.0625 -0.1755  0.3756
 7757SOL    HW134907   0.883   4.031   3.754  1.4505  0.2395  0.4714
 7757SOL    HW234908   0.981   3.953   3.832 -2.0128  2.5324  2.3357
 7758SOL     OW34909   0.982   0.484   8.772  0.1216 -0.5592  0.4849
 7758SOL    HW134910   0.934   0.440   8.702 -2.3441 -1.2095  2.5703
 7758SOL    HW234911   1.067   0.445   8.754  0.3446 -0.8233  2.1207
 7759SOL     OW34912   3.873   4.325   6.797 -0.2901 -0.2088  0.1825
 7759SOL    HW134913   3.923   4.297   6.874 -0.5299  1.8343  1.0908
 7759SOL    HW234914   3.907   4.262   6.734 -1.4903 -0.7264  0.0435
 7760SOL     OW34915   3.935   3.888   7.586 -0.0561  0.3117  0.1246
 7760SOL    HW134916   3.901   3.963   7.537  0.8833 -0.2973 -1.4662
 7760SOL    HW234917   3.953   3.925   7.673  1.3911 -0.2449  0.0620
 7761SOL     OW34918   0.825   2.629   4.728  0.1451  0.1488 -0.2104
 7761SOL    HW134919   0.848   2.689   4.799  1.0008  0.4264 -0.7289
 7761SOL    HW234920   0.778   2.683   4.665 -1.5817  2.0936  2.7168
 7762SOL     OW34921   1.095   0.366   2.010 -0.0395  0.1453 -0.3748
 7762SOL    HW134922   1.171   0.356   1.953  0.4650  1.4549  0.0727
 7762SOL    HW234923   1.029   0.368   1.941  0.4385  0.7842 -0.8098
 7763SOL     OW34924   0.228   1.708  10.235 -1.0199  0.0426 -0.5589
 7763SOL    HW134925   0.179   1.633  10.269  0.0890  0.6993  2.4518
 7763SOL    HW234926   0.191   1.710  10.147 -1.0088 -0.9426 -0.5855
 7764SOL     OW34927   0.070   1.624  13.235 -0.7774 -0.3582 -0.6616
 7764SOL    HW134928   0.019   1.665  13.305  1.0662 -1.3060  1.2203
 7764SOL    HW234929   0.155   1.665  13.254 -0.9484  0.1688 -1.0210
 7765SOL     OW34930   1.855   3.460   7.183  0.2575  0.4772  0.1997
 7765SOL    HW134931   1.857   3.436   7.090 -0.9672  2.5607 -0.3816
 7765SOL    HW234932   1.948   3.466   7.203  0.2553 -0.0252  0.3570
 7766SOL     OW34933   0.222   1.620   6.538 -0.3282 -0.0176 -0.2645
 7766SOL    HW134934   0.210   1.601   6.631 -0.4893  0.6048 -0.1534
 7766SOL    HW234935   0.184   1.545   6.493 -1.3246  1.5884 -2.0779
 7767SOL     OW34936   1.943   0.256   0.894  1.0731  0.0662 -0.0324
 7767SOL    HW134937   1.956   0.321   0.963 -0.4449  0.8755 -0.5122
 7767SOL    HW234938   2.018   0.197   0.884 -0.5785 -2.0347 -0.2229
 7768SOL     OW34939   0.153   1.336   7.274 -0.1215 -0.0351  0.0454
 7768SOL    HW134940   0.178   1.246   7.250 -0.4810  0.1598 -1.0406
 7768SOL    HW234941   0.148   1.332   7.369  1.3577  1.0911  0.1723
 7769SOL     OW34942   3.597   4.713   4.009 -0.0005  0.0711 -0.2094
 7769SOL    HW134943   3.593   0.038   4.081  3.2125 -0.1060  0.1124
 7769SOL    HW234944   3.509   4.675   4.000 -0.3965  0.4575  2.0853
 7770SOL     OW34945   1.786   2.687   8.462 -0.0493  0.6658  0.4395
 7770SOL    HW134946   1.771   2.599   8.496 -1.4468  0.0580 -1.7542
 7770SOL    HW234947   1.872   2.716   8.494  0.3887  0.4969 -0.5901
 7771SOL     OW34948   4.544   0.916  10.036 -0.4360  0.0880  0.6727
 7771SOL    HW134949   4.578   0.935  10.123 -0.5667  0.1742  0.7052
 7771SOL    HW234950   4.451   0.933  10.049  0.0789  2.6031  1.1379
 7772SOL     OW34951   0.718   2.235  12.794 -0.3296 -0.3789  0.2893
 7772SOL    HW134952   0.654   2.208  12.728 -1.0952  0.9609  0.4790
 7772SOL    HW234953   0.660   2.265  12.864  2.0570  0.5526  1.8439
 7773SOL     OW34954   1.771   3.086   1.547  0.2518 -0.5771 -0.3759
 7773SOL    HW134955   1.816   3.097   1.464  0.8934  0.6683  0.1208
 7773SOL    HW234956   1.834   3.078   1.619 -1.7584  1.2234  1.5773
 7774SOL     OW34957   0.122   2.565   8.552  0.2468  0.0160  0.5861
 7774SOL    HW134958   0.042   2.540   8.505 -0.5860  2.2480  0.8084
 7774SOL    HW234959   0.192   2.517   8.506 -1.0694 -0.2160 -1.1787
 7775SOL     OW34960   3.978   1.976   1.991 -0.1953  0.0635  0.2352
 7775SOL    HW134961   4.012   1.888   2.005 -1.7433 -0.6136 -0.2753
 7775SOL    HW234962   4.045   2.033   2.029  0.1151  0.1644 -0.4500
 7776SOL     OW34963   1.536   1.069   8.011  0.4838  0.0939  0.1527
 7776SOL    HW134964   1.603   1.029   7.956  1.0319  0.8847  0.2339
 7776SOL    HW234965   1.474   0.996   8.012 -1.7596  2.0251  2.2344
 7777SOL     OW34966   3.151   2.647   6.879 -0.3055 -0.2220 -0.5510
 7777SOL    HW134967   3.118   2.696   6.804  0.1622 -0.9361 -1.2097
 7777SOL    HW234968   3.246   2.659   6.878  0.1053 -3.4518 -0.6997
 7778SOL     OW34969   3.140   0.374   7.557  0.1665  0.1681 -0.1702
 7778SOL    HW134970   3.222   0.325   7.560  0.4663  0.7267  0.7679
 7778SOL    HW234971   3.152   0.429   7.635 -1.2465 -0.3541  0.4198
 7779SOL     OW34972   4.433   0.103  13.828  0.3095  0.7336  0.1277
 7779SOL    HW134973   4.498   0.107  13.897 -0.5647  1.3054  0.9200
 7779SOL    HW234974   4.471   0.146  13.751  0.8158 -0.2422 -0.1680
 7780SOL     OW34975   2.103   2.201   7.216  0.4586  0.5980 -0.1455
 7780SOL    HW134976   2.041   2.235   7.152  0.1096  1.0557  0.4275
 7780SOL    HW234977   2.160   2.278   7.215  0.8346  0.3079 -0.8921
 7781SOL     OW34978   2.877   0.315  13.083 -0.1863 -0.0516  0.2933
 7781SOL    HW134979   2.951   0.364  13.046 -0.1021  0.4752  1.1578
 7781SOL    HW234980   2.883   0.260  13.004 -3.4306 -1.3100  0.9204
 7782SOL     OW34981   1.582   3.595   8.411 -0.7883 -0.2444  0.1385
 7782SOL    HW134982   1.550   3.588   8.501 -1.9892 -1.6236 -0.3987
 7782SOL    HW234983   1.594   3.690   8.400  0.1721 -0.2515  1.1403
 7783SOL     OW34984   4.020   0.697   2.800  0.3392  0.6440  0.7144
 7783SOL    HW134985   3.926   0.681   2.797  0.7655 -1.0927 -3.7009
 7783SOL    HW234986   4.057   0.625   2.749  0.9070  2.1870 -1.0434
 7784SOL     OW34987   0.688   3.546   5.745 -0.3509 -0.0997  0.1931
 7784SOL    HW134988   0.738   3.576   5.821  1.2241 -1.2203 -0.4041
 7784SOL    HW234989   0.596   3.559   5.766 -0.7387 -5.3364  1.8199
 7785SOL     OW34990   4.157   2.235   2.990 -0.8766  0.6295 -0.5009
 7785SOL    HW134991   4.120   2.236   3.078  0.3294  1.0477 -0.0026
 7785SOL    HW234992   4.139   2.325   2.964  0.4518  0.4581 -1.9796
 7786SOL     OW34993   3.775   4.650   6.565  0.0743  0.0542 -0.3210
 7786SOL    HW134994   3.788   4.722   6.627  0.4446 -0.0958 -0.2215
 7786SOL    HW234995   3.869   4.638   6.548  0.3022  0.6788  0.4996
 7787SOL     OW34996   0.774   1.584   3.911 -0.0483  0.2211 -0.0367
 7787SOL    HW134997   0.867   1.563   3.902 -0.5346 -1.4475 -1.3286
 7787SOL    HW234998   0.738   1.503   3.946 -1.4160  0.6439 -0.4413
 7788SOL     OW34999   2.662   0.311  16.931  0.0513 -0.0580  0.5278
 7788SOL    HW135000   2.667   0.395  16.977  1.2760 -1.1889  2.4883
 7788SOL    HW235001   2.586   0.334  16.879  0.3047  1.2132  0.7291
 7789SOL     OW35002   0.979   3.780  11.560  0.3812 -0.2339  0.5372
 7789SOL    HW135003   1.044   3.841  11.594  0.2943  0.7836 -1.1124
 7789SOL    HW235004   0.951   3.744  11.644 -1.0652 -0.5658 -0.0863
 7790SOL     OW35005   3.659   4.629   0.855  0.1593  0.4103 -0.2359
 7790SOL    HW135006   3.672   4.604   0.763  1.2326 -0.1804  0.0707
 7790SOL    HW235007   3.732   4.574   0.886  0.7022 -0.9506 -3.8366
 7791SOL     OW35008   2.065   3.604   1.876 -0.3553 -0.1536  0.0489
 7791SOL    HW135009   1.971   3.590   1.862 -0.2620  0.0496 -0.7973
 7791SOL    HW235010   2.093   3.633   1.789  0.9565 -2.4172 -0.2695
 7792SOL     OW35011   2.349   1.497   0.090 -0.1900  0.3078 -0.1460
 7792SOL    HW135012   2.265   1.526   0.127 -0.3293  0.9469 -0.9759
 7792SOL    HW235013   2.330   1.405   0.077 -1.7945  0.2323  2.6588
 7793SOL     OW35014   3.830   0.226   5.293 -0.1382 -0.2442  0.3823
 7793SOL    HW135015   3.870   0.279   5.224  0.0691  0.0697  0.7508
 7793SOL    HW235016   3.905   0.198   5.345 -0.5659  1.6431  2.0067
 7794SOL     OW35017   2.927   2.401   2.576  0.1130 -0.0081 -0.2859
 7794SOL    HW135018   3.021   2.403   2.598 -0.1870  2.7447  0.7468
 7794SOL    HW235019   2.888   2.414   2.663 -0.5490 -1.3478 -0.3871
 7795SOL     OW35020   1.247   2.012   5.668  0.2316  0.4379 -0.2161
 7795SOL    HW135021   1.221   1.928   5.707  0.4262  1.2457  1.6871
 7795SOL    HW235022   1.162   2.036   5.631  0.5918  0.6328 -0.9114
 7796SOL     OW35023   1.409   0.234   3.972  0.2990 -0.0188 -0.0459
 7796SOL    HW135024   1.417   0.202   3.882  0.4830  1.2555 -0.4707
 7796SOL    HW235025   1.316   0.214   3.987  0.1803 -0.3267 -1.2079
 7797SOL     OW35026   0.978   1.726   5.968  0.5203 -0.5526 -0.0116
 7797SOL    HW135027   0.952   1.811   5.932  1.2645  0.4013  1.7252
 7797SOL    HW235028   0.893   1.683   5.972 -0.2798  1.0145 -0.1404
 7798SOL     OW35029   1.893   0.207   2.369 -0.3370 -0.0549  0.5043
 7798SOL    HW135030   1.902   0.119   2.406  0.2288 -0.3044 -0.2228
 7798SOL    HW235031   1.812   0.205   2.319  0.2634 -1.5997 -0.3842
 7799SOL     OW35032   1.754   4.119   8.704  0.0684  0.2689 -0.4503
 7799SOL    HW135033   1.814   4.126   8.778 -1.8595  0.0558  1.1212
 7799SOL    HW235034   1.781   4.185   8.639 -1.2044  0.9648 -0.2632
 7800SOL     OW35035   2.286   3.510   4.862  0.3945 -0.7502  0.3882
 7800SOL    HW135036   2.373   3.487   4.831 -0.3367  0.7229 -2.8294
 7800SOL    HW235037   2.310   3.522   4.954 -0.8776 -1.0832  0.7700
 7801SOL     OW35038   2.967   2.694   2.720 -0.3537 -0.4895 -0.1950
 7801SOL    HW135039   3.034   2.731   2.662  1.1660  0.2764  2.0928
 7801SOL    HW235040   3.011   2.625   2.769 -1.1837 -1.0128 -0.1733
 7802SOL     OW35041   2.774   4.501   5.718 -0.8439 -0.8191 -0.6229
 7802SOL    HW135042   2.851   4.557   5.707 -0.2899 -0.9529  2.6286
 7802SOL    HW235043   2.725   4.534   5.643 -0.7173  1.2661  0.2167
 7803SOL     OW35044   0.860   0.272   9.178 -0.4134 -0.3087  0.2725
 7803SOL    HW135045   0.862   0.200   9.114 -0.1689 -0.3113  0.2834
 7803SOL    HW235046   0.941   0.319   9.158 -0.6793 -0.0916 -0.3061
 7804SOL     OW35047   0.768   1.741   7.826  0.2412  0.4085 -0.2483
 7804SOL    HW135048   0.798   1.663   7.872  0.2836 -0.0108 -0.9898
 7804SOL    HW235049   0.692   1.766   7.879  1.1842 -0.1502  1.3757
 7805SOL     OW35050   2.035   3.400   4.970  0.0019 -0.1823 -0.4194
 7805SOL    HW135051   2.114   3.424   4.921 -0.8274  1.3510 -1.0318
 7805SOL    HW235052   2.018   3.489   4.999 -2.9689 -1.0395  0.4371
 7806SOL     OW35053   4.063   0.276  13.674 -0.3569 -0.6130 -0.1273
 7806SOL    HW135054   4.095   0.363  13.700 -0.3286  0.0789 -2.5085
 7806SOL    HW235055   3.995   0.305  13.613 -1.5296  0.4099  1.6709
 7807SOL     OW35056   0.829   1.196   8.797 -0.3716 -0.5695  0.1851
 7807SOL    HW135057   0.780   1.116   8.814 -1.4257 -0.1622 -0.9322
 7807SOL    HW235058   0.757   1.245   8.757 -0.6590  0.9426  2.5899
 7808SOL     OW35059   2.318   1.051   7.930  0.3063 -0.4739 -0.4366
 7808SOL    HW135060   2.323   1.142   7.961  0.5598 -1.4932  2.5393
 7808SOL    HW235061   2.307   1.006   8.014 -4.1063  0.1600 -0.6828
 7809SOL     OW35062   4.021   1.387   7.932  0.0011 -0.0580 -0.0764
 7809SOL    HW135063   4.097   1.385   7.991 -0.5884 -0.3849  0.6798
 7809SOL    HW235064   4.036   1.457   7.869  2.2067 -2.4534 -2.2219
 7810SOL     OW35065   1.285   4.277   3.362  0.2645 -0.3891 -0.0784
 7810SOL    HW135066   1.345   4.251   3.292  1.2007 -0.0539  0.5912
 7810SOL    HW235067   1.223   4.205   3.351  0.0000 -0.2099  0.2651
 7811SOL     OW35068   3.945   4.714   1.241  0.4271  0.0061 -0.7973
 7811SOL    HW135069   3.869   0.014   1.285  0.7302  1.6392 -1.6586
 7811SOL    HW235070   4.013   4.722   1.308 -0.9070 -0.5455  0.6245
 7812SOL     OW35071   2.923   0.752   6.771  0.3947  0.6220 -0.2066
 7812SOL    HW135072   2.950   0.691   6.839 -1.4552  0.0839  0.0488
 7812SOL    HW235073   2.984   0.823   6.790 -0.6049  1.3448  0.2836
 7813SOL     OW35074   3.750   2.541  12.763  0.2749  0.9337 -0.3091
 7813SOL    HW135075   3.762   2.634  12.743  0.8812  0.6463 -1.2991
 7813SOL    HW235076   3.721   2.509  12.678  3.0966  2.5890 -1.8932
 7814SOL     OW35077   3.615   2.356   4.434 -0.2012  0.0717  0.5337
 7814SOL    HW135078   3.682   2.288   4.444  3.2831  3.3757 -0.5285
 7814SOL    HW235079   3.536   2.304   4.452 -0.5339  0.6064  0.6197
 7815SOL     OW35080   4.373   2.278   3.535  0.3518  0.1288 -0.6033
 7815SOL    HW135081   4.360   2.353   3.477  0.3648  1.0663  0.5964
 7815SOL    HW235082   4.283   2.245   3.538 -0.3600  2.1391  0.4667
 7816SOL     OW35083   3.409   4.072   6.275 -0.1253 -0.1021 -0.2803
 7816SOL    HW135084   3.366   4.128   6.339 -0.4153  0.3931 -0.9022
 7816SOL    HW235085   3.346   4.001   6.270  0.2670 -0.5479  1.2352
 7817SOL     OW35086   0.699   3.761   8.537  0.1872  0.0243  0.4542
 7817SOL    HW135087   0.694   3.719   8.623 -0.5345  1.7793  1.2718
 7817SOL    HW235088   0.618   3.732   8.495 -0.1600  1.3910  0.2103
 7818SOL     OW35089   1.271   2.359   5.710 -0.2580 -0.3877 -0.2828
 7818SOL    HW135090   1.255   2.340   5.803  0.6869 -2.3013 -0.5038
 7818SOL    HW235091   1.191   2.324   5.672 -1.1339  1.8768 -0.5063
 7819SOL     OW35092   4.606   4.290  16.097  0.4374  0.4932 -0.0305
 7819SOL    HW135093   4.700   4.287  16.115  0.3115 -1.3777  0.3840
 7819SOL    HW235094   4.581   4.278  16.189 -1.8553 -0.7776 -0.8375
 7820SOL     OW35095   3.805   0.037   4.373 -0.2870  0.3591 -0.1794
 7820SOL    HW135096   3.887   0.082   4.352 -0.3588 -0.2559 -1.7374
 7820SOL    HW235097   3.805   4.698   4.316  1.6299  1.0474 -1.1225
 7821SOL     OW35098   2.583   3.664   6.002 -0.1383  0.6465  0.5412
 7821SOL    HW135099   2.635   3.585   6.013 -0.5195  0.0657 -1.8994
 7821SOL    HW235100   2.497   3.631   6.030  0.0570  1.2800  1.9046
 7822SOL     OW35101   4.600   1.877  13.377 -0.1112  0.7718  0.2817
 7822SOL    HW135102   4.580   1.936  13.304 -2.8432  0.1754  0.5322
 7822SOL    HW235103   4.510   1.874  13.408 -0.7088 -0.7125 -1.6220
 7823SOL     OW35104   0.843   1.108   6.336 -0.1237 -0.4536 -0.4616
 7823SOL    HW135105   0.772   1.115   6.272  0.5651  1.3648 -1.0531
 7823SOL    HW235106   0.920   1.122   6.281  0.6599  1.3292  1.0755
 7824SOL     OW35107   0.884   2.151   4.400  0.1418  0.3734  0.1406
 7824SOL    HW135108   0.883   2.057   4.384 -0.7318  0.1109  1.7956
 7824SOL    HW235109   0.830   2.152   4.479 -1.4928  0.3362 -0.9778
 7825SOL     OW35110   2.477   1.724   2.914 -0.8332 -0.7681  0.2648
 7825SOL    HW135111   2.529   1.785   2.966  0.6551 -2.2560  0.5237
 7825SOL    HW235112   2.443   1.773   2.839 -2.5962 -1.4063  0.6362
 7826SOL     OW35113   1.317   4.620  12.094  0.2370 -0.1426  0.3323
 7826SOL    HW135114   1.238   4.585  12.135 -0.9897 -0.7683 -2.5683
 7826SOL    HW235115   1.315   4.715  12.100  0.4202  0.0059 -2.3686
 7827SOL     OW35116   3.949   2.379   8.724 -0.3776  0.2209 -0.1042
 7827SOL    HW135117   3.888   2.403   8.654 -1.3079  1.8866  1.2808
 7827SOL    HW235118   3.898   2.298   8.734 -1.4273  0.7927 -0.7883
 7828SOL     OW35119   1.360   2.175  12.358  0.3959  0.1556 -0.3765
 7828SOL    HW135120   1.430   2.165  12.294  0.6236 -2.5512  0.2964
 7828SOL    HW235121   1.401   2.153  12.442 -0.0547 -0.2445 -0.2630
 7829SOL     OW35122   4.356   1.050   2.853 -0.3461 -0.3560  0.7890
 7829SOL    HW135123   4.409   0.975   2.827 -2.8986 -2.1958  0.8581
 7829SOL    HW235124   4.298   1.015   2.921 -0.8158  0.9215  1.0623
 7830SOL     OW35125   3.524   1.858   5.322 -0.0155 -0.0047 -0.1200
 7830SOL    HW135126   3.458   1.927   5.324  1.8831  1.7868  1.5794
 7830SOL    HW235127   3.556   1.865   5.412 -2.1019 -1.6495  0.7383
 7831SOL     OW35128   3.041   4.188   8.967 -0.0185 -0.0836 -0.3285
 7831SOL    HW135129   3.134   4.170   8.982  0.0313 -0.2312 -0.8001
 7831SOL    HW235130   3.028   4.137   8.887  1.2954  0.9986 -1.2245
 7832SOL     OW35131   1.960   2.645   1.639 -0.3894 -0.1138 -0.4455
 7832SOL    HW135132   2.042   2.602   1.613 -0.8015 -1.3647  0.3292
 7832SOL    HW235133   1.902   2.572   1.662 -1.1923  0.5496 -0.3911
 7833SOL     OW35134   4.387   0.905   7.670 -0.0647  0.2654  0.4336
 7833SOL    HW135135   4.319   0.898   7.736  0.4032 -1.0017  0.7759
 7833SOL    HW235136   4.351   0.951   7.594  0.4255 -1.4640 -0.8588
 7834SOL     OW35137   3.478   4.185   4.819 -0.2159  0.2516  0.0011
 7834SOL    HW135138   3.528   4.252   4.867  0.4623  0.5413 -1.1230
 7834SOL    HW235139   3.550   4.127   4.795  0.6172  0.9998  0.6304
 7835SOL     OW35140   3.186   3.374   2.725 -0.4337 -0.6178 -0.0116
 7835SOL    HW135141   3.267   3.363   2.775 -0.5981  0.8244  0.5621
 7835SOL    HW235142   3.214   3.395   2.635 -1.8037 -1.3076 -0.6050
 7836SOL     OW35143   4.473   0.470   2.336 -0.1376 -0.4982 -0.1788
 7836SOL    HW135144   4.414   0.507   2.401  0.6679  0.2632  0.1149
 7836SOL    HW235145   4.457   0.378   2.355  0.7592 -0.8403 -1.0523
 7837SOL     OW35146   1.171   4.060   6.044 -0.3282 -0.7121  0.2621
 7837SOL    HW135147   1.117   3.985   6.069  0.5407 -1.0487  1.1429
 7837SOL    HW235148   1.259   4.023   6.037  0.2205  0.8161 -0.9354
 7838SOL     OW35149   1.104   4.044   7.678  0.2862 -0.0702 -0.0532
 7838SOL    HW135150   1.071   4.134   7.680 -0.1740 -0.2014 -1.3541
 7838SOL    HW235151   1.050   4.006   7.747 -0.4758  2.5817  0.8040
 7839SOL     OW35152   0.754   0.572  13.886  0.0516  0.5123  0.1888
 7839SOL    HW135153   0.742   0.491  13.836  1.8358  1.0751 -1.1743
 7839SOL    HW235154   0.670   0.584  13.931 -0.6985  0.5397 -1.2402
 7840SOL     OW35155   3.201   3.853  10.264  0.4445  0.2875  0.3648
 7840SOL    HW135156   3.173   3.921  10.325 -0.4487  2.1614 -2.1586
 7840SOL    HW235157   3.147   3.779  10.289  0.0698  0.7394  0.8834
 7841SOL     OW35158   2.737   1.102   8.772 -0.0641 -0.3516  0.4507
 7841SOL    HW135159   2.670   1.039   8.744 -0.5725  0.5947 -0.4698
 7841SOL    HW235160   2.740   1.070   8.862  2.3200 -1.5975 -0.0771
 7842SOL     OW35161   2.549   2.314   0.230 -0.5020 -0.3206 -0.0133
 7842SOL    HW135162   2.639   2.335   0.252 -0.4392 -0.0814 -0.4996
 7842SOL    HW235163   2.543   2.322   0.135  0.0793 -1.8388 -0.1752
 7843SOL     OW35164   4.021   4.020   2.880  0.1093 -0.4224 -0.2380
 7843SOL    HW135165   3.995   3.985   2.794  0.2321 -0.0745 -0.4185
 7843SOL    HW235166   4.090   4.081   2.856 -1.3537  0.8935 -1.1347
 7844SOL     OW35167   3.851   0.390  13.538 -0.0036  0.2634  0.2270
 7844SOL    HW135168   3.802   0.470  13.518 -0.6370  0.1962  1.5452
 7844SOL    HW235169   3.776   0.336  13.562  0.9280 -1.6573 -1.1499
 7845SOL     OW35170   4.490   0.605  14.806 -0.0005 -0.0417  0.5614
 7845SOL    HW135171   4.461   0.539  14.868 -0.8268  3.2756  3.6667
 7845SOL    HW235172   4.471   0.681  14.860  0.4619 -2.2381  3.7919
 7846SOL     OW35173   3.034   3.037  11.977  0.0352  0.8941 -0.0590
 7846SOL    HW135174   2.945   3.071  11.979 -0.8679 -1.5265  0.3465
 7846SOL    HW235175   3.022   2.942  11.984  0.4236  0.7897 -0.7556
 7847SOL     OW35176   1.601   4.506   7.872 -0.8347  0.4383 -0.9612
 7847SOL    HW135177   1.508   4.487   7.861 -0.9574  0.2780  0.4169
 7847SOL    HW235178   1.637   4.505   7.783  2.7786 -2.4748  0.4777
 7848SOL     OW35179   3.647   4.656   3.738  0.2858  0.0411  0.4001
 7848SOL    HW135180   3.652   4.651   3.833  1.4273 -0.5650  0.3031
 7848SOL    HW235181   3.700   4.579   3.721 -0.3405 -0.2442 -0.2739
 7849SOL     OW35182   4.473   4.250   2.482  0.4397  0.1540 -0.3221
 7849SOL    HW135183   4.549   4.290   2.524 -1.0797  2.1921  0.4794
 7849SOL    HW235184   4.517   4.236   2.397 -0.8522  0.5852 -1.0529
 7850SOL     OW35185   3.039   3.819  11.760 -0.1755  0.2756 -0.0616
 7850SOL    HW135186   2.996   3.904  11.746  0.3147  0.3966 -0.7929
 7850SOL    HW235187   3.114   3.821  11.701 -2.4364 -1.4309 -2.9718
 7851SOL     OW35188   3.595   1.297  11.929  0.2737  0.0929  0.4222
 7851SOL    HW135189   3.645   1.267  12.005 -0.8688 -0.1873  1.0451
 7851SOL    HW235190   3.557   1.374  11.971  0.2405 -0.1367  0.8084
 7852SOL     OW35191   1.244   1.892  11.453  0.3492 -0.2063  0.7747
 7852SOL    HW135192   1.252   1.808  11.408 -0.7282 -0.6685  1.4512
 7852SOL    HW235193   1.208   1.942  11.379  0.4293 -1.2409  0.0394
 7853SOL     OW35194   2.277   4.061   8.417 -0.6681 -0.1397  0.5146
 7853SOL    HW135195   2.241   3.977   8.445  2.5001 -1.4326  0.7368
 7853SOL    HW235196   2.302   4.046   8.326 -0.9162  3.0557 -0.0963
 7854SOL     OW35197   4.314   4.376  16.106  0.0693 -0.1525 -0.4486
 7854SOL    HW135198   4.404   4.380  16.074 -0.3047 -0.3726 -1.5458
 7854SOL    HW235199   4.276   4.415  16.027 -0.0843 -2.3798 -1.4685
 7855SOL     OW35200   1.628   1.651  11.703  0.3457 -0.5742  0.0272
 7855SOL    HW135201   1.631   1.606  11.788  0.5998  0.2724  0.4648
 7855SOL    HW235202   1.571   1.588  11.659 -1.1064 -0.4222  1.6912
 7856SOL     OW35203   3.783   4.023  14.990  0.0076 -0.5977  0.0391
 7856SOL    HW135204   3.829   4.101  14.960  3.1570 -2.0456  1.1574
 7856SOL    HW235205   3.827   4.008  15.074  0.6188  0.4471 -0.0950
 7857SOL     OW35206   1.496   1.560   8.026  0.3523  0.2142  0.2321
 7857SOL    HW135207   1.446   1.479   8.017  0.4075 -0.1087  2.8753
 7857SOL    HW235208   1.429   1.615   8.065  0.9397  0.6246  0.6648
 7858SOL     OW35209   2.926   2.770   3.015 -0.3224  0.3981  0.5096
 7858SOL    HW135210   3.020   2.758   3.028 -0.2856 -1.6167 -1.5325
 7858SOL    HW235211   2.919   2.864   2.998 -1.1702 -0.2830 -2.9225
 7859SOL     OW35212   2.626   0.963   6.928  0.1155  0.0473 -0.4478
 7859SOL    HW135213   2.623   1.058   6.938  0.5833 -0.0388  0.5911
 7859SOL    HW235214   2.562   0.943   6.996 -0.7853 -0.7346 -1.5306
 7860SOL     OW35215   3.555   0.594  16.561 -0.0495 -0.3337  0.2321
 7860SOL    HW135216   3.501   0.616  16.485  0.6095 -1.1518 -0.4731
 7860SOL    HW235217   3.568   0.500  16.548  1.6049 -0.4401  2.7974
 7861SOL     OW35218   2.075   1.972  13.721  0.2997  0.2364 -0.4904
 7861SOL    HW135219   1.981   1.978  13.739  0.5336 -2.3120  1.5987
 7861SOL    HW235220   2.099   1.927  13.802 -1.4762 -0.7338 -0.4898
 7862SOL     OW35221   4.190   2.929   6.124 -0.2294 -0.0680 -0.1339
 7862SOL    HW135222   4.231   2.907   6.040  0.2084 -1.4237  0.4288
 7862SOL    HW235223   4.249   2.942   6.198 -1.0682  2.3724  0.1153
 7863SOL     OW35224   2.307   2.801   7.529 -0.3382  0.0570 -0.0703
 7863SOL    HW135225   2.265   2.803   7.443 -1.3816 -2.4927  0.3725
 7863SOL    HW235226   2.255   2.732   7.572 -1.1415  0.4210 -0.4575
 7864SOL     OW35227   2.441   0.900   4.213 -0.4147  0.1722  0.6123
 7864SOL    HW135228   2.476   0.985   4.242 -0.0080  1.1433 -2.7155
 7864SOL    HW235229   2.445   0.857   4.298 -0.8269  1.8456  1.4749
 7865SOL     OW35230   3.443   4.266   9.676  0.2767 -0.1983  0.2179
 7865SOL    HW135231   3.367   4.226   9.720  0.3478  0.5661  1.0238
 7865SOL    HW235232   3.420   4.358   9.667 -1.5726 -0.5860  0.9491
 7866SOL     OW35233   3.560   1.864   3.824  0.1876  0.0998  0.3133
 7866SOL    HW135234   3.538   1.859   3.731  1.2548  1.1277  0.0060
 7866SOL    HW235235   3.581   1.773   3.842  1.0426  0.7854  2.8085
 7867SOL     OW35236   2.729   0.390  11.664 -0.1543 -0.1573 -0.1258
 7867SOL    HW135237   2.786   0.465  11.681  0.7341 -0.6554 -0.9326
 7867SOL    HW235238   2.716   0.343  11.746  2.8495 -0.7083  0.0396
 7868SOL     OW35239   4.302   0.953   6.524 -0.2715 -0.2626 -0.0767
 7868SOL    HW135240   4.248   1.000   6.588  0.8811 -1.4621  1.7835
 7868SOL    HW235241   4.289   0.860   6.539  1.5644 -0.0978  2.6962
 7869SOL     OW35242   4.353   4.186   1.338  0.1654 -0.2285  0.3891
 7869SOL    HW135243   4.397   4.220   1.260  0.2292  0.0190  0.5319
 7869SOL    HW235244   4.424   4.203   1.401 -0.1193 -1.6861  1.1120
 7870SOL     OW35245   4.106   3.458   2.598 -0.2331 -0.2796 -0.0058
 7870SOL    HW135246   4.071   3.474   2.686 -2.6230  0.8692 -1.1655
 7870SOL    HW235247   4.189   3.506   2.594 -0.3930 -0.0228 -0.2332
 7871SOL     OW35248   0.903   0.785   7.873 -0.1772  0.3169  0.2490
 7871SOL    HW135249   0.913   0.867   7.921  2.3639  0.1284  0.0071
 7871SOL    HW235250   0.995   0.759   7.876  0.6046  3.5225  3.2627
 7872SOL     OW35251   3.382   2.961  16.543 -0.6248 -0.0450  0.0970
 7872SOL    HW135252   3.342   2.925  16.464  0.8675  1.7634 -1.5058
 7872SOL    HW235253   3.318   3.029  16.564  1.3487  1.0722  2.5885
 7873SOL     OW35254   3.737   1.648   5.579  0.4153 -0.5256 -0.0225
 7873SOL    HW135255   3.724   1.555   5.559 -1.0509 -0.2810 -0.1718
 7873SOL    HW235256   3.822   1.663   5.537 -0.3051 -1.5506 -1.8167
 7874SOL     OW35257   4.160   0.088  13.825  0.4354 -0.4830 -0.4085
 7874SOL    HW135258   4.253   0.107  13.813 -0.2200  3.5718  0.8765
 7874SOL    HW235259   4.121   0.156  13.769  1.1968  0.2849 -0.0211
 7875SOL     OW35260   0.505   3.898   4.024 -0.4471 -0.5190 -0.0771
 7875SOL    HW135261   0.453   3.828   4.064  0.6767 -1.1503  0.2696
 7875SOL    HW235262   0.563   3.929   4.094 -1.1093 -0.4952  0.4615
 7876SOL     OW35263   4.059   2.717   3.643  0.0806 -0.2754  0.0078
 7876SOL    HW135264   3.972   2.729   3.682  0.8993  0.6287  1.5529
 7876SOL    HW235265   4.035   2.692   3.554 -1.3107  1.1314 -0.0138
 7877SOL     OW35266   1.420   1.437   9.516 -0.4383 -0.2613 -0.1983
 7877SOL    HW135267   1.468   1.521   9.515 -1.4885  0.3191 -0.9673
 7877SOL    HW235268   1.339   1.473   9.482  0.3044  1.9234  0.3308
 7878SOL     OW35269   4.117   1.243   3.830 -0.1691  0.6372 -0.5916
 7878SOL    HW135270   4.099   1.334   3.807 -0.2108  0.6976 -0.3147
 7878SOL    HW235271   4.204   1.233   3.791  0.1485 -1.1517  0.5765
 7879SOL     OW35272   0.940   2.086   8.191  0.2220 -0.2008  0.2338
 7879SOL    HW135273   0.961   2.026   8.263  3.7886  1.1709  0.3197
 7879SOL    HW235274   1.022   2.086   8.141 -2.0365  1.1473 -3.4175
 7880SOL     OW35275   1.493   0.019   4.824  0.6046 -0.1090 -0.6281
 7880SOL    HW135276   1.459   0.108   4.815 -0.8718 -0.5872  0.3143
 7880SOL    HW235277   1.469   4.719   4.909  0.7702 -0.3006 -0.6646
 7881SOL     OW35278   1.383   0.677   7.738  0.5500  0.0379 -0.4465
 7881SOL    HW135279   1.478   0.664   7.745  0.5565  0.0627 -0.4891
 7881SOL    HW235280   1.381   0.746   7.673  2.6368  1.0942  0.6072
 7882SOL     OW35281   1.657   4.734   6.244 -0.1887 -0.4425  0.2003
 7882SOL    HW135282   1.597   0.002   6.318 -0.4740  2.3388 -0.2460
 7882SOL    HW235283   1.707   0.075   6.269  0.2247  0.2034 -2.6792
 7883SOL     OW35284   0.004   0.179  14.586  0.3017  0.0857 -0.6644
 7883SOL    HW135285   4.732   0.270  14.614  0.8162  0.2904 -1.1573
 7883SOL    HW235286   0.038   0.190  14.498 -0.4651  1.4968 -0.7810
 7884SOL     OW35287   4.251   4.697  17.710 -0.5255  0.4346 -0.4121
 7884SOL    HW135288   4.328   4.683  17.654 -0.0245  2.3407 -0.2008
 7884SOL    HW235289   4.283   0.003   0.041 -0.0509 -0.3956 -0.1550
 7885SOL     OW35290   2.351   3.184   5.685  0.1773  0.2451  0.0048
 7885SOL    HW135291   2.296   3.232   5.623 -0.8008 -0.4445  0.3412
 7885SOL    HW235292   2.438   3.204   5.652  0.2546 -2.9352 -1.7442
 7886SOL     OW35293   1.289   3.711   0.954 -0.2084 -0.4673  0.0265
 7886SOL    HW135294   1.227   3.642   0.980  2.5790 -1.6284  3.5521
 7886SOL    HW235295   1.237   3.775   0.904  0.5624 -0.5575 -0.8822
 7887SOL     OW35296   1.348   2.641   5.985 -0.0510 -0.1859  0.4138
 7887SOL    HW135297   1.307   2.709   5.931  0.7298 -0.6228 -0.7313
 7887SOL    HW235298   1.361   2.683   6.070  3.5016  0.5273 -0.5156
 7888SOL     OW35299   1.088   2.508  15.227 -0.0099 -0.4171  0.1778
 7888SOL    HW135300   1.028   2.517  15.301  1.4913 -0.0254  1.3395
 7888SOL    HW235301   1.048   2.558  15.156  1.0203  1.3748  0.8830
 7889SOL     OW35302   0.410   1.021   2.822 -0.4595 -0.1787 -0.1151
 7889SOL    HW135303   0.458   0.966   2.760 -0.6597 -1.3035  0.7264
 7889SOL    HW235304   0.466   0.996   2.895  0.3163  1.3284 -0.1840
 7890SOL     OW35305   2.562   2.651  14.034 -0.3628 -0.4601 -0.5194
 7890SOL    HW135306   2.521   2.572  13.999  0.2364 -0.0203 -2.2034
 7890SOL    HW235307   2.586   2.616  14.120  0.2770 -2.8540 -1.6624
 7891SOL     OW35308   2.631   1.593   2.406 -0.1409 -0.2053  0.2391
 7891SOL    HW135309   2.696   1.545   2.457  0.2338 -0.3885 -0.4095
 7891SOL    HW235310   2.599   1.521   2.352 -1.1269  1.2457 -1.1363
 7892SOL     OW35311   1.392   3.902   8.605  0.0677  0.4733 -0.1114
 7892SOL    HW135312   1.433   3.833   8.552 -1.3838  0.3501 -1.0676
 7892SOL    HW235313   1.312   3.859   8.631  0.5617 -0.0809  0.4689
 7893SOL     OW35314   0.876   0.020   7.305  0.1006 -0.1755  0.3074
 7893SOL    HW135315   0.833   0.042   7.222 -2.2520  0.3396  1.6755
 7893SOL    HW235316   0.798   0.008   7.359  2.1035 -1.9401  2.8050
 7894SOL     OW35317   2.306   1.864   9.528 -0.0630  0.3202 -0.3763
 7894SOL    HW135318   2.283   1.807   9.602  1.5259  1.7867  1.2349
 7894SOL    HW235319   2.379   1.910   9.569 -0.6290  0.3276  0.6134
 7895SOL     OW35320   0.677   0.463   5.534  0.4778  0.4868 -0.0500
 7895SOL    HW135321   0.712   0.493   5.450 -1.4905  2.4861 -0.1780
 7895SOL    HW235322   0.730   0.384   5.546 -0.2610  0.1320  0.8518
 7896SOL     OW35323   1.187   1.899  15.282  0.6907  0.0379 -0.0348
 7896SOL    HW135324   1.166   1.810  15.310  1.9487  1.4519  5.5431
 7896SOL    HW235325   1.115   1.914  15.221  0.0552 -0.5413  0.5679
 7897SOL     OW35326   0.176   1.750  15.279 -0.0330 -0.1145  0.3011
 7897SOL    HW135327   0.173   1.837  15.237 -0.5589 -0.7819 -1.0508
 7897SOL    HW235328   0.107   1.760  15.344  0.0310  1.2733  0.1650
 7898SOL     OW35329   2.129   2.699   3.467 -0.1183 -0.2802 -0.1657
 7898SOL    HW135330   2.185   2.759   3.418  1.0446 -0.9197  0.3764
 7898SOL    HW235331   2.097   2.757   3.535 -0.2655 -0.1224 -0.3712
 7899SOL     OW35332   4.690   1.708   6.590  0.0083 -0.5778  0.1284
 7899SOL    HW135333   4.670   1.740   6.678 -2.1787 -0.3231 -0.4700
 7899SOL    HW235334   0.026   1.649   6.604  1.7258  0.6541 -3.7438
 7900SOL     OW35335   0.734   1.583   4.414  0.4135  0.3986  0.4042
 7900SOL    HW135336   0.686   1.508   4.378  0.2187  0.4901  0.4764
 7900SOL    HW235337   0.820   1.548   4.436 -0.4507 -1.3283  1.0131
 7901SOL     OW35338   0.956   3.039   0.481  0.1317  0.4072 -0.2637
 7901SOL    HW135339   0.873   2.994   0.500  1.4814 -1.6648  0.7781
 7901SOL    HW235340   1.014   2.964   0.480  1.4398  1.3880  2.1415
 7902SOL     OW35341   2.116   2.746  12.492 -0.0425 -0.2083 -0.2051
 7902SOL    HW135342   2.082   2.831  12.464  0.0937 -0.0549  0.0890
 7902SOL    HW235343   2.084   2.695  12.418 -3.2802  1.3627  0.1210
 7903SOL     OW35344   3.341   2.385   5.916  0.2614 -0.0495  0.1065
 7903SOL    HW135345   3.335   2.433   5.998 -1.8531  2.4330 -1.4825
 7903SOL    HW235346   3.251   2.386   5.882  0.6448  0.7860 -0.8744
 7904SOL     OW35347   1.349   4.431   7.838  0.1897  0.1044 -0.8392
 7904SOL    HW135348   1.334   4.337   7.847  1.3644 -0.0347 -0.3561
 7904SOL    HW235349   1.296   4.448   7.760 -0.2954 -1.9358 -0.9582
 7905SOL     OW35350   3.402   3.374   2.887  0.6688 -0.1578  0.4877
 7905SOL    HW135351   3.400   3.379   2.982  0.3510 -1.1704  0.5387
 7905SOL    HW235352   3.494   3.355   2.872  0.5881 -1.8026  1.9752
 7906SOL     OW35353   1.925   2.602   6.295  0.3217 -0.2314 -0.0043
 7906SOL    HW135354   1.853   2.582   6.235  0.1184  2.3687 -0.6438
 7906SOL    HW235355   1.869   2.606   6.373  0.8519  2.4365  0.2387
 7907SOL     OW35356   3.458   3.605   6.505 -0.3838 -0.3145 -0.1881
 7907SOL    HW135357   3.371   3.634   6.478  0.5747  1.6618 -1.1439
 7907SOL    HW235358   3.499   3.684   6.539  1.2867 -1.6992  1.0536
 7908SOL     OW35359   1.409   0.075   3.750 -0.2055  0.1680 -0.0690
 7908SOL    HW135360   1.485   0.021   3.776 -0.8679 -0.9388 -0.4289
 7908SOL    HW235361   1.369   0.031   3.675 -0.3305 -1.1898  0.7934
 7909SOL     OW35362   3.754   1.574  13.669  0.3131  0.3866 -0.0604
 7909SOL    HW135363   3.695   1.560  13.743  0.5341  2.3103  0.4648
 7909SOL    HW235364   3.707   1.516  13.609  0.7226 -2.0566  1.9909
 7910SOL     OW35365   2.105   3.513   4.010  0.0049  0.0462  0.3860
 7910SOL    HW135366   2.138   3.594   3.970 -0.3895 -0.9725 -1.9902
 7910SOL    HW235367   2.176   3.485   4.067  1.0337  0.4224 -0.6965
 7911SOL     OW35368   3.289   1.098  14.957  0.3252  0.3310 -0.4322
 7911SOL    HW135369   3.292   1.136  14.870 -1.7411 -0.1632 -0.7130
 7911SOL    HW235370   3.258   1.172  15.009  0.2500  1.4099 -2.0390
 7912SOL     OW35371   1.816   4.395  13.040 -0.2600 -0.8020 -0.3575
 7912SOL    HW135372   1.831   4.331  13.109  1.5293 -0.1200 -0.1245
 7912SOL    HW235373   1.819   4.474  13.094  1.9020  0.3508 -2.1849
 7913SOL     OW35374   1.694   2.950   8.378  0.4070  0.6223 -0.4607
 7913SOL    HW135375   1.676   2.996   8.460  1.3400 -0.1507  0.1866
 7913SOL    HW235376   1.744   2.869   8.392  0.0215  1.0803  3.8035
 7914SOL     OW35377   3.311   2.729   6.608  0.5098  0.4532 -0.1181
 7914SOL    HW135378   3.315   2.819   6.576  0.2690  0.9688  1.3207
 7914SOL    HW235379   3.235   2.697   6.559  0.3464 -0.3521  0.6619
 7915SOL     OW35380   0.557   2.705  13.603  0.3706 -0.3102 -0.1294
 7915SOL    HW135381   0.541   2.625  13.652 -1.5082 -0.8665 -1.6403
 7915SOL    HW235382   0.647   2.728  13.627 -0.2044  1.2572  0.5209
 7916SOL     OW35383   1.769   2.241   3.548 -0.2621  0.6416 -0.3293
 7916SOL    HW135384   1.779   2.281   3.462  1.9486  0.5275 -0.1371
 7916SOL    HW235385   1.808   2.307   3.605  0.8088 -1.6736  1.6644
 7917SOL     OW35386   1.807   4.205  13.232 -0.1515  0.3146  0.0875
 7917SOL    HW135387   1.889   4.167  13.264 -0.4399 -0.3087  0.0768
 7917SOL    HW235388   1.743   4.183  13.299 -0.5907  0.6340 -0.2296
 7918SOL     OW35389   4.086   4.719   2.811 -0.3503  0.0651 -0.3108
 7918SOL    HW135390   4.087   4.635   2.858  0.4767  1.2601  1.7996
 7918SOL    HW235391   4.000   4.717   2.767 -0.2370  1.5997 -0.6066
 7919SOL     OW35392   0.297   1.379   0.388 -0.1493 -0.2536 -0.2327
 7919SOL    HW135393   0.350   1.409   0.462 -0.0852 -0.1342 -0.3263
 7919SOL    HW235394   0.330   1.290   0.373  1.1644 -0.0100  1.1396
 7920SOL     OW35395   3.254   3.619   8.439 -0.5560  0.0921  0.4023
 7920SOL    HW135396   3.240   3.550   8.504 -1.2287  0.6607  0.8788
 7920SOL    HW235397   3.315   3.673   8.489 -0.8432  1.9749 -1.2515
 7921SOL     OW35398   2.848   0.462  13.564  0.2612  0.0541  0.0643
 7921SOL    HW135399   2.862   0.412  13.644 -4.4848 -0.2732  0.6925
 7921SOL    HW235400   2.897   0.541  13.586 -1.2070  1.4122 -1.4837
 7922SOL     OW35401   3.244   1.972   2.444 -0.3736 -0.2273  0.3012
 7922SOL    HW135402   3.230   1.888   2.400 -0.6329  0.2166 -0.4508
 7922SOL    HW235403   3.158   2.002   2.417  0.9943  2.2255 -1.2753
 7923SOL     OW35404   3.950   4.072  14.288 -0.3648 -0.1140  0.2794
 7923SOL    HW135405   3.885   4.047  14.221 -1.1787  1.3527  0.5194
 7923SOL    HW235406   3.964   4.163  14.264  0.5950 -0.1427  0.7735
 7924SOL     OW35407   4.028   2.671   4.810  0.2355  0.2049 -0.2114
 7924SOL    HW135408   3.991   2.605   4.752  2.6765 -1.3608  0.0402
 7924SOL    HW235409   3.957   2.734   4.825  0.7727  1.0134 -1.0583
 7925SOL     OW35410   4.171   0.123  14.893 -0.5144  0.7597  0.1939
 7925SOL    HW135411   4.254   0.172  14.888 -0.7283  1.2372  1.2529
 7925SOL    HW235412   4.121   0.172  14.958 -2.5064 -1.3386  0.2446
 7926SOL     OW35413   1.379   2.086   9.469 -0.2487  0.3207  0.2471
 7926SOL    HW135414   1.398   2.101   9.376 -0.5837  0.9161  0.2752
 7926SOL    HW235415   1.330   2.168   9.479 -1.1551 -0.2697  0.6609
 7927SOL     OW35416   2.072   3.349   5.976 -0.2097  0.5465  0.7695
 7927SOL    HW135417   2.055   3.277   5.914  1.0544  2.3830 -1.7078
 7927SOL    HW235418   2.158   3.377   5.945  0.4163  2.6209  4.4121
 7928SOL     OW35419   1.813   1.682   4.613 -0.3026  0.2544 -0.3018
 7928SOL    HW135420   1.830   1.672   4.707  2.1857  1.9996 -0.5603
 7928SOL    HW235421   1.757   1.606   4.597 -1.5790  0.6548  2.2977
 7929SOL     OW35422   4.437   2.497   7.911 -0.3704 -0.0703  0.1700
 7929SOL    HW135423   4.527   2.480   7.939 -0.6691  0.5642  1.5387
 7929SOL    HW235424   4.416   2.447   7.832 -1.3487 -1.0567  1.0655
 7930SOL     OW35425   2.350   3.573   6.128 -0.0234  0.0897  0.4154
 7930SOL    HW135426   2.308   3.490   6.149 -0.0615  0.0547  0.2049
 7930SOL    HW235427   2.284   3.632   6.163 -1.4622 -1.7654  0.8349
 7931SOL     OW35428   4.494   1.354   1.878  0.1854 -0.1593 -0.0151
 7931SOL    HW135429   4.487   1.259   1.876 -1.1067 -0.0900  1.3486
 7931SOL    HW235430   4.560   1.366   1.947 -0.2608 -1.0390  0.5618
 7932SOL     OW35431   4.507   2.800   7.967 -0.2014 -0.0432  0.5248
 7932SOL    HW135432   4.450   2.858   7.916 -1.6554 -0.5867  1.5197
 7932SOL    HW235433   4.486   2.710   7.941  3.8548 -0.6723 -0.5704
 7933SOL     OW35434   0.580   3.594   0.609  0.2551 -0.5199 -0.2678
 7933SOL    HW135435   0.621   3.526   0.556  0.1262 -0.5701 -0.3027
 7933SOL    HW235436   0.614   3.567   0.695 -2.8422  1.8422  1.7149
 7934SOL     OW35437   1.146   1.921  12.742 -0.5801 -0.0624 -0.2172
 7934SOL    HW135438   1.151   1.904  12.648  0.2054  0.9266 -0.3547
 7934SOL    HW235439   1.087   1.995  12.752 -0.4705  0.2340 -1.7579
 7935SOL     OW35440   1.217   3.825   6.778 -0.5684 -0.3455  0.5157
 7935SOL    HW135441   1.258   3.802   6.695  1.7883  0.2215  1.5282
 7935SOL    HW235442   1.177   3.909   6.754 -0.8993 -0.8002 -0.5056
 7936SOL     OW35443   4.072   2.588   4.261  1.1442 -0.0744 -0.5253
 7936SOL    HW135444   4.006   2.558   4.199 -0.7735  2.4819  0.2948
 7936SOL    HW235445   4.099   2.669   4.218 -2.1872 -0.6583 -3.6934
 7937SOL     OW35446   3.401   4.452   5.455  0.1358  0.0066 -0.3561
 7937SOL    HW135447   3.345   4.484   5.383 -0.5537  0.4362  0.3700
 7937SOL    HW235448   3.479   4.425   5.407 -1.0358  0.2094 -2.3794
 7938SOL     OW35449   1.924   4.123   8.936 -0.2031 -0.3399 -0.1209
 7938SOL    HW135450   1.959   4.144   9.023 -0.7946 -0.6134  0.1791
 7938SOL    HW235451   2.001   4.118   8.880 -0.2262  0.4559 -0.2306
 7939SOL     OW35452   4.029   1.839   4.883  0.1284  0.0664  0.9987
 7939SOL    HW135453   3.956   1.805   4.935 -0.0402 -1.0973  0.0015
 7939SOL    HW235454   3.993   1.815   4.797  1.0951 -0.0257  0.6248
 7940SOL     OW35455   3.920   3.534  13.598  0.3222 -0.2649  0.1083
 7940SOL    HW135456   3.992   3.471  13.597  0.0371 -0.6145  0.8197
 7940SOL    HW235457   3.936   3.573  13.684 -1.7275 -2.3992  1.4783
 7941SOL     OW35458   0.595   3.306  10.747  0.1795 -0.9091 -0.5325
 7941SOL    HW135459   0.546   3.376  10.791  1.7730 -0.1646  0.0513
 7941SOL    HW235460   0.666   3.350  10.700 -1.0197 -0.8340 -2.2638
 7942SOL     OW35461   0.077   0.577   6.680 -0.1291  0.0596  0.3795
 7942SOL    HW135462   0.073   0.489   6.717 -0.1972  0.2097  0.7267
 7942SOL    HW235463   0.127   0.621   6.749 -1.0339 -2.3591  2.5872
 7943SOL     OW35464   1.139   4.012  15.479 -0.1143  0.2894 -0.2633
 7943SOL    HW135465   1.153   4.057  15.562 -0.0943  0.1059 -0.1669
 7943SOL    HW235466   1.155   4.079  15.413  0.6653  0.0987 -0.2585
 7944SOL     OW35467   0.559   0.472   4.539  0.1475 -0.2436  0.7305
 7944SOL    HW135468   0.653   0.486   4.548  0.3778 -1.1700 -0.2950
 7944SOL    HW235469   0.531   0.415   4.610 -0.3481 -0.1713  0.5990
 7945SOL     OW35470   2.033   1.564   5.162 -0.6532 -0.5167 -0.0563
 7945SOL    HW135471   2.060   1.597   5.247 -1.5424  0.7948 -0.2886
 7945SOL    HW235472   1.967   1.625   5.130  0.1371 -0.2544 -1.1792
 7946SOL     OW35473   2.616   1.456   4.005 -0.0230  0.7012  0.3869
 7946SOL    HW135474   2.523   1.438   4.021 -0.5768  1.3185 -2.2108
 7946SOL    HW235475   2.643   1.426   4.092 -0.4046 -3.7000 -1.0203
 7947SOL     OW35476   4.179   2.820   9.525 -0.1911  0.0684  0.3391
 7947SOL    HW135477   4.206   2.741   9.478 -0.7531 -0.3415  0.6987
 7947SOL    HW235478   4.098   2.832   9.474 -0.4079  0.5714  0.8054
 7948SOL     OW35479   1.898   2.053   0.222 -0.2100  0.1632  0.5730
 7948SOL    HW135480   1.974   2.109   0.236 -1.4346  1.4906  1.9748
 7948SOL    HW235481   1.900   2.004   0.304  4.1402 -1.3190 -0.4243
 7949SOL     OW35482   3.696   0.929   8.835  0.5651  0.6258  0.2145
 7949SOL    HW135483   3.714   0.930   8.741 -0.3951 -0.4465  0.0171
 7949SOL    HW235484   3.769   0.975   8.875  0.3054  1.6971 -0.5344
 7950SOL     OW35485   2.583   2.514  14.282 -0.4795 -0.5037 -0.0181
 7950SOL    HW135486   2.628   2.430  14.293  0.9921  0.0760 -1.6153
 7950SOL    HW235487   2.634   2.561  14.348  0.6644 -2.1577  0.2694
 7951SOL     OW35488   3.332   4.127   5.933 -0.1198 -0.1904 -0.5365
 7951SOL    HW135489   3.413   4.161   5.972  0.5851 -1.8406 -0.5872
 7951SOL    HW235490   3.268   4.187   5.973  0.5330 -0.5518  1.0457
 7952SOL     OW35491   0.234   1.285  12.584  0.2297 -0.5899 -0.5228
 7952SOL    HW135492   0.166   1.345  12.551 -0.1756 -1.1453 -0.7060
 7952SOL    HW235493   0.279   1.273  12.501  1.3797 -0.3607  0.0682
 7953SOL     OW35494   1.594   2.611   5.698  0.0433 -0.6229 -0.0530
 7953SOL    HW135495   1.677   2.582   5.662  0.3303 -1.3872  1.2381
 7953SOL    HW235496   1.593   2.569   5.784  2.5982  0.2021  0.3699
 7954SOL     OW35497   0.576   1.279  17.652  0.3409 -0.0841 -0.0685
 7954SOL    HW135498   0.543   1.368  17.637  1.7136  1.0400  3.5218
 7954SOL    HW235499   0.616   1.250  17.571 -2.8063 -2.1228 -0.8854
 7955SOL     OW35500   1.109   3.547   7.790  0.3296  0.2230  0.3178
 7955SOL    HW135501   1.184   3.520   7.737  0.4080 -0.0074  0.5495
 7955SOL    HW235502   1.152   3.573   7.872 -4.3394 -2.0709  3.4691
 7956SOL     OW35503   2.002   2.468   3.627 -0.2897  0.0671 -0.0411
 7956SOL    HW135504   2.081   2.417   3.612 -0.5232 -0.1036 -0.6959
 7956SOL    HW235505   2.038   2.556   3.640 -0.7161  0.1940  0.2872
 7957SOL     OW35506   4.549   2.928  12.198 -0.5654  0.2778 -0.1262
 7957SOL    HW135507   4.640   2.951  12.217  0.3318 -3.3152 -0.0553
 7957SOL    HW235508   4.534   2.951  12.106 -1.0029 -0.1578 -0.1630
 7958SOL     OW35509   3.010   2.949   8.080 -0.2329  0.0779  0.0824
 7958SOL    HW135510   3.061   3.018   8.121 -2.3159 -0.0409  2.9268
 7958SOL    HW235511   2.961   2.999   8.015 -0.4067 -0.7304 -0.4191
 7959SOL     OW35512   1.154   2.626  10.834  0.4343  0.2484  0.3092
 7959SOL    HW135513   1.204   2.696  10.877 -2.4682  1.0698  2.3226
 7959SOL    HW235514   1.214   2.554  10.853 -1.1776 -0.8907  1.0722
 7960SOL     OW35515   4.356   3.201   4.434 -0.0653  0.0144 -0.3008
 7960SOL    HW135516   4.287   3.135   4.442  0.8966 -1.1683 -1.8674
 7960SOL    HW235517   4.429   3.155   4.393  0.5274 -0.9069  1.8100
 7961SOL     OW35518   4.043   2.659   5.547 -0.3394  0.2247 -0.1688
 7961SOL    HW135519   3.969   2.607   5.578  0.0472  0.1661  0.6497
 7961SOL    HW235520   4.077   2.689   5.631 -1.5210  2.3582 -0.4508
 7962SOL     OW35521   3.572   2.982   0.990 -0.4675 -0.0249  0.2911
 7962SOL    HW135522   3.660   2.965   0.956 -1.2274  0.4629 -1.9507
 7962SOL    HW235523   3.545   3.060   0.941  1.0663 -0.5436 -1.3750
 7963SOL     OW35524   2.580   3.103   2.191 -0.4617 -0.0390 -0.0145
 7963SOL    HW135525   2.643   3.129   2.124 -0.7163  1.1318  0.1838
 7963SOL    HW235526   2.519   3.176   2.194 -0.9575 -0.5128  1.3651
 7964SOL     OW35527   1.670   0.159   2.233 -0.4023  0.1155 -0.4063
 7964SOL    HW135528   1.619   0.228   2.275 -2.7634 -1.2440 -1.0287
 7964SOL    HW235529   1.614   0.086   2.258  0.1337  0.1655  0.9055
 7965SOL     OW35530   1.595   1.309   7.828  0.2643 -0.0337  0.0580
 7965SOL    HW135531   1.674   1.276   7.783  0.4442  0.7831 -0.2248
 7965SOL    HW235532   1.589   1.258   7.908 -0.4055 -0.5792 -0.3441
 7966SOL     OW35533   3.144   1.483  12.475  0.4697 -0.6391  0.2454
 7966SOL    HW135534   3.195   1.564  12.472 -1.3595  0.4866 -0.4007
 7966SOL    HW235535   3.212   1.423  12.445 -0.1186 -0.8931 -0.5844
 7967SOL     OW35536   1.630   1.505   4.576  0.0703 -0.3324  0.0196
 7967SOL    HW135537   1.577   1.479   4.652  0.1202 -0.8392 -0.1179
 7967SOL    HW235538   1.660   1.417   4.552 -0.8272 -1.4173  2.8462
 7968SOL     OW35539   1.227   1.949   1.049  0.4498 -0.2366  0.3810
 7968SOL    HW135540   1.160   2.003   1.091  0.7899  0.2532  0.2888
 7968SOL    HW235541   1.203   1.938   0.957  0.8199 -0.6597  0.3343
 7969SOL     OW35542   1.069   4.365  15.654  0.4042  0.1319  0.1203
 7969SOL    HW135543   0.994   4.329  15.607  1.2291  1.2168 -2.0482
 7969SOL    HW235544   1.113   4.401  15.576 -0.5395  0.8348 -0.0802
 7970SOL     OW35545   4.199   4.605  11.770  0.2890 -0.1607  0.4132
 7970SOL    HW135546   4.293   4.593  11.768  0.5449  2.0961 -0.8592
 7970SOL    HW235547   4.176   4.528  11.822  0.4056  0.0659  0.7978
 7971SOL     OW35548   1.612   2.694  17.642 -0.2261 -0.5873 -0.0438
 7971SOL    HW135549   1.635   2.704  17.550  0.2272 -0.4902  0.0786
 7971SOL    HW235550   1.573   2.779  17.664  3.2464  0.8575  0.4839
 7972SOL     OW35551   0.245   3.126   6.453  0.5733  0.0476  0.4984
 7972SOL    HW135552   0.327   3.140   6.500  0.4360  1.7199  0.2318
 7972SOL    HW235553   0.227   3.217   6.429 -2.0249 -0.3537  0.9310
 7973SOL     OW35554   3.537   2.009  12.218  0.5098  0.0530 -0.4877
 7973SOL    HW135555   3.456   2.028  12.171 -0.5199  0.6947  1.5678
 7973SOL    HW235556   3.505   2.005  12.308  0.2455 -1.1313 -0.6367
 7974SOL     OW35557   2.877   3.861   7.310  0.2781 -0.1161  0.1042
 7974SOL    HW135558   2.927   3.912   7.374  0.4759  0.2722 -0.3593
 7974SOL    HW235559   2.894   3.772   7.343 -1.0314 -0.3344  0.1842
 7975SOL     OW35560   1.669   3.282   8.339 -0.2581 -0.3999  0.0288
 7975SOL    HW135561   1.578   3.298   8.313  0.2126  2.0324 -0.1363
 7975SOL    HW235562   1.665   3.189   8.316  0.3924 -0.5311  0.4613
 7976SOL     OW35563   3.140   3.321   1.101  0.2120  0.4182 -0.8067
 7976SOL    HW135564   3.223   3.365   1.118  0.7517 -0.7570 -0.4652
 7976SOL    HW235565   3.079   3.361   1.163  2.7671  2.6052  0.3065
 7977SOL     OW35566   0.803   3.809  13.282 -0.1695  0.4941  0.6542
 7977SOL    HW135567   0.889   3.850  13.273  0.1189 -0.2252  0.1819
 7977SOL    HW235568   0.748   3.873  13.237 -2.5486 -1.1848  1.1679
 7978SOL     OW35569   2.594   3.498  12.196 -0.5396  0.1274  0.4006
 7978SOL    HW135570   2.673   3.444  12.197 -0.9792 -0.5326 -1.2896
 7978SOL    HW235571   2.618   3.570  12.254 -4.5184  1.3479  0.4866
 7979SOL     OW35572   3.083   0.784  17.233  0.3867  0.5646 -0.7217
 7979SOL    HW135573   3.051   0.751  17.149  0.2737 -1.0971 -0.0252
 7979SOL    HW235574   3.029   0.862  17.230  0.1750  0.3785 -2.0143
 7980SOL     OW35575   4.691   3.725   1.159  0.0102 -0.8370 -0.2121
 7980SOL    HW135576   4.638   3.646   1.168 -0.2439 -0.4686  1.6168
 7980SOL    HW235577   4.714   3.724   1.066  0.3971 -1.7155 -0.1048
 7981SOL     OW35578   0.394   4.604  16.611  0.1666 -0.3799 -0.4707
 7981SOL    HW135579   0.434   4.691  16.614 -0.8412  0.1139 -1.4188
 7981SOL    HW235580   0.361   4.602  16.700 -1.9684  0.9456 -1.2513
 7982SOL     OW35581   3.463   4.127   8.563 -0.3765  0.2552  0.1132
 7982SOL    HW135582   3.412   4.093   8.488 -1.4763 -0.0066  0.9713
 7982SOL    HW235583   3.528   4.188   8.529  2.4728 -1.6924  2.0602
 7983SOL     OW35584   4.129   4.068   1.270  0.2579  0.1858 -0.3393
 7983SOL    HW135585   4.217   4.100   1.290 -0.7238  1.2194  2.3772
 7983SOL    HW235586   4.090   4.099   1.352 -0.9346 -0.2109 -0.7575
 7984SOL     OW35587   1.795   0.265   1.816  0.0453  0.0709  0.1970
 7984SOL    HW135588   1.885   0.290   1.797 -0.1111 -0.7471 -1.6248
 7984SOL    HW235589   1.814   0.174   1.841  0.7797  0.7689  2.2433
 7985SOL     OW35590   0.051   2.710   6.347  0.5952 -0.2119  0.1887
 7985SOL    HW135591   0.099   2.783   6.307  1.3786 -0.0489  1.4151
 7985SOL    HW235592   4.706   2.718   6.300  1.9545 -0.8511 -2.2833
 7986SOL     OW35593   1.739   1.652  12.940 -0.4335 -0.4061  0.4257
 7986SOL    HW135594   1.734   1.602  13.021 -0.9540 -0.3932  0.4038
 7986SOL    HW235595   1.663   1.619  12.892 -1.1942  0.2794  1.1656
 7987SOL     OW35596   2.419   1.016   1.760 -0.0299 -0.3776  0.4230
 7987SOL    HW135597   2.433   1.093   1.814 -1.2701 -0.4081  0.8002
 7987SOL    HW235598   2.439   1.054   1.675 -1.0537 -0.5905  0.0886
 7988SOL     OW35599   3.521   0.241   1.856 -0.0648  0.3738 -0.2633
 7988SOL    HW135600   3.479   0.156   1.866  3.0141 -1.0692  0.6030
 7988SOL    HW235601   3.607   0.216   1.891 -0.0561 -1.2420 -1.4467
 7989SOL     OW35602   2.342   0.997  11.055 -0.1363  0.1998 -0.2725
 7989SOL    HW135603   2.251   0.967  11.057  0.5884 -1.8986  1.4440
 7989SOL    HW235604   2.333   1.088  11.029 -0.8264  0.2116  0.0192
 7990SOL     OW35605   0.335   2.589  13.055  0.1385  0.2671  0.6151
 7990SOL    HW135606   0.344   2.669  13.107  0.8142  1.0168 -0.6865
 7990SOL    HW235607   0.402   2.597  12.988 -1.2503  1.2260 -0.6530
 7991SOL     OW35608   1.243   1.463  13.311  0.0211  0.3180  0.3606
 7991SOL    HW135609   1.276   1.480  13.222 -1.4276 -1.1713 -0.4774
 7991SOL    HW235610   1.206   1.546  13.338 -0.4328  0.7253 -1.4757
 7992SOL     OW35611   1.441   2.835   4.899  0.4328  0.0439 -0.3514
 7992SOL    HW135612   1.519   2.781   4.915 -1.1026 -2.3655 -1.0760
 7992SOL    HW235613   1.372   2.771   4.915 -0.9588  1.4094 -0.9571
 7993SOL     OW35614   2.752   3.551   5.338  0.5286 -0.2067 -0.3664
 7993SOL    HW135615   2.804   3.630   5.325 -1.0044  0.6248 -1.4299
 7993SOL    HW235616   2.815   3.480   5.345 -0.3237 -0.8369  1.0047
 7994SOL     OW35617   2.986   0.122   2.153 -0.3659 -0.0243 -0.0170
 7994SOL    HW135618   3.033   0.041   2.137 -1.4876 -0.3612 -1.6746
 7994SOL    HW235619   2.894   0.094   2.147 -0.2664 -0.2145 -0.6959
 7995SOL     OW35620   0.742   3.428   0.472  0.5490 -0.0787  0.1717
 7995SOL    HW135621   0.740   3.506   0.416  0.6163 -1.6834 -2.0520
 7995SOL    HW235622   0.831   3.395   0.458  0.7701 -0.0585  1.5125
 7996SOL     OW35623   4.583   0.236  13.650 -0.1575  0.1073 -0.0041
 7996SOL    HW135624   4.540   0.228  13.565  1.5695  0.2238 -0.8906
 7996SOL    HW235625   4.672   0.203  13.637  0.6959  2.0039  1.2090
 7997SOL     OW35626   3.626   3.696   5.066  0.4809  0.3819 -0.1566
 7997SOL    HW135627   3.662   3.626   5.120 -0.3439 -0.6212 -0.9030
 7997SOL    HW235628   3.636   3.771   5.124  1.5895  1.3467 -1.5830
 7998SOL     OW35629   2.574   1.234   6.568 -0.8181  0.0618 -0.0894
 7998SOL    HW135630   2.646   1.172   6.562 -0.0590  0.9876 -0.5005
 7998SOL    HW235631   2.614   1.321   6.562 -1.3097  0.1840 -1.5407
 7999SOL     OW35632   3.258   0.086   5.736 -0.1880 -0.3630  0.3280
 7999SOL    HW135633   3.220   0.060   5.652 -0.5481 -3.1100  1.3254
 7999SOL    HW235634   3.349   0.101   5.714 -0.4340  1.5080  0.6084
 8000SOL     OW35635   3.399   0.739   8.088  0.2176  0.1476  0.2576
 8000SOL    HW135636   3.388   0.664   8.147  2.8389  0.8589  1.6490
 8000SOL    HW235637   3.455   0.781   8.152  0.0360  1.5593 -0.5202
 8001SOL     OW35638   0.041   4.279  13.233  0.0177 -0.0622 -0.8023
 8001SOL    HW135639   0.057   4.323  13.150  1.3956 -2.0023 -1.5480
 8001SOL    HW235640   0.075   4.191  13.218  1.2536  0.5575 -1.6010
 8002SOL     OW35641   3.891   2.174   0.884 -0.2707 -0.4662  0.4127
 8002SOL    HW135642   3.859   2.090   0.917 -0.5312 -0.1489  0.9743
 8002SOL    HW235643   3.817   2.233   0.902 -0.7809 -0.6793 -1.0628
 8003SOL     OW35644   4.384   1.119  10.528 -0.3902  0.0419  0.2480
 8003SOL    HW135645   4.423   1.183  10.587  0.3999 -1.4310  1.3110
 8003SOL    HW235646   4.413   1.153  10.444  2.7863  1.2656  1.8755
 8004SOL     OW35647   0.663   3.250   0.844  0.8052  0.3327  0.1293
 8004SOL    HW135648   0.748   3.213   0.820  1.2961  0.9361  0.9301
 8004SOL    HW235649   0.693   3.337   0.873  4.2560 -1.7269  2.8836
 8005SOL     OW35650   0.797   3.072   9.348 -0.2827 -0.4094 -0.3247
 8005SOL    HW135651   0.734   3.121   9.294 -0.9672 -0.8375  0.0795
 8005SOL    HW235652   0.763   3.095   9.435  0.2289  1.3363 -0.5897
 8006SOL     OW35653   1.690   3.278  13.248 -0.0417  0.6943  0.1897
 8006SOL    HW135654   1.703   3.316  13.161 -0.1526 -1.5857 -0.8339
 8006SOL    HW235655   1.764   3.218  13.250 -0.7482 -0.1858  0.2629
 8007SOL     OW35656   2.677   3.682  14.336 -0.5125 -0.0048 -0.2168
 8007SOL    HW135657   2.628   3.645  14.263  0.0834 -1.8084  0.2927
 8007SOL    HW235658   2.632   3.642  14.411  0.5211  0.8011  0.8437
 8008SOL     OW35659   4.240   2.604   8.324 -0.3695 -0.1346  0.4943
 8008SOL    HW135660   4.293   2.638   8.396  0.7106  0.3532 -0.5277
 8008SOL    HW235661   4.159   2.652   8.335  1.2190  2.3013  1.6046
 8009SOL     OW35662   4.601   3.417   1.446 -0.2456  0.2702  0.5251
 8009SOL    HW135663   4.636   3.388   1.362  0.1748  1.2902  0.3481
 8009SOL    HW235664   4.635   3.506   1.450 -0.5874  0.5065 -2.3263
 8010SOL     OW35665   4.447   3.252  11.890  0.2182  0.0772 -0.1831
 8010SOL    HW135666   4.448   3.306  11.811 -4.2596  0.5095  0.0674
 8010SOL    HW235667   4.393   3.303  11.949 -0.4707  0.3309 -1.0301
 8011SOL     OW35668   4.543   4.645  14.134 -0.5666  0.4720 -0.4657
 8011SOL    HW135669   4.532   4.576  14.200  1.7100 -0.5446 -1.1404
 8011SOL    HW235670   4.531   4.721  14.191 -0.3255 -0.8863  1.4044
 8012SOL     OW35671   2.081   0.911   3.117 -1.3071  0.7964 -0.2423
 8012SOL    HW135672   2.163   0.954   3.141  0.9953 -2.3878 -2.3139
 8012SOL    HW235673   2.022   0.982   3.093 -0.1409  1.0175 -2.4760
 8013SOL     OW35674   3.412   0.762   2.446  0.7598 -0.1831  0.4500
 8013SOL    HW135675   3.428   0.855   2.433 -0.7529  0.2477  1.6012
 8013SOL    HW235676   3.497   0.731   2.475  0.4475 -1.2349  0.2588
 8014SOL     OW35677   4.295   4.704   1.603  0.7954  0.4787  0.5108
 8014SOL    HW135678   4.313   4.636   1.539  0.1621 -1.8929  2.8311
 8014SOL    HW235679   4.355   4.685   1.675  1.4396  0.9887  0.1128
 8015SOL     OW35680   0.591   4.643   2.975  0.3293 -0.2385 -0.1224
 8015SOL    HW135681   0.671   4.689   3.002  1.2012 -1.0445 -1.3012
 8015SOL    HW235682   0.541   4.714   2.934  1.7049 -0.2849 -1.8853
 8016SOL     OW35683   4.148   2.531   8.784  0.4282  0.3005  0.2152
 8016SOL    HW135684   4.076   2.478   8.749 -0.0414  0.3491  1.0936
 8016SOL    HW235685   4.222   2.471   8.773 -0.2600 -0.6536  0.7600
 8017SOL     OW35686   3.394   3.858  10.914  0.4374 -0.3577  0.1851
 8017SOL    HW135687   3.400   3.827  11.005  3.0324 -2.1885 -0.6290
 8017SOL    HW235688   3.480   3.826  10.889  0.6272 -2.2647  3.1589
 8018SOL     OW35689   2.426   0.642   6.138 -0.2731 -0.3868  0.3537
 8018SOL    HW135690   2.385   0.710   6.085 -1.1507 -1.9762 -1.0091
 8018SOL    HW235691   2.500   0.699   6.162 -0.7163  0.7060 -0.9103
 8019SOL     OW35692   0.882   4.005   4.954  0.3879  0.3438  0.2441
 8019SOL    HW135693   0.816   4.001   5.023  1.2450  1.9003  1.1697
 8019SOL    HW235694   0.871   4.091   4.914 -1.0625  0.3515  0.6440
 8020SOL     OW35695   3.597   0.304   7.744 -0.3821 -0.1507  0.3660
 8020SOL    HW135696   3.529   0.359   7.783 -0.2820  0.5623 -0.4503
 8020SOL    HW235697   3.552   0.223   7.721 -1.6585  0.8701 -0.7561
 8021SOL     OW35698   1.673   1.934   1.266  0.6313  0.0233 -0.8952
 8021SOL    HW135699   1.747   1.955   1.323 -0.9267  1.3751  0.6356
 8021SOL    HW235700   1.631   1.863   1.313  0.0455  1.9977  1.5876
 8022SOL     OW35701   4.720   0.250   1.295 -0.0846 -0.2351  0.0445
 8022SOL    HW135702   4.674   0.333   1.308  0.8886  0.5777 -1.5345
 8022SOL    HW235703   4.692   0.226   1.206 -0.6388  0.1489  0.1198
 8023SOL     OW35704   3.480   4.274   2.819 -0.1348  0.5629  0.2403
 8023SOL    HW135705   3.415   4.229   2.766 -0.5185  1.5880 -0.1605
 8023SOL    HW235706   3.515   4.202   2.872  2.2191 -0.3299 -2.4885
 8024SOL     OW35707   3.093   1.327  10.206 -0.2756  0.1405  0.2602
 8024SOL    HW135708   3.028   1.383  10.163 -0.4637 -0.9489 -0.8752
 8024SOL    HW235709   3.158   1.392  10.234 -1.5989  2.0054 -0.9741
 8025SOL     OW35710   2.187   3.372   6.984 -0.8392 -0.0681 -0.4216
 8025SOL    HW135711   2.180   3.406   7.073  0.3415  0.6897 -0.6127
 8025SOL    HW235712   2.098   3.342   6.967 -1.7529  1.7923  1.0955
 8026SOL     OW35713   3.659   0.145   2.744  0.3454 -0.2995  0.8616
 8026SOL    HW135714   3.748   0.113   2.759 -0.1537 -2.1497 -0.0800
 8026SOL    HW235715   3.660   0.155   2.648 -0.9284 -0.0448  0.8689
 8027SOL     OW35716   1.402   2.532  15.987 -0.5765 -0.7127 -0.6764
 8027SOL    HW135717   1.326   2.537  16.046  0.2351 -1.3138  0.4193
 8027SOL    HW235718   1.451   2.612  16.010  0.4488 -1.5158 -0.0720
 8028SOL     OW35719   4.081   4.706   4.955  0.1980  0.7860 -0.1261
 8028SOL    HW135720   4.172   4.736   4.948 -0.1837  1.4501 -2.2279
 8028SOL    HW235721   4.036   0.041   4.913 -0.5194 -0.1588 -0.9925
 8029SOL     OW35722   0.326   1.161   6.839  0.2565 -0.2565  0.1374
 8029SOL    HW135723   0.302   1.077   6.800  0.3724  0.4020 -1.3577
 8029SOL    HW235724   0.252   1.216   6.811 -0.9427 -1.0454  1.7420
 8030SOL     OW35725   2.522   0.206  10.526 -0.2390 -1.0451 -0.1628
 8030SOL    HW135726   2.546   0.127  10.575  0.4892 -0.9227 -0.3180
 8030SOL    HW235727   2.605   0.252  10.518 -0.7286 -0.3030 -0.9414
 8031SOL     OW35728   4.420   2.595  11.537 -0.1229  0.1964 -0.3708
 8031SOL    HW135729   4.423   2.652  11.460  0.2318  0.3486 -0.2439
 8031SOL    HW235730   4.503   2.620  11.579  1.7898 -1.5002 -3.1052
 8032SOL     OW35731   2.566   3.301   1.923  0.8847 -0.2940  0.1467
 8032SOL    HW135732   2.628   3.371   1.903  0.3383  0.6111  1.5663
 8032SOL    HW235733   2.496   3.348   1.968  0.8512 -0.5306  0.3390
 8033SOL     OW35734   3.530   0.301   6.625 -0.6314 -0.1959  0.0550
 8033SOL    HW135735   3.465   0.286   6.693  0.5216 -2.2267  0.7156
 8033SOL    HW235736   3.507   0.393   6.608  0.7286  0.3997  1.4141
 8034SOL     OW35737   3.097   0.916  14.881  0.0412  0.6119  0.2040
 8034SOL    HW135738   3.163   0.855  14.849  1.1861  2.3149 -0.6501
 8034SOL    HW235739   3.155   0.986  14.910  1.1712  0.6886 -2.2100
 8035SOL     OW35740   4.103   0.307   7.784 -0.0670  0.5742  0.4985
 8035SOL    HW135741   4.131   0.333   7.872 -1.2598  1.7168  0.5467
 8035SOL    HW235742   4.056   0.226   7.805 -0.4029  0.1245 -1.9519
 8036SOL     OW35743   2.996   1.847   7.802 -0.1751 -0.3956 -0.2087
 8036SOL    HW135744   3.011   1.942   7.793  0.4854 -0.5182 -0.4073
 8036SOL    HW235745   3.035   1.834   7.889 -0.3359 -0.7764 -0.1949
 8037SOL     OW35746   1.151   3.632   9.204  0.3974  0.1815  0.3013
 8037SOL    HW135747   1.185   3.586   9.281  1.4607  1.5866  0.6868
 8037SOL    HW235748   1.063   3.659   9.228 -0.0396  1.5473 -2.8692
 8038SOL     OW35749   2.525   4.402   1.365 -0.0863 -0.2256  0.0342
 8038SOL    HW135750   2.444   4.428   1.320  1.1912  0.8455 -1.6660
 8038SOL    HW235751   2.581   4.473   1.334 -0.6393  1.6221  3.2678
 8039SOL     OW35752   3.289   3.371   8.310  0.3157 -0.5525 -0.0199
 8039SOL    HW135753   3.379   3.402   8.299 -0.7293  2.4381 -0.3961
 8039SOL    HW235754   3.242   3.411   8.383  0.9160 -0.8374  0.5225
 8040SOL     OW35755   4.334   2.919   6.392 -0.0772  0.2798  0.1804
 8040SOL    HW135756   4.343   2.824   6.382  1.2776  0.3632  0.6384
 8040SOL    HW235757   4.278   2.922   6.470 -0.3518 -1.8140  0.0604
 8041SOL     OW35758   1.845   3.819  10.543 -0.2792 -0.4580 -0.0670
 8041SOL    HW135759   1.850   3.724  10.533 -0.0717 -0.3695 -0.8319
 8041SOL    HW235760   1.864   3.816  10.637 -0.5137  0.9894  0.0371
 8042SOL     OW35761   4.254   3.214   7.847  0.4961  0.4664 -0.0728
 8042SOL    HW135762   4.160   3.233   7.845  0.6810  1.5164  0.6235
 8042SOL    HW235763   4.270   3.267   7.926 -0.7112 -0.0915  0.5475
 8043SOL     OW35764   2.587   1.433   4.807 -0.4583 -0.0693 -0.2615
 8043SOL    HW135765   2.586   1.366   4.876 -0.9473 -0.2887 -0.4888
 8043SOL    HW235766   2.513   1.489   4.831  0.1974  0.5632  0.2837
 8044SOL     OW35767   0.482   1.310   9.253  0.2836  0.1188  0.1291
 8044SOL    HW135768   0.511   1.321   9.343  0.6036  1.2407 -0.1143
 8044SOL    HW235769   0.549   1.244   9.235 -0.9212 -0.8159 -0.9210
 8045SOL     OW35770   3.711   2.757   6.816 -0.7954 -0.0340 -0.1335
 8045SOL    HW135771   3.714   2.734   6.909  2.8813 -0.6985 -0.4193
 8045SOL    HW235772   3.640   2.821   6.822 -1.1017 -0.3876  0.0358
 8046SOL     OW35773   1.650   3.399   2.414  0.0306  0.0451  0.3161
 8046SOL    HW135774   1.678   3.318   2.457  0.7342 -0.0826 -0.3797
 8046SOL    HW235775   1.681   3.467   2.473  0.4088  1.5700 -1.6254
 8047SOL     OW35776   1.214   1.034   4.122  0.2227 -0.0219  0.9147
 8047SOL    HW135777   1.307   1.043   4.100 -0.0038  0.6705  0.2335
 8047SOL    HW235778   1.212   0.941   4.143  0.3330 -0.3252 -0.3828
 8048SOL     OW35779   2.776   4.652   6.285  0.3657  0.2728  0.0628
 8048SOL    HW135780   2.704   4.622   6.229 -1.3265  1.7886  1.4307
 8048SOL    HW235781   2.755   4.593   6.358  0.8663 -1.3686 -1.1244
 8049SOL     OW35782   0.224   1.692   6.105 -0.0855 -0.7483  0.0400
 8049SOL    HW135783   0.158   1.624   6.110  0.0553 -1.0476 -2.3905
 8049SOL    HW235784   0.252   1.688   6.014  1.7144 -1.1904  0.6073
 8050SOL     OW35785   3.758   0.717   6.325  0.3433 -0.3741  0.3359
 8050SOL    HW135786   3.726   0.753   6.408  0.0414  0.4597 -0.1392
 8050SOL    HW235787   3.823   0.786   6.310  0.9276 -0.6219  1.6563
 8051SOL     OW35788   4.681   1.088   6.410  0.3218 -0.3488 -0.1511
 8051SOL    HW135789   4.652   0.998   6.427  2.8271 -0.8496  1.4190
 8051SOL    HW235790   4.611   1.117   6.352 -0.3430  2.4015  1.9776
 8052SOL     OW35791   4.012   4.510   5.202 -0.0239  0.3170  0.1539
 8052SOL    HW135792   4.013   4.566   5.124  0.1294  0.3532  0.1824
 8052SOL    HW235793   4.089   4.457   5.180  0.3680 -0.4574  3.4135
 8053SOL     OW35794   0.051   2.060  16.728 -0.0790  0.5923  0.3077
 8053SOL    HW135795   0.063   1.966  16.714 -2.9732  0.5829 -1.9832
 8053SOL    HW235796   0.133   2.098  16.696  0.0295  0.5649  0.5530
 8054SOL     OW35797   3.164   0.200  17.304  0.0434 -0.0277 -0.0205
 8054SOL    HW135798   3.161   0.248  17.387 -0.8104  2.4623 -1.4900
 8054SOL    HW235799   3.259   0.191  17.296  0.1045  1.0606 -0.4978
 8055SOL     OW35800   3.183   0.162   4.760  0.0442  0.2716 -0.5132
 8055SOL    HW135801   3.201   0.173   4.667 -2.8220 -1.2962 -1.2515
 8055SOL    HW235802   3.140   0.077   4.766 -1.0456  0.9790  1.7060
 8056SOL     OW35803   3.595   1.093   8.098 -0.1837  0.5206  0.4572
 8056SOL    HW135804   3.573   1.055   8.012  0.5401 -2.1725  1.4599
 8056SOL    HW235805   3.564   1.183   8.092  2.2606  1.2685 -1.0742
 8057SOL     OW35806   2.619   0.379  13.058 -0.2991 -0.2475  0.0812
 8057SOL    HW135807   2.700   0.331  13.074 -0.2120 -0.9526 -2.4243
 8057SOL    HW235808   2.560   0.309  13.030  0.7841 -1.9295  2.0585
 8058SOL     OW35809   1.662   1.286   3.089  0.3471  0.0345  0.5494
 8058SOL    HW135810   1.636   1.306   2.999 -0.4114  1.7285  1.1415
 8058SOL    HW235811   1.598   1.220   3.116 -1.9958  1.3055 -1.8991
 8059SOL     OW35812   0.835   2.823  15.710 -0.0036  0.7941  0.1506
 8059SOL    HW135813   0.906   2.794  15.768 -0.7861  0.6354  1.0387
 8059SOL    HW235814   0.867   2.788  15.627 -2.9757  3.5168 -2.1129
 8060SOL     OW35815   2.062   3.627   5.192  0.4108  0.6431 -0.3255
 8060SOL    HW135816   2.025   3.671   5.115  0.6984  1.7251  0.1504
 8060SOL    HW235817   2.050   3.696   5.257 -0.0865 -1.4002  1.7723
 8061SOL     OW35818   3.635   4.337  15.209  0.2669  0.4104  0.2809
 8061SOL    HW135819   3.563   4.380  15.255  0.0734  0.7401 -0.3356
 8061SOL    HW235820   3.641   4.251  15.250  0.2645 -0.9534 -2.6154
 8062SOL     OW35821   0.936   3.932  15.297  0.3190 -0.1573  0.5662
 8062SOL    HW135822   1.001   3.975  15.352  0.1387 -1.0848  1.4974
 8062SOL    HW235823   0.863   3.992  15.311  0.5019  0.2123 -0.0772
 8063SOL     OW35824   3.895   2.540   0.855 -0.6122  0.3376 -0.1045
 8063SOL    HW135825   3.894   2.464   0.913  0.7785  0.0654 -0.4472
 8063SOL    HW235826   3.938   2.520   0.773 -0.4473 -1.0970  0.3369
 8064SOL     OW35827   2.301   1.682   6.904 -0.3832  0.3577  0.2979
 8064SOL    HW135828   2.269   1.629   6.831 -2.4402 -1.2505  2.3736
 8064SOL    HW235829   2.230   1.678   6.968  0.7317 -0.5194  1.4802
 8065SOL     OW35830   1.566   2.725  14.496 -0.1585 -0.0954 -0.0108
 8065SOL    HW135831   1.471   2.709  14.496 -0.2703  0.4864 -1.3775
 8065SOL    HW235832   1.562   2.773  14.413 -1.3903  0.4002  0.3333
 8066SOL     OW35833   1.723   3.143   7.049  0.2995  0.2104 -0.4308
 8066SOL    HW135834   1.703   3.160   7.141  1.7212  0.5726 -0.1976
 8066SOL    HW235835   1.739   3.049   7.043  0.5048  0.4415 -3.5702
 8067SOL     OW35836   3.723   1.467  12.766 -0.4653 -0.5843  0.4085
 8067SOL    HW135837   3.641   1.516  12.771 -1.1984 -1.3566 -3.9384
 8067SOL    HW235838   3.776   1.523  12.822  0.7815  0.0444 -1.4185
 8068SOL     OW35839   4.516   3.233   0.241  0.0487  0.0558 -0.5351
 8068SOL    HW135840   4.587   3.295   0.253 -2.1720  2.3750  0.5815
 8068SOL    HW235841   4.446   3.289   0.274 -0.7363 -0.6501 -0.9761
 8069SOL     OW35842   3.847   4.640   4.628  0.1210  0.3663 -0.3857
 8069SOL    HW135843   3.810   4.604   4.709  2.3402  0.7941  0.8248
 8069SOL    HW235844   3.779   4.701   4.599 -0.9186 -1.1005 -1.0204
 8070SOL     OW35845   3.177   0.476   4.286  0.0452  0.5148 -0.1601
 8070SOL    HW135846   3.262   0.522   4.288  0.3310 -0.0596  0.6272
 8070SOL    HW235847   3.209   0.393   4.250  3.7604  2.0277 -0.4554
 8071SOL     OW35848   4.390   3.350   2.012  0.0793  0.0794 -0.5354
 8071SOL    HW135849   4.369   3.310   1.927 -1.5695 -1.7755  0.7473
 8071SOL    HW235850   4.331   3.425   2.019  0.4655  0.2699  0.6285
 8072SOL     OW35851   2.951   3.100  11.701  0.4349  0.4042 -0.3941
 8072SOL    HW135852   2.886   3.147  11.754  0.3411 -0.2700  0.0812
 8072SOL    HW235853   3.021   3.082  11.763 -2.0904 -0.5782  2.1512
 8073SOL     OW35854   3.814   4.626  15.352 -0.3196 -0.1451  0.2090
 8073SOL    HW135855   3.818   4.721  15.341 -0.2905 -0.1005  0.6327
 8073SOL    HW235856   3.721   4.613  15.369 -0.4549 -0.6656 -0.9433
 8074SOL     OW35857   0.004   2.752   5.554 -0.3660 -0.0821 -0.0033
 8074SOL    HW135858   4.706   2.724   5.638  0.7030 -3.5598 -0.7034
 8074SOL    HW235859   0.094   2.769   5.582 -0.5021  0.3382  0.1755
 8075SOL     OW35860   3.322   1.542   9.325  0.2863  0.6170  0.2258
 8075SOL    HW135861   3.239   1.514   9.364  0.7525  0.7566  1.3313
 8075SOL    HW235862   3.374   1.505   9.397  0.6826 -1.7710 -1.3019
 8076SOL     OW35863   4.138   1.387   1.285 -0.5502  0.5513  0.3299
 8076SOL    HW135864   4.092   1.327   1.226 -1.0732  1.0111  0.2689
 8076SOL    HW235865   4.228   1.353   1.286 -0.3619  1.1085  2.0849
 8077SOL     OW35866   3.191   3.364  12.584  0.0455  0.3564  0.3867
 8077SOL    HW135867   3.264   3.413  12.546 -0.1613  0.6875  0.4131
 8077SOL    HW235868   3.229   3.278  12.566 -0.0100  0.4057  0.0245
 8078SOL     OW35869   0.030   2.747   7.869  0.8058  0.2913 -0.2028
 8078SOL    HW135870   4.688   2.771   7.915  1.2831  0.4272  0.5515
 8078SOL    HW235871   0.071   2.680   7.924  0.2548 -1.6600 -2.1388
 8079SOL     OW35872   0.699   1.626   2.394  0.3880  0.4716  0.5802
 8079SOL    HW135873   0.612   1.659   2.372  0.6298  3.2063  3.8648
 8079SOL    HW235874   0.715   1.578   2.312  0.3698  2.1475 -0.4085
 8080SOL     OW35875   2.592   0.518   6.855  0.6144  0.1029  0.3289
 8080SOL    HW135876   2.627   0.584   6.795  1.1383  1.2297  1.8609
 8080SOL    HW235877   2.522   0.564   6.900  1.9671 -0.0895  2.6171
 8081SOL     OW35878   4.497   1.178   0.690  0.1082  0.2606 -0.1912
 8081SOL    HW135879   4.511   1.101   0.746  2.0001  0.3170 -0.6065
 8081SOL    HW235880   4.420   1.214   0.735 -1.5109 -1.9747 -1.1266
 8082SOL     OW35881   1.770   1.882  11.688  0.4405 -0.5549  0.3542
 8082SOL    HW135882   1.732   1.795  11.678  0.1772 -0.4771  0.6752
 8082SOL    HW235883   1.774   1.900  11.594 -0.3542  2.6945  0.9600
 8083SOL     OW35884   2.832   2.262  13.273 -0.1047 -0.1156 -0.2092
 8083SOL    HW135885   2.786   2.180  13.291  0.3185 -0.4443 -0.6445
 8083SOL    HW235886   2.806   2.321  13.344  1.6285  1.0632 -0.5470
 8084SOL     OW35887   1.458   2.025   0.608  0.1680  0.5412  0.6102
 8084SOL    HW135888   1.529   1.999   0.549  0.1079  0.2614  0.6626
 8084SOL    HW235889   1.464   2.121   0.605  3.6411  0.3415  1.6364
 8085SOL     OW35890   3.821   2.115   7.066  0.3105  0.4445 -0.4438
 8085SOL    HW135891   3.808   2.024   7.038 -0.6130  0.3254  0.3762
 8085SOL    HW235892   3.737   2.154   7.042 -0.0887  0.3069  0.7130
 8086SOL     OW35893   2.539   0.326  13.326  0.2497  0.4566  0.3104
 8086SOL    HW135894   2.520   0.357  13.237  0.0205 -0.2855  0.1089
 8086SOL    HW235895   2.460   0.277  13.348  1.7949 -2.0485  0.2916
 8087SOL     OW35896   3.308   1.912   2.880 -0.2594 -0.2984 -0.1880
 8087SOL    HW135897   3.250   1.837   2.897 -2.2563  1.1672 -0.5663
 8087SOL    HW235898   3.261   1.972   2.938  1.5038  1.0593 -0.1856
 8088SOL     OW35899   3.764   4.163   7.117 -0.2171 -0.1886  0.3054
 8088SOL    HW135900   3.737   4.092   7.059  0.0001 -0.3790  0.4396
 8088SOL    HW235901   3.858   4.144   7.112 -0.3494 -0.4938 -1.0773
 8089SOL     OW35902   2.915   3.170   7.923  0.0015  0.5462 -0.0165
 8089SOL    HW135903   2.968   3.230   7.975  0.2781 -1.5103  2.0611
 8089SOL    HW235904   2.840   3.230   7.918 -1.2502 -0.9283  0.7439
 8090SOL     OW35905   0.841   0.880   3.104 -0.1156  0.0777  0.2530
 8090SOL    HW135906   0.922   0.929   3.117  1.1472 -2.4594  1.9365
 8090SOL    HW235907   0.850   0.790   3.136 -1.4372 -0.2196 -0.2066
 8091SOL     OW35908   4.241   1.152   7.952 -0.1918  0.0965 -0.0684
 8091SOL    HW135909   4.211   1.196   8.031 -0.4183 -2.2977  1.1827
 8091SOL    HW235910   4.325   1.199   7.955 -1.4953  2.2034  3.0972
 8092SOL     OW35911   4.619   3.042   7.720 -0.0277 -0.3162 -0.2897
 8092SOL    HW135912   4.626   3.127   7.762  0.5319 -0.7703  0.5211
 8092SOL    HW235913   4.541   3.007   7.763 -0.4606  0.6373 -0.2955
 8093SOL     OW35914   1.290   3.786   6.535  0.6772  0.4378  0.2873
 8093SOL    HW135915   1.325   3.704   6.502  0.2955  0.1083  0.6964
 8093SOL    HW235916   1.327   3.854   6.479  1.9420 -0.0638  0.5205
 8094SOL     OW35917   1.329   2.634   4.680 -0.4898  0.0139  0.2169
 8094SOL    HW135918   1.252   2.613   4.732 -1.3158 -0.3109 -1.1624
 8094SOL    HW235919   1.389   2.680   4.739 -0.5802 -0.2513  0.5203
 8095SOL     OW35920   4.714   3.403   1.697  0.4560 -0.2939 -0.2388
 8095SOL    HW135921   4.666   3.414   1.614  0.0601  1.4459  0.2300
 8095SOL    HW235922   0.060   3.373   1.661 -0.1238 -1.7685 -0.3715
 8096SOL     OW35923   0.490   4.511  15.815  0.3485 -0.5612 -0.0447
 8096SOL    HW135924   0.574   4.489  15.856  1.5956  0.5886 -1.9745
 8096SOL    HW235925   0.480   4.430  15.765  2.5813 -0.2384 -1.0321
 8097SOL     OW35926   3.943   1.465   6.884  0.2014  0.0487  0.3512
 8097SOL    HW135927   3.884   1.427   6.820 -0.0153  0.3741  0.3592
 8097SOL    HW235928   3.892   1.480   6.963 -4.5018 -1.6134 -2.4214
 8098SOL     OW35929   0.600   1.218   3.202 -0.0083 -0.5709 -0.0138
 8098SOL    HW135930   0.581   1.132   3.242  3.3825 -0.8339  0.9950
 8098SOL    HW235931   0.568   1.264   3.280  0.0164  1.8419 -1.4242
 8099SOL     OW35932   1.319   1.048   5.112 -0.1951 -0.7777 -0.1546
 8099SOL    HW135933   1.339   1.123   5.168  0.8967  0.5121 -2.2708
 8099SOL    HW235934   1.226   1.056   5.091 -0.5401 -1.6866  1.0212
 8100SOL     OW35935   0.945   1.224  14.458  0.1180  0.2052 -0.5325
 8100SOL    HW135936   1.016   1.236  14.394  0.0532 -2.9585 -1.2136
 8100SOL    HW235937   0.900   1.153  14.411 -1.8487  1.9361 -1.2513
 8101SOL     OW35938   4.109   4.603  14.761 -0.7322 -0.0402 -0.3565
 8101SOL    HW135939   4.040   4.663  14.734 -0.2889  0.6516  0.0714
 8101SOL    HW235940   4.157   4.663  14.817 -0.1612 -1.1301  0.3373
 8102SOL     OW35941   0.908   2.565   4.378 -0.0996  0.6910  0.0432
 8102SOL    HW135942   0.884   2.511   4.303 -0.8698  0.3366  0.5594
 8102SOL    HW235943   0.854   2.528   4.447 -1.6982 -1.1541 -2.1937
 8103SOL     OW35944   3.608   3.022   8.972 -0.5538 -0.0304  0.1469
 8103SOL    HW135945   3.571   3.065   8.895  2.7813  1.6661 -0.4941
 8103SOL    HW235946   3.696   3.017   8.935 -0.4155 -0.3044  0.5062
 8104SOL     OW35947   3.964   4.124   6.057 -0.6628  0.1039 -0.2421
 8104SOL    HW135948   4.036   4.165   6.106 -1.2787 -0.7861  1.4060
 8104SOL    HW235949   3.913   4.204   6.048 -0.2777  0.3650 -0.0974
 8105SOL     OW35950   0.590   2.835  17.689 -0.0947 -0.5154  0.4851
 8105SOL    HW135951   0.555   2.834  17.600 -0.2288  2.2564  0.5119
 8105SOL    HW235952   0.589   2.930  17.703 -2.2636 -0.2244 -1.6186
 8106SOL     OW35953   3.696   1.403  13.171  0.3100  0.1238 -0.2013
 8106SOL    HW135954   3.658   1.408  13.259  0.5199 -1.9761  0.0054
 8106SOL    HW235955   3.636   1.355  13.114 -0.6802  0.2363  0.7553
 8107SOL     OW35956   3.790   0.276  13.956  0.3284 -0.2987 -0.1351
 8107SOL    HW135957   3.798   0.341  13.886  1.9396  0.4512  0.7365
 8107SOL    HW235958   3.728   0.317  14.017  0.6655 -0.5236  0.3603
 8108SOL     OW35959   1.350   4.231   2.130  0.1280 -0.2688  0.1816
 8108SOL    HW135960   1.419   4.169   2.154  0.6375  0.4827  0.6999
 8108SOL    HW235961   1.317   4.198   2.047 -0.1798 -1.5215  0.8002
 8109SOL     OW35962   4.621   3.981   8.448 -0.7024 -0.5690 -0.1870
 8109SOL    HW135963   4.600   4.069   8.477  2.9049 -0.2755  1.5243
 8109SOL    HW235964   4.706   4.003   8.410 -0.2999 -2.6273 -0.4706
 8110SOL     OW35965   4.460   2.652   5.089  0.1343 -0.2390  0.7595
 8110SOL    HW135966   4.488   2.633   5.179  1.1268  0.0580  0.5225
 8110SOL    HW235967   4.469   2.747   5.086 -0.5376 -0.2847 -2.4571
 8111SOL     OW35968   1.697   3.302   8.655  0.4145  0.0937  0.1182
 8111SOL    HW135969   1.725   3.211   8.668 -1.2924 -0.1157  2.4561
 8111SOL    HW235970   1.683   3.310   8.561  2.1237 -2.0717 -0.3223
 8112SOL     OW35971   2.701   3.780   4.206  0.0261  0.7458 -0.0637
 8112SOL    HW135972   2.743   3.722   4.142  2.2361 -0.0697  2.0786
 8112SOL    HW235973   2.772   3.835   4.239  0.4434  0.6916 -0.8647
 8113SOL     OW35974   2.603   1.119   4.240  0.4263  0.6563 -0.1089
 8113SOL    HW135975   2.687   1.083   4.210 -0.8475 -1.4769 -1.0186
 8113SOL    HW235976   2.626   1.212   4.249  1.6969  0.2583  0.8235
 8114SOL     OW35977   1.624   1.830   0.003 -0.3411 -0.6405  0.1457
 8114SOL    HW135978   1.541   1.790  17.723 -0.5456  0.1807 -0.4339
 8114SOL    HW235979   1.587   1.896   0.062  1.6864 -0.2441  0.9519
 8115SOL     OW35980   4.099   0.377   0.670  0.0673 -0.6311  0.6229
 8115SOL    HW135981   4.029   0.386   0.606  0.0230  2.7841  1.1231
 8115SOL    HW235982   4.140   0.464   0.671  0.7964 -0.9744  1.3400
 8116SOL     OW35983   2.234   1.915   3.476 -0.3538 -0.4803 -0.1612
 8116SOL    HW135984   2.202   1.842   3.528  0.1587  0.5278  1.5766
 8116SOL    HW235985   2.185   1.986   3.518 -0.3564 -1.4581  1.4901
 8117SOL     OW35986   0.611   1.001   3.871  0.3449 -0.1400  0.3308
 8117SOL    HW135987   0.659   1.007   3.789 -1.8851 -1.2718 -1.0361
 8117SOL    HW235988   0.542   0.938   3.853  2.2485 -2.7296  2.0172
 8118SOL     OW35989   4.066   2.483  15.204 -0.0893  0.1840  0.2576
 8118SOL    HW135990   4.063   2.565  15.252 -2.8250 -0.7461  1.6798
 8118SOL    HW235991   4.155   2.451  15.219  0.1454  0.2347 -1.0085
 8119SOL     OW35992   1.193   3.991  16.388  0.3448  0.4970 -0.5670
 8119SOL    HW135993   1.231   4.039  16.314 -1.1452  1.6352 -0.5872
 8119SOL    HW235994   1.183   3.905  16.345  0.5595 -0.6190  1.6449
 8120SOL     OW35995   1.047   1.834  17.050  0.2973  1.0631  0.2569
 8120SOL    HW135996   1.081   1.749  17.078  1.6412  1.4177 -0.2793
 8120SOL    HW235997   0.969   1.856  17.100 -1.9649 -0.5455 -2.5803
 8121SOL     OW35998   4.333   0.846  16.727  0.1968 -0.2413 -0.1195
 8121SOL    HW135999   4.254   0.864  16.675  1.7154  1.2993 -1.9098
 8121SOL    HW236000   4.345   0.911  16.796  0.9822 -2.1598  1.5243
 8122SOL     OW36001   1.515   3.107   4.441 -0.0939 -0.1354  0.0025
 8122SOL    HW136002   1.435   3.120   4.390  0.1730 -1.3087 -0.7076
 8122SOL    HW236003   1.493   3.153   4.521  0.6046 -0.3221  0.3039
 8123SOL     OW36004   3.265   0.584  10.822 -0.1600 -0.0990  0.4309
 8123SOL    HW136005   3.281   0.608  10.913 -1.4199  0.7131  0.4449
 8123SOL    HW236006   3.258   0.671  10.783  0.3582  0.0207  0.6144
 8124SOL     OW36007   2.258   0.793   6.506 -0.0938 -0.2474  0.6571
 8124SOL    HW136008   2.301   0.800   6.591  0.8751 -1.4580  0.2664
 8124SOL    HW236009   2.167   0.798   6.536 -0.3508 -0.3643 -0.1005
 8125SOL     OW36010   3.104   0.624   1.726 -0.1875  0.3284  0.0005
 8125SOL    HW136011   3.019   0.583   1.740  1.5094 -2.3188  2.6440
 8125SOL    HW236012   3.111   0.691   1.794  1.4106 -1.2495  1.4022
 8126SOL     OW36013   0.629   4.214   5.809 -0.5515 -0.4558  0.0865
 8126SOL    HW136014   0.596   4.197   5.720 -2.0846  2.3897  0.1048
 8126SOL    HW236015   0.574   4.284   5.843 -1.3173  1.2641 -4.5713
 8127SOL     OW36016   1.602   3.957   7.750 -0.2278  0.3165 -0.3179
 8127SOL    HW136017   1.656   4.025   7.710 -0.4907  1.9884  2.1533
 8127SOL    HW236018   1.522   4.008   7.762  0.3429  0.8299  1.3768
 8128SOL     OW36019   4.546   4.197  14.785  0.0408 -0.0378  0.4412
 8128SOL    HW136020   4.477   4.187  14.850 -0.6557  1.1022 -0.1093
 8128SOL    HW236021   4.625   4.162  14.825  0.8587  0.4708 -0.7170
 8129SOL     OW36022   3.416   4.379   2.125  1.2538  0.5400  0.0535
 8129SOL    HW136023   3.495   4.433   2.131  2.2986 -0.6845 -2.4759
 8129SOL    HW236024   3.388   4.371   2.034 -3.6229  1.7573  1.4621
 8130SOL     OW36025   1.566   4.169   6.472 -0.2060 -0.7202  0.2028
 8130SOL    HW136026   1.625   4.245   6.474  0.5311 -1.3081  0.5910
 8130SOL    HW236027   1.598   4.120   6.547  0.9449  2.4604  1.7971
 8131SOL     OW36028   3.510   0.919  14.911 -0.2559 -0.1353 -0.0320
 8131SOL    HW136029   3.492   0.833  14.950 -0.2060 -0.5864 -1.0028
 8131SOL    HW236030   3.436   0.972  14.938  2.2675  2.9251  0.9510
 8132SOL     OW36031   1.318   0.467   9.084  0.6251 -0.2647  0.0343
 8132SOL    HW136032   1.366   0.395   9.044 -0.3543 -1.2237  0.5705
 8132SOL    HW236033   1.303   0.438   9.174  2.4388 -1.1076  0.0616
 8133SOL     OW36034   1.680   2.596   6.134  0.2465  0.4116  1.0562
 8133SOL    HW136035   1.629   2.525   6.093  1.6914  1.4363 -2.5553
 8133SOL    HW236036   1.714   2.634   6.053 -2.9984 -2.0409 -1.4884
 8134SOL     OW36037   0.814   3.221   9.905  0.0015  0.4246 -0.2948
 8134SOL    HW136038   0.782   3.278   9.975 -1.9523 -0.1347 -0.7515
 8134SOL    HW236039   0.747   3.154   9.912 -0.4981  0.9002 -0.5406
 8135SOL     OW36040   2.693   4.085   9.775  0.0807  0.2897  0.1228
 8135SOL    HW136041   2.755   4.017   9.801  0.5530 -0.0890 -1.9771
 8135SOL    HW236042   2.685   4.068   9.681 -1.1559 -0.6024  0.3860
 8136SOL     OW36043   3.957   2.662   9.185  0.6571 -0.5033 -0.0738
 8136SOL    HW136044   3.905   2.679   9.107 -0.6570 -2.0876  0.4482
 8136SOL    HW236045   3.887   2.614   9.231  1.7444 -3.0538 -1.0632
 8137SOL     OW36046   1.448   1.646   2.786 -0.2822  0.3599  0.2477
 8137SOL    HW136047   1.517   1.711   2.775  0.7095 -1.0201 -1.7809
 8137SOL    HW236048   1.406   1.632   2.701 -2.2409  3.0869  0.7572
 8138SOL     OW36049   0.709   0.222   9.747 -0.1292  0.0995  0.7215
 8138SOL    HW136050   0.649   0.288   9.781 -1.0984  0.3399 -1.4445
 8138SOL    HW236051   0.678   0.198   9.660 -1.8249 -0.0109  1.3671
 8139SOL     OW36052   4.532   1.490   1.602  0.1824 -0.0386 -0.5580
 8139SOL    HW136053   4.576   1.408   1.623  1.2541  0.7538  0.2788
 8139SOL    HW236054   4.609   1.530   1.562  0.4066  0.0047 -0.0762
 8140SOL     OW36055   0.487   2.999   7.410  0.4396 -0.6324  0.1424
 8140SOL    HW136056   0.480   3.023   7.503  2.2028  1.0094 -0.1466
 8140SOL    HW236057   0.412   2.939   7.405 -0.2753  0.3315 -0.8139
 8141SOL     OW36058   2.949   2.478   3.275  0.2369  0.5538  0.1913
 8141SOL    HW136059   2.911   2.476   3.187  1.2101 -3.0989 -0.1632
 8141SOL    HW236060   2.870   2.486   3.329  0.3638  0.9188  0.3261
 8142SOL     OW36061   0.051   1.321   3.305  0.0523  0.3038 -0.5163
 8142SOL    HW136062   0.006   1.304   3.222  1.0086 -0.6557 -0.8393
 8142SOL    HW236063   0.112   1.387   3.272  0.7283  1.0274  2.1714
 8143SOL     OW36064   2.856   1.472   9.273 -0.0565 -0.4624 -0.2177
 8143SOL    HW136065   2.940   1.433   9.298  0.5210  1.1318  0.3366
 8143SOL    HW236066   2.824   1.413   9.205  1.1041 -1.0762 -0.2278
 8144SOL     OW36067   0.582   3.948   9.954  0.0762  0.0934  0.2968
 8144SOL    HW136068   0.544   4.035   9.940  0.5407  0.1310 -0.7059
 8144SOL    HW236069   0.513   3.882   9.944 -1.3931  2.1044 -2.6666
 8145SOL     OW36070   1.165   0.732   7.875 -0.5812  0.5191  0.2606
 8145SOL    HW136071   1.161   0.651   7.925 -1.0055  0.2437 -0.2128
 8145SOL    HW236072   1.250   0.717   7.832 -0.1379  2.3842  0.4764
 8146SOL     OW36073   0.417   3.956   8.694  0.2860  0.6079 -0.5963
 8146SOL    HW136074   0.499   4.005   8.698 -0.2719  1.5707 -0.9106
 8146SOL    HW236075   0.440   3.866   8.715 -1.7805  0.4251  0.8877
 8147SOL     OW36076   4.713   4.337   3.438 -0.1556  0.2981  0.3339
 8147SOL    HW136077   4.625   4.308   3.458 -0.0560  0.6941  1.3911
 8147SOL    HW236078   0.026   4.306   3.513  1.9692  1.1358 -0.7423
 8148SOL     OW36079   2.644   4.159  15.872  0.1588 -0.0769  0.0811
 8148SOL    HW136080   2.724   4.119  15.836  0.4956 -1.2423  2.1686
 8148SOL    HW236081   2.665   4.246  15.838 -0.2011 -1.4228 -3.6051
 8149SOL     OW36082   1.827   0.358   6.700  0.4857 -0.2006  0.8345
 8149SOL    HW136083   1.802   0.332   6.611  0.5520 -1.1463  1.0964
 8149SOL    HW236084   1.829   0.453   6.691  0.3866 -0.1594  1.2890
 8150SOL     OW36085   1.613   0.939   1.448  0.3124  0.5050  0.1409
 8150SOL    HW136086   1.540   0.985   1.407 -0.0908  0.2035  0.5198
 8150SOL    HW236087   1.690   0.989   1.421  2.0655 -1.0044  2.3134
 8151SOL     OW36088   0.129   0.393  10.220 -0.0448  0.4301  0.2798
 8151SOL    HW136089   0.044   0.370  10.183 -0.3519  1.6649  0.2227
 8151SOL    HW236090   0.129   0.354  10.307 -0.5688  1.3018  0.6679
 8152SOL     OW36091   2.289   4.079   3.796 -0.3173  0.3868 -0.5329
 8152SOL    HW136092   2.334   4.002   3.831 -0.5358  0.8516  0.7851
 8152SOL    HW236093   2.300   4.080   3.701  1.5665 -1.8505 -0.3320
 8153SOL     OW36094   2.979   1.546   8.958 -0.0088 -0.1476  0.2480
 8153SOL    HW136095   3.060   1.596   8.947  0.4671 -1.1333 -0.7976
 8153SOL    HW236096   3.005   1.467   8.910 -1.1107 -0.8685  0.8391
 8154SOL     OW36097   1.546   2.822   3.715 -0.1187  0.2077  1.0713
 8154SOL    HW136098   1.463   2.780   3.692  1.6885 -1.7928 -1.7370
 8154SOL    HW236099   1.523   2.915   3.717 -1.3805 -0.0590 -0.7068
 8155SOL     OW36100   0.994   0.001  14.951  0.0344  0.5529 -0.0991
 8155SOL    HW136101   0.921   0.017  15.010 -0.0155  1.2504 -0.3438
 8155SOL    HW236102   1.002   0.078  14.894 -1.9588  0.3178 -0.7260
 8156SOL     OW36103   1.263   4.329   4.261  0.3494 -0.4447  0.1852
 8156SOL    HW136104   1.167   4.323   4.259  0.3510 -0.2824 -0.2576
 8156SOL    HW236105   1.296   4.379   4.336 -0.2844  0.5682 -0.2036
 8157SOL     OW36106   2.809   0.356   0.030  0.0060 -0.1783 -0.0883
 8157SOL    HW136107   2.787   0.414  17.705  1.4023  1.9623  1.1892
 8157SOL    HW236108   2.890   0.391   0.068 -0.7567 -1.3431  2.5496
 8158SOL     OW36109   0.658   0.873   3.315  0.0270  0.3630  0.0057
 8158SOL    HW136110   0.710   0.862   3.235 -0.8915  0.4927 -0.6104
 8158SOL    HW236111   0.698   0.814   3.378  1.8241  0.7480 -0.7656
 8159SOL     OW36112   4.640   2.175   9.161  0.6028  0.2815 -0.1913
 8159SOL    HW136113   4.604   2.117   9.094 -0.8523  0.8572  0.1057
 8159SOL    HW236114   4.728   2.194   9.128  0.1435  1.3332 -0.7797
 8160SOL     OW36115   2.962   3.536   8.284 -0.2569  0.0239  0.5320
 8160SOL    HW136116   3.040   3.562   8.334  0.1592 -1.7342  0.8078
 8160SOL    HW236117   2.927   3.624   8.273 -0.9216 -0.1152  1.5360
 8161SOL     OW36118   3.223   0.292   1.045  0.2150  0.3544 -0.2045
 8161SOL    HW136119   3.252   0.235   1.116 -1.8477 -0.0405  0.3473
 8161SOL    HW236120   3.221   0.379   1.084 -1.8066  0.3394 -0.2485
 8162SOL     OW36121   3.485   3.628  15.579  0.0579  0.1176  0.0618
 8162SOL    HW136122   3.464   3.590  15.664 -0.0970 -0.6030 -0.2978
 8162SOL    HW236123   3.446   3.714  15.597 -1.5615 -0.6517  0.2060
 8163SOL     OW36124   1.556   2.432  13.027  0.3654 -0.4300  0.1019
 8163SOL    HW136125   1.527   2.349  12.989 -0.5570  1.0991 -2.4874
 8163SOL    HW236126   1.597   2.395  13.106 -2.2888 -1.1980  1.1330
 8164SOL     OW36127   2.882   2.430   7.324 -0.2110 -0.0961  0.2428
 8164SOL    HW136128   2.845   2.353   7.280 -1.6995  0.9253 -0.3004
 8164SOL    HW236129   2.947   2.462   7.261 -0.3208  0.7188  0.5444
 8165SOL     OW36130   0.981   2.272   5.405 -0.3811 -0.1719 -0.6511
 8165SOL    HW136131   0.952   2.347   5.353  0.1601  1.6185  1.6345
 8165SOL    HW236132   0.905   2.215   5.391  0.0217 -0.7219 -0.6143
 8166SOL     OW36133   2.939   1.003  11.129 -0.5311  0.4924 -0.1510
 8166SOL    HW136134   2.888   1.030  11.205  1.3108  1.6723  0.6825
 8166SOL    HW236135   2.980   1.083  11.096  0.7565  0.3510  1.0976
 8167SOL     OW36136   0.690   2.482  11.141  0.2249  0.2720 -0.4297
 8167SOL    HW136137   0.770   2.529  11.119 -0.6806  2.1167  0.1876
 8167SOL    HW236138   0.654   2.555  11.191  0.4838  0.1418 -0.0497
 8168SOL     OW36139   0.402   1.668   3.036  0.1553 -0.4872 -0.0130
 8168SOL    HW136140   0.396   1.723   3.115 -0.6712  0.5676 -0.8154
 8168SOL    HW236141   0.481   1.619   3.059 -0.6395 -1.4788  0.5571
 8169SOL     OW36142   3.477   2.473   6.151  0.3693  0.1010  0.1464
 8169SOL    HW136143   3.461   2.546   6.211 -0.4057 -0.4382  0.5989
 8169SOL    HW236144   3.559   2.438   6.185  0.1530 -0.5933 -0.0517
 8170SOL     OW36145   3.866   2.923   8.143 -0.3413 -0.1605  0.1749
 8170SOL    HW136146   3.881   2.969   8.060 -0.8183 -0.0286  0.1594
 8170SOL    HW236147   3.948   2.935   8.190  2.0556  1.7146 -4.5065
 8171SOL     OW36148   1.490   1.943   2.184 -0.1671 -0.1208 -0.4507
 8171SOL    HW136149   1.428   1.882   2.145 -0.4795  0.9152 -1.5707
 8171SOL    HW236150   1.572   1.893   2.184 -1.5976 -2.4549 -2.0108
 8172SOL     OW36151   1.247   2.141   7.191 -0.2395  0.2475  0.0318
 8172SOL    HW136152   1.173   2.172   7.139 -0.0948  2.2750  1.0068
 8172SOL    HW236153   1.313   2.113   7.127 -2.3577 -1.5755 -1.3630
 8173SOL     OW36154   1.158   1.985   4.505  0.1208  0.1537 -0.8882
 8173SOL    HW136155   1.092   1.948   4.446  0.0346  0.5092 -1.0126
 8173SOL    HW236156   1.214   1.909   4.516  0.3694  0.3294 -0.9448
 8174SOL     OW36157   0.912   4.097  16.372 -0.4254  0.1456  0.1611
 8174SOL    HW136158   0.851   4.034  16.333 -2.5153  2.1638  0.1372
 8174SOL    HW236159   0.998   4.060  16.353 -0.7447 -0.5661  0.1047
 8175SOL     OW36160   2.602   0.539   9.004  0.2797 -0.2508  0.6833
 8175SOL    HW136161   2.666   0.577   9.063 -0.7179  1.7088  0.4946
 8175SOL    HW236162   2.534   0.591   9.047 -0.7183 -0.3063 -0.8182
 8176SOL     OW36163   1.812   3.672   4.571  0.0229  0.4644  0.3186
 8176SOL    HW136164   1.770   3.709   4.649 -0.7551  1.8912 -0.7789
 8176SOL    HW236165   1.902   3.663   4.604  0.6906  2.6399 -0.8346
 8177SOL     OW36166   4.331   1.077   4.724 -0.1955 -0.1229  0.0284
 8177SOL    HW136167   4.301   1.095   4.813 -0.0017  2.7451 -0.4762
 8177SOL    HW236168   4.297   1.155   4.679  1.8974  0.6179 -0.2536
 8178SOL     OW36169   1.114   2.857   4.768  0.1406  0.5722  0.3617
 8178SOL    HW136170   1.023   2.828   4.774  0.1275  0.8726  1.6526
 8178SOL    HW236171   1.163   2.804   4.830  1.3764  1.2280 -0.0643
 8179SOL     OW36172   4.688   3.887   3.962  0.2640  0.1953 -0.1187
 8179SOL    HW136173   4.654   3.921   4.045  1.2825 -0.9949  0.7872
 8179SOL    HW236174   4.639   3.806   3.946 -0.9800  1.0147 -0.4536
 8180SOL     OW36175   2.178   0.198   3.381 -0.6700 -0.1787  0.2767
 8180SOL    HW136176   2.162   0.139   3.455 -2.0557  0.9160  0.8515
 8180SOL    HW236177   2.120   0.273   3.393  0.4102  0.8367 -0.8698
 8181SOL     OW36178   1.789   3.552   7.725  0.0100 -0.2424  0.2205
 8181SOL    HW136179   1.856   3.565   7.657 -1.2201 -0.4213 -1.0370
 8181SOL    HW236180   1.835   3.580   7.803  0.4512  1.9633 -0.8343
 8182SOL     OW36181   2.570   2.615   9.646  0.5272 -0.8275  0.1145
 8182SOL    HW136182   2.544   2.626   9.737 -3.4533 -1.7636 -0.9448
 8182SOL    HW236183   2.566   2.706   9.617  0.1178 -1.3903 -1.5836
 8183SOL     OW36184   3.952   2.643  12.370  0.4912 -0.7383 -0.7626
 8183SOL    HW136185   4.028   2.659  12.426  0.9449  0.5723 -1.7818
 8183SOL    HW236186   3.974   2.704  12.300 -5.5861 -0.9531 -2.8800
 8184SOL     OW36187   0.048   0.509  10.613  0.0521 -0.4582  0.6852
 8184SOL    HW136188   4.695   0.537  10.604  0.1985  0.3675  1.7760
 8184SOL    HW236189   0.056   0.509  10.708 -2.2825 -0.1608  0.8752
 8185SOL     OW36190   4.477   4.475   4.769 -0.5677 -0.4053  0.2614
 8185SOL    HW136191   4.569   4.453   4.760  0.1556  1.2330  3.6876
 8185SOL    HW236192   4.487   4.532   4.845  0.6650  0.4109 -0.5133
 8186SOL     OW36193   4.037   1.768   4.014  0.7128  0.6110 -0.2924
 8186SOL    HW136194   4.015   1.829   3.944 -1.5668 -0.1052 -0.1718
 8186SOL    HW236195   3.954   1.749   4.057  0.3778 -0.4869 -1.4304
 8187SOL     OW36196   0.461   3.691   9.118  0.4267 -0.3682 -0.1429
 8187SOL    HW136197   0.505   3.606   9.117 -1.5772 -1.4074  0.0742
 8187SOL    HW236198   0.458   3.705   9.213  0.6495 -0.4014 -0.1321
 8188SOL     OW36199   2.628   4.302   5.052 -0.0677  0.1004 -0.0347
 8188SOL    HW136200   2.669   4.248   5.119  1.0525  0.8219 -0.1370
 8188SOL    HW236201   2.643   4.393   5.077 -0.2901 -0.9055  3.7354
 8189SOL     OW36202   1.182   1.471   2.505  0.1356 -0.1852 -0.3656
 8189SOL    HW136203   1.275   1.455   2.517  1.0989  2.7562 -3.9725
 8189SOL    HW236204   1.157   1.380   2.484  5.3915 -1.8071  0.5010
 8190SOL     OW36205   2.683   1.194  16.197 -0.0394  0.0297  0.0676
 8190SOL    HW136206   2.603   1.236  16.229  0.8926  3.0444 -1.6166
 8190SOL    HW236207   2.722   1.173  16.282 -1.7152 -3.1270  0.0842
 8191SOL     OW36208   2.928   3.487   4.139  0.4425  0.6222  0.1053
 8191SOL    HW136209   2.901   3.549   4.071  0.5136  0.2197 -0.2976
 8191SOL    HW236210   3.005   3.530   4.176  0.3037 -0.7546  1.9559
 8192SOL     OW36211   2.115   3.723   6.173  0.2441 -0.0778 -0.3358
 8192SOL    HW136212   2.093   3.810   6.138  0.8735  0.3097  0.2307
 8192SOL    HW236213   2.156   3.751   6.255  3.2199 -1.3291 -1.3787
 8193SOL     OW36214   1.428   1.704   8.763 -0.2964  0.2522 -0.2839
 8193SOL    HW136215   1.506   1.653   8.738  0.5501  2.0313 -1.2781
 8193SOL    HW236216   1.384   1.627   8.798  0.8322  0.2161  1.0875
 8194SOL     OW36217   1.018   3.606   2.241 -0.1295  0.4236 -0.4736
 8194SOL    HW136218   0.961   3.581   2.313 -1.5069  2.2525 -0.9385
 8194SOL    HW236219   1.092   3.632   2.297 -1.1587 -2.1268  2.0856
 8195SOL     OW36220   3.596   2.158  10.379  0.1273 -0.1045  0.8062
 8195SOL    HW136221   3.584   2.075  10.333  1.5228 -0.3159  0.8332
 8195SOL    HW236222   3.681   2.131  10.414  1.0188  2.0477  0.3092
 8196SOL     OW36223   2.504   2.895   6.249  0.3279 -0.1779  0.4033
 8196SOL    HW136224   2.587   2.861   6.215  0.1842  2.0798 -2.1997
 8196SOL    HW236225   2.527   2.894   6.342  1.0268 -1.3162  0.2214
 8197SOL     OW36226   0.239   2.817   8.611  0.3645  0.2219 -0.0016
 8197SOL    HW136227   0.197   2.732   8.598 -1.4778  0.8374  2.0064
 8197SOL    HW236228   0.228   2.863   8.528  1.3060 -1.5441 -1.1190
 8198SOL     OW36229   3.828   0.032  15.016  0.3078 -0.2050 -0.1841
 8198SOL    HW136230   3.891   0.037  14.944 -0.4052  1.0681 -0.7106
 8198SOL    HW236231   3.830   4.677  15.040 -1.4633 -0.4127 -0.8388
 8199SOL     OW36232   4.353   4.029   2.261 -0.7848 -0.1563  0.1018
 8199SOL    HW136233   4.358   4.096   2.329  0.4060 -0.2108  0.0708
 8199SOL    HW236234   4.258   4.023   2.247 -0.8171 -0.9655  0.7069
 8200SOL     OW36235   2.920   3.644   7.805 -0.2903  0.0812  0.9005
 8200SOL    HW136236   2.922   3.738   7.785 -2.6429 -0.1939 -0.6459
 8200SOL    HW236237   3.010   3.616   7.790 -0.4210 -0.3294  0.8743
 8201SOL     OW36238   1.599   3.054   5.863 -0.4525  0.0469 -0.0389
 8201SOL    HW136239   1.608   3.076   5.956 -1.7009  0.1383  0.0642
 8201SOL    HW236240   1.568   3.138   5.827 -2.0690 -0.4223  0.2696
 8202SOL     OW36241   1.088   2.007   7.390  0.0479 -0.0826  0.1557
 8202SOL    HW136242   1.126   2.070   7.330 -0.6188 -0.9483 -1.1664
 8202SOL    HW236243   0.994   2.006   7.368  0.4060 -1.7089 -1.2746
 8203SOL     OW36244   1.788   1.972   6.067  0.3353  0.2049 -0.3977
 8203SOL    HW136245   1.774   1.954   6.160  2.9733 -0.4304 -0.1433
 8203SOL    HW236246   1.843   1.896   6.048 -1.6432 -1.5656  0.9282
 8204SOL     OW36247   0.903   2.285  13.246  0.0658  0.1666  0.3558
 8204SOL    HW136248   0.892   2.284  13.341 -3.6693  0.2679 -0.0709
 8204SOL    HW236249   0.940   2.373  13.234 -3.0583  0.8910 -3.8470
 8205SOL     OW36250   2.606   4.360   7.878 -0.3626 -0.4907 -0.4046
 8205SOL    HW136251   2.565   4.274   7.872 -0.7406 -0.1005 -3.3118
 8205SOL    HW236252   2.633   4.364   7.970 -0.3957 -1.0495 -0.3708
 8206SOL     OW36253   4.389   2.436   2.732  0.0154 -0.3008 -0.3630
 8206SOL    HW136254   4.445   2.461   2.658  0.7541 -1.9863 -0.3638
 8206SOL    HW236255   4.331   2.373   2.690 -1.2753 -0.3316  1.4984
 8207SOL     OW36256   2.071   4.274   7.455  0.6108 -0.0157  0.1435
 8207SOL    HW136257   2.007   4.306   7.518 -0.1512  0.1767 -0.7291
 8207SOL    HW236258   2.109   4.353   7.416 -0.2289 -0.3292 -1.3255
 8208SOL     OW36259   2.397   2.935  14.600  0.6270 -0.2313 -0.0623
 8208SOL    HW136260   2.376   3.028  14.613  2.2901  0.1466 -0.0522
 8208SOL    HW236261   2.480   2.954  14.556  1.0870  2.0460  1.7775
 8209SOL     OW36262   0.105   2.486   6.554 -0.5482 -0.3496 -0.1577
 8209SOL    HW136263   0.064   2.489   6.640  0.1447 -0.6279  0.1829
 8209SOL    HW236264   0.058   2.550   6.500 -0.5740  0.1092  0.4101
 8210SOL     OW36265   0.628   1.004   0.294 -0.4089  0.4395 -0.2280
 8210SOL    HW136266   0.604   0.999   0.201  1.9695 -0.3764 -0.8014
 8210SOL    HW236267   0.723   0.996   0.298 -0.6090 -2.3291 -0.7479
 8211SOL     OW36268   0.950   0.837   5.032 -0.0138  0.1039  0.1551
 8211SOL    HW136269   1.037   0.804   5.054 -0.9318 -1.4587  1.4691
 8211SOL    HW236270   0.962   0.922   5.075 -0.0678 -0.0100  0.4003
 8212SOL     OW36271   4.529   4.097   4.737 -0.2949 -0.6622  0.1446
 8212SOL    HW136272   4.597   4.036   4.707  0.5131  0.0701  0.5138
 8212SOL    HW236273   4.518   4.160   4.666  0.2054 -0.8642 -0.1151
 8213SOL     OW36274   2.569   1.804   1.057 -0.1997 -0.1819 -0.6453
 8213SOL    HW136275   2.581   1.776   1.147 -1.7256  0.3380 -0.2792
 8213SOL    HW236276   2.553   1.718   1.018 -2.1112  0.7543 -1.9404
 8214SOL     OW36277   1.771   3.422   4.729  0.0852 -0.5651 -0.2704
 8214SOL    HW136278   1.780   3.432   4.635 -1.7067  0.5139 -0.3204
 8214SOL    HW236279   1.861   3.440   4.755  0.1222 -0.8116 -0.2296
 8215SOL     OW36280   2.660   3.969   9.512 -0.1520  0.1133  0.2004
 8215SOL    HW136281   2.620   3.975   9.425  1.0361  1.0660 -0.2793
 8215SOL    HW236282   2.724   3.903   9.486 -0.3315  0.0866 -0.1785
 8216SOL     OW36283   3.394   3.772   8.636  0.0349 -0.3749 -0.5151
 8216SOL    HW136284   3.455   3.803   8.569 -0.5521  0.9721 -0.4440
 8216SOL    HW236285   3.446   3.704   8.678 -0.4317 -0.9375 -0.8458
 8217SOL     OW36286   4.162   2.720   3.093  0.0331 -0.0777  0.1181
 8217SOL    HW136287   4.183   2.745   3.183 -1.8141  1.2922  0.1649
 8217SOL    HW236288   4.207   2.789   3.044  0.9141  1.2571  2.7821
 8218SOL     OW36289   2.303   4.438   6.837  0.3028 -0.2470 -0.3074
 8218SOL    HW136290   2.396   4.455   6.828  0.6641 -2.4343 -0.7192
 8218SOL    HW236291   2.276   4.427   6.746  0.2069  2.6140 -0.6352
 8219SOL     OW36292   4.259   3.028   3.949 -0.2568  0.1461  0.5504
 8219SOL    HW136293   4.238   3.087   4.021 -4.0481  1.2460 -1.4851
 8219SOL    HW236294   4.354   3.040   3.944 -0.3006  0.4254  0.3989
 8220SOL     OW36295   3.300   0.544  11.810 -0.3111 -0.0139  0.2133
 8220SOL    HW136296   3.273   0.603  11.880  0.7979  0.2154  0.4417
 8220SOL    HW236297   3.374   0.582  11.764 -0.2470  0.9172  1.0934
 8221SOL     OW36298   2.963   0.112  17.688 -0.5177  0.5269  0.2893
 8221SOL    HW136299   2.908   0.191  17.689  0.3748  1.1458  0.8312
 8221SOL    HW236300   2.942   0.071   0.024  1.5858  1.4960  1.2938
 8222SOL     OW36301   0.045   2.056   5.720 -0.3079 -0.4277 -0.4724
 8222SOL    HW136302   4.726   2.112   5.667  1.5540  1.5712 -0.3526
 8222SOL    HW236303   0.116   2.116   5.744 -0.6602  0.5356 -1.8293
 8223SOL     OW36304   2.864   3.739   2.006 -0.8530 -0.3073 -0.3956
 8223SOL    HW136305   2.895   3.762   2.094 -0.7272 -3.9809  0.5333
 8223SOL    HW236306   2.840   3.827   1.976  1.2954  0.9271  1.4655
 8224SOL     OW36307   1.820   3.863   6.944 -0.4833  0.0982 -0.3673
 8224SOL    HW136308   1.883   3.917   6.895  0.1694  0.2876  0.6636
 8224SOL    HW236309   1.839   3.777   6.906  0.2430  0.2055 -0.2593
 8225SOL     OW36310   0.344   4.377  12.405  0.3686 -0.1462  0.2488
 8225SOL    HW136311   0.358   4.461  12.449 -1.0145 -0.2853  0.9663
 8225SOL    HW236312   0.263   4.351  12.451 -1.4223  0.4866 -2.5491
 8226SOL     OW36313   1.217   0.376   6.130  0.3027  0.3051 -0.2076
 8226SOL    HW136314   1.181   0.290   6.108 -2.5613  1.5646 -0.4626
 8226SOL    HW236315   1.136   0.427   6.138 -1.1194 -2.0321  0.2073
 8227SOL     OW36316   4.417   0.062   0.189  0.0049 -0.0638  0.4737
 8227SOL    HW136317   4.402   0.144   0.142 -0.7280 -0.8943 -0.7501
 8227SOL    HW236318   4.512   0.060   0.194 -0.0073 -1.7116  0.1282
 8228SOL     OW36319   2.594   3.880   0.612 -0.3533 -0.1242 -0.4399
 8228SOL    HW136320   2.655   3.833   0.556 -0.9391 -1.9304  0.4400
 8228SOL    HW236321   2.640   3.938   0.673 -0.4595 -0.0074 -0.4697
 8229SOL     OW36322   2.004   1.765   6.691  0.0064 -0.5349  0.1257
 8229SOL    HW136323   2.045   1.846   6.661 -1.0461 -0.2739 -0.6086
 8229SOL    HW236324   2.069   1.703   6.722 -0.7971  0.1251  3.1681
 8230SOL     OW36325   4.495   0.585  10.905  0.0728 -0.5975 -0.3758
 8230SOL    HW136326   4.471   0.565  10.995 -1.4629 -0.9679 -0.8601
 8230SOL    HW236327   4.588   0.563  10.896  0.6432  0.5218  2.9500
 8231SOL     OW36328   0.677   2.044   9.782  0.2408 -0.3106  0.3734
 8231SOL    HW136329   0.625   2.054   9.862 -1.6680 -3.0926 -0.5711
 8231SOL    HW236330   0.763   2.049   9.824  0.3326  2.6163 -0.1125
 8232SOL     OW36331   4.463   4.501  11.767 -0.2307 -0.2466  0.4167
 8232SOL    HW136332   4.506   4.584  11.789  1.2926 -0.6986 -0.8520
 8232SOL    HW236333   4.523   4.445  11.817 -1.7624 -1.6048  0.7510
 8233SOL     OW36334   2.378   1.729   6.559 -0.8209  0.2234 -0.1867
 8233SOL    HW136335   2.343   1.715   6.471  0.6055  0.8534 -0.8539
 8233SOL    HW236336   2.457   1.677   6.550 -0.1008  1.0845  1.0822
 8234SOL     OW36337   1.348   0.180   7.996  0.3740  0.1491 -0.0849
 8234SOL    HW136338   1.388   0.108   7.948  0.5242  0.6338 -0.6821
 8234SOL    HW236339   1.342   0.145   8.085  2.6975  0.2766  0.1110
 8235SOL     OW36340   0.131   3.935  15.081 -0.2328 -0.7279 -0.0848
 8235SOL    HW136341   0.083   3.923  15.163 -0.8289  0.7953 -0.2178
 8235SOL    HW236342   0.191   3.861  15.087  1.5602  0.7716  0.7676
 8236SOL     OW36343   1.905   1.604  13.357  0.4635 -0.1838  0.2017
 8236SOL    HW136344   1.959   1.661  13.303  0.9414  0.2444  1.1325
 8236SOL    HW236345   1.835   1.592  13.293 -1.0797  1.9913  1.4944
 8237SOL     OW36346   3.565   4.716   4.515 -0.3844  0.2491 -0.2489
 8237SOL    HW136347   3.633   0.017   4.460  1.2854  1.0833  2.4038
 8237SOL    HW236348   3.524   0.046   4.569 -0.6154 -0.7196  0.8075
 8238SOL     OW36349   0.662   4.498  13.637 -0.4350 -0.0898 -0.4732
 8238SOL    HW136350   0.681   4.584  13.674  0.3280 -0.0775 -0.8985
 8238SOL    HW236351   0.604   4.512  13.563 -3.0678  0.7468  1.7505
 8239SOL     OW36352   3.792   2.569   5.219  0.4707  0.0766 -0.5330
 8239SOL    HW136353   3.786   2.566   5.123  0.3678 -1.9273 -0.4571
 8239SOL    HW236354   3.760   2.657   5.241 -1.1342 -0.8139  0.6301
 8240SOL     OW36355   3.538   1.703   1.104 -0.2438  0.6299 -0.4153
 8240SOL    HW136356   3.612   1.670   1.052 -2.6315 -1.4648 -2.4992
 8240SOL    HW236357   3.498   1.757   1.035 -0.5465 -0.5099 -1.1315
 8241SOL     OW36358   2.257   2.579  12.235  0.0964  0.0720 -0.4233
 8241SOL    HW136359   2.343   2.561  12.196  1.0528  0.8462  1.3288
 8241SOL    HW236360   2.282   2.574  12.327 -1.3695 -1.6110 -0.1039
 8242SOL     OW36361   1.948   2.305   7.428  0.2475  0.5707  0.2848
 8242SOL    HW136362   2.011   2.284   7.360  0.9698  0.2143  1.0633
 8242SOL    HW236363   1.891   2.361   7.375  1.1396 -1.1486 -2.4405
 8243SOL     OW36364   2.229   2.323   4.833 -0.0037  0.0785  0.2972
 8243SOL    HW136365   2.267   2.246   4.875  2.9841  1.0447 -0.6082
 8243SOL    HW236366   2.150   2.290   4.790  0.7187 -2.9640  1.2788
 8244SOL     OW36367   4.685   0.764   0.997  0.3481 -0.0264  0.5865
 8244SOL    HW136368   4.629   0.784   0.922  1.3220 -1.1457 -0.4318
 8244SOL    HW236369   4.698   0.670   0.989 -0.8963 -0.2990  1.7553
 8245SOL     OW36370   1.362   4.286   5.338 -0.2817 -0.1877 -0.0207
 8245SOL    HW136371   1.303   4.277   5.413 -0.0018  0.8187  0.3106
 8245SOL    HW236372   1.389   4.196   5.318 -0.4779 -0.2917  0.1859
 8246SOL     OW36373   3.188   3.161   5.364  0.1328 -0.0199 -0.6758
 8246SOL    HW136374   3.146   3.080   5.334 -0.6085 -0.4541  1.4976
 8246SOL    HW236375   3.180   3.209   5.282  1.0079  1.8840  0.3673
 8247SOL     OW36376   3.451   4.608   1.093 -0.2404  0.2081  0.2567
 8247SOL    HW136377   3.444   4.701   1.116 -0.7701  0.1350  0.3831
 8247SOL    HW236378   3.536   4.611   1.049 -1.7871 -0.2793 -2.7861
 8248SOL     OW36379   3.721   1.189  12.143  0.7046 -0.4754  0.3459
 8248SOL    HW136380   3.805   1.213  12.182  1.4035  1.0028 -2.0588
 8248SOL    HW236381   3.664   1.192  12.220 -0.9355 -2.8234 -0.7874
 8249SOL     OW36382   0.377   1.481   3.753 -0.4592  0.6152  0.1825
 8249SOL    HW136383   0.425   1.402   3.727 -1.6037  0.1402 -0.4945
 8249SOL    HW236384   0.338   1.504   3.669 -0.3161 -2.9408 -0.8410
 8250SOL     OW36385   3.861   4.029   8.044  0.2497  0.0452  0.3031
 8250SOL    HW136386   3.783   4.054   8.093  0.8071  3.1481 -0.3460
 8250SOL    HW236387   3.926   4.093   8.072 -2.1183  2.4477  0.2949
 8251SOL     OW36388   4.158   1.719  17.335 -0.0301  0.6518 -0.0257
 8251SOL    HW136389   4.220   1.683  17.399 -0.0911  0.2266 -0.2046
 8251SOL    HW236390   4.072   1.681  17.354 -0.4620  0.8945 -1.4790
 8252SOL     OW36391   1.969   4.638   8.654  0.3545 -0.1208 -0.2875
 8252SOL    HW136392   1.877   4.637   8.626  0.1297 -3.5513  0.5415
 8252SOL    HW236393   2.000   4.552   8.625  0.7038  0.7796 -2.5330
 8253SOL     OW36394   0.484   4.259  14.309 -0.3345 -0.2183  0.3610
 8253SOL    HW136395   0.425   4.325  14.272  1.6936  0.1505 -2.1966
 8253SOL    HW236396   0.438   4.179  14.284  2.0103 -0.9499 -1.6398
 8254SOL     OW36397   2.434   4.429   9.160 -0.6804  0.7583 -0.5546
 8254SOL    HW136398   2.425   4.335   9.172 -1.4099  0.7883 -0.8695
 8254SOL    HW236399   2.359   4.448   9.103 -1.1325  1.0705  0.1536
 8255SOL     OW36400   2.118   4.621   4.763 -0.0713 -0.0949  0.0113
 8255SOL    HW136401   2.073   4.645   4.844  0.4884  0.7975  0.0614
 8255SOL    HW236402   2.118   4.526   4.766  1.0129 -0.0814  0.2367
 8256SOL     OW36403   0.835   1.042   5.476 -0.3003  0.1817 -0.1587
 8256SOL    HW136404   0.746   1.039   5.513 -0.5686  0.2092 -0.7962
 8256SOL    HW236405   0.822   1.066   5.384  0.0222  0.3662 -0.1556
 8257SOL     OW36406   0.702   0.857  13.592 -0.5628 -0.5100 -0.2873
 8257SOL    HW136407   0.759   0.900  13.529  0.8410 -0.8319  0.7502
 8257SOL    HW236408   0.672   0.789  13.532  0.1949 -0.4009 -0.7814
 8258SOL     OW36409   2.299   0.148   2.153 -0.0613  0.8064  0.7659
 8258SOL    HW136410   2.247   0.143   2.233 -2.4333  1.5012 -0.7210
 8258SOL    HW236411   2.261   0.077   2.102 -2.4890  1.0990  2.1600
 8259SOL     OW36412   3.436   4.664   4.846  0.0181  0.0343  0.2819
 8259SOL    HW136413   3.469   4.736   4.793 -1.2519  0.3594 -0.0669
 8259SOL    HW236414   3.365   4.630   4.791 -0.1540  1.4387 -0.3664
 8260SOL     OW36415   2.318   3.343   5.314  0.3320  0.1295  0.3957
 8260SOL    HW136416   2.370   3.364   5.392  0.2084 -0.7204  0.7105
 8260SOL    HW236417   2.233   3.367   5.351  0.3770  1.1924 -0.1834
 8261SOL     OW36418   1.019   3.395   9.838 -0.2853  0.0616  0.4349
 8261SOL    HW136419   0.952   3.327   9.848 -2.8538  2.3594 -0.8340
 8261SOL    HW236420   1.026   3.433   9.926  2.0578 -0.6736  0.5427
 8262SOL     OW36421   0.358   2.094  14.185 -0.1732 -0.2325  0.0305
 8262SOL    HW136422   0.411   2.026  14.144 -0.8255 -0.3607 -0.5856
 8262SOL    HW236423   0.296   2.115  14.116  1.0428  0.4990 -0.8371
 8263SOL     OW36424   0.289   2.204   1.246  0.5198 -0.3517 -0.6395
 8263SOL    HW136425   0.241   2.147   1.306 -0.0785  0.9587  0.1157
 8263SOL    HW236426   0.239   2.185   1.166  1.1588  1.1139 -1.3858
 8264SOL     OW36427   0.400   2.972  10.137  0.0588 -0.6207  0.4544
 8264SOL    HW136428   0.454   2.903  10.178 -1.4006 -0.9958  1.7594
 8264SOL    HW236429   0.421   3.046  10.194  2.6697 -1.5175  0.7094
 8265SOL     OW36430   2.411   4.013  16.319 -0.0412 -0.4395 -0.4302
 8265SOL    HW136431   2.467   4.037  16.245  1.3434 -0.4096  0.6163
 8265SOL    HW236432   2.326   4.012  16.276 -0.4125 -3.0346  0.3811
 8266SOL     OW36433   4.170   3.452  13.628 -0.1244 -0.3536  0.8305
 8266SOL    HW136434   4.257   3.437  13.591 -1.2813 -0.4784 -1.8737
 8266SOL    HW236435   4.195   3.474  13.718 -0.9211  1.6456  0.5791
 8267SOL     OW36436   4.542   4.168  13.698 -0.3305  0.5170  0.5332
 8267SOL    HW136437   4.592   4.183  13.778  0.9391 -1.5957  0.1467
 8267SOL    HW236438   4.522   4.249  13.651  0.0077  0.0478 -0.4216
 8268SOL     OW36439   1.552   4.705   1.677 -0.2614 -0.2556  0.2558
 8268SOL    HW136440   1.561   4.626   1.624  0.1211  0.7894 -1.2293
 8268SOL    HW236441   1.593   0.037   1.627  0.2283 -0.1076  0.8701
 8269SOL     OW36442   0.832   0.415   5.859 -0.3058 -0.1592  0.2272
 8269SOL    HW136443   0.879   0.430   5.777 -1.7263 -1.6255 -0.8461
 8269SOL    HW236444   0.742   0.431   5.830 -0.3910 -0.8887  0.1032
 8270SOL     OW36445   3.270   4.720   0.791 -0.5000  0.9100 -0.3569
 8270SOL    HW136446   3.344   0.043   0.793  0.2400 -0.0793  2.1193
 8270SOL    HW236447   3.196   0.041   0.776 -0.4403  0.5600 -1.9984
 8271SOL     OW36448   3.327   4.153   2.437  1.1972  0.3832  0.8529
 8271SOL    HW136449   3.408   4.185   2.477  0.7944  1.5318  0.7346
 8271SOL    HW236450   3.367   4.073   2.401  0.3740 -0.4925  1.8785
 8272SOL     OW36451   2.698   3.070  17.470 -0.0629 -0.2380  0.1595
 8272SOL    HW136452   2.612   3.051  17.508 -1.4581  2.1597 -1.8030
 8272SOL    HW236453   2.680   3.064  17.377 -2.2937 -0.7907  0.6420
 8273SOL     OW36454   0.486   1.859   5.205  0.1500 -0.0164  0.1641
 8273SOL    HW136455   0.394   1.851   5.228  0.0561  0.9987  0.1404
 8273SOL    HW236456   0.489   1.803   5.127 -0.1198 -1.0500  0.8860
 8274SOL     OW36457   2.239   3.385   3.494  0.1281 -0.7667  0.7522
 8274SOL    HW136458   2.172   3.452   3.509 -0.6694 -1.1374 -1.2583
 8274SOL    HW236459   2.220   3.365   3.403  0.5060 -0.1860  0.5502
 8275SOL     OW36460   0.448   2.631   3.538  0.3548 -0.2323  0.1130
 8275SOL    HW136461   0.445   2.543   3.576  1.8084 -0.4926 -0.3843
 8275SOL    HW236462   0.380   2.677   3.587  0.1978 -0.1555 -0.1823
 8276SOL     OW36463   3.166   0.021   0.312 -0.4732  0.1500 -0.4286
 8276SOL    HW136464   3.102   0.062   0.371  0.2606  2.1549 -1.0126
 8276SOL    HW236465   3.209   4.705   0.379 -0.3019 -0.8254 -1.3179
 8277SOL     OW36466   2.175   1.967   0.056 -0.2808 -0.0778 -0.0016
 8277SOL    HW136467   2.227   1.890   0.079  0.5505 -0.1534 -2.1893
 8277SOL    HW236468   2.186   1.968  17.710  1.2161  1.9787  0.1799
 8278SOL     OW36469   1.060   4.372   8.154 -0.0777 -0.3030  0.3312
 8278SOL    HW136470   1.035   4.406   8.240 -0.0890  0.8295 -0.1294
 8278SOL    HW236471   1.151   4.349   8.171 -0.1450 -0.4729  0.4744
 8279SOL     OW36472   2.194   2.082   2.792  0.0892 -0.2530  0.3626
 8279SOL    HW136473   2.244   2.082   2.710 -0.6297 -1.1396 -0.0686
 8279SOL    HW236474   2.130   2.150   2.770  1.6282 -0.0979 -3.6897
 8280SOL     OW36475   1.953   3.247  16.291  0.5757  0.2144  0.3894
 8280SOL    HW136476   1.903   3.324  16.266  0.5074 -0.9656 -3.0753
 8280SOL    HW236477   2.009   3.291  16.355  0.4457  0.5751  0.2554
 8281SOL     OW36478   0.016   0.287   2.008 -0.7690  0.4902  0.5313
 8281SOL    HW136479   0.009   0.380   1.988 -1.4455  0.7603  2.0401
 8281SOL    HW236480   0.087   0.289   2.073  0.5398 -0.8628 -0.8400
 8282SOL     OW36481   2.265   2.594   4.956 -0.1941 -0.3477  0.5906
 8282SOL    HW136482   2.248   2.506   4.922  0.9015  0.5513 -2.3361
 8282SOL    HW236483   2.287   2.567   5.045  0.7447 -0.2092  0.4088
 8283SOL     OW36484   3.131   2.214   4.665 -0.5061  0.0203 -0.3120
 8283SOL    HW136485   3.069   2.198   4.736 -0.6773  1.4974 -0.1153
 8283SOL    HW236486   3.149   2.122   4.649  1.8969  0.4912 -0.3639
 8284SOL     OW36487   4.085   0.868   6.681  0.2099 -0.2370  0.0037
 8284SOL    HW136488   4.015   0.929   6.705 -1.6467 -2.4855  0.3392
 8284SOL    HW236489   4.087   0.812   6.759  2.3177 -0.1504  0.0063
 8285SOL     OW36490   4.226   4.072   5.114 -0.0939 -0.5669  0.1945
 8285SOL    HW136491   4.291   4.135   5.084 -1.4633  0.0498 -1.4604
 8285SOL    HW236492   4.194   4.117   5.192  1.9475  1.0353  0.1037
 8286SOL     OW36493   0.832   3.168   5.731  0.0718 -0.0382  0.3727
 8286SOL    HW136494   0.841   3.237   5.797 -0.8070 -0.1056  0.5651
 8286SOL    HW236495   0.807   3.222   5.657  0.2992 -2.0718 -1.1787
 8287SOL     OW36496   2.587   2.803   7.418  0.0264 -0.1777  0.3735
 8287SOL    HW136497   2.583   2.712   7.388 -1.3793  0.4830 -1.4260
 8287SOL    HW236498   2.551   2.776   7.503  1.4017 -0.2428  0.9426
 8288SOL     OW36499   2.740   2.457   3.963  0.8952 -0.8332  0.5500
 8288SOL    HW136500   2.680   2.466   4.037 -0.3069 -1.6643 -0.3073
 8288SOL    HW236501   2.761   2.365   3.952  0.2080 -0.8756 -0.5037
 8289SOL     OW36502   0.251   3.359   2.439 -0.0898 -0.2834 -0.0793
 8289SOL    HW136503   0.177   3.305   2.412 -1.4669  1.3816  0.3268
 8289SOL    HW236504   0.213   3.446   2.455 -2.0401 -1.7130  2.9767
 8290SOL     OW36505   2.100   2.121   7.794 -0.0930 -0.1096 -0.1986
 8290SOL    HW136506   2.080   2.202   7.746 -2.2347 -0.5109  0.0649
 8290SOL    HW236507   2.066   2.144   7.880 -2.0241 -1.7378 -0.5269
 8291SOL     OW36508   0.491   3.013   4.853  0.0937 -0.4321 -0.0945
 8291SOL    HW136509   0.524   3.049   4.771 -0.2391 -1.2271 -0.5825
 8291SOL    HW236510   0.575   2.984   4.888 -1.0075 -0.3187  2.6460
 8292SOL     OW36511   3.299   3.066   9.152 -0.0050  0.1192  0.0440
 8292SOL    HW136512   3.317   2.984   9.198  0.8283  0.9474  1.1924
 8292SOL    HW236513   3.369   3.119   9.191  0.2175  1.3721 -2.0705
 8293SOL     OW36514   3.393   0.303   5.203 -0.3131  0.0315  0.1200
 8293SOL    HW136515   3.451   0.359   5.150  3.7124 -2.9199  1.4076
 8293SOL    HW236516   3.367   0.244   5.132  0.7738  2.3104 -2.1904
 8294SOL     OW36517   3.379   4.480   1.304 -0.5832 -0.6488 -0.3289
 8294SOL    HW136518   3.415   4.516   1.223  1.3662 -2.1697 -0.1547
 8294SOL    HW236519   3.453   4.482   1.365  0.9932  1.8452 -2.3305
 8295SOL     OW36520   0.726   0.566   2.618  0.3028  0.2832 -0.2189
 8295SOL    HW136521   0.762   0.495   2.671  1.9791  1.4156  0.1850
 8295SOL    HW236522   0.807   0.609   2.589  0.1469 -0.8192 -2.2900
 8296SOL     OW36523   2.286   4.311   1.935  0.2428 -0.0958 -0.1213
 8296SOL    HW136524   2.371   4.331   1.897  0.7146 -0.7270  0.6160
 8296SOL    HW236525   2.317   4.244   1.996 -2.4551 -1.5559 -0.3537
 8297SOL     OW36526   0.754   0.486   8.040 -0.5119 -0.4418  0.0280
 8297SOL    HW136527   0.676   0.445   8.076  0.3574 -1.9345  0.1991
 8297SOL    HW236528   0.765   0.423   7.970 -0.4589 -3.4862  2.7878
 8298SOL     OW36529   0.871   3.680  15.229  0.0421  0.4072 -0.3404
 8298SOL    HW136530   0.851   3.690  15.136 -1.5567  2.1615  0.1868
 8298SOL    HW236531   0.907   3.762  15.263 -1.0596  0.8096 -0.1418
 8299SOL     OW36532   1.581   0.346   9.821 -0.2608 -0.1654 -0.5172
 8299SOL    HW136533   1.568   0.394   9.903  0.0731  1.1989 -1.2599
 8299SOL    HW236534   1.600   0.259   9.854  0.3106  0.6927  1.4261
 8300SOL     OW36535   2.822   1.719   3.094 -0.0922  0.0043 -0.0570
 8300SOL    HW136536   2.832   1.646   3.033 -2.3737 -1.0544  0.8368
 8300SOL    HW236537   2.785   1.784   3.034  0.8627  0.3141 -0.3227
 8301SOL     OW36538   2.276   3.566   6.638  0.0482 -0.0536  0.2716
 8301SOL    HW136539   2.258   3.655   6.669  1.4077  0.1343  0.5247
 8301SOL    HW236540   2.216   3.560   6.564 -1.4275 -1.4887  1.6044
 8302SOL     OW36541   3.547   0.338   8.413 -0.2486  0.7865  0.1617
 8302SOL    HW136542   3.460   0.302   8.430  0.2197 -0.5825 -0.3724
 8302SOL    HW236543   3.546   0.427   8.448 -1.0423  1.0782 -0.6070
 8303SOL     OW36544   1.983   0.296  11.239  0.2162  0.1352  0.5105
 8303SOL    HW136545   2.063   0.279  11.288  1.0207 -0.0496 -0.8794
 8303SOL    HW236546   2.011   0.294  11.148 -2.0894  0.7968 -0.2070
 8304SOL     OW36547   3.014   0.640   9.105  0.1241 -0.4457  0.0739
 8304SOL    HW136548   3.103   0.650   9.071  0.0747  0.8782  0.3511
 8304SOL    HW236549   3.041   0.641   9.197 -1.0135  0.1518  0.4039
 8305SOL     OW36550   1.784   0.825   0.663  0.4931 -0.1901 -0.2547
 8305SOL    HW136551   1.738   0.905   0.640  0.2545  0.9038  3.9223
 8305SOL    HW236552   1.804   0.846   0.754  1.4529 -2.7934  0.1541
 8306SOL     OW36553   3.683   0.624  17.467  0.2854  0.0374  0.3273
 8306SOL    HW136554   3.647   0.683  17.401 -0.3160  1.2708  1.7363
 8306SOL    HW236555   3.745   0.577  17.412 -1.6902 -1.4286 -0.6672
 8307SOL     OW36556   0.668   1.654  13.324  0.0313 -0.0129  0.1395
 8307SOL    HW136557   0.596   1.702  13.284 -1.2181 -1.7020  0.3478
 8307SOL    HW236558   0.742   1.681  13.270 -1.1621 -2.0406 -2.4906
 8308SOL     OW36559   1.198   2.022   7.656  0.5478  0.1694  0.0434
 8308SOL    HW136560   1.291   2.011   7.638  0.3441 -0.3188 -0.7441
 8308SOL    HW236561   1.183   2.030   7.562  0.6790  0.1130  0.0178
 8309SOL     OW36562   3.390   1.189   7.271  0.4805  0.7168 -0.6326
 8309SOL    HW136563   3.384   1.261   7.334 -1.2174 -1.6558  1.9393
 8309SOL    HW236564   3.312   1.210   7.219 -0.4730  1.1324  0.9477
 8310SOL     OW36565   2.212   1.062   2.565 -0.3168 -0.2109 -0.3787
 8310SOL    HW136566   2.238   1.150   2.538  2.0919 -0.5973  0.6513
 8310SOL    HW236567   2.299   1.030   2.591 -1.2704  0.4848  3.6731
 8311SOL     OW36568   2.840   3.846   6.796 -0.1325  0.3535 -0.2111
 8311SOL    HW136569   2.749   3.862   6.823 -0.6851 -2.9138 -0.1002
 8311SOL    HW236570   2.884   3.885   6.872 -0.3700  0.1970  0.0107
 8312SOL     OW36571   0.957   2.978  10.820  0.0661 -0.3623  0.5308
 8312SOL    HW136572   0.934   3.051  10.877 -1.1320  0.2175 -0.6767
 8312SOL    HW236573   0.999   2.920  10.883 -0.4140 -0.3369  0.8682
 8313SOL     OW36574   4.287   4.239   6.098  0.0595 -0.2113  0.5822
 8313SOL    HW136575   4.257   4.330   6.102 -2.4006 -0.9129 -1.9251
 8313SOL    HW236576   4.301   4.221   6.191 -1.6374 -0.0924  0.8523
 8314SOL     OW36577   2.854   4.737   6.742 -0.2551  0.1386  0.6677
 8314SOL    HW136578   2.903   0.079   6.763 -1.5808  0.7766  1.3727
 8314SOL    HW236579   2.810   0.032   6.663  0.8166  0.7147  0.3128
 8315SOL     OW36580   1.315   4.527   6.482  0.3334 -0.4024 -0.3227
 8315SOL    HW136581   1.252   4.599   6.475  1.0713  0.1817 -1.0209
 8315SOL    HW236582   1.306   4.477   6.401 -1.2919  1.9944 -1.6202
 8316SOL     OW36583   0.407   2.542   8.468  0.4928 -0.1464  0.2372
 8316SOL    HW136584   0.402   2.574   8.378 -1.4035  0.1429  0.4356
 8316SOL    HW236585   0.443   2.455   8.448  1.6174  0.4308 -0.2316
 8317SOL     OW36586   3.447   3.417   0.959  0.2145 -0.7379 -0.2866
 8317SOL    HW136587   3.475   3.334   0.920 -1.1400 -0.9335 -0.8519
 8317SOL    HW236588   3.361   3.433   0.919  0.3085  0.7792  0.1395
 8318SOL     OW36589   3.666   3.231   5.396  0.5853 -0.8063 -0.2629
 8318SOL    HW136590   3.618   3.313   5.405  2.5343  0.1661  1.3438
 8318SOL    HW236591   3.712   3.245   5.479 -2.7470  1.0194  1.2835
 8319SOL     OW36592   1.243   4.546   9.216 -0.0930 -0.0830 -0.1067
 8319SOL    HW136593   1.307   4.590   9.272  0.4173  1.5723 -1.9836
 8319SOL    HW236594   1.266   4.457   9.243  1.9194  0.0122 -1.5066
 8320SOL     OW36595   4.153   4.587   3.268  0.0197 -0.5697 -0.3029
 8320SOL    HW136596   4.241   4.574   3.304  0.3003  1.1496 -0.3263
 8320SOL    HW236597   4.161   4.666   3.214  3.4636 -0.3826  0.4870
 8321SOL     OW36598   2.415   3.403   9.926 -0.0796 -0.5972  0.4673
 8321SOL    HW136599   2.377   3.469   9.868  0.6460 -0.6087 -0.0157
 8321SOL    HW236600   2.363   3.425  10.004  1.1363 -1.2424  1.4602
 8322SOL     OW36601   2.148   1.057   2.230 -0.1073  0.6327  0.1595
 8322SOL    HW136602   2.168   1.145   2.262  0.1004  0.3603  0.7660
 8322SOL    HW236603   2.229   1.010   2.245 -0.3649  0.6129  1.4353
 8323SOL     OW36604   2.020   0.740   5.140  0.0893  0.5642 -0.1418
 8323SOL    HW136605   2.009   0.646   5.127 -1.2871  0.5744  1.0507
 8323SOL    HW236606   1.972   0.743   5.222 -3.3677 -3.0145 -2.0605
 8324SOL     OW36607   0.102   3.414  16.649 -0.0493 -0.5242  0.1251
 8324SOL    HW136608   0.153   3.366  16.714  2.3597  2.0236  0.1555
 8324SOL    HW236609   0.104   3.502  16.687 -1.4612 -0.8730  0.9956
 8325SOL     OW36610   1.335   0.562   5.827  0.0896 -0.3467  0.2442
 8325SOL    HW136611   1.276   0.516   5.768 -0.0086 -2.3866  1.9597
 8325SOL    HW236612   1.284   0.585   5.904 -1.3240 -2.3418 -0.1040
 8326SOL     OW36613   0.842   0.282  11.898 -0.3757  0.5105  0.0326
 8326SOL    HW136614   0.818   0.273  11.990  0.1877 -0.1787  0.1111
 8326SOL    HW236615   0.904   0.210  11.886 -0.8067 -0.1096  1.6371
 8327SOL     OW36616   4.242   0.281   5.980 -0.5801  0.1181 -0.2208
 8327SOL    HW136617   4.216   0.307   6.069 -0.0168 -2.2477  0.6583
 8327SOL    HW236618   4.331   0.316   5.983 -0.6713  0.3250  0.0427
 8328SOL     OW36619   0.707   0.344  13.768  0.4342 -0.8748  0.3920
 8328SOL    HW136620   0.620   0.303  13.763 -0.0337  0.1988 -0.2580
 8328SOL    HW236621   0.764   0.282  13.722  0.5630 -2.2068  2.3489
 8329SOL     OW36622   2.232   4.277   7.128 -0.2636 -0.5098  0.6385
 8329SOL    HW136623   2.262   4.353   7.077 -0.5323  0.7334  2.3255
 8329SOL    HW236624   2.148   4.308   7.163 -1.6208 -2.6432 -0.7470
 8330SOL     OW36625   0.623   2.103  17.454 -0.1231 -0.2002 -0.5912
 8330SOL    HW136626   0.548   2.162  17.451  0.4083  0.5701  1.3790
 8330SOL    HW236627   0.609   2.057  17.537  0.1187 -1.0621 -1.0188
 8331SOL     OW36628   1.683   0.360   7.539  0.4431 -0.5411  0.0155
 8331SOL    HW136629   1.758   0.344   7.483 -0.3645 -0.7184 -1.0107
 8331SOL    HW236630   1.732   0.427   7.586  1.0715 -1.9277  1.3547
 8332SOL     OW36631   1.294   4.688  14.585  0.7425  0.2308 -0.9935
 8332SOL    HW136632   1.364   4.697  14.520  0.3552 -2.5432 -1.7654
 8332SOL    HW236633   1.314   0.024  14.644  1.8170 -1.0466  0.2444
 8333SOL     OW36634   2.717   3.445   6.055 -0.1571 -0.4350 -1.0156
 8333SOL    HW136635   2.741   3.359   6.021 -0.5374 -1.0010  0.1401
 8333SOL    HW236636   2.724   3.440   6.150 -0.7448  1.7294 -0.8634
 8334SOL     OW36637   4.611   4.158   6.161 -0.3819  0.3175 -0.1803
 8334SOL    HW136638   4.555   4.085   6.189 -0.9759  0.7641 -0.1939
 8334SOL    HW236639   4.634   4.132   6.072  2.1236  1.4680  0.1386
 8335SOL     OW36640   0.446   0.809  17.521  0.2471  0.2238  0.9756
 8335SOL    HW136641   0.537   0.780  17.509 -0.3131 -1.3097  0.4266
 8335SOL    HW236642   0.438   0.887  17.467  1.1436  0.5567  1.3298
 8336SOL     OW36643   2.526   3.975   4.701  0.0496 -0.0900 -0.0524
 8336SOL    HW136644   2.549   3.886   4.728 -0.8582 -0.2526  0.2049
 8336SOL    HW236645   2.601   3.991   4.645  0.5878 -0.1717  0.6423
 8337SOL     OW36646   3.190   2.780   7.689 -0.2896  0.1483 -0.4384
 8337SOL    HW136647   3.192   2.714   7.620 -2.1696 -0.1874 -0.1643
 8337SOL    HW236648   3.143   2.733   7.759 -0.9439  0.7524 -0.4748
 8338SOL     OW36649   4.734   2.055  13.706  0.2195 -0.3641 -0.1419
 8338SOL    HW136650   0.017   1.963  13.721  0.7630 -0.6246 -2.4606
 8338SOL    HW236651   0.075   2.103  13.732  0.9235 -2.1234  0.9406
 8339SOL     OW36652   4.175   1.956   2.463 -0.6727 -0.6426  0.3752
 8339SOL    HW136653   4.179   1.863   2.486 -2.6823 -1.0454 -0.8688
 8339SOL    HW236654   4.191   2.007   2.542  2.3028 -1.2488  0.1785
 8340SOL     OW36655   4.381   1.539   1.361 -0.1050  0.6990  0.2550
 8340SOL    HW136656   4.398   1.457   1.315 -0.8299  0.7477 -0.1030
 8340SOL    HW236657   4.422   1.516   1.445  1.0479 -3.7181 -1.4966
 8341SOL     OW36658   0.500   0.035  14.105 -0.3857  0.1622  0.3452
 8341SOL    HW136659   0.450   0.113  14.128 -1.1006 -0.4312  0.7800
 8341SOL    HW236660   0.497   4.724  14.187 -2.2029  2.8255  1.8536
 8342SOL     OW36661   4.360   3.704   7.736  0.2866 -0.6362  0.4158
 8342SOL    HW136662   4.389   3.772   7.797 -0.0025 -0.3545  0.2427
 8342SOL    HW236663   4.413   3.631   7.766  0.3939 -0.0677  1.5873
 8343SOL     OW36664   4.506   0.294   6.076  0.3546 -0.1120  0.5498
 8343SOL    HW136665   4.523   0.377   6.122  0.1799  0.9602 -1.3249
 8343SOL    HW236666   4.545   0.223   6.126  0.0454 -1.0940 -0.6211
 8344SOL     OW36667   4.240   3.318   5.838 -0.4254 -0.4730 -0.2405
 8344SOL    HW136668   4.279   3.295   5.922 -1.1941 -0.0266  0.2370
 8344SOL    HW236669   4.232   3.413   5.853 -0.7976 -0.6853  0.9202
 8345SOL     OW36670   4.267   0.149  11.771 -0.4922  0.0735 -0.1097
 8345SOL    HW136671   4.279   0.054  11.777 -0.4184 -0.0003 -1.4155
 8345SOL    HW236672   4.243   0.156  11.679 -0.2894  1.8310 -0.0408
 8346SOL     OW36673   2.688   3.058   2.561  0.6632 -0.0436 -0.2691
 8346SOL    HW136674   2.691   3.036   2.655  0.6779 -1.4164 -0.5945
 8346SOL    HW236675   2.774   3.024   2.535  1.1008 -0.2252  1.4073
 8347SOL     OW36676   3.228   2.968   4.477  0.6087  0.0390 -0.1506
 8347SOL    HW136677   3.183   3.001   4.399  0.0349 -0.5858 -0.0894
 8347SOL    HW236678   3.159   2.905   4.502  0.0385 -0.1661 -2.2423
 8348SOL     OW36679   2.409   3.930   5.781  0.0089 -0.1636 -0.1781
 8348SOL    HW136680   2.411   3.929   5.877  0.3965  0.9788 -0.1769
 8348SOL    HW236681   2.381   3.838   5.775  0.5334 -0.4001  0.9494
 8349SOL     OW36682   4.699   1.604  16.958 -0.0383 -0.5066  0.1983
 8349SOL    HW136683   4.672   1.515  16.936  1.5922 -1.0401  0.2819
 8349SOL    HW236684   4.699   1.592  17.053  0.5498 -2.9466 -0.1086
 8350SOL     OW36685   3.687   0.210   6.435  0.3777 -0.3024  0.1414
 8350SOL    HW136686   3.633   0.249   6.504  1.9255  0.9718  0.6002
 8350SOL    HW236687   3.649   0.263   6.364  0.5551  0.5048  0.6525
 8351SOL     OW36688   1.181   4.547   3.042  0.4038 -0.8370 -0.4707
 8351SOL    HW136689   1.178   4.495   2.962  1.4529  1.5949 -2.1034
 8351SOL    HW236690   1.276   4.561   3.043  0.1403  0.9651 -1.4738
 8352SOL     OW36691   1.827   3.587   3.441 -0.5889 -0.1031  0.4281
 8352SOL    HW136692   1.739   3.558   3.465 -0.2019  0.7445  2.8328
 8352SOL    HW236693   1.809   3.632   3.359  2.6267  0.8742  0.2453
 8353SOL     OW36694   0.805   2.044  15.604 -1.0326 -0.6608 -0.5089
 8353SOL    HW136695   0.779   2.019  15.693 -3.5107  0.2204 -1.0021
 8353SOL    HW236696   0.756   1.984  15.548  0.3460 -0.6105 -1.7606
 8354SOL     OW36697   4.421   3.063  17.396  0.3085 -0.2033 -0.8972
 8354SOL    HW136698   4.368   3.135  17.361  1.5771  0.4531 -1.5035
 8354SOL    HW236699   4.471   3.042  17.317  2.3054 -1.0290  0.5702
 8355SOL     OW36700   2.256   0.742   2.357 -0.5805  0.5261  0.1025
 8355SOL    HW136701   2.267   0.837   2.351  1.3737  0.1929 -1.5187
 8355SOL    HW236702   2.317   0.720   2.427  0.5647 -1.6201 -1.5553
 8356SOL     OW36703   2.996   1.028   6.556  0.3396  0.2494 -0.9556
 8356SOL    HW136704   2.916   1.025   6.503 -0.3576 -0.9676  0.1818
 8356SOL    HW236705   2.968   1.072   6.636  0.5134 -1.4574  0.0536
 8357SOL     OW36706   2.990   4.680   8.733 -0.3116  0.3876 -0.0545
 8357SOL    HW136707   2.974   0.018   8.790 -2.1150 -1.0094  1.2905
 8357SOL    HW236708   3.007   4.612   8.799 -0.4771 -1.0562 -1.4788
 8358SOL     OW36709   3.473   1.038   4.177  0.4783 -0.5260  0.3552
 8358SOL    HW136710   3.530   1.051   4.253  1.4578 -0.1383 -0.4457
 8358SOL    HW236711   3.492   1.111   4.119 -0.2644 -0.9660 -0.4339
 8359SOL     OW36712   2.405   2.111   6.586  0.6436 -0.0749  0.4233
 8359SOL    HW136713   2.484   2.063   6.610  1.0416 -0.0493 -0.7899
 8359SOL    HW236714   2.438   2.199   6.566 -2.0396  1.1868  1.6036
 8360SOL     OW36715   4.246   1.860   6.089 -0.0439 -0.1907  0.1357
 8360SOL    HW136716   4.204   1.855   6.175  0.4793 -2.4218  0.2569
 8360SOL    HW236717   4.333   1.879   6.124 -0.3329 -0.9751  1.2611
 8361SOL     OW36718   2.920   3.248  17.254 -0.9662  0.0603  0.0971
 8361SOL    HW136719   2.836   3.203  17.250 -0.5999 -0.3306 -3.3812
 8361SOL    HW236720   2.894   3.327  17.302 -0.8779  1.2149 -1.7639
 8362SOL     OW36721   2.202   1.356  17.114 -0.0046 -0.3609  0.2477
 8362SOL    HW136722   2.222   1.448  17.127  0.7745 -0.5220  0.1956
 8362SOL    HW236723   2.165   1.344  17.027  0.9735 -0.1455 -0.1917
 8363SOL     OW36724   0.583   2.455  12.596 -0.3297 -0.0794  1.0117
 8363SOL    HW136725   0.658   2.489  12.645  0.5041 -1.0878  0.4359
 8363SOL    HW236726   0.532   2.418  12.668 -1.1366 -0.9320 -0.0035
 8364SOL     OW36727   2.624   1.156  11.089  0.0889  0.1333 -0.2086
 8364SOL    HW136728   2.693   1.106  11.132  0.3150 -0.5130 -1.3215
 8364SOL    HW236729   2.561   1.169  11.160  2.2978 -0.3523  1.8700
 8365SOL     OW36730   2.310   2.721  13.921 -0.8626  0.3185  0.3262
 8365SOL    HW136731   2.385   2.670  13.890 -0.8359 -0.9271  2.4335
 8365SOL    HW236732   2.326   2.807  13.882 -0.1005  1.3930  3.0093
 8366SOL     OW36733   3.440   3.028   3.062  0.1919  0.1178 -0.8640
 8366SOL    HW136734   3.525   3.068   3.079  1.8384 -3.4241 -1.0083
 8366SOL    HW236735   3.450   3.022   2.967 -1.9100  0.8730 -1.1402
 8367SOL     OW36736   2.180   4.119   7.991 -0.1520  0.3853  0.3353
 8367SOL    HW136737   2.092   4.108   7.957  0.2560  1.5849 -1.1029
 8367SOL    HW236738   2.188   4.215   7.990 -3.5612  0.6577  1.0449
 8368SOL     OW36739   3.023   0.901   6.222 -0.4386 -0.1148 -0.1245
 8368SOL    HW136740   3.013   0.862   6.135  1.7771 -0.6111 -0.1611
 8368SOL    HW236741   2.999   0.990   6.194 -0.1196 -0.3975 -1.3112
 8369SOL     OW36742   0.891   1.992   7.724 -0.3919 -0.3066 -0.4736
 8369SOL    HW136743   0.963   1.991   7.661  0.5911 -1.6506  0.6610
 8369SOL    HW236744   0.869   1.900   7.735 -1.7285 -0.0082 -0.7285
 8370SOL     OW36745   1.850   3.054   7.876 -0.0616  0.0124 -0.0630
 8370SOL    HW136746   1.903   3.133   7.883 -1.8640  1.0910  1.2459
 8370SOL    HW236747   1.831   3.033   7.967  1.0802 -2.5262 -0.4096
 8371SOL     OW36748   2.612   4.171   3.942  0.0570 -0.0845 -0.0491
 8371SOL    HW136749   2.591   4.181   3.849  3.0361  0.3583 -0.6865
 8371SOL    HW236750   2.708   4.171   3.944  0.0701 -1.9691 -0.6908
 8372SOL     OW36751   3.831   1.822   7.044  0.4395  0.2422 -0.4646
 8372SOL    HW136752   3.787   1.807   7.128  0.1777 -1.4208 -0.9045
 8372SOL    HW236753   3.765   1.775   6.994  0.3391 -0.0318 -0.0690
 8373SOL     OW36754   4.308   1.559   7.048 -0.3614  0.0129  0.0967
 8373SOL    HW136755   4.240   1.603   7.098  1.2826  2.7241 -0.0391
 8373SOL    HW236756   4.282   1.576   6.958  2.0493  0.9696 -0.4336
 8374SOL     OW36757   1.827   4.725  12.257 -0.1945 -0.3840  0.3666
 8374SOL    HW136758   1.764   4.698  12.325 -0.4557  0.0922  0.3121
 8374SOL    HW236759   1.866   4.639  12.241  1.9572  0.6943 -0.1646
 8375SOL     OW36760   1.114   2.231  13.624 -0.4184 -0.6894  0.4298
 8375SOL    HW136761   1.145   2.263  13.539  0.9256 -0.2237  1.1033
 8375SOL    HW236762   1.084   2.306  13.675  1.2598 -1.3335  2.3526
 8376SOL     OW36763   3.253   1.423   5.527 -0.1730  0.1714  0.3414
 8376SOL    HW136764   3.214   1.377   5.452 -1.6509 -2.8526  2.9302
 8376SOL    HW236765   3.195   1.411   5.603 -0.3293  1.1950  0.3822
 8377SOL     OW36766   4.535   3.554   2.480 -0.2256  0.0474 -0.2017
 8377SOL    HW136767   4.481   3.507   2.417  0.7152 -1.1423 -0.1298
 8377SOL    HW236768   4.566   3.481   2.534 -0.8241 -0.2134 -0.2181
 8378SOL     OW36769   0.577   2.776  15.509 -0.2183 -0.3226  0.1607
 8378SOL    HW136770   0.645   2.713  15.532 -0.4756 -0.2628  1.0653
 8378SOL    HW236771   0.544   2.739  15.427  1.9826 -1.9296  0.0143
 8379SOL     OW36772   1.434   1.367   3.596 -0.2233 -0.8942  0.1582
 8379SOL    HW136773   1.373   1.294   3.593  2.4094 -3.1553  2.1822
 8379SOL    HW236774   1.517   1.321   3.587  0.1777  0.1906 -1.6572
 8380SOL     OW36775   0.879   1.239  13.417 -0.1820 -0.2050 -0.4147
 8380SOL    HW136776   0.789   1.222  13.442 -0.8471  2.0467 -1.3113
 8380SOL    HW236777   0.936   1.206  13.487 -1.2606  0.8911  0.9725
 8381SOL     OW36778   0.212   0.517   7.662  0.1966  0.0370 -0.2602
 8381SOL    HW136779   0.169   0.602   7.665  1.3665  0.5653  1.6094
 8381SOL    HW236780   0.168   0.483   7.739  1.4283 -0.5445  0.1847
 8382SOL     OW36781   0.938   2.703   8.629 -0.1803  0.2896 -0.3222
 8382SOL    HW136782   0.868   2.694   8.565 -0.9035  2.9998  0.0932
 8382SOL    HW236783   0.885   2.692   8.708  1.6199 -0.9069  0.7318
 8383SOL     OW36784   2.590   0.473   6.281  0.3415  0.4497  0.4006
 8383SOL    HW136785   2.584   0.536   6.352 -0.2524 -0.1046  0.8403
 8383SOL    HW236786   2.511   0.494   6.232 -0.1205  0.0041  0.9505
 8384SOL     OW36787   3.692   0.785   3.927 -0.1028  0.0734 -0.2851
 8384SOL    HW136788   3.667   0.856   3.867 -1.3821  0.5292  0.7827
 8384SOL    HW236789   3.637   0.713   3.896  0.5079 -0.4330 -0.1868
 8385SOL     OW36790   2.996   4.672  11.661  0.1847 -0.0205  0.1021
 8385SOL    HW136791   3.068   4.733  11.675  0.6227 -0.0514 -2.0642
 8385SOL    HW236792   2.930   4.735  11.632 -1.4643 -2.2058 -0.9022
 8386SOL     OW36793   3.830   4.719   6.290  0.6071 -0.2032 -0.4879
 8386SOL    HW136794   3.859   0.042   6.222 -0.1904  0.4538 -0.2500
 8386SOL    HW236795   3.771   0.037   6.342  0.3321 -0.4226 -0.5621
 8387SOL     OW36796   3.507   0.708  15.064 -0.5682 -0.4253  0.3201
 8387SOL    HW136797   3.553   0.708  15.148  0.4888 -1.3540 -0.2605
 8387SOL    HW236798   3.504   0.613  15.059 -0.8309 -0.3647 -0.6164
 8388SOL     OW36799   1.092   4.546   8.958 -0.3006  1.0823  0.2098
 8388SOL    HW136800   1.116   4.532   9.049 -0.7384 -0.1128  0.1344
 8388SOL    HW236801   1.014   4.602   8.960 -2.2421 -1.6490  0.2786
 8389SOL     OW36802   0.347   1.834  10.459 -0.2537  0.2236  0.2071
 8389SOL    HW136803   0.319   1.778  10.386 -0.4957 -0.1908  0.6175
 8389SOL    HW236804   0.260   1.849  10.496 -0.1202  2.3832 -0.3667
 8390SOL     OW36805   3.300   0.652   5.961  0.2939  0.2104  0.2431
 8390SOL    HW136806   3.274   0.729   5.911 -2.1320 -2.5977 -2.8314
 8390SOL    HW236807   3.390   0.647   5.929  0.7667 -2.9229  2.0962
 8391SOL     OW36808   3.297   1.153  10.299  0.4695 -0.1562  0.3063
 8391SOL    HW136809   3.216   1.195  10.272 -0.0329 -1.5827 -0.4401
 8391SOL    HW236810   3.339   1.207  10.365  3.7846 -1.0880 -1.0215
 8392SOL     OW36811   0.494   4.160   7.811 -0.1668 -0.4243 -0.0032
 8392SOL    HW136812   0.584   4.126   7.811  1.2968  3.3763  0.4583
 8392SOL    HW236813   0.493   4.174   7.717  0.8380  2.1624  0.3809
 8393SOL     OW36814   3.209   2.529   4.883  0.1789 -0.2931 -0.4881
 8393SOL    HW136815   3.120   2.548   4.912  1.3356  0.5378  2.5957
 8393SOL    HW236816   3.201   2.434   4.884 -2.1574 -0.0858  0.4480
 8394SOL     OW36817   0.158   1.293   5.983 -0.1431  0.0908 -1.1232
 8394SOL    HW136818   0.081   1.345   6.009 -0.7284 -1.2748 -0.1292
 8394SOL    HW236819   0.198   1.278   6.069  0.7001  2.4783 -1.0800
 8395SOL     OW36820   4.509   0.301  11.254 -0.1830 -0.4281  0.1173
 8395SOL    HW136821   4.543   0.385  11.223 -2.1641  0.7883  1.2423
 8395SOL    HW236822   4.478   0.330  11.340 -1.7922  1.2933 -1.0487
 8396SOL     OW36823   1.224   1.201   7.851  0.2553 -0.8889 -0.2781
 8396SOL    HW136824   1.303   1.151   7.834  0.2190 -1.3385  0.8421
 8396SOL    HW236825   1.197   1.213   7.760  1.6743 -2.4419 -0.8821
 8397SOL     OW36826   0.192   1.623   8.001 -0.1077  0.3173 -0.3820
 8397SOL    HW136827   0.103   1.589   7.993  0.6930 -2.2826  1.5673
 8397SOL    HW236828   0.193   1.718   8.001  0.6968  0.3149 -0.8770
 8398SOL     OW36829   3.943   0.196   3.122 -0.1371  0.7593  0.0554
 8398SOL    HW136830   3.893   0.116   3.110  0.1370  0.5747  0.1338
 8398SOL    HW236831   3.924   0.234   3.036  2.8836  0.4550 -0.7571
 8399SOL     OW36832   0.612   0.285   1.061 -0.4788  0.2501 -0.1729
 8399SOL    HW136833   0.684   0.223   1.077 -0.8640 -0.8565 -2.7321
 8399SOL    HW236834   0.545   0.227   1.098  0.6022 -0.1496  1.1554
 8400SOL     OW36835   2.515   4.591   7.377 -0.7091  0.1292  0.0773
 8400SOL    HW136836   2.602   4.577   7.340 -0.3230 -0.6702  1.2880
 8400SOL    HW236837   2.540   4.618   7.465  1.6875 -0.6605 -0.3484
 8401SOL     OW36838   0.877   2.134   2.786 -0.0189  0.0241  0.2146
 8401SOL    HW136839   0.821   2.209   2.768  0.7976  0.2091 -1.5365
 8401SOL    HW236840   0.948   2.187   2.823 -1.0088  1.1522  0.5000
 8402SOL     OW36841   3.992   2.460  16.055  0.3790 -0.2093  1.0937
 8402SOL    HW136842   4.017   2.477  15.965 -0.3801 -1.8505  0.5749
 8402SOL    HW236843   4.014   2.367  16.059  0.2193 -0.2627  0.6507
 8403SOL     OW36844   1.041   3.404   9.028  0.0339  0.6680  0.2150
 8403SOL    HW136845   1.070   3.443   9.111  2.5121 -0.1772 -0.2507
 8403SOL    HW236846   1.065   3.465   8.958  2.0207 -0.3999 -0.0290
 8404SOL     OW36847   2.933   1.028   8.299 -0.1695  0.8267 -0.6936
 8404SOL    HW136848   3.007   0.989   8.346  0.2227  2.6989  0.2562
 8404SOL    HW236849   2.887   1.083   8.362 -3.2456 -0.6507 -1.6395
 8405SOL     OW36850   2.390   0.213   4.331 -0.0606 -0.6033 -0.1270
 8405SOL    HW136851   2.470   0.229   4.381 -0.8300 -0.1783  0.9669
 8405SOL    HW236852   2.429   0.164   4.259 -1.5323  0.7116 -1.8041
 8406SOL     OW36853   3.033   4.537   7.216  0.3410  0.0801 -0.1302
 8406SOL    HW136854   3.023   4.602   7.147 -1.5746  0.3113  0.3632
 8406SOL    HW236855   2.962   4.563   7.274  1.9404  2.6944  0.6830
 8407SOL     OW36856   3.863   1.056   6.450  0.5156 -0.1433 -0.0766
 8407SOL    HW136857   3.907   1.118   6.508 -1.3579 -0.3269  1.5769
 8407SOL    HW236858   3.799   1.108   6.402 -0.2667  1.4681  2.7034
 8408SOL     OW36859   0.232   4.444   8.326  0.2061 -0.0167  0.5273
 8408SOL    HW136860   0.185   4.526   8.309 -0.3479 -1.0743 -2.9602
 8408SOL    HW236861   0.172   4.382   8.286  1.4852 -0.8613 -0.0523
 8409SOL     OW36862   2.457   0.811   4.466 -0.1672  0.1692  0.1249
 8409SOL    HW136863   2.440   0.845   4.554 -1.2728  0.0659 -0.0603
 8409SOL    HW236864   2.535   0.760   4.487 -0.7632 -0.2859  1.2203
 8410SOL     OW36865   1.162   2.477  10.143 -0.4279  0.3319 -0.3415
 8410SOL    HW136866   1.121   2.558  10.114 -1.3029 -0.4184 -1.1884
 8410SOL    HW236867   1.175   2.500  10.235 -3.3359 -0.3336  0.2157
 8411SOL     OW36868   2.925   4.712   5.609  0.1489 -0.5049  0.5967
 8411SOL    HW136869   2.997   4.702   5.547  0.2755  0.5825  0.5668
 8411SOL    HW236870   2.930   0.059   5.653  0.0747 -0.3902  0.3880
 8412SOL     OW36871   2.590   1.397   7.788 -0.2467  0.4857 -0.2694
 8412SOL    HW136872   2.578   1.400   7.693 -0.0616  0.6242 -0.2892
 8412SOL    HW236873   2.654   1.467   7.799 -0.0309 -0.4375  4.6712
 8413SOL     OW36874   0.615   4.436   2.318  0.2486  0.0454 -0.0345
 8413SOL    HW136875   0.634   4.347   2.348  1.9028 -0.6216 -3.0290
 8413SOL    HW236876   0.520   4.437   2.328  0.0115  1.7858 -2.6580
 8414SOL     OW36877   3.480   2.372   5.694 -0.3039  0.5989 -0.2482
 8414SOL    HW136878   3.450   2.286   5.666 -0.8871  0.3398  1.1831
 8414SOL    HW236879   3.422   2.395   5.767  0.8806 -0.0107  0.8776
 8415SOL     OW36880   4.338   3.307   3.453  0.0673 -0.0707 -0.0557
 8415SOL    HW136881   4.351   3.306   3.358  0.3739  0.2221 -0.0175
 8415SOL    HW236882   4.243   3.298   3.454  0.1494 -0.9563 -0.6549
 8416SOL     OW36883   1.249   0.259   4.644 -0.4429 -0.4182 -0.1111
 8416SOL    HW136884   1.155   0.279   4.642  0.1368  2.3369 -0.0732
 8416SOL    HW236885   1.264   0.253   4.549 -1.5101 -0.1206 -0.3030
 8417SOL     OW36886   4.340   3.287   1.750 -0.2529 -0.4159 -0.3048
 8417SOL    HW136887   4.299   3.366   1.715 -1.7391 -0.5068  1.2275
 8417SOL    HW236888   4.371   3.258   1.664  0.1286 -1.0452  0.0446
 8418SOL     OW36889   2.574   1.962   7.392  0.1009  0.1061  0.3763
 8418SOL    HW136890   2.563   1.988   7.301  0.3176 -1.2793 -0.0384
 8418SOL    HW236891   2.514   2.015   7.445  0.0152  0.5296 -0.1424
 8419SOL     OW36892   0.555   1.883  14.066  0.2254  0.0414 -0.1646
 8419SOL    HW136893   0.615   1.812  14.044 -2.1982 -2.2028  0.4680
 8419SOL    HW236894   0.570   1.890  14.160  1.2875 -0.1293 -0.3214
 8420SOL     OW36895   4.471   0.935  13.057 -0.3460 -0.5172 -0.0896
 8420SOL    HW136896   4.562   0.952  13.080  0.0925 -2.8327 -0.1101
 8420SOL    HW236897   4.465   0.926  12.962  1.2799 -0.8258 -0.1663
 8421SOL     OW36898   0.276   1.099   7.119  0.2243 -0.2254  0.0581
 8421SOL    HW136899   0.234   1.013   7.118  0.3110 -0.3041  2.3828
 8421SOL    HW236900   0.239   1.136   7.039  1.5998  1.3330  0.1417
 8422SOL     OW36901   3.332   2.044   5.356  0.1725  0.2451  0.7624
 8422SOL    HW136902   3.247   2.087   5.354 -0.3023 -0.7453 -0.2341
 8422SOL    HW236903   3.367   2.083   5.436  1.7907 -1.2092  0.7793
 8423SOL     OW36904   3.122   3.182  16.383 -0.1041  0.1678 -0.4376
 8423SOL    HW136905   3.137   3.090  16.363 -1.4689  0.3526 -2.3114
 8423SOL    HW236906   3.144   3.193  16.476  0.5572 -2.3823 -0.2845
 8424SOL     OW36907   3.228   1.642   2.853 -0.0729  0.3378 -0.1517
 8424SOL    HW136908   3.137   1.641   2.822  0.2824 -0.4038 -1.1445
 8424SOL    HW236909   3.255   1.557   2.889  2.2074  0.7503 -0.9158
 8425SOL     OW36910   0.455   0.453   8.028 -0.1795  0.1364  0.9189
 8425SOL    HW136911   0.408   0.411   8.100  2.2729 -0.0528  2.4137
 8425SOL    HW236912   0.424   0.543   8.034  3.1530  1.3468  0.3221
 8426SOL     OW36913   1.778   2.403   2.620  0.0222  0.5685 -0.0189
 8426SOL    HW136914   1.814   2.430   2.535  1.0244 -0.2378  0.1532
 8426SOL    HW236915   1.761   2.310   2.610  0.3459  0.6348 -1.2044
 8427SOL     OW36916   3.282   2.177  16.855  0.0136 -0.7738 -0.3648
 8427SOL    HW136917   3.324   2.097  16.884  3.4491  0.8423 -0.8791
 8427SOL    HW236918   3.276   2.233  16.933  2.6232 -2.3132  0.9137
 8428SOL     OW36919   2.136   3.958   7.602 -0.2532  0.5083 -0.3913
 8428SOL    HW136920   2.085   3.936   7.679 -1.2603  1.4011 -0.8180
 8428SOL    HW236921   2.070   3.999   7.547  1.3665  2.2948 -0.9936
 8429SOL     OW36922   3.963   0.732  14.062 -0.5310  0.8159 -0.4143
 8429SOL    HW136923   4.050   0.773  14.058 -0.8518  1.7407  2.0692
 8429SOL    HW236924   3.927   0.776  13.985  0.2593  2.8648  0.3745
 8430SOL     OW36925   2.794   3.767   2.616  0.0358 -0.0070  0.0765
 8430SOL    HW136926   2.705   3.775   2.582 -0.0341 -0.2692  0.2005
 8430SOL    HW236927   2.798   3.676   2.644 -0.6065  0.2037  0.8456
 8431SOL     OW36928   4.152   0.886   7.043  0.1207  0.1453 -0.4351
 8431SOL    HW136929   4.127   0.800   7.010  1.7194  0.8387 -3.4553
 8431SOL    HW236930   4.238   0.878   7.084 -1.7332 -2.5873  2.8269
 8432SOL     OW36931   2.236   2.436   8.563 -0.7366 -0.2946  0.0004
 8432SOL    HW136932   2.148   2.423   8.527 -0.5998  1.1955 -0.8525
 8432SOL    HW236933   2.259   2.516   8.516 -0.5188 -0.8687 -0.8577
 8433SOL     OW36934   2.033   2.577   3.144 -0.1980 -0.2451 -0.3431
 8433SOL    HW136935   2.009   2.511   3.209 -0.9059 -0.8686 -1.2355
 8433SOL    HW236936   2.090   2.525   3.087 -1.1960 -0.5857 -1.0374
 8434SOL     OW36937   1.735   1.205   2.795 -0.4939  0.4200 -0.5299
 8434SOL    HW136938   1.639   1.203   2.800 -0.2959 -0.1671  2.6114
 8434SOL    HW236939   1.752   1.287   2.748  0.3732  0.8706  0.5660
 8435SOL     OW36940   0.603   1.854   3.529 -0.6416 -0.5037  0.5945
 8435SOL    HW136941   0.590   1.773   3.480  1.3991 -0.4104 -0.0930
 8435SOL    HW236942   0.597   1.809   3.613 -0.0127  1.4558  1.6887
 8436SOL     OW36943   0.953   3.961   7.870 -0.0435 -0.4794  0.0279
 8436SOL    HW136944   0.967   3.867   7.860 -0.4874 -0.5557  0.1379
 8436SOL    HW236945   1.009   3.982   7.945 -0.6293 -0.0079  0.3361
 8437SOL     OW36946   4.244   4.346  12.405 -0.3151 -0.3467 -0.2794
 8437SOL    HW136947   4.266   4.268  12.355 -0.2795 -0.5684  0.0849
 8437SOL    HW236948   4.228   4.412  12.337 -1.3522  0.1390  0.4341
 8438SOL     OW36949   1.747   4.555   4.086  0.2419 -0.4056 -0.4924
 8438SOL    HW136950   1.769   4.612   4.160 -1.9322  2.2139 -1.8317
 8438SOL    HW236951   1.723   4.474   4.130 -0.2447  0.6302  1.1777
 8439SOL     OW36952   3.638   0.738  12.818 -0.2123  0.5797 -0.7453
 8439SOL    HW136953   3.640   0.653  12.775  0.7932 -0.0560  0.5705
 8439SOL    HW236954   3.677   0.791  12.748  2.8718 -0.8397 -0.1006
 8440SOL     OW36955   0.741   1.721  13.991 -1.1676 -0.3530  0.2491
 8440SOL    HW136956   0.813   1.686  14.044  0.6171  0.7551 -1.4161
 8440SOL    HW236957   0.683   1.645  13.983 -1.2794 -0.0573 -1.8406
 8441SOL     OW36958   3.110   4.392   6.951 -0.5697  0.5350  0.1608
 8441SOL    HW136959   3.190   4.415   6.998  0.1934 -0.4430 -0.6588
 8441SOL    HW236960   3.120   4.297   6.951 -1.5909  0.4238 -2.1404
 8442SOL     OW36961   1.682   4.278   9.035 -0.1323 -0.2288 -0.2781
 8442SOL    HW136962   1.706   4.368   9.009  0.3124 -0.3440 -0.2703
 8442SOL    HW236963   1.748   4.223   8.993  0.6895  1.5930 -1.3838
 8443SOL     OW36964   2.566   4.374   4.185 -0.0403  0.7130 -0.3801
 8443SOL    HW136965   2.559   4.367   4.281  0.2672  1.0772 -0.3334
 8443SOL    HW236966   2.591   4.282   4.175  0.6570  0.9861 -1.0923
 8444SOL     OW36967   1.895   3.123   4.511 -0.0859  0.3519 -0.2228
 8444SOL    HW136968   1.978   3.087   4.481  0.4899  1.6085 -0.1531
 8444SOL    HW236969   1.909   3.114   4.605  1.5168  1.1188 -0.3851
 8445SOL     OW36970   3.784   1.231   0.340 -0.3179 -0.4502 -0.6098
 8445SOL    HW136971   3.806   1.322   0.320 -1.0978 -0.0533  0.3183
 8445SOL    HW236972   3.781   1.187   0.255  1.3487  2.3579 -2.1213
 8446SOL     OW36973   3.857   4.250  14.096 -0.5620  0.4021 -0.3482
 8446SOL    HW136974   3.769   4.225  14.122 -0.7278  1.8179  0.4460
 8446SOL    HW236975   3.843   4.296  14.013 -0.1117  1.3915  0.1172
 8447SOL     OW36976   1.984   0.694   6.580  0.1583 -0.3503 -0.3671
 8447SOL    HW136977   1.895   0.723   6.556  0.1867  0.8136  0.9495
 8447SOL    HW236978   2.001   0.627   6.514  0.4914 -1.8760  1.2759
 8448SOL     OW36979   2.123   1.041  17.062 -0.4633 -0.2802 -0.3552
 8448SOL    HW136980   2.063   1.113  17.039 -0.4396 -0.1879 -0.1257
 8448SOL    HW236981   2.207   1.084  17.050 -0.8261  0.6903  0.5737
 8449SOL     OW36982   0.228   0.960   8.213  0.0575  0.0020  0.1800
 8449SOL    HW136983   0.236   0.882   8.267  0.6610  1.1959  1.8088
 8449SOL    HW236984   0.166   1.020   8.254  0.5430  1.4992 -1.2666
 8450SOL     OW36985   0.022   2.672   6.048  0.2294  0.3493 -0.3101
 8450SOL    HW136986   4.684   2.645   6.100  0.2853 -0.6320 -0.7391
 8450SOL    HW236987   0.090   2.619   6.089 -0.7868 -1.1360 -0.5273
 8451SOL     OW36988   1.901   4.666   7.747  0.3386 -0.4376 -0.2990
 8451SOL    HW136989   1.967   4.729   7.719  0.2622  0.1834  0.9231
 8451SOL    HW236990   1.882   4.694   7.836 -0.5643 -1.6253 -0.1083
 8452SOL     OW36991   3.337   4.541  17.539 -0.3210  0.1052  0.4289
 8452SOL    HW136992   3.297   4.551  17.453  0.0637 -1.3419  0.1002
 8452SOL    HW236993   3.260   4.559  17.594 -0.4233  0.7286  0.0892
 8453SOL     OW36994   3.048   4.076   2.065 -0.0507 -0.0857  0.2218
 8453SOL    HW136995   3.080   4.074   2.155  0.9517 -1.4035 -0.1725
 8453SOL    HW236996   3.030   4.170   2.069  0.9622  0.0983  0.4907
 8454SOL     OW36997   2.683   3.348   7.882  0.1595 -0.1301  0.0437
 8454SOL    HW136998   2.747   3.406   7.842  0.2153 -1.3839 -1.6874
 8454SOL    HW236999   2.638   3.394   7.953  0.1208  1.6671 -1.1662
 8455SOL     OW37000   1.493   0.246   7.259 -0.0944 -0.2008  0.4394
 8455SOL    HW137001   1.473   0.311   7.191  1.0234 -1.0525 -0.7162
 8455SOL    HW237002   1.419   0.248   7.318 -2.0045 -0.4560 -1.9407
 8456SOL     OW37003   1.408   0.064   0.982 -0.1568 -0.2702 -0.1426
 8456SOL    HW137004   1.449   0.151   0.983  0.4802 -0.5594 -1.2870
 8456SOL    HW237005   1.332   0.082   0.925 -1.5790 -0.5739  1.6645
 8457SOL     OW37006   0.013   1.766   5.067 -0.2454 -0.2158 -0.0274
 8457SOL    HW137007   4.698   1.840   5.097 -1.1653 -0.7046 -0.4577
 8457SOL    HW237008   4.727   1.770   4.975  1.3190 -1.0157 -0.4613
 8458SOL     OW37009   2.701   4.242   8.505 -0.5310  0.0510 -0.1814
 8458SOL    HW137010   2.646   4.226   8.428 -0.2951  1.4077 -0.6237
 8458SOL    HW237011   2.649   4.303   8.557 -0.4926 -0.6550  0.6837
 8459SOL     OW37012   1.587   1.349   5.345 -0.1177  0.1256  0.0398
 8459SOL    HW137013   1.618   1.440   5.337  1.4680 -0.3952  0.3844
 8459SOL    HW237014   1.662   1.296   5.370 -0.7099 -0.0114  1.4687
 8460SOL     OW37015   4.472   0.627   8.898  0.3128  0.0953  0.4046
 8460SOL    HW137016   4.439   0.538   8.904  0.0180  0.1805 -0.0114
 8460SOL    HW237017   4.489   0.639   8.992  2.3658 -0.8095  0.1430
 8461SOL     OW37018   1.041   1.370  13.801 -0.3237  0.4125 -0.0503
 8461SOL    HW137019   0.947   1.358  13.808 -0.1231 -0.8521  0.5041
 8461SOL    HW237020   1.068   1.298  13.744  1.7350  0.4330  0.8915
 8462SOL     OW37021   0.155   3.422  17.717 -0.0314 -0.2608 -0.1077
 8462SOL    HW137022   0.090   3.485   0.002 -0.1222  0.6366 -1.9652
 8462SOL    HW237023   0.125   3.340   0.009  0.2098 -0.9311 -1.3150
 8463SOL     OW37024   4.544   3.663   3.129  0.1277 -0.3511 -0.1348
 8463SOL    HW137025   4.554   3.579   3.173  1.0732  1.1402  2.5342
 8463SOL    HW237026   4.477   3.703   3.186  2.2634  0.8918  1.5061
 8464SOL     OW37027   2.326   3.028   1.365  0.0204  0.1503  0.2586
 8464SOL    HW137028   2.298   2.938   1.382 -0.1994  0.0724 -0.5339
 8464SOL    HW237029   2.388   3.044   1.436  1.9553  2.7200 -2.0037
 8465SOL     OW37030   1.736   4.722   0.891 -0.7028  0.3399 -0.1566
 8465SOL    HW137031   1.783   4.648   0.853  0.9905  0.6935  1.3060
 8465SOL    HW237032   1.752   0.059   0.833 -1.0591  1.0335  0.6402
 8466SOL     OW37033   1.085   2.587   3.235 -0.0527 -0.1152  0.0966
 8466SOL    HW137034   1.054   2.563   3.148 -0.0778  0.5057 -0.0669
 8466SOL    HW237035   1.012   2.573   3.294  0.6081  0.8623  1.1493
 8467SOL     OW37036   4.529   4.658   5.907 -0.3231  0.1163 -0.1806
 8467SOL    HW137037   4.539   4.562   5.911  0.4996  0.0872 -2.4637
 8467SOL    HW237038   4.612   4.682   5.948  0.0088 -0.5860 -0.4377
 8468SOL     OW37039   3.215   0.980  15.585 -0.0410  0.2513 -0.3419
 8468SOL    HW137040   3.243   1.061  15.628 -0.8458  0.4937 -0.2581
 8468SOL    HW237041   3.197   1.009  15.496 -1.8657  1.0590  0.2670
 8469SOL     OW37042   3.120   1.531   2.467 -0.7603  0.5791  0.1242
 8469SOL    HW137043   3.136   1.591   2.394 -1.6070 -0.4287 -0.9073
 8469SOL    HW237044   3.189   1.561   2.526  0.4026  0.0836 -0.9992
 8470SOL     OW37045   0.186   3.763  10.989  0.1997 -0.0949 -0.1096
 8470SOL    HW137046   0.180   3.694  11.055  1.1785 -0.6509 -0.6046
 8470SOL    HW237047   0.092   3.766  10.973  0.1187  4.8680  1.2841
 8471SOL     OW37048   3.017   2.295  15.823 -0.6456  0.0952  0.1459
 8471SOL    HW137049   3.066   2.334  15.895  0.7637 -1.7224  0.1625
 8471SOL    HW237050   2.931   2.327  15.849 -0.9094  0.8355 -1.5824
 8472SOL     OW37051   1.172   0.710  11.283 -0.2397  0.1190  0.5201
 8472SOL    HW137052   1.235   0.697  11.212 -0.9435 -1.6402  0.2240
 8472SOL    HW237053   1.116   0.778  11.245 -1.1232 -2.0382 -1.9642
 8473SOL     OW37054   2.355   3.625   7.852 -0.1870 -0.2829  0.2729
 8473SOL    HW137055   2.330   3.616   7.944 -3.4296  0.9645 -0.4777
 8473SOL    HW237056   2.288   3.567   7.818  0.2058  0.2777 -1.4487
 8474SOL     OW37057   2.539   3.329   8.365  0.0321  0.4439 -0.4375
 8474SOL    HW137058   2.566   3.382   8.290 -0.6051 -0.3630 -1.2242
 8474SOL    HW237059   2.608   3.263   8.364  0.8369  1.2703 -0.4300
 8475SOL     OW37060   3.669   2.302   0.922 -0.7304  0.3947  0.8075
 8475SOL    HW137061   3.637   2.237   0.984 -1.9941 -0.0105 -0.2559
 8475SOL    HW237062   3.643   2.380   0.970 -1.5345  1.1974 -0.9346
 8476SOL     OW37063   2.499   0.541   8.724 -0.6434 -0.1245 -0.8141
 8476SOL    HW137064   2.508   0.488   8.803  3.2404  3.2354  0.9851
 8476SOL    HW237065   2.485   0.628   8.761  0.5384 -0.9298  1.4913
 8477SOL     OW37066   0.894   1.165   2.906  0.4401 -0.2128 -0.0719
 8477SOL    HW137067   0.845   1.235   2.949  0.9804 -0.7230  1.4014
 8477SOL    HW237068   0.937   1.215   2.837  0.6571 -2.0459 -1.2766
 8478SOL     OW37069   1.449   2.015  14.917 -0.0711  0.4956 -0.6970
 8478SOL    HW137070   1.441   2.102  14.956  0.9193  0.9803 -1.5842
 8478SOL    HW237071   1.535   1.985  14.948 -1.1939 -2.2468 -0.2759
 8479SOL     OW37072   1.610   2.782   6.344 -0.6319 -0.7050  0.0320
 8479SOL    HW137073   1.614   2.725   6.267 -0.9952 -0.0758 -0.4526
 8479SOL    HW237074   1.652   2.722   6.406 -1.6885 -1.9588 -0.4440
 8480SOL     OW37075   1.621   2.495   8.197  0.6188 -0.2882  0.3945
 8480SOL    HW137076   1.633   2.563   8.131  1.8752 -1.2355 -0.3703
 8480SOL    HW237077   1.648   2.541   8.277 -1.0586 -1.8247  1.8374
 8481SOL     OW37078   0.061   4.008   5.538 -0.2545 -0.2249 -0.7615
 8481SOL    HW137079   0.081   3.925   5.581  0.5270  0.8613  0.9237
 8481SOL    HW237080   0.141   4.057   5.523 -0.4450  0.9203  1.9584
 8482SOL     OW37081   3.786   3.554   2.012 -0.2315 -0.0433 -0.2617
 8482SOL    HW137082   3.845   3.623   1.982  1.4491 -1.0585  0.7016
 8482SOL    HW237083   3.831   3.480   1.971 -3.7382 -1.7567 -1.0017
 8483SOL     OW37084   1.626   1.923   7.762  0.3571  1.1530  0.2649
 8483SOL    HW137085   1.683   1.988   7.803 -0.6656  1.6598  0.8821
 8483SOL    HW237086   1.679   1.843   7.767  1.8801  2.1273 -0.5332
 8484SOL     OW37087   1.335   3.826   7.019  0.2093 -0.2799  0.1050
 8484SOL    HW137088   1.419   3.871   7.013 -0.8380  1.6583 -0.0308
 8484SOL    HW237089   1.310   3.827   6.926 -1.0642  2.0587  0.4704
 8485SOL     OW37090   2.780   1.355  16.631 -0.1528 -0.1138  0.1099
 8485SOL    HW137091   2.724   1.300  16.686  0.3525 -1.2209 -0.4947
 8485SOL    HW237092   2.792   1.305  16.551 -0.1464 -0.1371  0.1256
 8486SOL     OW37093   1.243   2.647   2.242  0.5386  0.4927 -0.9681
 8486SOL    HW137094   1.217   2.696   2.164  1.2069 -0.8053 -2.0248
 8486SOL    HW237095   1.209   2.559   2.229 -0.3923  0.5552  1.2037
 8487SOL     OW37096   0.451   0.134   3.329 -0.3561  0.3897  1.2038
 8487SOL    HW137097   0.463   0.210   3.386  2.2364  0.2587  0.8522
 8487SOL    HW237098   0.361   0.145   3.300  0.0988  0.8973 -0.0119
 8488SOL     OW37099   3.872   3.954   0.210  0.4833 -0.2629  0.0373
 8488SOL    HW137100   3.842   3.965   0.120 -0.7953  1.5087  0.6754
 8488SOL    HW237101   3.840   4.032   0.255 -1.2963 -1.0619  0.1351
 8489SOL     OW37102   0.394   4.315   0.435 -0.3012  0.2407 -0.1918
 8489SOL    HW137103   0.454   4.389   0.444 -0.5122  0.2380  1.2285
 8489SOL    HW237104   0.400   4.266   0.518 -2.5286  0.1208 -0.1115
 8490SOL     OW37105   2.437   3.341  13.476  0.1457  0.3278  0.1998
 8490SOL    HW137106   2.343   3.361  13.476 -0.4196 -2.3426  1.1740
 8490SOL    HW237107   2.439   3.300  13.563  0.4083 -2.9335 -1.3362
 8491SOL     OW37108   3.878   0.031  11.180 -0.0123  0.3650 -0.3046
 8491SOL    HW137109   3.886   0.126  11.192  0.7526 -0.0811  2.6843
 8491SOL    HW237110   3.812   0.012  11.247  2.7535 -0.8745  2.0244
 8492SOL     OW37111   4.153   3.505   4.234  0.2493 -0.0944  0.3528
 8492SOL    HW137112   4.109   3.590   4.234 -0.1460 -0.3044 -1.5030
 8492SOL    HW237113   4.194   3.504   4.321  2.8587  1.8478 -0.8570
 8493SOL     OW37114   2.902   3.554   4.968 -0.3243 -0.4165  0.1765
 8493SOL    HW137115   2.837   3.613   5.006 -1.2499 -1.3361  0.0226
 8493SOL    HW237116   2.851   3.474   4.956  0.4256 -0.8492 -0.1110
 8494SOL     OW37117   0.023   4.288  12.529  0.0082  0.1730 -0.4891
 8494SOL    HW137118   4.679   4.330  12.502  0.3690  0.3951 -1.2420
 8494SOL    HW237119   0.075   4.362  12.562  0.9339 -1.1712  1.0597
 8495SOL     OW37120   1.584   4.633  16.659  0.2436 -0.3957  0.1077
 8495SOL    HW137121   1.638   4.690  16.605  0.7904  0.6312  1.7198
 8495SOL    HW237122   1.496   4.670  16.648  0.9406  0.9179 -1.0637
 8496SOL     OW37123   1.155   4.223  16.504  0.4526  0.8241  0.5503
 8496SOL    HW137124   1.059   4.229  16.511  0.3620 -1.4564  1.3444
 8496SOL    HW237125   1.158   4.133  16.471  1.4585  1.6835 -1.7318
 8497SOL     OW37126   0.615   0.479   8.561  0.1620 -0.0291  0.0425
 8497SOL    HW137127   0.709   0.493   8.544  0.5544  0.5779  2.6724
 8497SOL    HW237128   0.619   0.404   8.620  3.1529 -0.2345 -0.3889
 8498SOL     OW37129   0.044   3.578  10.090 -0.1089  0.3090  0.6452
 8498SOL    HW137130   0.059   3.542  10.003 -0.4282 -1.7830  1.4328
 8498SOL    HW237131   0.131   3.553  10.122  0.5863 -0.3822 -1.8267
 8499SOL     OW37132   0.510   3.630   1.505  0.2919 -0.2950  0.6034
 8499SOL    HW137133   0.575   3.699   1.518  1.0604 -0.7235 -0.9674
 8499SOL    HW237134   0.480   3.631   1.596  0.0490  0.6056  0.5181
 8500SOL     OW37135   0.715   2.426  15.792  0.0242  0.0364 -0.3423
 8500SOL    HW137136   0.701   2.494  15.859  0.5839 -0.8811  0.7018
 8500SOL    HW237137   0.803   2.400  15.818 -0.3410 -1.1441 -0.2812
 8501SOL     OW37138   2.934   2.176  16.438  0.1064 -0.2408  0.4552
 8501SOL    HW137139   2.893   2.259  16.461 -1.4740 -0.6577 -0.7878
 8501SOL    HW237140   2.877   2.165  16.362 -0.5073 -2.8605  1.2915
 8502SOL     OW37141   3.135   2.517   2.845  0.4470  0.1868 -0.4211
 8502SOL    HW137142   3.161   2.434   2.883 -0.6064  0.2548  0.4282
 8502SOL    HW237143   3.218   2.555   2.815 -0.6126  2.4591 -0.5226
 8503SOL     OW37144   0.559   1.739   7.539 -0.0546 -0.3554 -0.1180
 8503SOL    HW137145   0.524   1.823   7.567 -2.3700 -1.5443  0.5750
 8503SOL    HW237146   0.497   1.675   7.574  1.0633 -0.7023  1.2123
 8504SOL     OW37147   2.917   2.251   6.614 -0.4948 -0.2800  0.3905
 8504SOL    HW137148   2.844   2.213   6.663 -1.2767  0.0271 -0.5584
 8504SOL    HW237149   2.884   2.245   6.525 -0.6745  1.8900  0.3252
 8505SOL     OW37150   1.513   0.857   9.514 -0.3953 -0.4981 -0.2904
 8505SOL    HW137151   1.467   0.783   9.553 -0.4623  0.7674  2.0378
 8505SOL    HW237152   1.503   0.910   9.593  0.9968 -1.5847  0.6276
 8506SOL     OW37153   0.149   4.092   2.732 -0.0119 -0.0748 -0.2940
 8506SOL    HW137154   0.229   4.099   2.681  1.2422  0.4665  1.7576
 8506SOL    HW237155   0.170   4.010   2.777  0.2604  1.9950  3.3738
 8507SOL     OW37156   1.980   3.471  10.368  0.5030  0.1577 -0.4964
 8507SOL    HW137157   2.041   3.545  10.363 -0.6606  1.1548  0.1631
 8507SOL    HW237158   1.901   3.506  10.328  0.1034  0.2240  0.3417
 8508SOL     OW37159   3.780   0.561   2.806 -0.4572 -0.1210 -0.1969
 8508SOL    HW137160   3.699   0.607   2.828 -0.7079 -0.8357  0.3669
 8508SOL    HW237161   3.757   0.523   2.721  0.0002 -2.3183  0.6911
 8509SOL     OW37162   4.271   3.038   3.665  0.0061 -0.3747 -0.5132
 8509SOL    HW137163   4.354   3.081   3.685  0.5912 -1.5926 -0.3364
 8509SOL    HW237164   4.208   3.044   3.737  1.6978  0.2101  0.9296
 8510SOL     OW37165   3.039   1.857   7.006 -0.2071 -0.3553 -0.8556
 8510SOL    HW137166   3.046   1.891   6.917 -0.7636 -1.0132 -1.1512
 8510SOL    HW237167   2.955   1.888   7.041  0.7380  1.8893 -0.5665
 8511SOL     OW37168   1.047   3.683  11.323  0.2322  0.1082 -0.8851
 8511SOL    HW137169   0.989   3.739  11.271  1.5409  4.7731  2.6825
 8511SOL    HW237170   1.017   3.709  11.410 -1.4500  0.1802 -1.4861
 8512SOL     OW37171   1.069   3.108  10.143  0.0148  0.0827  0.1896
 8512SOL    HW137172   1.016   3.095  10.221  0.1103  0.1595  0.2673
 8512SOL    HW237173   1.145   3.052  10.156  0.7244  0.8457 -0.6459
 8513SOL     OW37174   4.407   4.433  11.522  0.2690 -0.4726 -0.0226
 8513SOL    HW137175   4.453   4.517  11.514  0.9151 -0.9821 -1.7264
 8513SOL    HW237176   4.410   4.421  11.617  2.4188  0.4857  0.0497
 8514SOL     OW37177   1.002   0.952   3.336 -0.6175 -0.4542  0.0122
 8514SOL    HW137178   1.094   0.958   3.309 -0.6482 -0.1277 -0.0279
 8514SOL    HW237179   0.997   0.864   3.373 -2.5791  0.3046  1.5500
 8515SOL     OW37180   1.982   0.707   9.028 -0.1141 -0.0559 -0.3703
 8515SOL    HW137181   2.059   0.733   9.079  0.2824  1.5934 -1.8084
 8515SOL    HW237182   1.913   0.718   9.093  1.0478 -0.5493  0.9588
 8516SOL     OW37183   1.715   1.518  15.617  0.2892 -0.3073 -0.3730
 8516SOL    HW137184   1.718   1.426  15.642 -0.2860 -0.4343 -0.7760
 8516SOL    HW237185   1.646   1.559  15.670 -1.0076 -0.9821 -1.5329
 8517SOL     OW37186   4.169   3.251   5.106  0.2556  1.2649 -0.2245
 8517SOL    HW137187   4.083   3.294   5.108 -0.4817 -0.2214  0.3000
 8517SOL    HW237188   4.202   3.263   5.195  0.6733  2.2448 -0.5151
 8518SOL     OW37189   1.928   1.744   5.994  0.4887  0.3307 -0.1062
 8518SOL    HW137190   2.002   1.778   5.945  1.1120 -0.0777  0.5461
 8518SOL    HW237191   1.893   1.673   5.940  1.3886  0.9359 -1.4611
 8519SOL     OW37192   2.646   2.698   2.001  0.1239 -0.3059  0.3328
 8519SOL    HW137193   2.698   2.726   2.076  1.3028 -0.2836 -0.4762
 8519SOL    HW237194   2.714   2.652   1.951 -0.1342 -1.3208  0.9146
 8520SOL     OW37195   0.201   4.428   8.593 -0.2006 -0.0277  0.6007
 8520SOL    HW137196   0.227   4.421   8.501 -0.4512 -0.5931  0.5715
 8520SOL    HW237197   0.219   4.337   8.616  0.2108 -0.2219 -0.4563
 8521SOL     OW37198   1.822   3.029  17.252  0.2215 -0.0996  0.2663
 8521SOL    HW137199   1.784   3.055  17.336 -1.6562  0.2354 -0.6714
 8521SOL    HW237200   1.897   2.981  17.287 -0.1718 -0.3797  0.7339
 8522SOL     OW37201   2.221   0.850   1.815  0.3225  0.1271 -0.0590
 8522SOL    HW137202   2.280   0.924   1.801 -0.8453  1.4160  1.8739
 8522SOL    HW237203   2.166   0.883   1.886 -0.3178 -0.7340 -0.1519
 8523SOL     OW37204   4.594   4.355  10.796 -0.3661  0.0383 -0.4866
 8523SOL    HW137205   4.605   4.382  10.888 -1.1253 -1.7272  0.1178
 8523SOL    HW237206   4.517   4.403  10.765 -0.7507  0.0077  0.3987
 8524SOL     OW37207   0.168   3.681   8.763 -0.5155 -0.2537 -0.5106
 8524SOL    HW137208   0.128   3.626   8.696  1.1232 -1.7450 -0.2689
 8524SOL    HW237209   0.102   3.750   8.768 -0.6524 -0.4427  0.2741
 8525SOL     OW37210   2.372   2.820  10.542  0.0028  0.2236 -0.2825
 8525SOL    HW137211   2.410   2.796  10.627  0.4901 -0.4062 -0.6796
 8525SOL    HW237212   2.304   2.753  10.537 -0.2936  0.4005  1.3907
 8526SOL     OW37213   2.751   0.605   2.915  0.2005  0.3581 -0.0922
 8526SOL    HW137214   2.812   0.644   2.977 -1.5927 -0.1450  2.0084
 8526SOL    HW237215   2.673   0.661   2.921 -0.0451  0.1719 -1.7999
 8527SOL     OW37216   0.178   3.765   9.050  0.0054 -0.2823 -0.1566
 8527SOL    HW137217   0.180   3.723   8.965 -0.1354 -1.3383  0.3642
 8527SOL    HW237218   0.269   3.752   9.077  0.3696 -0.2957 -1.4178
 8528SOL     OW37219   0.387   1.446   7.025  0.0442 -0.6095 -0.8925
 8528SOL    HW137220   0.292   1.453   7.018  0.2471  1.8500 -1.2630
 8528SOL    HW237221   0.413   1.466   6.935  0.5864  0.0569 -0.5849
 8529SOL     OW37222   1.900   4.658   3.643  0.4844 -0.3739 -0.0734
 8529SOL    HW137223   1.904   4.590   3.576 -0.2722 -0.2467 -0.2383
 8529SOL    HW237224   1.835   4.629   3.706 -1.3776  2.2298 -0.7956
 8530SOL     OW37225   4.706   4.106   5.908  0.2359  0.3968 -0.3892
 8530SOL    HW137226   0.061   4.090   5.888  0.1648 -0.2007 -0.2418
 8530SOL    HW237227   4.682   4.178   5.849  1.0597  0.5679 -0.5225
 8531SOL     OW37228   2.663   2.488  17.021  0.0345 -0.6231  0.4607
 8531SOL    HW137229   2.750   2.524  17.039 -0.3718  1.1814 -1.2582
 8531SOL    HW237230   2.649   2.494  16.927 -2.0012 -1.1675  0.7374
 8532SOL     OW37231   2.437   0.320   6.761  0.1698  0.4869  0.4890
 8532SOL    HW137232   2.491   0.397   6.779 -1.2226  1.9903 -1.7410
 8532SOL    HW237233   2.387   0.361   6.690  3.4770  1.5393 -1.2234
 8533SOL     OW37234   1.978   3.477   4.385  0.1809  0.2604 -0.5246
 8533SOL    HW137235   2.034   3.463   4.461 -0.7358 -0.6301 -0.0296
 8533SOL    HW237236   1.992   3.570   4.368  0.3933  0.4816  0.8569
 8534SOL     OW37237   3.314   3.343   9.788 -0.1936 -0.3853  0.0949
 8534SOL    HW137238   3.290   3.320   9.878 -3.2522 -1.0457 -0.8914
 8534SOL    HW237239   3.259   3.419   9.767  1.1970  0.6652  0.2665
 8535SOL     OW37240   4.397   2.399  11.724  0.2374 -0.4391  0.2059
 8535SOL    HW137241   4.466   2.334  11.738  0.1880 -0.4615  0.3396
 8535SOL    HW237242   4.424   2.449  11.647  0.8974 -0.8852  0.1446
 8536SOL     OW37243   1.730   1.002   9.499  0.2366 -0.0726 -0.2557
 8536SOL    HW137244   1.678   1.080   9.478 -3.6236 -2.6598 -0.4349
 8536SOL    HW237245   1.667   0.931   9.482 -1.2729  0.7193  2.0182
 8537SOL     OW37246   4.010   1.050   8.324 -0.0077 -0.0507 -0.0089
 8537SOL    HW137247   3.994   1.078   8.414 -0.3622 -1.4720  0.3801
 8537SOL    HW237248   4.104   1.063   8.322  0.0108 -0.1015  0.5179
 8538SOL     OW37249   1.162   0.468   3.892 -0.0870 -0.2640  0.6421
 8538SOL    HW137250   1.179   0.416   3.814 -1.8719 -1.9143  1.3438
 8538SOL    HW237251   1.244   0.517   3.891 -0.7508  0.8527  0.6527
 8539SOL     OW37252   2.503   0.471  17.416 -0.5121 -0.3867  0.3323
 8539SOL    HW137253   2.598   0.474  17.428 -0.1793 -0.1387 -2.4454
 8539SOL    HW237254   2.498   0.383  17.377 -1.2096 -0.3007  0.2402
 8540SOL     OW37255   0.122   4.331   0.398  0.0685  0.4516  0.2751
 8540SOL    HW137256   0.218   4.330   0.402  0.0298 -0.3564  1.1866
 8540SOL    HW237257   0.104   4.385   0.475 -1.0219  0.8865 -0.2936
 8541SOL     OW37258   3.095   1.364   8.574  0.2440 -0.1532 -0.0294
 8541SOL    HW137259   3.000   1.373   8.567 -0.2220 -2.4374  3.6705
 8541SOL    HW237260   3.101   1.292   8.636 -1.6790  0.4904  0.8862
 8542SOL     OW37261   4.422   0.400   4.149 -0.5920  0.6879  0.6827
 8542SOL    HW137262   4.385   0.422   4.063  1.3859 -3.9060 -1.3282
 8542SOL    HW237263   4.362   0.337   4.189  2.4477 -1.4575  1.8560
 8543SOL     OW37264   1.600   2.919   4.060  0.2537  0.6552 -0.2069
 8543SOL    HW137265   1.519   2.911   4.110  0.7480 -0.1200  0.4690
 8543SOL    HW237266   1.664   2.932   4.130 -0.0787  1.1415  0.0071
 8544SOL     OW37267   1.167   1.452   7.960 -0.4105  0.0717 -0.0004
 8544SOL    HW137268   1.193   1.522   7.900 -0.2874 -0.3732 -0.4650
 8544SOL    HW237269   1.186   1.372   7.911  0.3514  2.4382 -3.5459
 8545SOL     OW37270   0.746   2.182   4.663 -0.1119  0.5994  0.3928
 8545SOL    HW137271   0.724   2.259   4.716 -1.3472 -0.4289  1.3797
 8545SOL    HW237272   0.673   2.120   4.660  0.3071  0.0522  1.4571
 8546SOL     OW37273   2.936   4.278   4.180  0.4471 -0.4553 -0.3475
 8546SOL    HW137274   2.920   4.230   4.099 -1.5558 -2.3471  1.1675
 8546SOL    HW237275   2.995   4.221   4.229 -0.7130 -0.5232  0.9340
 8547SOL     OW37276   0.773   2.874   8.082 -0.2059  0.1596  0.1393
 8547SOL    HW137277   0.749   2.848   7.993 -0.0422 -0.1156  0.1738
 8547SOL    HW237278   0.696   2.846   8.131 -0.4551 -2.0928 -1.5228
 8548SOL     OW37279   3.248   3.269   3.202  0.4122 -0.2080 -0.0789
 8548SOL    HW137280   3.159   3.237   3.217  0.9565 -1.9437 -0.5117
 8548SOL    HW237281   3.292   3.187   3.180  0.0119 -0.5364  0.3648
 8549SOL     OW37282   3.621   0.613   1.767 -0.2264 -0.6337  0.1969
 8549SOL    HW137283   3.714   0.598   1.781 -0.0232  0.9146  0.5496
 8549SOL    HW237284   3.594   0.546   1.830  0.4703 -0.4783  0.6641
 8550SOL     OW37285   2.657   1.318   5.676  0.2739 -0.1236  0.1780
 8550SOL    HW137286   2.623   1.404   5.699  0.5602 -0.2419  1.0519
 8550SOL    HW237287   2.600   1.251   5.714  0.2553 -0.3345 -0.2202
 8551SOL     OW37288   1.036   4.440   0.929 -0.1383  0.1947 -0.4243
 8551SOL    HW137289   1.040   4.395   1.013  1.5475  0.8031 -0.1799
 8551SOL    HW237290   0.944   4.432   0.903 -0.6896 -0.7907  1.8511
 8552SOL     OW37291   1.332   4.156   3.745  0.1342 -1.0971  0.1392
 8552SOL    HW137292   1.402   4.219   3.731 -0.4920 -1.1513 -3.3864
 8552SOL    HW237293   1.380   4.089   3.793  0.1321 -0.2361  1.3465
 8553SOL     OW37294   2.929   4.610   3.764 -0.2266  0.0511  0.2886
 8553SOL    HW137295   2.958   4.582   3.851  0.4471 -0.2853 -0.0442
 8553SOL    HW237296   2.874   4.684   3.788 -0.6613  0.1462 -1.0013
 8554SOL     OW37297   0.730   0.246  12.161 -0.2761  0.6526 -0.4772
 8554SOL    HW137298   0.715   0.320  12.220  0.9167  1.7692 -1.5836
 8554SOL    HW237299   0.652   0.194  12.180  0.3383 -0.8576 -1.9935
 8555SOL     OW37300   3.507   0.967   5.923  0.1622  0.4659 -0.5331
 8555SOL    HW137301   3.526   0.877   5.898 -2.9400  0.2331 -2.1609
 8555SOL    HW237302   3.510   0.953   6.018  2.3749  1.6731 -0.4270
 8556SOL     OW37303   1.093   1.352  11.195  0.4571  0.2984  0.3824
 8556SOL    HW137304   1.083   1.368  11.288  0.9677  0.2085  0.4478
 8556SOL    HW237305   1.105   1.257  11.197 -0.7514  0.1478  0.7463
 8557SOL     OW37306   4.241   2.215   2.681  0.5712 -0.4997 -0.4435
 8557SOL    HW137307   4.254   2.125   2.708 -0.2572 -0.1184  1.2662
 8557SOL    HW237308   4.145   2.215   2.676  0.4710  0.5020  1.1073
 8558SOL     OW37309   3.435   2.494  15.630  0.6941  0.0546  0.1408
 8558SOL    HW137310   3.445   2.574  15.579  1.0748 -0.8228 -1.1764
 8558SOL    HW237311   3.493   2.507  15.705 -1.1423  1.9830  1.2136
 8559SOL     OW37312   4.196   1.267   2.071  0.2827  0.3492 -0.0095
 8559SOL    HW137313   4.243   1.327   2.130  0.7517 -1.4392  1.4216
 8559SOL    HW237314   4.187   1.320   1.992 -2.4892 -0.8786 -0.4883
 8560SOL     OW37315   2.682   1.777   1.454 -0.1845  0.8543  0.1066
 8560SOL    HW137316   2.590   1.757   1.471  0.3193 -1.0252  0.5738
 8560SOL    HW237317   2.722   1.690   1.455 -0.9239  0.5214  0.7623
 8561SOL     OW37318   1.202   2.870   6.834  0.1009 -0.2507  0.0380
 8561SOL    HW137319   1.147   2.830   6.766  1.0671  2.7262 -2.5203
 8561SOL    HW237320   1.239   2.789   6.869  1.2753  1.4615  2.7214
 8562SOL     OW37321   0.198   0.835   7.145 -0.4116  0.3608  0.1731
 8562SOL    HW137322   0.196   0.758   7.202 -0.1613  0.8446  0.8396
 8562SOL    HW237323   0.273   0.819   7.089  1.0084  1.1600  1.8687
 8563SOL     OW37324   3.873   4.337   5.942 -0.2338 -0.3482  0.0050
 8563SOL    HW137325   3.783   4.318   5.916  0.8383 -3.1470 -1.6551
 8563SOL    HW237326   3.867   4.432   5.934 -1.7067 -0.6119 -1.9695
 8564SOL     OW37327   0.033   2.408   0.666  0.2520  0.2765 -0.3010
 8564SOL    HW137328   4.705   2.477   0.679 -0.7327 -0.8843  0.9260
 8564SOL    HW237329   0.097   2.426   0.735 -0.3029 -1.4058  0.6444
 8565SOL     OW37330   3.034   4.727  16.355 -0.5153 -0.5054 -0.5160
 8565SOL    HW137331   3.057   0.057  16.419  1.5726 -1.7257  0.0114
 8565SOL    HW237332   2.959   0.032  16.313 -1.2992 -0.6971  0.6991
 8566SOL     OW37333   2.945   0.701  16.111 -0.1561  0.0592  0.6679
 8566SOL    HW137334   2.964   0.716  16.018  1.0274 -1.3795  0.6802
 8566SOL    HW237335   2.924   0.793  16.130 -2.1836  0.1072 -1.8166
 8567SOL     OW37336   0.533   0.484   3.361 -0.7461 -0.3151  0.1288
 8567SOL    HW137337   0.470   0.531   3.307 -0.9548 -1.2471 -0.4446
 8567SOL    HW237338   0.482   0.429   3.421 -1.6110  0.2717 -0.0762
 8568SOL     OW37339   2.473   0.161   3.410  0.0645 -0.2107 -0.4231
 8568SOL    HW137340   2.432   0.074   3.411 -0.9321  0.2600  1.1202
 8568SOL    HW237341   2.416   0.212   3.469  0.8991 -1.3451  1.3753
 8569SOL     OW37342   0.501   4.566  17.071 -0.9484  0.0729 -0.3753
 8569SOL    HW137343   0.501   4.531  17.161 -1.1371 -1.7696 -1.0899
 8569SOL    HW237344   0.562   4.502  17.035 -0.5784  0.0541  0.2912
 8570SOL     OW37345   3.772   1.979   8.093 -0.2614 -0.4019 -0.2389
 8570SOL    HW137346   3.761   2.002   8.185  1.9394  1.0187 -0.3438
 8570SOL    HW237347   3.733   1.893   8.084  0.0444 -0.8896  3.0265
 8571SOL     OW37348   1.017   0.767   0.580 -0.6426  0.0337  0.6336
 8571SOL    HW137349   0.988   0.679   0.559 -2.8685  0.8214  0.4168
 8571SOL    HW237350   1.006   0.771   0.675 -0.3752  0.7268  0.6397
 8572SOL     OW37351   0.734   3.474   8.405 -0.2584  0.2668  0.3234
 8572SOL    HW137352   0.644   3.480   8.437 -0.4081  0.5245 -0.1480
 8572SOL    HW237353   0.717   3.528   8.328 -2.3443 -0.8920 -0.0105
 8573SOL     OW37354   3.144   1.923   4.956  0.2265 -0.1951 -0.2918
 8573SOL    HW137355   3.214   1.975   4.996  2.4539 -2.6524 -1.0226
 8573SOL    HW237356   3.132   1.860   5.026 -0.1273 -1.5526 -1.5769
 8574SOL     OW37357   1.120   3.415   5.664 -0.1187 -0.0443  0.1256
 8574SOL    HW137358   1.131   3.345   5.601  2.5220  1.0859 -0.6575
 8574SOL    HW237359   1.037   3.453   5.634  0.1777 -1.3296 -2.2873
 8575SOL     OW37360   2.297   3.693  12.681 -0.0603 -0.6826 -0.5339
 8575SOL    HW137361   2.350   3.626  12.637  0.3728  0.1320 -1.2478
 8575SOL    HW237362   2.308   3.664  12.772 -1.2043  2.3099  0.5569
 8576SOL     OW37363   4.083   2.232   4.113 -0.0644 -0.6228  0.3132
 8576SOL    HW137364   4.024   2.289   4.065 -0.3088 -0.8494  0.3427
 8576SOL    HW237365   4.102   2.280   4.194  0.3138 -0.6362  0.2351
 8577SOL     OW37366   1.056   2.691   9.358  0.0618  0.6077  0.0158
 8577SOL    HW137367   0.962   2.672   9.349  0.4638 -2.1521  1.4793
 8577SOL    HW237368   1.055   2.715   9.451  0.1671 -0.3551  0.2672
 8578SOL     OW37369   1.469   3.339   3.059 -0.4494 -0.3425  0.5096
 8578SOL    HW137370   1.520   3.300   3.130  0.4127 -0.4127 -0.1498
 8578SOL    HW237371   1.393   3.281   3.054  1.4140 -2.9184  1.9251
 8579SOL     OW37372   1.289   3.647   5.674 -0.1770 -0.3611  0.6564
 8579SOL    HW137373   1.338   3.627   5.593  0.4716 -0.0852  0.9768
 8579SOL    HW237374   1.245   3.562   5.675 -1.0967  0.1035 -0.4175
 8580SOL     OW37375   1.112   3.144   5.958 -0.1312  0.4710 -0.0262
 8580SOL    HW137376   1.048   3.075   5.938 -1.3734  1.4020  0.7628
 8580SOL    HW237377   1.172   3.142   5.884  0.0039  1.0647  0.0678
 8581SOL     OW37378   0.194   4.611  10.415  0.5359  0.0842  0.4589
 8581SOL    HW137379   0.136   4.537  10.395  0.5958 -0.4592  2.2276
 8581SOL    HW237380   0.141   4.685  10.387  1.9324  0.2349 -1.7623
 8582SOL     OW37381   4.424   4.377  10.422 -0.3804 -0.3398  0.6736
 8582SOL    HW137382   4.354   4.442  10.421  0.1612  0.2390 -0.0935
 8582SOL    HW237383   4.389   4.314  10.359  2.4431  0.2378 -1.4844
 8583SOL     OW37384   1.897   0.809   8.414 -0.0050 -0.0468  0.1428
 8583SOL    HW137385   1.896   0.901   8.437 -1.1558  0.3228 -1.3358
 8583SOL    HW237386   1.869   0.811   8.322  0.1125  1.4340  0.1370
 8584SOL     OW37387   0.131   4.375   5.466 -0.0058 -0.4571  0.0053
 8584SOL    HW137388   0.041   4.407   5.468 -0.5624 -1.9243 -1.3241
 8584SOL    HW237389   0.133   4.330   5.382  0.3107 -0.3386 -0.0496
 8585SOL     OW37390   0.204   1.852  13.305 -0.1517  0.0408 -0.3852
 8585SOL    HW137391   0.208   1.889  13.393  3.3604 -0.8304 -0.1681
 8585SOL    HW237392   0.133   1.903  13.266  1.8335  1.6588 -1.8839
 8586SOL     OW37393   1.483   2.075   5.856  0.2651 -0.1087 -0.2578
 8586SOL    HW137394   1.436   2.044   5.934 -0.0070  1.6389  0.2708
 8586SOL    HW237395   1.421   2.051   5.787 -0.3796 -1.0202  0.6208
 8587SOL     OW37396   0.302   4.300   4.798  1.0106 -0.2296 -0.2532
 8587SOL    HW137397   0.296   4.219   4.849 -0.1631 -0.1408 -0.2546
 8587SOL    HW237398   0.397   4.305   4.789  1.2044 -2.0398  0.6771
 8588SOL     OW37399   1.511   2.137   2.354 -0.8631  0.1059 -0.5096
 8588SOL    HW137400   1.451   2.080   2.402  0.3000 -1.0196 -0.3725
 8588SOL    HW237401   1.532   2.078   2.281 -0.2970  1.0240 -1.0789
 8589SOL     OW37402   2.055   2.298   2.673  0.1986  0.7105  0.2523
 8589SOL    HW137403   2.045   2.385   2.712  2.0113  1.5978 -1.2980
 8589SOL    HW237404   1.989   2.311   2.605 -1.8498 -1.9894  1.7271
 8590SOL     OW37405   1.411   4.163   8.009 -0.2538  0.1310  0.7707
 8590SOL    HW137406   1.340   4.100   8.019 -0.1831  0.0147  0.5643
 8590SOL    HW237407   1.481   4.119   8.057 -0.4554 -2.9949 -1.7580
 8591SOL     OW37408   2.500   2.680   3.484  0.1458 -0.1119  0.1303
 8591SOL    HW137409   2.446   2.602   3.471 -1.4572  1.0699 -0.3054
 8591SOL    HW237410   2.456   2.725   3.556 -1.8332 -0.3529 -0.9253
 8592SOL     OW37411   2.335   0.715   8.944 -0.2669  0.2957  0.3232
 8592SOL    HW137412   2.296   0.696   9.029  2.1820 -0.3356  1.2914
 8592SOL    HW237413   2.406   0.775   8.970 -0.3458 -0.2043  1.6420
 8593SOL     OW37414   0.246   0.596   6.472 -0.2906 -0.2760 -0.4521
 8593SOL    HW137415   0.316   0.536   6.448  0.4838  0.9286 -1.2058
 8593SOL    HW237416   0.204   0.557   6.548 -1.7946 -1.2705 -1.7883
 8594SOL     OW37417   3.566   0.535   2.313  0.3884 -0.6920 -0.0208
 8594SOL    HW137418   3.534   0.499   2.396 -1.1637  3.8078  1.3343
 8594SOL    HW237419   3.626   0.608   2.330 -0.5107  0.1258 -0.2858
 8595SOL     OW37420   3.917   4.195   1.953 -0.0394  0.4108 -0.0085
 8595SOL    HW137421   3.972   4.271   1.972  1.8485 -1.2312  1.2125
 8595SOL    HW237422   3.861   4.235   1.888  0.2985 -0.0741 -0.6015
 8596SOL     OW37423   0.132   3.316   8.186  0.3073 -0.3556  0.1099
 8596SOL    HW137424   0.189   3.274   8.251  2.1233  1.7289 -0.1500
 8596SOL    HW237425   0.093   3.238   8.147  0.4343 -0.6087  0.4830
 8597SOL     OW37426   0.377   2.805  13.206  0.0762 -0.0571  0.4998
 8597SOL    HW137427   0.352   2.781  13.295 -1.6094  1.3136  0.3920
 8597SOL    HW237428   0.318   2.875  13.180 -2.1797 -0.9179  3.3916
 8598SOL     OW37429   3.312   2.061   5.097 -0.3147 -0.5597 -0.6984
 8598SOL    HW137430   3.369   2.138   5.100  1.5829 -1.9517 -1.0000
 8598SOL    HW237431   3.318   2.046   5.192 -0.4781 -2.8078 -1.0448
 8599SOL     OW37432   2.340   0.057  15.328  0.1815  0.4750 -0.2990
 8599SOL    HW137433   2.352   0.150  15.308  1.3989  0.4784  0.4327
 8599SOL    HW237434   2.412   0.010  15.286  0.9821 -0.8334  2.5623
 8600SOL     OW37435   0.905   3.857   4.429  0.3169 -0.2354 -0.0057
 8600SOL    HW137436   0.831   3.839   4.372 -2.5973  2.2379  3.0567
 8600SOL    HW237437   0.974   3.896   4.375  0.6445  1.4711  1.6402
 8601SOL     OW37438   0.925   2.394   9.235  0.2483  0.1542 -0.1771
 8601SOL    HW137439   0.993   2.431   9.179  1.4670  0.3696  1.4470
 8601SOL    HW237440   0.853   2.450   9.207  1.6020  0.9586 -2.0740
 8602SOL     OW37441   0.865   3.600  13.457  0.2730  0.2198  0.8602
 8602SOL    HW137442   0.849   3.544  13.381  1.2852  3.0467 -1.3953
 8602SOL    HW237443   0.830   3.681  13.421 -0.6087 -0.0342  1.1226
 8603SOL     OW37444   0.538   1.961   2.072 -0.3118  0.4560  0.5938
 8603SOL    HW137445   0.482   1.968   2.149 -0.3438  0.9384  0.5243
 8603SOL    HW237446   0.520   1.868   2.057 -0.3158  0.6801 -0.8411
 8604SOL     OW37447   0.235   2.338   2.456 -0.3038  0.1572  0.3085
 8604SOL    HW137448   0.219   2.245   2.470 -2.5799  0.3033 -1.2471
 8604SOL    HW237449   0.291   2.350   2.533  0.5052 -1.5223 -0.0133
 8605SOL     OW37450   2.828   1.607   6.276 -0.0427  0.0951  0.0762
 8605SOL    HW137451   2.815   1.538   6.341  0.2970 -0.9447 -0.9379
 8605SOL    HW237452   2.893   1.668   6.310 -0.1662  0.1602  0.1923
 8606SOL     OW37453   1.062   1.248  10.849  0.6566 -0.0123 -0.1988
 8606SOL    HW137454   1.030   1.176  10.902 -0.8274  0.8399  0.0536
 8606SOL    HW237455   0.987   1.307  10.858  2.0640  1.4935  1.7215
 8607SOL     OW37456   3.263   0.278   0.761 -0.1936  0.1971 -0.9882
 8607SOL    HW137457   3.277   0.281   0.856  0.5601 -0.1022 -1.0942
 8607SOL    HW237458   3.188   0.335   0.743 -1.0919 -0.2902  1.1554
 8608SOL     OW37459   1.113   1.129   3.886 -0.4661 -0.1722  0.3477
 8608SOL    HW137460   1.203   1.127   3.854 -0.5033  0.6187  0.1958
 8608SOL    HW237461   1.131   1.114   3.979 -0.3091 -0.0179  0.3416
 8609SOL     OW37462   0.670   4.635  11.372  0.2980  0.7336  0.4088
 8609SOL    HW137463   0.670   4.692  11.449 -1.9373  0.7076  0.4457
 8609SOL    HW237464   0.693   4.697  11.304 -1.0711 -0.8883 -1.5426
 8610SOL     OW37465   2.668   4.550  14.980 -0.9949 -0.0383 -0.0057
 8610SOL    HW137466   2.664   4.464  14.937  1.2564  0.0952 -0.4811
 8610SOL    HW237467   2.610   4.595  14.920 -0.3636  0.1550 -0.4671
 8611SOL     OW37468   1.215   1.732  12.915 -0.1685 -0.8701  0.1945
 8611SOL    HW137469   1.148   1.747  12.982  0.1421  0.2180  0.2567
 8611SOL    HW237470   1.196   1.804  12.855  4.0928 -0.1019 -0.2493
 8612SOL     OW37471   2.311   2.466   3.412  0.2287 -0.4937 -0.4536
 8612SOL    HW137472   2.243   2.533   3.403  0.8656  0.2080  0.0095
 8612SOL    HW237473   2.326   2.438   3.322  0.4167 -1.8198 -0.0033
 8613SOL     OW37474   3.101   0.453  16.346 -0.0921 -0.0742 -0.1224
 8613SOL    HW137475   3.009   0.446  16.321  0.1152  0.4149 -1.0195
 8613SOL    HW237476   3.126   0.373  16.300  1.7935  0.6939 -0.4400
 8614SOL     OW37477   4.454   2.136   4.757 -0.1851 -0.1837 -0.1498
 8614SOL    HW137478   4.363   2.107   4.748  0.1305 -1.0816 -0.3622
 8614SOL    HW237479   4.437   2.229   4.737  0.0011 -0.3222 -0.9665
 8615SOL     OW37480   0.224   0.313   3.952 -0.4437 -0.2156 -0.4160
 8615SOL    HW137481   0.131   0.325   3.933 -0.9662 -2.1341  0.9091
 8615SOL    HW237482   0.212   0.257   4.029 -0.1711  3.0012  1.9492
 8616SOL     OW37483   2.220   3.062  10.682 -0.0752 -0.0556 -0.0078
 8616SOL    HW137484   2.314   3.050  10.697  0.3114  2.0166 -0.7459
 8616SOL    HW237485   2.192   3.119  10.754 -0.1074 -2.1040  1.6151
 8617SOL     OW37486   2.848   2.943   4.391  0.2885  0.0956  0.1800
 8617SOL    HW137487   2.775   2.969   4.446  0.9853 -1.9737  2.0808
 8617SOL    HW237488   2.844   2.848   4.406 -0.2487 -0.0308 -0.7589
 8618SOL     OW37489   0.061   3.077   8.030 -0.1605 -0.5296 -0.4581
 8618SOL    HW137490   0.015   3.009   8.080 -1.6041  0.0135 -1.0381
 8618SOL    HW237491   0.049   3.032   7.947  1.9855 -1.3749 -0.2918
 8619SOL     OW37492   1.676   0.095   5.500 -0.0252  0.0024 -0.1824
 8619SOL    HW137493   1.734   0.152   5.448 -0.6580  2.8211  2.1669
 8619SOL    HW237494   1.694   0.020   5.445 -0.3288 -1.0439  1.1478
 8620SOL     OW37495   3.807   0.116   6.055  0.3706  0.1980 -0.0780
 8620SOL    HW137496   3.844   0.148   5.973 -2.4297 -2.6879 -2.4185
 8620SOL    HW237497   3.714   0.126   6.037  0.4357  0.0590 -0.4759
 8621SOL     OW37498   1.315   2.233   0.884 -0.3619  0.2330  0.3302
 8621SOL    HW137499   1.262   2.301   0.926 -1.7942 -1.1649  0.8023
 8621SOL    HW237500   1.385   2.212   0.946  0.3842 -1.6222 -1.1316
 8622SOL     OW37501   2.905   0.817   7.838  0.1966 -0.2716 -0.3597
 8622SOL    HW137502   2.999   0.815   7.857  0.4283  0.2240 -1.4229
 8622SOL    HW237503   2.882   0.846   7.926  0.7377 -1.0678  0.0441
 8623SOL     OW37504   0.898   1.831   1.058  0.1843 -0.1773 -0.2418
 8623SOL    HW137505   0.924   1.923   1.054 -0.4837  0.2459  5.4120
 8623SOL    HW237506   0.985   1.790   1.053 -0.5096 -1.5877 -0.7726
 8624SOL     OW37507   1.083   1.403  11.466  0.1987 -0.3810 -0.0938
 8624SOL    HW137508   1.110   1.333  11.526 -1.7278  0.4507  1.7290
 8624SOL    HW237509   0.989   1.415  11.474 -0.2245 -3.6003 -0.5464
 8625SOL     OW37510   4.250   3.893  11.849  0.1067  0.1792  0.6432
 8625SOL    HW137511   4.286   3.824  11.794 -1.1563 -0.6734  0.8761
 8625SOL    HW237512   4.200   3.839  11.910  1.0885 -2.5055 -0.9560
 8626SOL     OW37513   2.135   1.159   4.246  0.2627 -0.4219  0.0770
 8626SOL    HW137514   2.048   1.195   4.263  0.2379  0.6407 -2.3886
 8626SOL    HW237515   2.204   1.221   4.268 -2.0311  1.5318  1.8087
 8627SOL     OW37516   1.852   2.755   0.636 -0.8803  0.4021  0.0562
 8627SOL    HW137517   1.849   2.711   0.551  2.1013  1.3643 -0.5449
 8627SOL    HW237518   1.817   2.685   0.691  1.9721 -1.1153 -0.0252
 8628SOL     OW37519   4.512   2.369   6.213 -0.0463 -0.2843 -0.1186
 8628SOL    HW137520   4.511   2.343   6.121  3.3647  0.7022 -0.4299
 8628SOL    HW237521   4.428   2.339   6.248  1.1365 -2.4134  0.9614
 8629SOL     OW37522   2.013   2.897   6.348 -0.2083  0.2018 -0.0685
 8629SOL    HW137523   1.990   2.804   6.349  2.0841 -0.3481  0.0837
 8629SOL    HW237524   1.927   2.941   6.347  0.0494  0.7069 -0.1992
 8630SOL     OW37525   3.710   2.134   9.172  0.0366  0.0289 -0.6430
 8630SOL    HW137526   3.618   2.160   9.169  0.2820  0.9187 -0.4403
 8630SOL    HW237527   3.688   2.042   9.158  2.3793 -0.1683 -3.0636
 8631SOL     OW37528   0.920   2.072   9.872  0.3930  0.2383 -1.0899
 8631SOL    HW137529   0.947   2.162   9.855 -0.9280  1.0765  1.1640
 8631SOL    HW237530   0.986   2.052   9.939  0.2604 -0.1889 -1.0905
 8632SOL     OW37531   3.358   1.598  16.827  0.1033  0.1974  0.5842
 8632SOL    HW137532   3.420   1.537  16.868  1.4571  1.4042  0.3354
 8632SOL    HW237533   3.290   1.539  16.794  1.9973 -1.5174 -0.2958
 8633SOL     OW37534   2.122   0.420   4.613 -0.6838 -0.2692 -0.3059
 8633SOL    HW137535   2.187   0.362   4.575 -0.4065  1.6598 -2.7605
 8633SOL    HW237536   2.173   0.494   4.645 -1.6335 -0.3358  1.3913
 8634SOL     OW37537   1.069   4.288   7.787 -0.4460 -0.5424  0.1444
 8634SOL    HW137538   1.099   4.350   7.721 -0.0783 -2.4963 -1.5481
 8634SOL    HW237539   0.977   4.315   7.797  0.0164  1.1036 -0.0890
 8635SOL     OW37540   2.355   3.646   9.286 -0.0017  1.1713  0.5666
 8635SOL    HW137541   2.330   3.561   9.322 -3.1249  1.1753 -1.5304
 8635SOL    HW237542   2.447   3.639   9.262 -0.0108  1.5346  0.4196
 8636SOL     OW37543   1.159   3.239  16.492  0.3907  0.2451 -0.2236
 8636SOL    HW137544   1.231   3.273  16.544 -0.8639  0.1243  1.6134
 8636SOL    HW237545   1.121   3.179  16.556 -1.0894  0.9060 -0.4879
 8637SOL     OW37546   4.150   4.455   8.718  0.5961  0.1625  0.0617
 8637SOL    HW137547   4.123   4.495   8.801 -0.9295  0.1046 -0.4072
 8637SOL    HW237548   4.065   4.452   8.676 -0.4323  0.7693  2.0943
 8638SOL     OW37549   4.534   4.396  14.608 -0.2494  0.0642 -0.5636
 8638SOL    HW137550   4.519   4.393  14.702  0.7770  2.3233 -0.3200
 8638SOL    HW237551   4.537   4.302  14.589 -2.1193  0.1346 -1.2292
 8639SOL     OW37552   2.183   3.247  15.658 -0.1131  0.0085  0.2935
 8639SOL    HW137553   2.236   3.252  15.579 -3.1160 -1.9203 -1.8635
 8639SOL    HW237554   2.105   3.197  15.633 -0.3556  0.5999 -0.1393
 8640SOL     OW37555   2.172   0.749   8.253 -0.7087  0.2316  0.1170
 8640SOL    HW137556   2.089   0.763   8.297 -0.2854 -0.5128  1.1458
 8640SOL    HW237557   2.149   0.779   8.165  0.0540 -1.6604 -0.7307
 8641SOL     OW37558   2.198   2.265   4.126  0.2151  0.2011 -0.6494
 8641SOL    HW137559   2.280   2.239   4.167 -0.0812  1.7921  0.8917
 8641SOL    HW237560   2.133   2.200   4.154 -0.2764  0.0278 -2.1619
 8642SOL     OW37561   3.161   4.440   3.749  0.1982  0.1880 -0.4113
 8642SOL    HW137562   3.204   4.460   3.666 -1.3305  3.1896 -0.4943
 8642SOL    HW237563   3.084   4.496   3.759 -2.0051 -2.7340 -1.2755
 8643SOL     OW37564   3.115   4.034   8.481 -0.0482 -0.3320  0.4654
 8643SOL    HW137565   3.077   4.015   8.567  1.6559 -0.5822  1.1532
 8643SOL    HW237566   3.076   3.965   8.428 -0.2177 -0.1253  0.3200
 8644SOL     OW37567   0.239   4.300  10.426 -0.3051 -0.3557  0.0004
 8644SOL    HW137568   0.191   4.333  10.501  0.9998 -2.5976  1.8104
 8644SOL    HW237569   0.319   4.271  10.470 -0.8920  0.0577  1.3311
 8645SOL     OW37570   2.482   1.768   5.573  0.1638  0.6929 -0.5951
 8645SOL    HW137571   2.408   1.825   5.593  0.4702  1.2233 -0.9732
 8645SOL    HW237572   2.460   1.720   5.493  1.9394 -0.0494 -0.6523
 8646SOL     OW37573   4.697   0.796   7.878 -0.1457  0.7975  0.2668
 8646SOL    HW137574   4.662   0.711   7.902  0.7112 -0.3468 -2.5974
 8646SOL    HW237575   4.651   0.854   7.938 -2.4130 -0.7435  0.0084
 8647SOL     OW37576   4.157   4.303   9.661 -0.3638 -0.5828  0.0672
 8647SOL    HW137577   4.224   4.274   9.599  1.8705  0.8686  1.7461
 8647SOL    HW237578   4.130   4.387   9.624  0.6302  0.1550  0.9969
 8648SOL     OW37579   2.904   2.569   6.288 -0.1019 -0.2616 -0.2027
 8648SOL    HW137580   2.830   2.512   6.311 -1.4316  1.0543 -1.1908
 8648SOL    HW237581   2.952   2.552   6.369  1.0197 -0.8813 -0.9954
 8649SOL     OW37582   0.815   0.099   6.337 -0.0033  0.2557  0.0895
 8649SOL    HW137583   0.786   0.023   6.387  0.4708 -0.3448 -0.5467
 8649SOL    HW237584   0.863   0.149   6.403  2.0459 -1.0533 -0.4016
 8650SOL     OW37585   1.299   1.990   6.034  0.2759 -0.0137 -0.6667
 8650SOL    HW137586   1.317   2.018   6.124  1.4041 -0.6765 -0.7010
 8650SOL    HW237587   1.221   1.935   6.040  1.2840 -1.0163  3.4686
 8651SOL     OW37588   0.207   3.417  17.456  0.3451  0.3015 -0.0477
 8651SOL    HW137589   0.191   3.405  17.549  0.7514  0.4224  0.0374
 8651SOL    HW237590   0.166   3.336  17.425 -1.0895  1.3685 -0.9514
 8652SOL     OW37591   3.902   1.932   7.635 -0.2752 -0.0268  0.2561
 8652SOL    HW137592   3.954   1.968   7.563 -0.7808 -1.0714 -0.6361
 8652SOL    HW237593   3.933   1.841   7.627  0.7297  0.2664  0.7968
 8653SOL     OW37594   2.584   2.986   4.469 -0.1052  0.2613  0.0278
 8653SOL    HW137595   2.558   2.953   4.383  0.9214  0.7348 -0.4515
 8653SOL    HW237596   2.497   3.008   4.503 -1.0109 -0.4407 -1.8133
 8654SOL     OW37597   3.272   4.305   4.712 -0.5319  0.3566  0.2804
 8654SOL    HW137598   3.321   4.332   4.635 -2.0600 -1.8973 -1.4753
 8654SOL    HW237599   3.334   4.248   4.759 -1.2586 -1.0734 -0.5061
 8655SOL     OW37600   2.034   0.361  10.666 -0.3488  0.5653  0.2020
 8655SOL    HW137601   2.056   0.277  10.626 -2.3010  0.6445 -1.0432
 8655SOL    HW237602   2.011   0.408  10.586  4.0674  2.6919  0.1606
 8656SOL     OW37603   0.299   0.773  11.848 -0.2236 -0.0373 -0.1335
 8656SOL    HW137604   0.286   0.844  11.785 -0.4936  0.2741  0.2721
 8656SOL    HW237605   0.392   0.753  11.840 -0.0950  0.6534 -0.3726
 8657SOL     OW37606   1.450   0.511   7.109 -0.3360  0.3549 -0.1956
 8657SOL    HW137607   1.481   0.535   7.197 -0.4498 -1.1179  0.2503
 8657SOL    HW237608   1.361   0.548   7.112  0.0182  0.7606  5.5561
 8658SOL     OW37609   3.965   3.036  10.783 -0.2664  0.5302 -0.2929
 8658SOL    HW137610   3.921   2.982  10.717  0.2738  2.9309 -2.5925
 8658SOL    HW237611   4.053   3.026  10.748  0.3868  0.0694  1.4929
 8659SOL     OW37612   4.083   1.404   7.202 -0.1565 -0.5793  0.4177
 8659SOL    HW137613   4.153   1.349   7.168 -0.6868 -0.6476 -0.5368
 8659SOL    HW237614   4.130   1.458   7.266  0.0667  0.0688 -0.2922
 8660SOL     OW37615   3.779   1.439   3.517 -0.3355  0.0410  0.5242
 8660SOL    HW137616   3.742   1.361   3.557  2.3327 -0.7688  1.4127
 8660SOL    HW237617   3.704   1.498   3.523 -0.3932  0.0612 -0.3632
 8661SOL     OW37618   1.809   0.495   4.178 -0.7158  0.4897  0.1546
 8661SOL    HW137619   1.826   0.493   4.272  5.0535 -0.3545 -0.8897
 8661SOL    HW237620   1.755   0.419   4.158 -0.6189  1.2373 -3.0319
 8662SOL     OW37621   0.452   0.562   5.024 -0.4842  0.2046  0.0852
 8662SOL    HW137622   0.412   0.591   4.942 -1.0757  0.5114  0.4896
 8662SOL    HW237623   0.539   0.548   4.985  0.1046  1.3080  1.0021
 8663SOL     OW37624   3.277   1.169   5.857 -0.9667 -0.1091  0.3050
 8663SOL    HW137625   3.267   1.237   5.925  0.7889 -0.1760  0.6208
 8663SOL    HW237626   3.365   1.182   5.822 -1.0674 -0.0221  0.0834
 8664SOL     OW37627   2.289   3.730  12.232  0.6719  0.1242 -0.4133
 8664SOL    HW137628   2.208   3.780  12.226  0.4599  0.0001  1.3231
 8664SOL    HW237629   2.358   3.792  12.208  0.9257 -0.6256 -1.6260
 8665SOL     OW37630   2.245   3.801   6.749  0.0139 -0.2112  0.4772
 8665SOL    HW137631   2.231   3.756   6.832  0.6930 -2.1885 -0.4744
 8665SOL    HW237632   2.245   3.894   6.770 -1.9230  0.3790 -2.2623
 8666SOL     OW37633   3.387   3.415  14.765 -0.1742 -0.4081 -0.2408
 8666SOL    HW137634   3.405   3.437  14.673  0.2777  1.5009  0.3069
 8666SOL    HW237635   3.465   3.446  14.809  0.3925 -1.5890 -0.4278
 8667SOL     OW37636   1.948   2.705   5.629 -0.3415 -0.1602  0.1990
 8667SOL    HW137637   1.897   2.778   5.664  1.1944  0.8535  0.3061
 8667SOL    HW237638   1.897   2.687   5.550  0.5365 -0.4479 -0.3016
 8668SOL     OW37639   3.057   0.497   0.100  0.2818 -0.1550  0.1335
 8668SOL    HW137640   3.108   0.474   0.022  1.4654  1.4386  0.4452
 8668SOL    HW237641   3.114   0.547   0.158 -0.3899  2.2005 -1.2604
 8669SOL     OW37642   3.650   2.855   2.822 -0.0061  0.1013  0.3726
 8669SOL    HW137643   3.738   2.868   2.858  0.3022 -0.3801 -0.2202
 8669SOL    HW237644   3.655   2.765   2.790 -0.8567 -0.1651  1.0033
 8670SOL     OW37645   2.130   1.029   9.658 -0.5942  0.4783 -0.2630
 8670SOL    HW137646   2.124   1.121   9.633 -0.5603  0.1750 -1.3712
 8670SOL    HW237647   2.046   1.017   9.703 -0.2307 -2.3822 -0.3033
 8671SOL     OW37648   0.125   2.573  14.624 -0.0497 -0.3454  0.0121
 8671SOL    HW137649   0.046   2.595  14.574 -0.6676  1.4381  1.7740
 8671SOL    HW237650   0.082   2.539  14.703 -2.6843  0.8006 -0.9314
 8672SOL     OW37651   2.970   0.930   2.874 -0.0051 -0.2662 -0.1273
 8672SOL    HW137652   2.973   1.011   2.925 -0.2432  0.3051 -1.0175
 8672SOL    HW237653   3.012   0.866   2.932  0.7286 -0.2913 -0.6926
 8673SOL     OW37654   1.810   4.197   8.311 -0.2691 -0.2238 -0.1667
 8673SOL    HW137655   1.792   4.255   8.237 -1.0890  2.0785  1.8381
 8673SOL    HW237656   1.804   4.254   8.388 -0.3090  0.6317 -0.8131
 8674SOL     OW37657   1.857   0.115   7.478  0.6777  0.2956 -0.0399
 8674SOL    HW137658   1.931   0.147   7.426  2.1231  0.4708  2.1439
 8674SOL    HW237659   1.864   0.020   7.466  0.4091  0.1193  1.2534
 8675SOL     OW37660   2.288   2.840  14.988 -0.9276 -0.4411 -0.1151
 8675SOL    HW137661   2.378   2.861  15.015 -1.1249 -0.5994  0.6514
 8675SOL    HW237662   2.253   2.794  15.064 -1.1265  1.7228  1.1040
 8676SOL     OW37663   2.652   0.547   1.178  0.0843  0.5109  0.2555
 8676SOL    HW137664   2.588   0.521   1.112 -1.4643 -0.2708  2.0302
 8676SOL    HW237665   2.722   0.490   1.146 -1.3404 -1.9613  1.4623
 8677SOL     OW37666   0.966   3.978   0.949  0.3666  0.2592 -0.4007
 8677SOL    HW137667   0.942   4.053   0.895  0.4807  1.8320  1.7096
 8677SOL    HW237668   0.881   3.970   0.993  0.4266 -1.0731 -0.5259
 8678SOL     OW37669   3.614   0.208   4.964  0.0897 -0.1207 -0.5517
 8678SOL    HW137670   3.684   0.224   4.901 -0.4943  0.9601 -0.9215
 8678SOL    HW237671   3.608   0.293   5.008  0.2617  0.6409 -1.9882
 8679SOL     OW37672   0.256   4.155   8.552  0.5173  0.0325 -0.1451
 8679SOL    HW137673   0.295   4.133   8.468 -0.0092  2.0628 -0.9051
 8679SOL    HW237674   0.319   4.098   8.596 -1.0022 -1.3175  0.3111
 8680SOL     OW37675   0.024   1.489   0.453  0.2287 -0.3217  0.3975
 8680SOL    HW137676   0.103   1.444   0.423  0.6156  1.1291 -0.7240
 8680SOL    HW237677   0.018   1.458   0.544  1.4871 -0.3861  0.4601
 8681SOL     OW37678   0.200   0.961  13.292 -0.5181 -0.5660  0.1984
 8681SOL    HW137679   0.211   1.056  13.297  0.0579 -0.6304  0.1820
 8681SOL    HW237680   0.281   0.932  13.333 -0.3433  0.7728  0.8077
 8682SOL     OW37681   1.922   4.679  13.887  0.0842 -0.5947 -0.4749
 8682SOL    HW137682   1.996   4.644  13.837  1.1628 -0.0073  0.7129
 8682SOL    HW237683   1.965   4.713  13.966  0.8180 -2.3370 -0.1232
 8683SOL     OW37684   3.671   0.010   1.326  0.0792 -0.1516  0.0368
 8683SOL    HW137685   3.618   0.055   1.260  1.6640 -0.2631 -1.2800
 8683SOL    HW237686   3.685   0.074   1.396 -1.4827  0.3701 -0.1260
 8684SOL     OW37687   3.645   1.718   7.973 -0.1674 -0.1174  0.8516
 8684SOL    HW137688   3.560   1.730   7.931  0.1597 -1.1889 -0.1164
 8684SOL    HW237689   3.625   1.637   8.020 -3.2313  1.1584  1.7519
 8685SOL     OW37690   0.325   1.640   5.847 -0.2941 -0.2627 -0.3349
 8685SOL    HW137691   0.291   1.568   5.794  0.4025 -0.8547  0.0233
 8685SOL    HW237692   0.305   1.716   5.792  0.6292 -0.9334 -1.5987
 8686SOL     OW37693   0.227   3.606   7.724  0.0137 -0.6406 -0.1208
 8686SOL    HW137694   0.308   3.576   7.765 -1.3839 -2.0970  1.5645
 8686SOL    HW237695   0.241   3.696   7.696  0.9850 -0.2374  1.6822
 8687SOL     OW37696   2.708   0.526  12.413 -0.0786 -0.3268 -0.3019
 8687SOL    HW137697   2.781   0.533  12.476  0.1529  1.3142 -0.7481
 8687SOL    HW237698   2.750   0.470  12.348  0.8538  0.1504 -0.1197
 8688SOL     OW37699   3.925   4.241  14.932  0.5165 -0.2086 -0.2799
 8688SOL    HW137700   3.900   4.333  14.931  0.2216 -0.2879 -0.3984
 8688SOL    HW237701   3.962   4.235  14.843 -2.2873 -1.1147 -1.3789
 8689SOL     OW37702   2.366   0.418   2.223  0.0710  0.6378 -0.4234
 8689SOL    HW137703   2.353   0.337   2.174 -0.2840  0.1554  0.4904
 8689SOL    HW237704   2.281   0.430   2.265  0.4150  1.1934  0.1159
 8690SOL     OW37705   0.633   4.737   5.013  0.6748  0.7028 -0.1505
 8690SOL    HW137706   0.551   4.709   5.054  1.4952  0.4863  1.3524
 8690SOL    HW237707   0.616   4.724   4.920 -0.2514 -0.2969  0.1522
 8691SOL     OW37708   4.058   0.484  12.101  0.1444  0.4380  0.0911
 8691SOL    HW137709   3.969   0.449  12.092  0.0751  0.1589  1.8599
 8691SOL    HW237710   4.112   0.415  12.062  0.7780 -0.1044  1.9485
 8692SOL     OW37711   2.048   3.971   9.293  0.0561 -0.3762 -0.2739
 8692SOL    HW137712   2.136   3.953   9.260 -0.5744  0.7046 -2.5198
 8692SOL    HW237713   2.034   4.065   9.280  0.6734 -0.3310 -0.6359
 8693SOL     OW37714   4.353   3.013   0.404  0.6487 -0.3862 -0.6874
 8693SOL    HW137715   4.430   2.960   0.381  1.6128 -0.0621  1.7767
 8693SOL    HW237716   4.357   3.085   0.342 -0.4385 -0.5051 -0.8922
 8694SOL     OW37717   0.407   1.131   5.206  0.5671 -0.0600 -0.0625
 8694SOL    HW137718   0.374   1.043   5.184 -1.2495  0.6764 -0.3090
 8694SOL    HW237719   0.397   1.177   5.123 -1.3281  0.4167  0.4178
 8695SOL     OW37720   3.650   4.072   0.659 -0.1546 -0.5450  0.2641
 8695SOL    HW137721   3.644   3.985   0.700 -0.3302  0.3812  2.1794
 8695SOL    HW237722   3.586   4.067   0.587 -1.2322 -0.7640  1.2400
 8696SOL     OW37723   0.210   1.737  16.953  0.1948 -0.0037 -1.0799
 8696SOL    HW137724   0.124   1.703  16.927  0.1273 -1.1199  0.5868
 8696SOL    HW237725   0.258   1.658  16.977 -2.0820 -0.4449  2.0100
 8697SOL     OW37726   0.366   0.728   8.068 -0.3497 -0.2289  0.2170
 8697SOL    HW137727   0.274   0.701   8.066 -0.0708 -1.1509 -0.0125
 8697SOL    HW237728   0.381   0.771   8.153  1.7047  1.2928 -0.9318
 8698SOL     OW37729   4.570   4.300  13.425  0.0002 -0.0905  0.5430
 8698SOL    HW137730   4.636   4.319  13.358  0.3605 -0.7259  0.7212
 8698SOL    HW237731   4.591   4.209  13.446  1.0256 -0.3948 -1.7613
 8699SOL     OW37732   3.649   2.778   2.407 -0.3222 -0.5758 -0.2332
 8699SOL    HW137733   3.678   2.855   2.358  1.3795 -1.1350 -0.1065
 8699SOL    HW237734   3.731   2.755   2.451  0.5693  0.5380 -1.3167
 8700SOL     OW37735   1.465   3.408   4.359 -0.1865 -0.1514  0.1955
 8700SOL    HW137736   1.447   3.331   4.305  1.2463 -0.0114 -0.4944
 8700SOL    HW237737   1.556   3.400   4.388  0.1488  3.2751  0.1299
 8701SOL     OW37738   1.733   2.881   7.641  0.0826 -0.0579 -0.2251
 8701SOL    HW137739   1.677   2.936   7.586 -0.6767 -0.0814  0.5290
 8701SOL    HW237740   1.756   2.948   7.706  1.3169  0.1972 -0.9253
 8702SOL     OW37741   1.801   3.285   5.867  0.0197 -0.4488  0.2398
 8702SOL    HW137742   1.735   3.350   5.888  0.6573 -0.2108  1.5328
 8702SOL    HW237743   1.780   3.217   5.931  1.8718 -0.2933  0.9994
 8703SOL     OW37744   2.383   0.374   7.888 -0.6795 -0.1797  0.3845
 8703SOL    HW137745   2.471   0.336   7.885 -0.0012  1.3547  0.4441
 8703SOL    HW237746   2.365   0.356   7.980 -0.7764 -1.2669  0.1422
 8704SOL     OW37747   3.886   2.460  14.595  0.9374  0.2012  0.1255
 8704SOL    HW137748   3.931   2.434  14.514 -1.4678 -1.3017 -0.7280
 8704SOL    HW237749   3.835   2.383  14.620  1.9703 -0.7922 -0.8196
 8705SOL     OW37750   2.131   2.483   4.002  0.5604 -0.1037  0.0017
 8705SOL    HW137751   2.149   2.394   4.034  1.5173 -0.2635 -1.0177
 8705SOL    HW237752   2.111   2.528   4.084 -0.8773 -0.6894 -0.0119
 8706SOL     OW37753   1.121   0.850   6.968 -0.0200 -0.6756  0.1384
 8706SOL    HW137754   1.211   0.858   7.000 -0.7600  0.3565  1.9946
 8706SOL    HW237755   1.081   0.924   7.014 -2.0326 -1.1803 -0.7899
 8707SOL     OW37756   3.299   2.744   9.256 -0.3120 -0.7444 -0.4573
 8707SOL    HW137757   3.283   2.725   9.163  1.5040 -0.3862 -0.8553
 8707SOL    HW237758   3.231   2.693   9.299  0.1091 -1.1369 -0.2552
 8708SOL     OW37759   1.208   2.413  14.039 -0.0286 -0.5735  0.6396
 8708SOL    HW137760   1.161   2.486  14.000  0.0438 -0.9195 -0.0894
 8708SOL    HW237761   1.298   2.443  14.025 -1.1647  2.4164 -0.3269
 8709SOL     OW37762   1.960   1.904  16.333  0.0314  0.1564  0.3824
 8709SOL    HW137763   1.951   1.814  16.365  1.0689 -0.1184 -0.1325
 8709SOL    HW237764   1.875   1.908  16.289  1.6632 -0.7999 -2.7962
 8710SOL     OW37765   4.719   2.116   1.538 -0.0153  0.0901 -0.2726
 8710SOL    HW137766   4.650   2.084   1.596  0.7822  0.0339  0.6432
 8710SOL    HW237767   0.047   2.107   1.607 -0.4601 -1.0128 -0.0033
 8711SOL     OW37768   1.433   1.690   6.118  0.0688  0.0736  0.5313
 8711SOL    HW137769   1.420   1.707   6.211 -0.6189  1.5244  0.1756
 8711SOL    HW237770   1.347   1.657   6.093  0.5355 -1.0129  0.3695
 8712SOL     OW37771   1.938   1.899   9.471 -0.9020  0.2235  0.2415
 8712SOL    HW137772   1.965   1.971   9.529  2.0622  0.5143 -1.4825
 8712SOL    HW237773   1.963   1.823   9.523 -0.2138 -0.7111 -1.4671
 8713SOL     OW37774   1.283   3.555   9.422  0.2655 -0.6507  0.0606
 8713SOL    HW137775   1.252   3.525   9.508  0.6972 -1.8801 -0.2051
 8713SOL    HW237776   1.314   3.644   9.437  0.5752 -0.8259  0.4577
 8714SOL     OW37777   2.572   3.430  17.123 -0.4866  0.7738  0.0601
 8714SOL    HW137778   2.559   3.395  17.211 -0.5802 -1.1877 -0.7440
 8714SOL    HW237779   2.488   3.471  17.103 -0.5029  1.2572  1.0874
 8715SOL     OW37780   3.237   2.137   7.423 -0.7872 -0.2250  0.2734
 8715SOL    HW137781   3.258   2.226   7.398  2.1462 -0.9217  0.3174
 8715SOL    HW237782   3.267   2.085   7.348  1.6824  0.9931  0.4411
 8716SOL     OW37783   3.058   4.575   4.063  0.2329 -0.3803  0.1080
 8716SOL    HW137784   3.086   4.632   4.134 -2.2219 -0.2753  0.9882
 8716SOL    HW237785   3.040   4.497   4.116  1.2366 -0.2543  0.6238
 8717SOL     OW37786   0.746   3.132   6.066 -0.0719 -0.5102 -0.3104
 8717SOL    HW137787   0.786   3.202   6.015  0.2883  0.1759  0.9121
 8717SOL    HW237788   0.794   3.128   6.149 -0.3140  0.7163 -0.1215
 8718SOL     OW37789   3.176   2.088   4.396  0.0134  0.5436  0.1811
 8718SOL    HW137790   3.190   2.173   4.355  0.7652  0.1149 -0.4451
 8718SOL    HW237791   3.263   2.050   4.383  0.3725  1.4262  0.0221
 8719SOL     OW37792   2.808   1.200   3.506  0.2486 -0.4756  0.6816
 8719SOL    HW137793   2.723   1.229   3.538 -0.3862 -1.8967  0.2737
 8719SOL    HW237794   2.857   1.252   3.569 -2.4339  1.4472  1.1737
 8720SOL     OW37795   3.223   0.549  11.422 -0.0085  0.3883  0.2873
 8720SOL    HW137796   3.307   0.597  11.424 -0.7084  1.6341 -0.0140
 8720SOL    HW237797   3.256   0.471  11.465 -0.1511 -0.7130 -1.6225
 8721SOL     OW37798   0.786   0.372   0.110  0.0269  0.7114 -0.5436
 8721SOL    HW137799   0.865   0.329   0.142 -1.8558 -2.2334  0.1217
 8721SOL    HW237800   0.821   0.389   0.023  1.7468 -2.2174 -0.4070
 8722SOL     OW37801   0.724   0.692   6.316  0.2332 -0.3844 -0.0421
 8722SOL    HW137802   0.776   0.674   6.237 -1.5825  0.0025 -1.3324
 8722SOL    HW237803   0.771   0.752   6.373 -2.7620  3.4062 -1.5226
 8723SOL     OW37804   2.230   1.692   6.308 -0.1125  0.0447 -0.4424
 8723SOL    HW137805   2.212   1.783   6.285 -0.1528  0.1054 -0.1673
 8723SOL    HW237806   2.146   1.647   6.299  0.1375 -0.6751  0.7680
 8724SOL     OW37807   3.055   0.343   7.302 -0.1064 -0.0633 -0.1001
 8724SOL    HW137808   3.070   0.324   7.395  0.1303  1.7224  0.2351
 8724SOL    HW237809   3.086   0.433   7.294  0.8450 -0.3802  0.0164
 8725SOL     OW37810   0.914   2.556  13.163 -0.5333 -0.4511  0.0085
 8725SOL    HW137811   0.900   2.490  13.095 -0.1612 -0.5375  0.0176
 8725SOL    HW237812   0.944   2.628  13.109 -0.4766  0.2413  0.9699
 8726SOL     OW37813   1.850   2.625   8.835 -0.1345 -0.5850 -0.0351
 8726SOL    HW137814   1.758   2.649   8.827 -0.4699 -2.0279 -0.5397
 8726SOL    HW237815   1.872   2.686   8.906  2.2779 -1.2658 -0.1998
 8727SOL     OW37816   0.428   2.724   4.095  0.7669 -0.6461  0.4917
 8727SOL    HW137817   0.515   2.764   4.094 -0.1119  1.2396 -0.1184
 8727SOL    HW237818   0.423   2.713   4.190  0.0053  0.7394  0.6099
 8728SOL     OW37819   0.888   4.552   4.912  0.3641  0.2733 -0.1386
 8728SOL    HW137820   0.971   4.525   4.952  0.1606  0.4577  0.3952
 8728SOL    HW237821   0.870   4.627   4.968 -2.3328 -0.0373 -0.5893
 8729SOL     OW37822   1.083   1.957   8.657 -0.1085 -0.5465 -0.0418
 8729SOL    HW137823   1.171   1.924   8.636  0.2523 -0.8076  1.8812
 8729SOL    HW237824   1.104   2.050   8.643 -0.3467 -0.2625  1.4769
 8730SOL     OW37825   3.052   2.162  15.571  0.7099  0.0827 -0.0258
 8730SOL    HW137826   3.019   2.207  15.648  2.7691  0.4675  0.6318
 8730SOL    HW237827   3.145   2.182  15.561  0.6393  0.3932 -0.0554
 8731SOL     OW37828   4.134   2.171   3.478  0.3693 -0.5009  0.4279
 8731SOL    HW137829   4.130   2.076   3.478 -0.1746 -0.4790 -3.0017
 8731SOL    HW237830   4.100   2.197   3.564  0.9885 -0.6632  0.7253
 8732SOL     OW37831   1.803   1.462   0.981  0.0635  0.1093 -0.0276
 8732SOL    HW137832   1.838   1.376   0.958  0.9840  0.7030 -0.8342
 8732SOL    HW237833   1.802   1.508   0.897 -1.7763  1.6988  0.8593
 8733SOL     OW37834   1.819   2.422   3.820 -0.4626 -0.2764 -0.3156
 8733SOL    HW137835   1.890   2.449   3.761  1.9626  0.4607  2.9551
 8733SOL    HW237836   1.775   2.497   3.859  2.0509  1.3706 -0.6070
 8734SOL     OW37837   4.498   1.609   2.745 -0.1383 -0.3276  0.2951
 8734SOL    HW137838   4.525   1.683   2.798 -2.2967  0.3391  0.4572
 8734SOL    HW237839   4.402   1.606   2.750 -0.0103 -1.2202  1.9639
 8735SOL     OW37840   0.169   4.615   0.004  0.8564  0.5626  0.0678
 8735SOL    HW137841   0.225   4.606   0.080  1.6493 -1.6323 -0.7769
 8735SOL    HW237842   0.174   4.530  17.709  0.5656 -0.0190  1.1743
 8736SOL     OW37843   0.411   1.826   6.466 -0.0964 -0.1002 -0.2227
 8736SOL    HW137844   0.452   1.799   6.548 -0.2758  1.2310  0.3039
 8736SOL    HW237845   0.347   1.756   6.451  0.0548 -0.1718 -0.5497
 8737SOL     OW37846   3.280   3.741  15.872 -0.9274 -0.3082  0.0563
 8737SOL    HW137847   3.243   3.829  15.873  1.0109  0.5012 -0.6527
 8737SOL    HW237848   3.263   3.715  15.962  0.9802 -2.4431 -0.2118
 8738SOL     OW37849   1.461   4.686   9.381  0.3368  0.0465 -0.0289
 8738SOL    HW137850   1.520   0.019   9.406  1.6677 -1.2157  0.4148
 8738SOL    HW237851   1.494   4.655   9.297  1.5289 -1.6750  1.0583
 8739SOL     OW37852   0.829   4.159   1.228 -0.0112  0.3344 -0.3668
 8739SOL    HW137853   0.777   4.093   1.182  0.0312 -1.0751  1.5908
 8739SOL    HW237854   0.797   4.139   1.316 -1.4865 -1.1561 -1.2484
 8740SOL     OW37855   3.473   4.098   3.220  0.0182  0.4220 -0.0366
 8740SOL    HW137856   3.392   4.133   3.184  0.6759  2.5519  0.5320
 8740SOL    HW237857   3.533   4.173   3.224 -0.0638  0.4596  0.5626
 8741SOL     OW37858   3.409   0.985  10.096 -0.6143 -0.2375  0.0160
 8741SOL    HW137859   3.358   0.990  10.016  0.0224  1.4127 -0.2894
 8741SOL    HW237860   3.371   1.047  10.158  0.8037  0.5976  0.0572
 8742SOL     OW37861   1.941   0.753  13.770  0.1525  0.0509  0.1081
 8742SOL    HW137862   1.858   0.797  13.747  0.2402 -0.0196 -0.3485
 8742SOL    HW237863   1.994   0.810  13.714 -0.2044 -0.3707 -0.6721
 8743SOL     OW37864   4.194   0.316  11.955 -0.0358  0.0664 -0.0554
 8743SOL    HW137865   4.225   0.253  11.890 -0.0190  1.8683 -1.7726
 8743SOL    HW237866   4.265   0.379  11.967  1.6648 -2.2855  2.2190
 8744SOL     OW37867   3.982   4.291   5.499 -0.3344 -0.2864  0.2065
 8744SOL    HW137868   3.964   4.276   5.591  1.9972  2.6978  1.1489
 8744SOL    HW237869   4.023   4.378   5.495  1.4595 -1.0653  1.6616
 8745SOL     OW37870   1.977   3.320   9.781 -0.1154  0.2773  0.0359
 8745SOL    HW137871   2.052   3.278   9.737  0.9626  1.1663  1.0275
 8745SOL    HW237872   1.994   3.296   9.872  0.7119 -2.2868 -0.8003
 8746SOL     OW37873   3.138   4.194  16.825  0.4581  0.3441 -0.8679
 8746SOL    HW137874   3.105   4.236  16.747 -1.4924 -1.8843 -1.2453
 8746SOL    HW237875   3.164   4.116  16.776 -1.2458  1.4126 -3.4564
 8747SOL     OW37876   0.456   0.130   6.556 -0.0492  0.0537 -0.0287
 8747SOL    HW137877   0.524   0.076   6.517 -1.5785 -2.2556  0.4672
 8747SOL    HW237878   0.446   0.203   6.495  1.0950 -0.5580 -0.9299
 8748SOL     OW37879   4.531   0.501  10.419  0.2671  0.2468  0.2652
 8748SOL    HW137880   4.504   0.592  10.417 -1.3613 -0.3079 -2.7164
 8748SOL    HW237881   4.458   0.452  10.456  2.3496 -0.2814  3.7052
 8749SOL     OW37882   2.902   4.214   5.525  0.2973 -0.3533  0.4098
 8749SOL    HW137883   2.940   4.274   5.590 -1.5158  1.4775 -0.2172
 8749SOL    HW237884   2.961   4.236   5.453  0.1634 -0.3733  0.2931
 8750SOL     OW37885   3.594   0.553   1.476 -0.4472 -0.3877  0.1478
 8750SOL    HW137886   3.546   0.612   1.418 -0.7984  1.1648  2.0174
 8750SOL    HW237887   3.614   0.618   1.544 -1.1476 -0.3279  0.3049
 8751SOL     OW37888   4.704   4.095   7.571 -0.6878  0.4742  0.0200
 8751SOL    HW137889   4.681   4.002   7.565 -2.1593  0.7720  1.0344
 8751SOL    HW237890   0.060   4.094   7.590 -0.7350  0.2063  0.2459
 8752SOL     OW37891   4.147   4.367   4.366  0.0494 -0.0633  0.2327
 8752SOL    HW137892   4.172   4.457   4.388  2.4157 -0.5606 -0.4424
 8752SOL    HW237893   4.065   4.359   4.414  0.7920 -1.0743  1.3177
 8753SOL     OW37894   0.027   3.007  16.638 -0.0482  0.8562 -0.2133
 8753SOL    HW137895   0.082   2.952  16.582  0.1887 -1.3529  2.1713
 8753SOL    HW237896   0.018   2.962  16.722  2.0327  0.6338 -0.1126
 8754SOL     OW37897   0.422   2.999   6.712 -0.6236 -0.4055  0.5307
 8754SOL    HW137898   0.390   2.921   6.757  0.9603 -0.7723  1.0538
 8754SOL    HW237899   0.396   2.984   6.621  0.1441 -2.1392  0.5991
 8755SOL     OW37900   4.547   2.577  14.264  0.0662 -0.1602 -0.5932
 8755SOL    HW137901   4.592   2.597  14.181  0.0557 -1.0649 -0.8201
 8755SOL    HW237902   4.469   2.626  14.239 -0.4337  0.0102  1.3407
 8756SOL     OW37903   1.388   2.715  17.228 -0.5487 -0.2605  0.7289
 8756SOL    HW137904   1.366   2.809  17.227  0.3046 -0.0523  1.2306
 8756SOL    HW237905   1.308   2.666  17.210 -0.2830 -0.9232  1.3789
 8757SOL     OW37906   1.381   1.778   7.144 -0.1215 -0.9099 -0.3280
 8757SOL    HW137907   1.401   1.851   7.203  0.8113 -2.1643  0.8959
 8757SOL    HW237908   1.448   1.774   7.075  0.4673  1.8579  0.0671
 8758SOL     OW37909   2.376   2.569   1.550  0.4496 -0.3569  0.2692
 8758SOL    HW137910   2.371   2.506   1.621 -3.2213 -1.5686 -1.0741
 8758SOL    HW237911   2.364   2.649   1.602  0.9552  0.2266 -0.4971
 8759SOL     OW37912   0.035   4.252   6.694 -0.1175 -0.9024  0.0743
 8759SOL    HW137913   4.719   4.261   6.773 -0.7748  0.5166 -0.5243
 8759SOL    HW237914   0.103   4.197   6.733 -0.1405  0.2499  1.7465
 8760SOL     OW37915   4.470   2.195   3.779  0.8297 -0.6705  0.3438
 8760SOL    HW137916   4.450   2.219   3.688  0.7962 -0.3044  0.4465
 8760SOL    HW237917   4.409   2.255   3.821  0.2051 -1.5985  0.7463
 8761SOL     OW37918   0.282   2.226   3.624 -0.0579 -0.1378  0.1375
 8761SOL    HW137919   0.260   2.305   3.575 -1.5899  1.0900  2.7865
 8761SOL    HW237920   0.202   2.206   3.673  0.6931 -1.0252  0.9917
 8762SOL     OW37921   3.793   3.225   3.466  0.3644  0.1953 -0.8143
 8762SOL    HW137922   3.761   3.315   3.465 -0.8851 -0.2323 -0.1940
 8762SOL    HW237923   3.722   3.194   3.409 -0.4696  1.5577 -0.5191
 8763SOL     OW37924   4.220   3.444   4.505  0.3191  0.1888 -0.1316
 8763SOL    HW137925   4.286   3.376   4.493  0.0514 -0.6126  2.9861
 8763SOL    HW237926   4.235   3.485   4.590 -0.1536 -0.1402  0.1159
 8764SOL     OW37927   0.779   2.741  13.335  0.2860  0.0430 -0.9839
 8764SOL    HW137928   0.749   2.753  13.245  1.2324 -1.0040 -1.4567
 8764SOL    HW237929   0.839   2.667  13.321  0.6665  0.4782 -1.6183
 8765SOL     OW37930   4.614   0.741   4.249 -0.0266  0.2579  0.3280
 8765SOL    HW137931   4.680   0.743   4.318 -0.7464 -1.8644  1.0771
 8765SOL    HW237932   4.552   0.812   4.266  1.1668  1.3641  0.0817
 8766SOL     OW37933   4.459   3.483   4.265  0.3302 -1.1030 -0.0049
 8766SOL    HW137934   4.396   3.533   4.214  1.1783  2.0632  2.0480
 8766SOL    HW237935   4.522   3.548   4.297  0.2389 -0.3164 -1.4188
 8767SOL     OW37936   3.314   1.915   1.833  0.0295  0.2828  0.1575
 8767SOL    HW137937   3.293   1.973   1.906 -0.8678  0.2676 -0.0880
 8767SOL    HW237938   3.314   1.976   1.759  1.8223 -3.2296 -2.7267
 8768SOL     OW37939   3.625   2.513   9.760  0.1307  0.0959  0.2319
 8768SOL    HW137940   3.606   2.603   9.733 -0.9540 -0.2320 -0.0879
 8768SOL    HW237941   3.710   2.499   9.717 -0.9413  1.4998 -2.3805
 8769SOL     OW37942   0.508   0.923   6.648  0.1397  0.0518 -0.0856
 8769SOL    HW137943   0.439   0.939   6.585  0.0602 -1.6017 -0.4048
 8769SOL    HW237944   0.537   0.834   6.627  0.0519  0.0241 -0.0864
 8770SOL     OW37945   4.284   0.998  10.994  0.3845 -0.1465  0.1475
 8770SOL    HW137946   4.271   0.985  10.900 -2.1157 -2.4094  0.7973
 8770SOL    HW237947   4.215   0.941  11.028 -0.9864  1.3850 -0.1056
 8771SOL     OW37948   0.090   1.797  10.570  0.2580 -0.7218  0.1395
 8771SOL    HW137949   0.023   1.864  10.578  2.3145  1.4891 -1.1216
 8771SOL    HW237950   0.032   1.728  10.536  0.6003 -1.0809  0.2837
 8772SOL     OW37951   0.347   4.722   7.524 -0.6221  0.5398 -0.2537
 8772SOL    HW137952   0.364   4.724   7.618 -1.1330  0.4483 -0.1598
 8772SOL    HW237953   0.278   4.656   7.528 -1.4727  1.3897 -0.6672
 8773SOL     OW37954   2.074   3.456   5.405  0.4692  0.5229  0.1472
 8773SOL    HW137955   2.043   3.493   5.322 -0.4001 -2.2521 -0.7708
 8773SOL    HW237956   2.033   3.514   5.469 -2.5577 -0.8330 -0.5474
 8774SOL     OW37957   4.027   3.582  12.043 -0.8321  0.3369 -0.0054
 8774SOL    HW137958   4.118   3.610  12.031 -1.4163  1.5543 -1.6389
 8774SOL    HW237959   3.990   3.613  11.960 -1.3368 -2.2554 -0.7600
 8775SOL     OW37960   0.708   1.790   8.389  0.6373  0.0267 -0.1124
 8775SOL    HW137961   0.628   1.762   8.433 -0.0715 -0.7564 -1.9004
 8775SOL    HW237962   0.675   1.861   8.335 -1.0116  0.7123  1.7916
 8776SOL     OW37963   3.952   1.774   9.024 -0.0249 -0.1450  0.1441
 8776SOL    HW137964   3.974   1.717   9.098 -2.9925 -1.3681  0.0939
 8776SOL    HW237965   3.976   1.857   9.065  0.1221 -0.1766  0.1194
 8777SOL     OW37966   0.574   1.739   6.649 -0.2082 -0.1221 -0.0655
 8777SOL    HW137967   0.571   1.646   6.671 -1.0186 -0.3972 -1.3546
 8777SOL    HW237968   0.667   1.749   6.628 -0.0476 -0.5601  0.4406
 8778SOL     OW37969   1.784   4.495   0.516 -0.5831 -0.6107 -0.0110
 8778SOL    HW137970   1.837   4.443   0.455  0.3086 -0.0084  0.2574
 8778SOL    HW237971   1.794   4.581   0.475 -0.8722 -0.0115  1.1729
 8779SOL     OW37972   4.492   0.196   3.766  0.0883  0.6432 -0.0510
 8779SOL    HW137973   4.412   0.247   3.751 -0.4887 -1.0080 -2.5430
 8779SOL    HW237974   4.451   0.121   3.810  2.1303 -1.3119 -1.4892
 8780SOL     OW37975   1.100   0.827   3.751  0.0239  0.6859  0.3896
 8780SOL    HW137976   1.157   0.829   3.828 -1.1283  1.9540  1.2068
 8780SOL    HW237977   1.079   0.919   3.735 -0.0304 -0.0373 -3.5801
 8781SOL     OW37978   3.985   3.059   4.621 -0.0156  0.4929 -0.1348
 8781SOL    HW137979   4.039   3.049   4.542 -0.9655 -1.7207 -0.5278
 8781SOL    HW237980   4.037   3.125   4.667 -0.7423  0.7318  0.3343
 8782SOL     OW37981   1.452   1.588   9.156 -0.1406  0.9141 -0.1692
 8782SOL    HW137982   1.526   1.561   9.211  0.8325  0.9345 -1.4633
 8782SOL    HW237983   1.493   1.655   9.101  0.2159  2.0231  1.4437
 8783SOL     OW37984   4.243   3.584   5.237 -0.4319 -0.4253 -0.8124
 8783SOL    HW137985   4.234   3.493   5.265 -1.4711 -0.1797 -0.3663
 8783SOL    HW237986   4.162   3.622   5.269  0.9119  2.2369 -0.6358
 8784SOL     OW37987   0.677   2.515   3.227 -1.0058 -0.4347 -0.2028
 8784SOL    HW137988   0.748   2.519   3.290 -0.1546  0.1744 -1.2050
 8784SOL    HW237989   0.712   2.456   3.160 -1.6754 -0.5083 -0.4878
 8785SOL     OW37990   0.202   3.625   5.075 -0.1386 -0.8577 -0.3296
 8785SOL    HW137991   0.161   3.627   5.161 -1.1692 -1.2233 -0.8133
 8785SOL    HW237992   0.215   3.530   5.072  3.3994 -0.4339  1.1930
 8786SOL     OW37993   2.589   1.117   2.081  0.1737  0.0706 -0.0489
 8786SOL    HW137994   2.628   1.203   2.097  0.1419 -0.0031  0.4100
 8786SOL    HW237995   2.576   1.116   1.986  1.5658  1.6193 -0.2734
 8787SOL     OW37996   1.792   2.081   7.878 -0.4255  0.2061 -0.1540
 8787SOL    HW137997   1.796   2.126   7.793 -2.2121 -0.9397 -0.8364
 8787SOL    HW237998   1.737   2.136   7.933 -2.4468  1.2262 -3.2204
 8788SOL     OW37999   2.616   1.161   1.176  0.6893  0.7900 -0.0912
 8788SOL    HW138000   2.603   1.235   1.117  3.4344  0.0533 -1.5816
 8788SOL    HW238001   2.609   1.199   1.264 -2.0433 -0.6532  0.3222
 8789SOL     OW38002   4.712   1.123   5.224 -0.0397  0.3466 -0.1985
 8789SOL    HW138003   0.043   1.157   5.281 -0.9605  0.2423  0.9828
 8789SOL    HW238004   4.672   1.208   5.204  0.0464  0.8979  1.9474
 8790SOL     OW38005   4.418   4.136   6.651 -1.0185 -0.3503  0.0738
 8790SOL    HW138006   4.435   4.167   6.740  1.5353 -1.5517  0.0111
 8790SOL    HW238007   4.340   4.086   6.676  0.7311 -3.1135 -0.0174
 8791SOL     OW38008   0.604   3.252  16.901 -0.3413 -0.1796  0.4629
 8791SOL    HW138009   0.607   3.255  16.805  1.9217  0.6682  0.5520
 8791SOL    HW238010   0.547   3.325  16.924 -0.2738  0.0536 -0.1007
 8792SOL     OW38011   1.193   4.126  13.398 -0.0870  0.1242 -0.8346
 8792SOL    HW138012   1.182   4.220  13.413  0.2762 -0.0001  0.2188
 8792SOL    HW238013   1.215   4.103  13.488 -5.7894  1.7879  0.9874
 8793SOL     OW38014   4.172   2.850   5.793 -0.3089 -0.1566  0.7004
 8793SOL    HW138015   4.080   2.836   5.816 -0.1170 -0.6648  1.1473
 8793SOL    HW238016   4.162   2.912   5.720 -0.5332 -0.3067  0.6044
 8794SOL     OW38017   2.851   3.775   8.195 -0.3004  0.5524 -0.2551
 8794SOL    HW138018   2.818   3.830   8.266 -0.6382 -0.5308  0.4229
 8794SOL    HW238019   2.941   3.806   8.194 -0.8564  2.1483 -0.1021
 8795SOL     OW38020   2.386   4.415   2.894 -0.3843  0.3947 -0.2955
 8795SOL    HW138021   2.391   4.334   2.843  2.7319  0.2303  0.2682
 8795SOL    HW238022   2.324   4.470   2.846 -1.0033 -1.0655 -1.1638
 8796SOL     OW38023   0.593   3.969   2.918 -0.6627 -0.6036  0.0365
 8796SOL    HW138024   0.612   3.887   2.873  0.5856 -0.1028 -0.3643
 8796SOL    HW238025   0.658   3.962   2.988 -0.0534  0.8152 -0.3857
 8797SOL     OW38026   2.601   4.019   9.251 -0.1506 -0.1260 -0.2142
 8797SOL    HW138027   2.675   4.049   9.197  0.1979  1.4673  1.1252
 8797SOL    HW238028   2.529   4.078   9.228  0.3811  0.5304 -0.2089
 8798SOL     OW38029   2.057   3.446   0.737 -0.2082 -0.3619 -0.2685
 8798SOL    HW138030   2.033   3.392   0.812 -0.6437  0.4682  0.1927
 8798SOL    HW238031   1.991   3.515   0.744  0.8653  0.6052  0.2850
 8799SOL     OW38032   1.739   1.829   4.397  0.5318  0.3235  0.1429
 8799SOL    HW138033   1.776   1.801   4.480 -1.8639 -0.6726  0.8542
 8799SOL    HW238034   1.789   1.910   4.384  1.2323 -0.4100 -1.7581
 8800SOL     OW38035   3.633   2.108   5.053 -0.1141  0.1493 -0.1980
 8800SOL    HW138036   3.651   2.199   5.028 -0.2659 -0.6022 -2.9922
 8800SOL    HW238037   3.583   2.123   5.133 -2.0693 -1.0049 -1.2207
 8801SOL     OW38038   3.160   3.267  17.603 -0.2446 -0.2505  0.4404
 8801SOL    HW138039   3.080   3.215  17.610 -0.1558 -0.4325  0.0888
 8801SOL    HW238040   3.120   3.344  17.563 -0.1966  0.2298  1.3128
 8802SOL     OW38041   1.579   0.556   3.188 -0.3641 -0.3876 -0.0956
 8802SOL    HW138042   1.565   0.541   3.095 -0.8586 -0.5409  0.0050
 8802SOL    HW238043   1.584   0.652   3.182  3.3554 -0.5413  0.1677
 8803SOL     OW38044   4.626   1.660   3.205  0.2984 -0.4768  0.0450
 8803SOL    HW138045   4.674   1.634   3.126  1.1659  1.6319 -0.1305
 8803SOL    HW238046   4.684   1.728   3.238 -1.5727  1.3146 -0.3722
 8804SOL     OW38047   4.498   3.677   3.787  0.4457  0.1601  0.2156
 8804SOL    HW138048   4.571   3.614   3.783  0.5668  0.4017 -1.1729
 8804SOL    HW238049   4.468   3.634   3.707  1.0294  0.6735 -0.2719
 8805SOL     OW38050   3.222   4.451   3.474  0.1644 -0.2998  0.5048
 8805SOL    HW138051   3.315   4.468   3.462  0.0117 -0.2214 -0.6214
 8805SOL    HW238052   3.175   4.509   3.413 -2.1400 -1.6445  0.9887
 8806SOL     OW38053   3.239   3.138  12.139 -0.6005 -0.5685  0.0865
 8806SOL    HW138054   3.225   3.106  12.228 -0.3638 -0.0968  0.2911
 8806SOL    HW238055   3.186   3.076  12.089  0.8269  0.0706 -2.2621
 8807SOL     OW38056   4.715   2.460  15.242 -0.2242 -0.1208  0.1344
 8807SOL    HW138057   0.012   2.549  15.242  1.7031 -0.8577 -2.5823
 8807SOL    HW238058   4.626   2.484  15.265 -1.3009 -1.1025 -3.0228
 8808SOL     OW38059   0.411   4.621   5.168 -0.3925 -0.0194  0.4564
 8808SOL    HW138060   0.408   4.530   5.138  2.5712  1.0173 -2.8846
 8808SOL    HW238061   0.406   4.601   5.262 -1.9249 -1.0241  0.1535
 8809SOL     OW38062   2.565   0.512  13.550  0.4346  0.0536 -0.3306
 8809SOL    HW138063   2.563   0.450  13.478  0.0395  1.1531 -1.2594
 8809SOL    HW238064   2.659   0.529  13.554  0.1260  2.0674 -2.0367
 8810SOL     OW38065   1.101   0.539   1.714  0.3436  1.0567 -0.4089
 8810SOL    HW138066   1.035   0.591   1.668  0.2850  0.3103 -1.1569
 8810SOL    HW238067   1.130   0.487   1.639  1.5135  0.0045  0.7820
 8811SOL     OW38068   0.335   2.006   5.500  0.3335  0.6197 -0.3973
 8811SOL    HW138069   0.252   1.997   5.454  1.2716  2.7787 -2.4894
 8811SOL    HW238070   0.367   2.082   5.452 -0.5864  1.2281 -0.0494
 8812SOL     OW38071   3.160   2.636   5.630 -0.1287 -0.0809  0.7929
 8812SOL    HW138072   3.157   2.673   5.719  2.7612  1.6922  0.1634
 8812SOL    HW238073   3.203   2.709   5.586 -1.0059 -0.3078 -0.4129
 8813SOL     OW38074   4.678   1.344   3.060  0.6549 -0.0546  0.4878
 8813SOL    HW138075   4.675   1.354   2.965 -0.7884 -2.5757  0.2683
 8813SOL    HW238076   4.599   1.291   3.071 -0.2825  1.8009  2.8596
 8814SOL     OW38077   2.156   3.586   9.560  0.6152  0.1181 -0.4928
 8814SOL    HW138078   2.101   3.640   9.504  0.9358  0.2489 -0.6858
 8814SOL    HW238079   2.200   3.532   9.494  1.7744 -2.2255  2.1548
 8815SOL     OW38080   4.129   3.788   1.625 -0.3205 -0.3873 -0.1809
 8815SOL    HW138081   4.078   3.732   1.565 -0.4954  1.4879 -1.7929
 8815SOL    HW238082   4.199   3.723   1.621 -0.0108 -0.0812  0.4657
 8816SOL     OW38083   0.540   2.612   7.290 -0.4264 -0.5667  0.4662
 8816SOL    HW138084   0.485   2.534   7.287 -1.3136  0.0276  1.6654
 8816SOL    HW238085   0.493   2.663   7.355  0.5104 -0.4451  1.0532
 8817SOL     OW38086   3.149   1.795  12.611 -0.0713  0.3083 -0.0229
 8817SOL    HW138087   3.116   1.824  12.526  0.9905 -1.4094 -1.0376
 8817SOL    HW238088   3.200   1.870  12.643  0.0549  0.5162 -0.7219
 8818SOL     OW38089   4.608   4.580   6.368  0.0501  0.3876  0.0298
 8818SOL    HW138090   4.701   4.558   6.372  0.0136 -0.0075 -1.4720
 8818SOL    HW238091   4.570   4.497   6.397  0.2144 -0.3427 -1.8708
 8819SOL     OW38092   1.423   3.151  12.993 -0.1420  0.0574  0.4490
 8819SOL    HW138093   1.473   3.078  12.956 -2.7408 -1.7750  0.5418
 8819SOL    HW238094   1.491   3.218  12.985  0.3527 -0.6195 -1.0571
 8820SOL     OW38095   2.954   3.437  17.533 -0.0933  0.3863 -0.2540
 8820SOL    HW138096   2.922   3.463  17.620 -0.1879  0.5003 -0.3238
 8820SOL    HW238097   2.920   3.512  17.485 -2.0941  0.4679  1.3080
 8821SOL     OW38098   1.740   0.185   4.283 -0.2603 -0.0096  0.4366
 8821SOL    HW138099   1.729   0.231   4.367  0.3838 -2.1794  1.7118
 8821SOL    HW238100   1.773   0.101   4.314 -0.6376  0.2996  1.6806
 8822SOL     OW38101   4.693   4.308   2.014 -0.2477 -0.6209 -0.3566
 8822SOL    HW138102   0.001   4.382   2.055 -0.1235 -1.3749  0.8649
 8822SOL    HW238103   0.017   4.284   1.945  1.1094  2.1827 -0.1119
 8823SOL     OW38104   0.581   3.330  16.650 -0.7125 -0.5257  0.4747
 8823SOL    HW138105   0.510   3.391  16.630  0.0712 -0.0480 -0.8579
 8823SOL    HW238106   0.622   3.324  16.564  0.0815 -1.1226  0.8976
 8824SOL     OW38107   3.365   1.604   5.715 -0.2643  0.1266  0.0703
 8824SOL    HW138108   3.403   1.525   5.753  0.1205  1.4041  2.3376
 8824SOL    HW238109   3.329   1.548   5.646 -1.0912 -0.1417  0.7107
 8825SOL     OW38110   1.704   1.388   7.001 -0.1887 -0.6380 -0.5228
 8825SOL    HW138111   1.677   1.423   6.916  1.4394  3.3278  0.5822
 8825SOL    HW238112   1.629   1.331   7.017 -1.1494  0.4900 -1.0646
 8826SOL     OW38113   3.248   2.907  10.965 -0.2760  0.1466 -0.2251
 8826SOL    HW138114   3.341   2.929  10.967 -0.7038  1.7959  1.2043
 8826SOL    HW238115   3.257   2.876  10.875  1.5562  1.5085 -0.5201
 8827SOL     OW38116   4.640   2.460   3.208  0.0263  0.2229  0.2628
 8827SOL    HW138117   4.670   2.376   3.243 -1.0626 -0.7741 -1.1811
 8827SOL    HW238118   4.650   2.520   3.282 -2.5278  0.5944  0.3231
 8828SOL     OW38119   2.628   2.392  17.745 -0.0791  0.2652  0.3478
 8828SOL    HW138120   2.555   2.436  17.702  0.6797  1.1770 -0.0062
 8828SOL    HW238121   2.689   2.464   0.006  3.2938 -2.5751  0.2303
 8829SOL     OW38122   2.521   3.867   0.134  0.5489 -0.1320 -0.6912
 8829SOL    HW138123   2.438   3.895   0.096 -0.2538 -0.4159  0.8592
 8829SOL    HW238124   2.574   3.840   0.059  1.2545 -0.5055 -0.0624
 8830SOL     OW38125   2.101   4.500   7.687  0.1093  0.2771 -0.4181
 8830SOL    HW138126   2.028   4.558   7.706  1.3354  1.3748  0.9370
 8830SOL    HW238127   2.140   4.533   7.606 -1.1568  1.5310 -0.5171
 8831SOL     OW38128   2.262   3.058   3.190 -0.3501  0.1531 -0.2090
 8831SOL    HW138129   2.306   3.137   3.222 -0.5645 -0.0960  0.6786
 8831SOL    HW238130   2.284   2.993   3.256 -1.0480  1.1696  1.0255
 8832SOL     OW38131   3.244   0.721  14.779 -0.3561  0.7315 -0.2241
 8832SOL    HW138132   3.217   0.634  14.807  0.6843 -0.0771 -1.7037
 8832SOL    HW238133   3.316   0.704  14.719 -0.6962  1.2561 -0.7794
 8833SOL     OW38134   4.298   0.174   4.677  0.0925 -0.5544  0.0058
 8833SOL    HW138135   4.210   0.149   4.650 -0.4130  2.7629 -1.3987
 8833SOL    HW238136   4.300   0.145   4.768  0.9954 -0.0232  0.1546
 8834SOL     OW38137   2.812   1.802   6.086 -0.0800  0.6989  0.0930
 8834SOL    HW138138   2.822   1.726   6.143  1.1395  1.2216  0.5593
 8834SOL    HW238139   2.757   1.852   6.145 -0.1159  0.6009  0.1435
 8835SOL     OW38140   0.175   3.280   8.974 -0.0130 -0.2701 -0.1424
 8835SOL    HW138141   0.096   3.227   8.970  0.2720 -0.7488  0.6382
 8835SOL    HW238142   0.132   3.360   9.005 -0.5896 -0.5685 -0.1781
 8836SOL     OW38143   2.156   3.749   7.400 -0.1002  0.3939 -0.1240
 8836SOL    HW138144   2.190   3.812   7.464  2.9311 -1.5175  0.1727
 8836SOL    HW238145   2.062   3.743   7.411  0.0573  0.1890  1.0991
 8837SOL     OW38146   4.384   4.123  15.731 -0.0316 -0.3064 -0.0817
 8837SOL    HW138147   4.420   4.115  15.820  2.0869  1.5907 -0.7722
 8837SOL    HW238148   4.316   4.188  15.750 -0.0870 -0.4817  0.3215
 8838SOL     OW38149   0.275   0.915   2.567  0.8987  0.1785  0.0396
 8838SOL    HW138150   0.337   0.986   2.553 -0.1702  1.0851 -0.0597
 8838SOL    HW238151   0.289   0.903   2.661 -1.5309  0.3222  0.4093
 8839SOL     OW38152   3.954   0.894  12.164 -0.1025  0.1380 -0.7422
 8839SOL    HW138153   3.923   0.854  12.245  1.4716  0.6441  0.1212
 8839SOL    HW238154   4.048   0.903  12.181  0.1500  1.5453 -2.8273
 8840SOL     OW38155   3.468   0.153   4.713  0.3300  0.1548  0.5308
 8840SOL    HW138156   3.376   0.169   4.733 -0.1842 -0.8196 -1.0805
 8840SOL    HW238157   3.510   0.219   4.769 -1.1685  1.0000  0.6552
 8841SOL     OW38158   1.154   0.564  12.803  0.3703 -0.0849 -0.4357
 8841SOL    HW138159   1.207   0.510  12.861  0.0250  0.0109 -0.0310
 8841SOL    HW238160   1.100   0.490  12.773  2.7732 -0.5380 -3.6914
 8842SOL     OW38161   3.019   3.205   3.688  0.4223  0.2968 -0.8954
 8842SOL    HW138162   3.082   3.159   3.632  0.6701 -0.4446 -0.0046
 8842SOL    HW238163   3.039   3.171   3.775 -0.5752  1.2329 -0.3010
 8843SOL     OW38164   2.389   2.820   8.659 -0.4878 -0.0361 -0.3663
 8843SOL    HW138165   2.331   2.867   8.719 -0.3350 -0.6773  0.2849
 8843SOL    HW238166   2.461   2.793   8.717 -0.8299 -1.7508 -0.7513
 8844SOL     OW38167   3.091   4.107   5.773  0.4347  0.3122  0.5493
 8844SOL    HW138168   3.147   4.117   5.696  1.9649 -1.7706  1.4131
 8844SOL    HW238169   3.159   4.102   5.840  0.8323  0.7159  0.1759
 8845SOL     OW38170   1.036   1.981   6.158  0.1168 -1.1026  0.5708
 8845SOL    HW138171   0.951   2.009   6.192 -0.4116 -1.0890 -0.7295
 8845SOL    HW238172   1.033   1.985   6.062  1.0003 -0.2629  0.5776
 8846SOL     OW38173   3.989   3.467   6.553 -0.1961 -0.7186 -0.1652
 8846SOL    HW138174   4.008   3.382   6.513  1.4971 -1.3695  2.0099
 8846SOL    HW238175   4.036   3.519   6.488  1.6557  0.3544  2.0732
 8847SOL     OW38176   1.987   1.763   1.317  0.2754  0.3973  1.0978
 8847SOL    HW138177   2.070   1.721   1.296 -0.3465  0.5103 -1.5707
 8847SOL    HW238178   1.944   1.694   1.368  1.7250 -0.6450  0.9131
 8848SOL     OW38179   0.957   2.407   8.353  0.3283  1.3102  0.8783
 8848SOL    HW138180   1.047   2.377   8.338  1.2885  3.3095  2.6924
 8848SOL    HW238181   0.924   2.331   8.400 -1.5465  0.8860 -1.0973
 8849SOL     OW38182   3.612   2.402   7.221  0.0486 -0.1668 -0.2514
 8849SOL    HW138183   3.688   2.418   7.166 -0.0162  1.1445  0.0424
 8849SOL    HW238184   3.569   2.486   7.204  0.7574  0.2783  0.1657
 8850SOL     OW38185   1.425   0.660  13.104 -0.3140  0.3703  0.5784
 8850SOL    HW138186   1.350   0.715  13.128  0.6939  1.3844  1.4094
 8850SOL    HW238187   1.426   0.584  13.161  0.1202  1.2914  1.7951
 8851SOL     OW38188   1.101   4.677  14.014  0.2083  0.1069 -0.1685
 8851SOL    HW138189   1.075   4.586  14.028  0.2421 -0.1754 -1.9684
 8851SOL    HW238190   1.012   4.709  13.996  0.1679 -0.9689 -1.8441
 8852SOL     OW38191   2.805   3.260   2.908 -0.1102 -0.2169 -0.1577
 8852SOL    HW138192   2.887   3.309   2.917  0.1359 -0.7058  0.2571
 8852SOL    HW238193   2.745   3.316   2.957 -0.6120 -1.5825  0.7528
 8853SOL     OW38194   2.879   3.361   4.707  0.0681 -0.1402  0.6587
 8853SOL    HW138195   2.964   3.371   4.749 -0.2967  2.8186  0.6814
 8853SOL    HW238196   2.854   3.272   4.731 -1.2722 -0.3450 -1.4869
 8854SOL     OW38197   1.634   2.711  17.150  0.1854 -0.1834 -0.4703
 8854SOL    HW138198   1.545   2.703  17.184  1.1298 -2.9023  1.4114
 8854SOL    HW238199   1.618   2.740  17.060 -0.3457  0.0866 -0.2826
 8855SOL     OW38200   1.064   1.555   2.272 -0.3299 -0.0826 -0.8122
 8855SOL    HW138201   1.087   1.531   2.362 -1.7119  1.0062 -0.1781
 8855SOL    HW238202   1.133   1.509   2.223  0.1684 -0.0365 -0.1554
 8856SOL     OW38203   1.406   2.878   5.774  0.1370 -0.1087 -0.1232
 8856SOL    HW138204   1.465   2.942   5.816  0.2935  0.5766 -1.3824
 8856SOL    HW238205   1.458   2.838   5.705  0.1427  1.2572 -0.9075
 8857SOL     OW38206   2.345   1.358   8.269  0.6213  0.3011 -0.0472
 8857SOL    HW138207   2.380   1.332   8.184  2.0639 -1.0237  0.9546
 8857SOL    HW238208   2.386   1.444   8.280  1.9372 -0.6433  2.4850
 8858SOL     OW38209   2.380   4.676   4.945 -0.3301  0.0212 -0.2926
 8858SOL    HW138210   2.287   4.668   4.967  0.0398 -2.3901  0.2989
 8858SOL    HW238211   2.367   4.728   4.865 -1.0494  1.6720  0.8918
 8859SOL     OW38212   3.274   4.146   9.218 -0.1574 -0.2725 -0.4934
 8859SOL    HW138213   3.311   4.112   9.300  1.1159  1.9792 -0.1263
 8859SOL    HW238214   3.193   4.188   9.246  0.2289  0.5138 -0.5530
 8860SOL     OW38215   2.349   3.212   8.045  0.3296 -0.0290 -0.1248
 8860SOL    HW138216   2.280   3.241   7.985  0.0873  1.1510  0.7160
 8860SOL    HW238217   2.326   3.272   8.116 -0.4317 -0.7220  0.2168
 8861SOL     OW38218   4.174   2.963  13.210  0.5116 -0.7333 -0.0013
 8861SOL    HW138219   4.198   2.921  13.293  0.3134 -1.9756 -0.5749
 8861SOL    HW238220   4.238   2.930  13.147 -0.2558  0.3792 -1.3449
 8862SOL     OW38221   1.262   4.666   8.632 -0.1952  0.4137 -0.2287
 8862SOL    HW138222   1.295   4.607   8.565  1.1690  1.0491 -0.1066
 8862SOL    HW238223   1.277   0.015   8.593 -2.7388  0.3596 -1.3644
 8863SOL     OW38224   4.075   3.290   4.759 -0.1239  0.2649 -0.5779
 8863SOL    HW138225   4.153   3.322   4.805  0.2758  0.0018 -1.0837
 8863SOL    HW238226   4.021   3.369   4.770 -0.5750 -0.4441  2.2918
 8864SOL     OW38227   3.634   3.860   0.813 -0.6769  0.2971 -0.3838
 8864SOL    HW138228   3.601   3.893   0.896  1.4167 -0.4359  0.7440
 8864SOL    HW238229   3.557   3.806   0.797  0.1266 -0.8242 -0.4195
 8865SOL     OW38230   0.428   2.165   6.115  0.5227 -0.8124 -0.6309
 8865SOL    HW138231   0.464   2.115   6.042  1.5892  0.1007 -0.7402
 8865SOL    HW238232   0.472   2.249   6.098 -1.2497 -0.1360 -1.8967
 8866SOL     OW38233   4.311   1.724   1.574 -0.0901 -0.1530  0.3671
 8866SOL    HW138234   4.322   1.690   1.485 -0.4197  1.6247 -0.3612
 8866SOL    HW238235   4.281   1.814   1.558  0.8647 -0.2350 -1.9919
 8867SOL     OW38236   3.086   3.184  10.383 -0.1376  0.0049  0.2752
 8867SOL    HW138237   3.151   3.115  10.384  0.7162  0.8003  0.1014
 8867SOL    HW238238   3.087   3.217  10.473  0.4816  2.0894 -0.4948
 8868SOL     OW38239   1.446   1.441  16.033  0.7284 -0.5404 -0.1717
 8868SOL    HW138240   1.419   1.428  16.124 -1.0634  2.7778 -0.2064
 8868SOL    HW238241   1.505   1.515  16.046 -3.7782  2.9805  0.2996
 8869SOL     OW38242   1.716   1.119   5.490 -0.0527  0.3535 -0.1898
 8869SOL    HW138243   1.802   1.112   5.449  0.3804  0.8320  0.6362
 8869SOL    HW238244   1.672   1.035   5.479  0.5993  0.1993 -1.5488
 8870SOL     OW38245   4.148   2.429  13.437  0.1538 -0.1095 -0.9525
 8870SOL    HW138246   4.227   2.408  13.488 -0.5053 -0.4472 -0.0689
 8870SOL    HW238247   4.091   2.480  13.495  0.1568 -0.0384 -1.0126
 8871SOL     OW38248   2.568   2.777  14.802 -0.4045  0.0090  0.3885
 8871SOL    HW138249   2.616   2.714  14.749  1.0570 -0.2563  2.0428
 8871SOL    HW238250   2.618   2.859  14.795  2.0125 -1.4145  1.0630
 8872SOL     OW38251   3.794   0.864   4.503 -0.0787 -0.2495 -0.0926
 8872SOL    HW138252   3.768   0.956   4.506 -2.4353 -0.8374 -2.6315
 8872SOL    HW238253   3.863   0.856   4.568  1.0364  2.8770 -0.8829
 8873SOL     OW38254   1.463   4.099  14.657  0.0515  0.1485  0.1942
 8873SOL    HW138255   1.527   4.170  14.665 -0.1672  0.4626 -0.8613
 8873SOL    HW238256   1.507   4.056  14.583 -1.2896  0.2755 -0.6746
 8874SOL     OW38257   0.095   2.652   8.263 -0.3317 -0.2059 -0.2519
 8874SOL    HW138258   0.036   2.591   8.309 -0.6125  0.5866  0.4246
 8874SOL    HW238259   0.133   2.599   8.193  0.7936 -1.8570  1.5774
 8875SOL     OW38260   3.041   4.598  17.559  0.8514 -0.1848 -0.0485
 8875SOL    HW138261   3.037   4.683  17.603 -0.3843 -1.1841  1.7609
 8875SOL    HW238262   3.018   4.539  17.631 -0.2845  0.9636  0.5359
 8876SOL     OW38263   4.318   1.628   3.979 -0.2836 -0.4025 -0.1483
 8876SOL    HW138264   4.320   1.680   3.898 -0.5280 -0.8979 -0.4685
 8876SOL    HW238265   4.225   1.633   3.997 -0.1909  0.7082  0.0541
 8877SOL     OW38266   0.251   4.104   5.843  0.9890 -0.7018 -0.2610
 8877SOL    HW138267   0.283   4.015   5.831  0.9856 -0.3597 -3.0239
 8877SOL    HW238268   0.316   4.137   5.905 -2.2022  2.0955  1.6160
 8878SOL     OW38269   0.046   0.985   5.008  0.2489 -0.0812  0.2105
 8878SOL    HW138270   4.736   1.032   5.077 -0.5380 -0.4984 -0.0450
 8878SOL    HW238271   0.118   0.955   5.063  0.5143  0.1260 -0.0263
 8879SOL     OW38272   0.543   4.477   3.385 -0.4576 -0.0947 -0.4237
 8879SOL    HW138273   0.518   4.472   3.292  0.1169  0.6629 -0.6209
 8879SOL    HW238274   0.457   4.481   3.426 -0.4092 -1.2750 -0.2118
 8880SOL     OW38275   4.071   2.296  15.561  0.5771  0.2947 -0.3062
 8880SOL    HW138276   4.124   2.362  15.516  0.0895 -1.1548 -2.9946
 8880SOL    HW238277   4.080   2.216  15.508  0.7006  0.0874  0.0245
 8881SOL     OW38278   2.207   1.517   6.694 -0.1505  0.4971 -0.2950
 8881SOL    HW138279   2.263   1.540   6.620  0.0672 -2.4440 -1.0451
 8881SOL    HW238280   2.147   1.453   6.656 -1.6141  1.8528 -0.2389
 8882SOL     OW38281   3.195   3.622   3.951 -0.1482  0.1290  0.0797
 8882SOL    HW138282   3.192   3.717   3.965  1.1307  0.0760  0.7493
 8882SOL    HW238283   3.168   3.618   3.859  0.8294  0.9069 -0.2491
 8883SOL     OW38284   4.102   0.893   6.026 -0.9651  0.4384 -0.2037
 8883SOL    HW138285   4.181   0.840   6.015 -1.0534  0.2112  0.2404
 8883SOL    HW238286   4.098   0.894   6.122  1.7497  0.4595 -0.1029
 8884SOL     OW38287   4.098   2.671  14.595  0.3055 -0.2074 -0.4868
 8884SOL    HW138288   4.035   2.602  14.615 -3.0870  3.0947  0.1909
 8884SOL    HW238289   4.104   2.720  14.678  0.7833 -0.1049 -0.5826
 8885SOL     OW38290   3.058   0.066   8.000 -0.5974  0.0869 -0.1541
 8885SOL    HW138291   3.067   0.162   8.000  1.9008 -0.1375 -2.8121
 8885SOL    HW238292   3.005   0.050   8.078 -1.3858  1.4360 -0.4116
 8886SOL     OW38293   0.076   4.020  13.186 -0.0755 -0.4555 -0.2290
 8886SOL    HW138294   0.011   4.003  13.255 -1.7055 -0.8403 -1.8863
 8886SOL    HW238295   0.091   3.931  13.156  2.9465  0.0439 -0.2823
 8887SOL     OW38296   3.022   4.385   8.343 -0.3540  0.1424  0.3267
 8887SOL    HW138297   2.983   4.377   8.430 -1.1505 -0.4514 -0.0719
 8887SOL    HW238298   2.977   4.308   8.309 -1.4196  0.6084  0.6761
 8888SOL     OW38299   1.365   3.354   7.532  0.1406  0.1811 -0.4047
 8888SOL    HW138300   1.340   3.445   7.548  0.3302 -0.2185  2.1012
 8888SOL    HW238301   1.319   3.320   7.609  0.9691 -0.6296 -0.2729
 8889SOL     OW38302   3.043   0.577   4.513 -0.0719  0.0280 -0.2422
 8889SOL    HW138303   3.056   0.671   4.514 -0.3210  0.0741 -1.8174
 8889SOL    HW238304   3.092   0.555   4.434 -0.0466 -0.4368 -0.0985
 8890SOL     OW38305   1.469   0.228   3.010  0.2245 -0.1916  0.2930
 8890SOL    HW138306   1.395   0.209   3.067  1.1820 -0.7999  1.3400
 8890SOL    HW238307   1.451   0.181   2.929 -0.1808  1.2489 -0.4674
 8891SOL     OW38308   4.583   3.471  14.480 -0.0469 -0.5099  0.0472
 8891SOL    HW138309   4.645   3.438  14.415  0.0399 -1.1310  0.4497
 8891SOL    HW238310   4.525   3.523  14.424 -0.8297 -1.5453 -0.0999
 8892SOL     OW38311   0.368   3.083   6.968  0.5588  0.1173 -0.4368
 8892SOL    HW138312   0.377   3.090   6.873  0.2771  0.8419 -0.4080
 8892SOL    HW238313   0.273   3.072   6.975  0.5946  0.6221  0.7689
 8893SOL     OW38314   1.860   0.535   7.348  0.6635  0.1279 -0.4574
 8893SOL    HW138315   1.954   0.524   7.362  0.7982  0.5786 -0.9963
 8893SOL    HW238316   1.861   0.597   7.275 -0.2146 -0.7219 -1.1845
 8894SOL     OW38317   3.634   2.859  11.798  0.0137 -0.9245 -0.3073
 8894SOL    HW138318   3.611   2.769  11.822  0.9311 -0.8391  0.9454
 8894SOL    HW238319   3.613   2.858  11.705  1.3747  2.2729 -0.6365
 8895SOL     OW38320   2.099   1.146   8.821  0.0199  0.3102 -0.0287
 8895SOL    HW138321   2.086   1.062   8.777 -1.3868  1.0225 -0.9914
 8895SOL    HW238322   2.014   1.189   8.828  2.0147  3.5513  4.0569
 8896SOL     OW38323   4.277   2.652   3.884  0.0095  0.3198  0.0208
 8896SOL    HW138324   4.271   2.665   3.789  0.6152  0.5737  0.0151
 8896SOL    HW238325   4.211   2.711   3.919 -2.2042 -0.2484 -3.1347
 8897SOL     OW38326   3.670   3.156   3.204 -0.2449  0.1226 -0.5203
 8897SOL    HW138327   3.616   3.235   3.202  0.4348  0.6141  1.2234
 8897SOL    HW238328   3.749   3.195   3.166  0.5188 -1.8249 -0.9717
 8898SOL     OW38329   2.096   0.089   6.693  0.0710  0.6262 -0.0090
 8898SOL    HW138330   2.174   0.074   6.746 -2.2568 -1.3983  2.8684
 8898SOL    HW238331   2.032   0.109   6.762  1.5944 -0.0426  1.5797
 8899SOL     OW38332   2.478   2.038   7.159 -0.2622 -0.3913 -0.1285
 8899SOL    HW138333   2.401   2.022   7.213  0.1134 -1.9974 -0.0470
 8899SOL    HW238334   2.454   2.004   7.073 -0.5986  1.2436 -0.6683
 8900SOL     OW38335   2.923   1.428   7.844  0.4242 -0.0041 -0.7627
 8900SOL    HW138336   3.014   1.399   7.842  0.3270 -0.4307  0.6491
 8900SOL    HW238337   2.899   1.454   7.933 -1.1860 -3.2821 -0.2079
 8901SOL     OW38338   2.336   1.658   8.004  0.5361 -0.2689  0.2206
 8901SOL    HW138339   2.366   1.658   7.913 -0.0537 -0.1025  0.0258
 8901SOL    HW238340   2.314   1.751   8.014  1.3334 -0.1959  1.3417
 8902SOL     OW38341   1.727   4.238   0.408 -0.3311  0.1951  0.1087
 8902SOL    HW138342   1.722   4.307   0.474  4.0066  0.9390 -0.3842
 8902SOL    HW238343   1.650   4.188   0.437  0.3165 -2.0774 -2.1335
 8903SOL     OW38344   0.795   2.845   7.173  0.4919 -0.4890  1.0693
 8903SOL    HW138345   0.714   2.893   7.159  1.1059  0.6248  1.3575
 8903SOL    HW238346   0.862   2.903   7.136  1.3545 -1.8945  0.4391
 8904SOL     OW38347   2.279   4.493  16.400 -0.1626 -0.5531 -0.4722
 8904SOL    HW138348   2.229   4.444  16.465  0.5094  0.8652  1.1136
 8904SOL    HW238349   2.205   4.490  16.340 -1.1658  1.3461  0.6705
 8905SOL     OW38350   2.074   1.360   4.727  0.3967  0.2031  0.3793
 8905SOL    HW138351   2.024   1.355   4.809 -0.4964  1.3055 -0.0923
 8905SOL    HW238352   2.066   1.272   4.691 -0.1161 -0.0889  1.2032
 8906SOL     OW38353   2.311   2.718   1.334  0.1294 -0.6344  0.3627
 8906SOL    HW138354   2.372   2.667   1.279 -0.6580 -3.0881  1.7468
 8906SOL    HW238355   2.321   2.662   1.411  0.4470 -0.0431  0.7408
 8907SOL     OW38356   3.740   3.966   6.853  0.2328  0.1556  0.5770
 8907SOL    HW138357   3.665   3.909   6.868 -0.3291  0.6210 -0.4191
 8907SOL    HW238358   3.708   4.024   6.783 -0.6604 -0.4375  0.4927
 8908SOL     OW38359   3.920   3.170  13.883 -0.0885  0.1958  0.2476
 8908SOL    HW138360   4.011   3.179  13.855  0.0925 -0.4556  0.6200
 8908SOL    HW238361   3.888   3.089  13.844  0.4368  0.7601 -1.3549
 8909SOL     OW38362   0.452   0.786  15.867 -0.6568 -0.3565  0.3130
 8909SOL    HW138363   0.451   0.775  15.772 -0.6478 -0.2063  0.2954
 8909SOL    HW238364   0.400   0.865  15.878  1.1001  0.5242  2.3442
 8910SOL     OW38365   0.192   1.941   6.612  0.8121  0.0572  0.2639
 8910SOL    HW138366   0.205   1.994   6.533 -1.0272 -0.6357 -0.5003
 8910SOL    HW238367   0.160   1.862   6.569  1.5052  0.3938 -0.8677
 8911SOL     OW38368   4.599   2.079  14.423 -0.1394 -0.0845 -0.2532
 8911SOL    HW138369   4.528   2.038  14.472  0.8783  0.2685  1.5181
 8911SOL    HW238370   4.562   2.167  14.417 -1.7436 -0.6282  1.5901
 8912SOL     OW38371   1.968   1.943   2.631 -0.1476 -0.1980 -0.3803
 8912SOL    HW138372   2.036   2.004   2.660 -0.2220 -0.5206  0.4748
 8912SOL    HW238373   1.889   1.982   2.668  1.4507  3.9388 -1.2972
 8913SOL     OW38374   0.557   1.206  13.399 -0.1757  0.0808 -0.2954
 8913SOL    HW138375   0.531   1.123  13.359 -0.0849 -0.1993  0.2296
 8913SOL    HW238376   0.478   1.257  13.378 -0.1531  0.6521  0.9713
 8914SOL     OW38377   1.552   1.029   4.604  0.0712  0.3424  0.4695
 8914SOL    HW138378   1.482   1.035   4.669  0.0236  1.7170  0.2974
 8914SOL    HW238379   1.498   1.041   4.527 -0.2393 -1.0229  0.4916
 8915SOL     OW38380   0.091   1.841   2.818  0.5296  0.7654 -0.1025
 8915SOL    HW138381   0.176   1.817   2.782 -0.0820  1.0187 -1.7520
 8915SOL    HW238382   0.118   1.911   2.878  0.9465  1.7388 -1.4082
 8916SOL     OW38383   2.273   0.631   7.931  0.2315 -0.2905 -0.3696
 8916SOL    HW138384   2.318   0.547   7.935  1.5898  0.3472 -2.2849
 8916SOL    HW238385   2.347   0.689   7.946 -0.2857  0.2322  0.1958
 8917SOL     OW38386   4.688   0.724   6.975  0.3597 -0.0584 -0.1944
 8917SOL    HW138387   0.042   0.748   6.955  0.1261  1.4266  0.4922
 8917SOL    HW238388   4.661   0.807   7.015 -0.1595 -0.3496  0.0506
 8918SOL     OW38389   1.211   0.817   3.142  0.5702  0.1977 -0.3477
 8918SOL    HW138390   1.149   0.884   3.115  0.2881  1.1401  2.6688
 8918SOL    HW238391   1.221   0.772   3.058 -1.2590  0.3944 -0.6556
 8919SOL     OW38392   0.953   0.609   3.111 -0.0273 -0.3405  0.4273
 8919SOL    HW138393   0.991   0.618   3.199 -0.2237  0.4929  0.4315
 8919SOL    HW238394   0.877   0.562   3.148 -0.9061 -0.0274 -0.9930
 8920SOL     OW38395   3.098   0.998   8.890  0.2246  0.0513  0.1736
 8920SOL    HW138396   3.112   1.089   8.864 -3.4712  0.4489 -0.4983
 8920SOL    HW238397   3.157   0.964   8.823  1.0199 -0.4950  1.1484
 8921SOL     OW38398   0.697   0.157   4.269 -0.1482  0.2184 -0.2018
 8921SOL    HW138399   0.663   0.123   4.186  0.2708  0.2316 -0.3819
 8921SOL    HW238400   0.777   0.104   4.277 -0.9338 -0.5155  2.8849
 8922SOL     OW38401   3.262   2.293  11.476 -0.2537 -0.0124 -0.6058
 8922SOL    HW138402   3.300   2.230  11.415  1.1191  2.1875 -2.0313
 8922SOL    HW238403   3.169   2.276  11.463 -0.3022  0.6686 -1.1351
 8923SOL     OW38404   0.587   4.345   5.344  0.0427 -0.3512 -0.3360
 8923SOL    HW138405   0.540   4.416   5.387 -0.6668  0.0852 -1.8444
 8923SOL    HW238406   0.577   4.368   5.252  0.4408  1.6665  0.1220
 8924SOL     OW38407   2.283   1.454   1.439  0.1006 -0.2850 -0.2480
 8924SOL    HW138408   2.216   1.404   1.392  1.2786 -0.7150 -1.4728
 8924SOL    HW238409   2.259   1.447   1.531  1.7161 -2.1116  0.0250
 8925SOL     OW38410   0.302   3.659  10.094  0.2374 -0.6252  0.0053
 8925SOL    HW138411   0.285   3.705  10.176 -1.2877 -3.4320  1.2665
 8925SOL    HW238412   0.359   3.588  10.122 -0.0858 -0.3763  1.2895
 8926SOL     OW38413   2.844   2.148   6.350 -0.0250  0.5053 -0.1919
 8926SOL    HW138414   2.788   2.070   6.351  0.7817 -0.1046 -1.7291
 8926SOL    HW238415   2.919   2.122   6.297 -1.2231 -1.2857 -1.0190
 8927SOL     OW38416   2.979   4.254   7.186  0.0736 -0.2310 -0.5591
 8927SOL    HW138417   2.929   4.286   7.111 -1.1416  0.5049  0.5589
 8927SOL    HW238418   3.024   4.336   7.202  1.3804 -1.0058 -0.2893
 8928SOL     OW38419   0.049   0.242   2.582 -0.5492 -0.1004  0.0110
 8928SOL    HW138420   0.039   0.248   2.677  0.5982 -0.6668  0.1684
 8928SOL    HW238421   0.103   0.320   2.582 -1.5151  0.5719  0.9652
 8929SOL     OW38422   2.091   0.158  16.632  0.0272  0.4780 -0.3149
 8929SOL    HW138423   2.038   0.131  16.557  0.9914 -2.5320  0.0966
 8929SOL    HW238424   2.106   0.252  16.619 -1.7583  0.8141 -0.0035
 8930SOL     OW38425   3.018   1.917   9.317 -0.3052 -0.2025 -0.1822
 8930SOL    HW138426   3.048   1.830   9.340  0.3326 -0.0587 -0.4651
 8930SOL    HW238427   3.051   1.923   9.227 -3.1155 -0.5846 -1.2391
 8931SOL     OW38428   0.952   1.481   4.937  0.8837 -0.0738 -0.0452
 8931SOL    HW138429   0.963   1.387   4.927 -1.0780 -0.1890 -1.1673
 8931SOL    HW238430   0.978   1.501   4.847  1.0242  0.0336  0.0172
 8932SOL     OW38431   2.716   3.933   5.052 -0.0682 -0.4748 -0.4714
 8932SOL    HW138432   2.682   3.887   4.975 -0.6936  1.4874 -1.3649
 8932SOL    HW238433   2.790   3.978   5.011 -0.0059 -0.7681 -0.6805
 8933SOL     OW38434   1.402   0.243  16.975 -0.5373  0.3860 -0.1097
 8933SOL    HW138435   1.321   0.192  16.978 -1.3041  1.5224 -1.2316
 8933SOL    HW238436   1.394   0.282  16.887 -0.5224  0.9755  0.1488
 8934SOL     OW38437   3.107   2.007   3.056  0.2535 -0.7865 -0.3846
 8934SOL    HW138438   3.021   2.002   3.097 -0.2632  1.8290 -1.1439
 8934SOL    HW238439   3.160   2.056   3.119 -0.2555 -1.0425  0.2374
 8935SOL     OW38440   0.264   3.093  15.741  0.8241 -0.1316 -0.4868
 8935SOL    HW138441   0.325   3.040  15.690 -2.6350 -2.7146 -1.9779
 8935SOL    HW238442   0.297   3.182  15.729 -2.3259  1.0756 -0.1958
 8936SOL     OW38443   4.292   4.183   8.181 -0.1597 -0.1182 -0.2955
 8936SOL    HW138444   4.196   4.179   8.187  0.0087 -0.6704  2.0755
 8936SOL    HW238445   4.314   4.093   8.203 -2.2773 -1.0075 -1.8608
 8937SOL     OW38446   4.516   4.584   2.846 -0.4628 -0.1897 -0.3191
 8937SOL    HW138447   4.469   4.505   2.872  1.0540 -0.7941  0.6079
 8937SOL    HW238448   4.572   4.590   2.924 -2.1950  0.5462  0.8733
 8938SOL     OW38449   3.402   2.957   6.381  0.5244  0.1719 -0.0045
 8938SOL    HW138450   3.466   2.958   6.452 -1.0307 -0.8505  1.3908
 8938SOL    HW238451   3.451   2.918   6.308 -0.7333 -0.5066 -0.4798
 8939SOL     OW38452   3.656   0.255   3.376  0.3682  0.6706 -0.2897
 8939SOL    HW138453   3.684   0.173   3.334  0.0197  1.1720 -1.4968
 8939SOL    HW238454   3.688   0.239   3.465 -0.6970 -1.5473 -0.2989
 8940SOL     OW38455   1.597   1.177   3.508 -0.3112  0.0896  0.0116
 8940SOL    HW138456   1.538   1.105   3.487 -0.8441 -0.6263  3.9271
 8940SOL    HW238457   1.677   1.125   3.496 -1.2803 -2.1061  3.2820
 8941SOL     OW38458   3.731   2.366   5.383  0.0211  0.2963  0.0251
 8941SOL    HW138459   3.761   2.423   5.313 -0.2929 -1.2033 -1.3239
 8941SOL    HW238460   3.638   2.383   5.375  0.2104  1.7904  1.0746
 8942SOL     OW38461   3.145   3.308   5.105 -0.1637  0.4248  0.0406
 8942SOL    HW138462   3.239   3.327   5.096  0.8636 -3.8888  1.5581
 8942SOL    HW238463   3.111   3.318   5.016  0.0640 -1.0669 -0.2183
 8943SOL     OW38464   2.124   1.960   7.575 -0.1162 -0.2831  0.0962
 8943SOL    HW138465   2.124   2.007   7.658 -1.5156  1.2468 -0.7746
 8943SOL    HW238466   2.052   1.900   7.594  0.6048 -0.1687  3.2541
 8944SOL     OW38467   3.560   4.254   7.754 -0.2051 -0.5452 -0.6043
 8944SOL    HW138468   3.635   4.307   7.781 -2.7570  2.2602  0.8344
 8944SOL    HW238469   3.482   4.305   7.774 -1.3389 -1.9156 -1.5403
 8945SOL     OW38470   3.232   0.268  11.510  0.3796 -0.0560 -0.0200
 8945SOL    HW138471   3.218   0.203  11.579  0.3611 -0.0025  0.0265
 8945SOL    HW238472   3.140   0.295  11.502  0.3598  0.7352  3.1808
 8946SOL     OW38473   1.969   3.786   2.044  0.0763  0.2128  0.2139
 8946SOL    HW138474   2.000   3.710   1.996 -0.5356  0.0863  0.0262
 8946SOL    HW238475   1.877   3.766   2.058 -0.3372  0.6918 -1.9601
 8947SOL     OW38476   2.747   0.269   8.057 -0.0534  0.5315 -0.3219
 8947SOL    HW138477   2.742   0.240   7.966  1.5859 -0.1510 -0.1800
 8947SOL    HW238478   2.686   0.341   8.043  1.3926  1.9557  0.6442
 8948SOL     OW38479   2.772   3.098   1.980 -0.2938  0.0404  0.3787
 8948SOL    HW138480   2.809   3.017   1.946  1.2581  0.7302  0.4025
 8948SOL    HW238481   2.700   3.107   1.918 -0.0444  2.2553  0.3830
 8949SOL     OW38482   2.907   1.389  12.672 -0.0666 -0.1439 -0.4062
 8949SOL    HW138483   2.996   1.390  12.706  0.2489 -0.8987 -1.1981
 8949SOL    HW238484   2.862   1.317  12.718 -0.3657 -0.1946 -0.7772
 8950SOL     OW38485   2.006   1.474   9.075 -0.6859  0.0684 -0.0688
 8950SOL    HW138486   1.954   1.452   8.998 -1.6266 -2.4841  1.3149
 8950SOL    HW238487   2.045   1.558   9.049 -2.3936 -0.0464 -3.0804
 8951SOL     OW38488   4.202   2.724   4.572  0.4870 -0.3398  0.6559
 8951SOL    HW138489   4.237   2.713   4.660  0.6291  1.5306  0.8372
 8951SOL    HW238490   4.128   2.663   4.575 -0.7832  1.1334 -1.4431
 8952SOL     OW38491   1.792   3.976   4.451 -0.1187 -0.4155  0.0056
 8952SOL    HW138492   1.811   3.906   4.514 -0.1932 -0.6029 -0.1773
 8952SOL    HW238493   1.830   3.949   4.367 -1.6339  2.0034 -1.4648
 8953SOL     OW38494   4.066   0.057   4.579  0.0752 -0.5729 -0.1140
 8953SOL    HW138495   3.994   4.731   4.579  0.4159 -0.9574  0.5176
 8953SOL    HW238496   4.066   0.089   4.489 -0.6813 -2.5007 -0.7936
 8954SOL     OW38497   1.605   4.464   8.731 -0.5908 -0.3188  0.9911
 8954SOL    HW138498   1.578   4.547   8.693 -0.7276 -1.5480 -1.6204
 8954SOL    HW238499   1.591   4.479   8.824 -2.7288  0.1734  0.5686
 8955SOL     OW38500   1.637   0.673   7.864  0.4044 -0.4253  0.6404
 8955SOL    HW138501   1.604   0.585   7.846  0.9589 -0.9815  2.3438
 8955SOL    HW238502   1.598   0.687   7.950 -1.0718 -0.3446 -0.0345
 8956SOL     OW38503   1.403   0.644   2.371 -0.3397  0.7909 -0.0550
 8956SOL    HW138504   1.497   0.634   2.357 -0.5663 -1.9827  0.4275
 8956SOL    HW238505   1.375   0.623   2.282 -1.2587  1.9235 -0.0412
 8957SOL     OW38506   1.919   3.521   3.788 -0.0017 -0.1153  0.0096
 8957SOL    HW138507   1.976   3.509   3.865 -1.3087  0.5420  1.0831
 8957SOL    HW238508   1.942   3.441   3.740 -1.6834 -0.8650  0.4507
 8958SOL     OW38509   4.045   4.250  15.188  0.2478  0.3148  0.0863
 8958SOL    HW138510   4.133   4.288  15.179 -0.1057  1.2457  0.6040
 8958SOL    HW238511   4.004   4.258  15.102 -0.2541  0.1637  0.3123
 8959SOL     OW38512   1.817   3.261   8.908 -0.2813  0.0316 -0.2532
 8959SOL    HW138513   1.732   3.248   8.867 -1.6728 -0.3174  2.7405
 8959SOL    HW238514   1.800   3.250   9.001 -1.4049  0.8270 -0.3639
 8960SOL     OW38515   3.675   2.682  12.303  0.3125  0.6474  0.0653
 8960SOL    HW138516   3.752   2.659  12.354 -0.5718  1.6823  1.8433
 8960SOL    HW238517   3.701   2.695  12.211 -1.3256  2.3612 -0.1763
 8961SOL     OW38518   4.566   1.904   2.816 -0.1042  0.1420  0.0346
 8961SOL    HW138519   4.576   1.925   2.909  1.1248  0.9949 -0.2875
 8961SOL    HW238520   4.654   1.868   2.799 -0.3055  0.1357 -0.9718
 8962SOL     OW38521   0.562   4.412  12.225 -0.5747 -0.3262  0.3279
 8962SOL    HW138522   0.484   4.392  12.277  0.0929 -0.1629  1.3826
 8962SOL    HW238523   0.525   4.481  12.170 -0.0305 -0.6333 -0.4244
 8963SOL     OW38524   0.331   1.301   4.053  0.5196 -0.3505 -0.3181
 8963SOL    HW138525   0.246   1.321   4.093  0.3780  0.5526 -1.0677
 8963SOL    HW238526   0.330   1.359   3.977  0.5783 -1.3622 -1.0851
 8964SOL     OW38527   4.181   1.123  12.363  0.5187  0.0922  0.4059
 8964SOL    HW138528   4.266   1.134  12.321  0.1301  1.7583  0.0561
 8964SOL    HW238529   4.174   1.028  12.352 -1.8567  0.1458  1.4526
 8965SOL     OW38530   2.488   4.271  16.447 -0.6407  0.1608 -0.1418
 8965SOL    HW138531   2.475   4.218  16.368  1.3289  0.6843 -0.8039
 8965SOL    HW238532   2.427   4.344  16.437 -0.5080  0.1858 -0.7646
 8966SOL     OW38533   4.675   3.989   5.173  0.3920  0.0696  0.8970
 8966SOL    HW138534   4.603   3.931   5.149  0.4382 -0.4691  2.0328
 8966SOL    HW238535   4.646   4.019   5.259 -0.2741  3.8977 -0.6515
 8967SOL     OW38536   1.546   4.391  17.379  0.2471  0.8438 -0.1221
 8967SOL    HW138537   1.534   4.305  17.339 -1.2411  0.7418  0.5202
 8967SOL    HW238538   1.544   4.353  17.467  1.2740  2.0940  0.4338
 8968SOL     OW38539   1.085   1.605  15.274  0.0999 -0.0320 -0.4578
 8968SOL    HW138540   1.046   1.523  15.245  2.0730 -2.4582  3.7824
 8968SOL    HW238541   1.107   1.633  15.185 -0.5811  1.5051 -0.1448
 8969SOL     OW38542   0.869   3.906   2.541 -0.4682  0.0196  0.3769
 8969SOL    HW138543   0.774   3.916   2.533 -0.3957 -0.4520 -1.1870
 8969SOL    HW238544   0.900   3.971   2.604  1.3217  0.0846 -0.5581
 8970SOL     OW38545   1.513   2.310   5.986  0.2278 -0.0555 -0.3607
 8970SOL    HW138546   1.592   2.329   5.936 -0.4640  1.0897 -1.0108
 8970SOL    HW238547   1.483   2.227   5.948 -1.8257  0.9429 -0.9479
 8971SOL     OW38548   1.561   3.550  16.380  0.8512  0.4192  0.0612
 8971SOL    HW138549   1.643   3.515  16.344 -1.1652 -3.7670 -0.5372
 8971SOL    HW238550   1.548   3.489  16.452 -0.2629 -0.5164 -0.9097
 8972SOL     OW38551   3.504   1.491   4.434 -0.1888 -0.4607 -0.0178
 8972SOL    HW138552   3.490   1.558   4.502 -1.2164  1.0687 -1.7286
 8972SOL    HW238553   3.447   1.418   4.455  1.8925 -2.1053 -0.0661
 8973SOL     OW38554   4.151   0.484   6.436 -0.2128  0.1293  0.3217
 8973SOL    HW138555   4.162   0.404   6.383 -0.5683  0.7447 -0.6864
 8973SOL    HW238556   4.110   0.540   6.370  2.2531  2.8943  1.1243
 8974SOL     OW38557   4.705   0.308   3.898 -0.1837 -0.1677  0.2698
 8974SOL    HW138558   4.633   0.268   3.850 -0.0902 -0.3368  0.2694
 8974SOL    HW238559   4.651   0.365   3.952  0.1417 -1.2425  1.7528
 8975SOL     OW38560   3.064   1.331   0.022 -0.0379  0.2411 -0.4561
 8975SOL    HW138561   3.026   1.378  17.697 -0.4821  1.0833  0.3129
 8975SOL    HW238562   3.157   1.356   0.022  0.2731 -0.8803  0.5272
 8976SOL     OW38563   4.180   3.228  17.031  0.0686 -0.3431  0.5213
 8976SOL    HW138564   4.225   3.146  17.010  0.7332 -0.1626  1.2227
 8976SOL    HW238565   4.203   3.232  17.124 -0.9484  1.5258  0.6900
 8977SOL     OW38566   4.178   1.589   7.408  0.3543 -0.3551  0.1669
 8977SOL    HW138567   4.199   1.668   7.357  0.1838 -0.1765  0.3740
 8977SOL    HW238568   4.183   1.623   7.497  0.9843  0.8024 -0.3170
 8978SOL     OW38569   3.909   0.512   2.371  0.4808  0.1366 -0.2182
 8978SOL    HW138570   3.857   0.541   2.296  0.0411  0.2093  0.1151
 8978SOL    HW238571   3.928   0.423   2.340 -1.1279 -0.6357  1.0065
 8979SOL     OW38572   3.122   0.759   7.987 -0.6317 -0.3389  0.3105
 8979SOL    HW138573   3.215   0.760   8.009 -0.5048  1.2264 -0.2696
 8979SOL    HW238574   3.088   0.724   8.069 -0.2886 -1.1261  0.1224
 8980SOL     OW38575   2.263   4.499   6.198 -0.6647 -0.2984 -0.2674
 8980SOL    HW138576   2.175   4.525   6.225  0.1417  1.6400  0.4655
 8980SOL    HW238577   2.281   4.562   6.128  1.0361 -1.1487 -0.5901
 8981SOL     OW38578   2.350   1.337   2.801  0.0875 -0.3471 -0.1284
 8981SOL    HW138579   2.360   1.381   2.886 -0.8549  1.0950 -0.7646
 8981SOL    HW238580   2.274   1.282   2.820  0.5348 -0.3059  1.7494
 8982SOL     OW38581   1.866   0.957  14.259 -0.3371  0.2696 -0.5896
 8982SOL    HW138582   1.929   1.025  14.236 -0.6348  0.8639  0.3696
 8982SOL    HW238583   1.783   0.996  14.232 -0.7287  1.5351  2.4643
 8983SOL     OW38584   3.497   4.056   4.348 -0.2637 -0.4477 -0.1746
 8983SOL    HW138585   3.429   4.006   4.393 -0.7599  1.0287  0.7189
 8983SOL    HW238586   3.441   4.103   4.286 -0.7027 -0.1191  0.4753
 8984SOL     OW38587   2.390   0.074   2.626 -0.4723 -0.6889  0.4885
 8984SOL    HW138588   2.310   0.051   2.674 -0.3356  0.2136  1.1375
 8984SOL    HW238589   2.394   4.733   2.571 -2.4299 -0.0290 -0.6248
 8985SOL     OW38590   2.129   0.363   5.414 -0.0737  0.3847 -0.2255
 8985SOL    HW138591   2.179   0.359   5.495 -1.0778 -2.1963  0.2999
 8985SOL    HW238592   2.181   0.418   5.355 -1.1401  3.4059  1.6628
 8986SOL     OW38593   3.835   0.520  13.802 -0.0883  0.4383 -0.5229
 8986SOL    HW138594   3.842   0.460  13.728 -0.0714 -0.9368  0.5902
 8986SOL    HW238595   3.912   0.576  13.796  1.6689 -1.9739 -0.5222
 8987SOL     OW38596   3.599   0.542  13.972 -0.6855 -0.4056 -0.3503
 8987SOL    HW138597   3.659   0.532  13.897  3.4024 -0.4170  2.9000
 8987SOL    HW238598   3.651   0.571  14.047 -0.5106  0.6929 -0.8975
 8988SOL     OW38599   2.231   2.267  13.737 -0.2138 -0.3590  0.2493
 8988SOL    HW138600   2.238   2.173  13.718 -0.3379 -0.8034  2.3873
 8988SOL    HW238601   2.228   2.266  13.832  1.3695 -2.2703  0.3009
 8989SOL     OW38602   3.047   1.286   7.386  0.1332 -0.5190  0.6071
 8989SOL    HW138603   3.052   1.194   7.413 -0.0674 -0.1715  1.8498
 8989SOL    HW238604   3.010   1.330   7.463 -0.1557 -0.8169  0.6346
 8990SOL     OW38605   2.523   2.931   4.139 -0.6119 -0.1351  0.4508
 8990SOL    HW138606   2.482   2.847   4.157 -0.0038 -0.6398 -0.5931
 8990SOL    HW238607   2.448   2.968   4.092  1.0378  0.9168 -1.3516
 8991SOL     OW38608   1.048   4.257   6.919  0.7350 -0.1793  0.0808
 8991SOL    HW138609   0.961   4.230   6.948  0.5357 -0.2920 -0.6233
 8991SOL    HW238610   1.053   4.234   6.826  1.2105 -0.4371  0.1726
 8992SOL     OW38611   3.599   1.872   4.933  0.4002 -0.6316 -0.5204
 8992SOL    HW138612   3.546   1.827   4.998 -0.9849 -1.2683 -2.0889
 8992SOL    HW238613   3.601   1.960   4.971  0.8311 -1.7940  2.1688
 8993SOL     OW38614   0.402   1.948   4.564  0.4134  0.2575 -0.2852
 8993SOL    HW138615   0.442   1.910   4.486  0.0725  1.4163 -1.0166
 8993SOL    HW238616   0.367   1.872   4.611 -0.5294  0.6118 -0.4276
 8994SOL     OW38617   2.002   1.795   3.677  0.2219  0.1448  0.7445
 8994SOL    HW138618   2.030   1.854   3.747  1.7791  1.0385 -0.6441
 8994SOL    HW238619   1.927   1.749   3.717  0.3994 -0.0017  0.9088
 8995SOL     OW38620   3.174   3.580   4.505  0.5130 -0.8565  0.3185
 8995SOL    HW138621   3.138   3.622   4.583 -2.7182  0.1604 -1.7461
 8995SOL    HW238622   3.239   3.529   4.553 -1.4135 -2.6333  0.9888
 8996SOL     OW38623   2.944   3.950   1.080  0.1782  0.3638  0.2715
 8996SOL    HW138624   2.876   3.952   1.147  0.2498 -2.8243  0.4509
 8996SOL    HW238625   3.019   3.989   1.126  0.0308  0.6066  0.3069
 8997SOL     OW38626   2.271   4.524   9.752  0.0143  0.2645 -0.1607
 8997SOL    HW138627   2.280   4.534   9.657 -2.7199 -1.0513 -0.5561
 8997SOL    HW238628   2.348   4.472   9.776 -0.9499 -1.0115  0.1394
 8998SOL     OW38629   3.759   1.522  15.593  0.0847  0.0457  0.5199
 8998SOL    HW138630   3.714   1.534  15.509 -1.8770 -1.2532  1.3907
 8998SOL    HW238631   3.850   1.547  15.572 -0.1412  0.2739 -0.1965
 8999SOL     OW38632   4.343   1.722  15.175 -0.6936 -0.3553 -0.1738
 8999SOL    HW138633   4.258   1.740  15.136 -0.0084  1.6647 -0.7489
 8999SOL    HW238634   4.398   1.800  15.171 -0.5398 -0.4942 -0.7330
 9000SOL     OW38635   3.858   3.772   6.607  0.1732  0.3088  0.3120
 9000SOL    HW138636   3.815   3.853   6.636  1.9396  1.3326  0.0949
 9000SOL    HW238637   3.848   3.706   6.676 -1.6111 -1.3323 -1.5558
 9001SOL     OW38638   2.889   0.127   1.063  0.0998 -0.5331  0.3399
 9001SOL    HW138639   2.878   0.219   1.089 -0.2499 -0.9655  1.7208
 9001SOL    HW238640   2.928   0.088   1.141  0.3985 -1.1672 -0.1257
 9002SOL     OW38641   4.279   3.369  12.061 -0.4817  0.2286 -0.1999
 9002SOL    HW138642   4.262   3.296  12.121  0.4703 -0.2628 -0.5318
 9002SOL    HW238643   4.194   3.378  12.018 -0.0525  2.5142 -0.5651
 9003SOL     OW38644   3.413   2.058   5.610  0.5767 -0.3862  0.1253
 9003SOL    HW138645   3.352   2.063   5.684 -0.9846 -0.2787 -1.1821
 9003SOL    HW238646   3.457   1.974   5.629 -1.9166 -1.7610 -0.2530
 9004SOL     OW38647   1.220   1.435  16.772  0.4518  0.3996  0.4287
 9004SOL    HW138648   1.153   1.466  16.710 -1.1246 -2.2565  0.7920
 9004SOL    HW238649   1.254   1.513  16.818  4.0612 -0.8247 -0.2113
 9005SOL     OW38650   2.068   4.361   4.273 -0.4977  0.4222  0.2150
 9005SOL    HW138651   1.995   4.308   4.304  0.6387 -1.5369 -0.5114
 9005SOL    HW238652   2.135   4.334   4.337 -0.5085  0.7549  0.3680
 9006SOL     OW38653   2.579   1.868  15.325  0.4237 -0.3141  0.1720
 9006SOL    HW138654   2.605   1.915  15.246  0.8197 -0.4308  0.2325
 9006SOL    HW238655   2.484   1.863  15.316  0.3276 -1.8244  2.0366
 9007SOL     OW38656   0.303   0.341  10.001 -0.5129  0.5445 -0.2008
 9007SOL    HW138657   0.236   0.293   9.953 -2.4831  0.7547  2.2919
 9007SOL    HW238658   0.250   0.354  10.080 -2.3990  0.5513 -1.4464
 9008SOL     OW38659   2.328   0.189   6.223 -0.1214 -0.2151  0.4230
 9008SOL    HW138660   2.291   0.266   6.267 -0.2489  0.5691 -1.0582
 9008SOL    HW238661   2.246   0.161   6.183 -0.0633  2.4921 -1.5910
 9009SOL     OW38662   4.026   3.949  17.617  0.2014  0.7820 -0.3181
 9009SOL    HW138663   4.059   3.939  17.528  1.9279 -1.1171  0.5433
 9009SOL    HW238664   4.072   4.023  17.658  0.2157  0.4736  0.2191
 9010SOL     OW38665   0.991   1.345   2.723 -0.2498  0.3451  0.6117
 9010SOL    HW138666   0.944   1.417   2.680  1.2722  0.9806  0.0317
 9010SOL    HW238667   1.055   1.393   2.775  0.7448  0.0602 -0.3652
 9011SOL     OW38668   3.031   0.412  12.116 -0.3030  0.3508 -0.1381
 9011SOL    HW138669   3.040   0.362  12.035 -1.8111 -0.1909  0.0318
 9011SOL    HW238670   3.003   0.495  12.077  1.2270  0.7874 -0.3208
 9012SOL     OW38671   1.813   0.733   6.236  0.0846 -0.6063  0.0758
 9012SOL    HW138672   1.820   0.748   6.142  0.9221 -3.8450 -0.3795
 9012SOL    HW238673   1.736   0.782   6.264  0.6861 -0.2838  1.2067
 9013SOL     OW38674   0.927   0.998   0.380 -0.0141 -0.7059  0.0809
 9013SOL    HW138675   0.996   1.057   0.350  1.7602 -3.2490 -0.8507
 9013SOL    HW238676   0.951   0.957   0.463 -2.5511  2.0670  2.1792
 9014SOL     OW38677   0.017   3.579  14.931 -0.5939  0.2831  0.2734
 9014SOL    HW138678   4.718   3.588  14.842  1.4300  1.4719 -0.4411
 9014SOL    HW238679   0.106   3.613  14.919 -0.0232 -0.2589  2.9958
 9015SOL     OW38680   2.583   0.013  15.171 -0.0704  0.3630 -0.4884
 9015SOL    HW138681   2.624   4.665  15.156  0.9345  1.0992 -1.9818
 9015SOL    HW238682   2.657   0.069  15.150  0.1758  0.0062 -0.5812
 9016SOL     OW38683   0.776   2.448   9.834 -0.7984 -0.0469 -0.1594
 9016SOL    HW138684   0.855   2.395   9.839  0.2041  1.6458  1.9036
 9016SOL    HW238685   0.774   2.500   9.914 -0.2705  1.1814 -0.9511
 9017SOL     OW38686   2.375   3.722   3.220 -0.5842  0.2847  0.2502
 9017SOL    HW138687   2.425   3.678   3.288 -1.5181 -1.8549 -0.4372
 9017SOL    HW238688   2.380   3.661   3.147  1.8611 -0.6192  1.1816
 9018SOL     OW38689   3.735   0.007   3.269 -0.4357 -0.7006  0.1378
 9018SOL    HW138690   3.664   4.691   3.233 -1.1630 -0.5943  1.3921
 9018SOL    HW238691   3.806   4.706   3.218 -0.6258  0.6636 -1.1714
 9019SOL     OW38692   1.278   0.640   2.601  0.2818  0.2177  0.4602
 9019SOL    HW138693   1.320   0.636   2.516 -0.8062  1.4422 -0.1295
 9019SOL    HW238694   1.256   0.550   2.627  0.9518 -0.8356 -2.6653
 9020SOL     OW38695   3.647   3.068   5.186 -0.0491 -0.1947  0.1931
 9020SOL    HW138696   3.648   3.109   5.272  0.6527 -0.5686  0.3632
 9020SOL    HW238697   3.724   3.107   5.144  1.0943  0.3599  2.8705
 9021SOL     OW38698   3.140   4.167  10.960 -0.1044 -0.3623  0.4658
 9021SOL    HW138699   3.221   4.166  11.010  0.9236 -3.2026 -1.2630
 9021SOL    HW238700   3.124   4.259  10.940  0.6686 -0.0636  1.2441
 9022SOL     OW38701   1.907   1.140  12.875 -0.2322 -0.2155  0.1328
 9022SOL    HW138702   1.873   1.222  12.839 -2.1344 -1.2382 -0.3381
 9022SOL    HW238703   2.000   1.164  12.869 -0.3925  0.4109  0.1767
 9023SOL     OW38704   1.640   3.594   6.531 -0.3035 -0.2570  0.3942
 9023SOL    HW138705   1.660   3.582   6.624  0.0843 -0.3709  0.2950
 9023SOL    HW238706   1.705   3.537   6.491 -1.3651 -0.3702 -1.1893
 9024SOL     OW38707   1.673   4.629  12.655 -0.1982  0.3406 -0.3017
 9024SOL    HW138708   1.649   4.542  12.624  0.4106 -0.9303  2.8760
 9024SOL    HW238709   1.751   4.604  12.704  0.8434  0.0583 -2.0947
 9025SOL     OW38710   0.728   1.982  12.640 -0.4326 -0.1467 -0.4823
 9025SOL    HW138711   0.811   2.005  12.681 -0.3663 -1.3358  0.0460
 9025SOL    HW238712   0.676   1.965  12.719  0.9918  0.0217  0.4917
 9026SOL     OW38713   2.436   2.335   7.074 -0.1057 -0.0837 -0.0248
 9026SOL    HW138714   2.449   2.307   6.983  0.8404  1.2142 -0.2874
 9026SOL    HW238715   2.506   2.286   7.117 -0.9195  0.3382  1.7486
 9027SOL     OW38716   2.191   4.652   3.025  0.2141  0.1833 -0.3746
 9027SOL    HW138717   2.286   4.638   3.032 -0.1285 -2.0241 -0.2478
 9027SOL    HW238718   2.154   4.614   3.105  1.1319 -0.7380 -0.3872
 9028SOL     OW38719   3.336   1.897   3.992 -0.1389  0.5823  0.1293
 9028SOL    HW138720   3.408   1.929   4.047  0.4153  0.2091 -0.3894
 9028SOL    HW238721   3.385   1.850   3.925  0.1404  0.9859  0.0530
 9029SOL     OW38722   1.856   0.498   4.433 -0.0750 -0.4170  0.0927
 9029SOL    HW138723   1.773   0.472   4.474 -0.1933 -0.7861 -0.3720
 9029SOL    HW238724   1.878   0.574   4.487 -0.2087 -1.1980  1.2324
 9030SOL     OW38725   1.234   3.978   9.186 -0.3420  0.0053  0.2745
 9030SOL    HW138726   1.307   3.939   9.138 -0.5166 -1.6307  1.3059
 9030SOL    HW238727   1.248   3.943   9.275  1.6698  0.8327  0.2880
 9031SOL     OW38728   2.123   2.313  14.797  0.2351 -0.6436 -0.3509
 9031SOL    HW138729   2.075   2.344  14.720  0.4116  2.0745  0.6035
 9031SOL    HW238730   2.066   2.241  14.824 -1.1995  0.6456  0.1141
 9032SOL     OW38731   4.310   1.752   3.246  0.2192  1.0012  0.1326
 9032SOL    HW138732   4.291   1.830   3.192  0.4225  1.2993  0.4902
 9032SOL    HW238733   4.348   1.706   3.171  2.2429  0.1308  1.7160
 9033SOL     OW38734   4.701   4.330   1.406  0.3194  0.9745 -0.1350
 9033SOL    HW138735   0.023   4.259   1.381 -0.6031  0.0260  0.3301
 9033SOL    HW238736   4.689   4.315   1.500  1.4997 -0.2479 -0.1882
 9034SOL     OW38737   2.004   1.922   2.937  0.1948 -0.6537 -0.4145
 9034SOL    HW138738   2.062   1.992   2.906 -0.3082 -0.6685 -1.3821
 9034SOL    HW238739   1.920   1.943   2.895  0.7681  3.4976  0.4951
 9035SOL     OW38740   1.246   1.358   0.268 -0.0245 -0.0358  0.1155
 9035SOL    HW138741   1.164   1.317   0.241  0.4678 -0.7761 -0.2692
 9035SOL    HW238742   1.232   1.347   0.362  0.9459 -2.2159  0.0131
 9036SOL     OW38743   2.531   3.718   8.889  0.2502 -0.6427  0.6359
 9036SOL    HW138744   2.611   3.668   8.878  0.7154  0.2341  0.0280
 9036SOL    HW238745   2.472   3.654   8.930  1.0555 -1.5258  0.4042
 9037SOL     OW38746   0.547   0.555   3.690  0.5699  0.1870  0.0705
 9037SOL    HW138747   0.637   0.528   3.674  0.0264 -1.1350 -0.7177
 9037SOL    HW238748   0.519   0.471   3.725 -0.0843 -0.4283 -1.9083
 9038SOL     OW38749   1.381   3.561   5.404 -0.3244 -0.6112  0.0686
 9038SOL    HW138750   1.316   3.629   5.391 -0.8976 -1.2662 -0.5301
 9038SOL    HW238751   1.410   3.540   5.315 -1.9278  1.4051 -0.9192
 9039SOL     OW38752   2.423   3.101  15.157 -0.5310  0.1243  0.3749
 9039SOL    HW138753   2.471   3.061  15.229 -0.0612  0.4063  0.2158
 9039SOL    HW238754   2.457   3.050  15.083 -1.6184 -0.9732  0.6353
 9040SOL     OW38755   3.999   3.249   3.929  0.7873 -0.2951 -0.2870
 9040SOL    HW138756   3.989   3.339   3.900  0.6431 -0.0144  0.6365
 9040SOL    HW238757   4.081   3.254   3.978 -0.1026 -0.2480  1.2129
 9041SOL     OW38758   0.964   1.381   5.820 -0.3021  0.2703  0.1766
 9041SOL    HW138759   1.058   1.363   5.830 -0.6722 -2.1767 -1.0237
 9041SOL    HW238760   0.964   1.456   5.760 -0.3565  0.6684  0.6703
 9042SOL     OW38761   3.724   2.243  14.647 -0.3241  0.2455  0.1913
 9042SOL    HW138762   3.655   2.275  14.589  0.2784  0.6682 -0.2973
 9042SOL    HW238763   3.674   2.171  14.685  0.9363 -0.7724 -0.0728
 9043SOL     OW38764   4.196   2.079   0.833 -0.3001 -0.1946  0.1233
 9043SOL    HW138765   4.121   2.115   0.880 -0.2053  0.7194 -0.4294
 9043SOL    HW238766   4.192   2.113   0.744 -1.3372 -0.1873  0.1739
 9044SOL     OW38767   3.393   1.012  13.534  0.4451 -0.0119 -0.4363
 9044SOL    HW138768   3.380   0.996  13.627 -1.3027 -1.7597 -0.9724
 9044SOL    HW238769   3.316   0.966  13.498  0.0089 -1.9499  2.9795
 9045SOL     OW38770   0.263   4.205   1.395 -0.2272 -0.1780 -0.1898
 9045SOL    HW138771   0.289   4.242   1.479  0.9550  2.9646 -1.9566
 9045SOL    HW238772   0.308   4.121   1.398  4.0859  2.0912 -1.5210
 9046SOL     OW38773   3.399   0.961   1.198 -0.6457  0.3907  0.2660
 9046SOL    HW138774   3.424   0.963   1.106  0.8000  0.9908  0.6625
 9046SOL    HW238775   3.309   0.991   1.190 -1.3078 -2.3446 -2.3424
 9047SOL     OW38776   3.594   3.961   7.631 -0.2354  0.2591  0.6069
 9047SOL    HW138777   3.684   3.975   7.660  0.7234 -1.3093 -1.5686
 9047SOL    HW238778   3.571   4.054   7.625 -0.2083  0.1197 -1.7523
 9048SOL     OW38779   3.947   4.561   6.887  0.4245  0.5638 -0.3567
 9048SOL    HW138780   3.941   4.648   6.846  3.3038  0.7742 -0.3293
 9048SOL    HW238781   3.898   4.508   6.824 -1.3925  0.9627  0.7202
 9049SOL     OW38782   3.437   4.671  14.730 -0.0400  0.2356  0.4393
 9049SOL    HW138783   3.506   4.615  14.764  0.0196  0.4474  0.6658
 9049SOL    HW238784   3.490   0.013  14.728 -0.4354  0.4588 -1.2390
 9050SOL     OW38785   2.246   3.378  10.167 -0.2590  0.1262  0.3012
 9050SOL    HW138786   2.151   3.375  10.176 -0.3429  0.6266 -0.3682
 9050SOL    HW238787   2.278   3.380  10.257  0.0131  1.2913  0.1755
 9051SOL     OW38788   0.237   1.100   6.441 -0.2162  0.8496 -0.0965
 9051SOL    HW138789   0.289   1.020   6.455 -2.3401 -1.1990 -3.8418
 9051SOL    HW238790   0.151   1.067   6.415  1.3296 -1.0469 -2.8286
 9052SOL     OW38791   3.295   1.892   8.404  0.4970 -0.0492  0.3026
 9052SOL    HW138792   3.248   1.969   8.372  1.5469 -0.8817 -3.2070
 9052SOL    HW238793   3.379   1.934   8.392 -0.0834  0.5001 -1.7263
 9053SOL     OW38794   1.146   4.028   3.550 -0.5757 -0.0393 -0.5680
 9053SOL    HW138795   1.170   4.088   3.621 -2.7311  0.8738 -0.6032
 9053SOL    HW238796   1.230   4.001   3.514 -0.9469  1.0608 -2.2659
 9054SOL     OW38797   3.303   4.439  15.685  0.3747 -0.0527  1.0117
 9054SOL    HW138798   3.288   4.474  15.773 -0.2806  0.8995  0.5310
 9054SOL    HW238799   3.397   4.428  15.674  0.8416  2.3360  2.5995
 9055SOL     OW38800   0.424   0.017   6.057 -0.2950  0.4497  0.3845
 9055SOL    HW138801   0.501   4.725   6.106  0.4942  1.3606 -0.2957
 9055SOL    HW238802   0.457   0.053   5.975 -1.0130  0.1127 -0.0431
 9056SOL     OW38803   0.821   2.209   3.977  0.8210  0.3365  0.7421
 9056SOL    HW138804   0.794   2.134   4.029 -2.6625  0.4366 -0.8537
 9056SOL    HW238805   0.867   2.162   3.907  0.1376  2.8740 -1.4183
 9057SOL     OW38806   0.566   4.274   4.794 -0.1450  1.1157 -0.2768
 9057SOL    HW138807   0.560   4.212   4.722 -3.8130  0.3182  0.7047
 9057SOL    HW238808   0.659   4.277   4.818 -0.1877  1.4015 -0.1489
 9058SOL     OW38809   4.356   3.917   2.905 -0.1083  0.3322 -0.5519
 9058SOL    HW138810   4.441   3.879   2.930  0.0583  0.6793 -0.5839
 9058SOL    HW238811   4.376   3.946   2.816 -0.0905  1.2367 -0.2491
 9059SOL     OW38812   3.950   3.530   6.112  0.2514 -0.3838  0.2285
 9059SOL    HW138813   3.898   3.569   6.042 -0.4152 -0.3834  0.7294
 9059SOL    HW238814   3.924   3.580   6.188  2.0312  0.7404  0.0915
 9060SOL     OW38815   2.855   4.047   9.118 -0.1976 -0.2281  0.4926
 9060SOL    HW138816   2.895   4.106   9.054 -0.0418  0.0524  0.8484
 9060SOL    HW238817   2.872   4.093   9.200 -0.6514 -1.0469  1.0528
 9061SOL     OW38818   2.790   2.895   1.478 -0.7079 -0.1791  0.0507
 9061SOL    HW138819   2.757   2.811   1.509  0.2348  0.1131  1.8597
 9061SOL    HW238820   2.803   2.882   1.384 -0.1082 -1.0313  0.2442
 9062SOL     OW38821   2.620   3.648   2.905 -0.2170  0.0626  0.6165
 9062SOL    HW138822   2.660   3.631   2.990 -0.4690 -1.8087  0.3744
 9062SOL    HW238823   2.690   3.623   2.845  0.1421  2.2255  0.1542
 9063SOL     OW38824   2.190   3.532   7.199  0.1114 -0.4657  0.1240
 9063SOL    HW138825   2.284   3.521   7.214  0.8277  1.4553 -2.8466
 9063SOL    HW238826   2.166   3.597   7.265  1.7460  2.1525 -1.8144
 9064SOL     OW38827   3.544   0.930   3.401 -0.3657 -0.3490 -0.3224
 9064SOL    HW138828   3.525   0.943   3.308 -0.7266 -0.2562 -0.2360
 9064SOL    HW238829   3.565   0.837   3.391 -1.0176 -0.7381  2.0760
 9065SOL     OW38830   2.633   4.376   0.768  0.4549  0.6707 -0.1424
 9065SOL    HW138831   2.672   4.315   0.831  1.0616  1.2262  0.0158
 9065SOL    HW238832   2.706   4.378   0.707  2.4021 -0.0090  2.1603
 9066SOL     OW38833   1.586   0.910   8.271  0.5042  0.1136 -0.2384
 9066SOL    HW138834   1.516   0.913   8.337  0.1681 -1.6266 -0.5381
 9066SOL    HW238835   1.567   0.983   8.212  0.1490  0.9849  0.9448
 9067SOL     OW38836   0.095   1.221  14.255  0.3962  0.4037 -0.0025
 9067SOL    HW138837   0.111   1.127  14.258  0.5858  0.4195 -0.5263
 9067SOL    HW238838   0.003   1.216  14.284  0.3389  1.6745  0.0221
 9068SOL     OW38839   2.448   1.681   3.520 -0.2185 -0.2659 -0.2501
 9068SOL    HW138840   2.436   1.766   3.477  0.2266 -1.6121 -3.0261
 9068SOL    HW238841   2.481   1.703   3.608 -1.1720 -2.2217  0.5882
 9069SOL     OW38842   0.123   2.703  15.277  0.0667  0.1505 -0.9343
 9069SOL    HW138843   0.078   2.784  15.253  0.5732  0.0458 -2.2295
 9069SOL    HW238844   0.116   2.698  15.372  0.1751  1.8728 -0.8358
 9070SOL     OW38845   4.414   2.697   2.821 -0.6443 -0.6480  0.1468
 9070SOL    HW138846   4.497   2.669   2.860 -0.2237 -0.3562 -0.5486
 9070SOL    HW238847   4.371   2.613   2.801 -0.1863 -0.8805  0.1378
 9071SOL     OW38848   0.114   0.799   4.435  0.2610  0.4541 -0.0671
 9071SOL    HW138849   0.087   0.872   4.491  0.1787 -0.3643  0.9424
 9071SOL    HW238850   0.183   0.843   4.386  0.6701 -0.2026 -0.0762
 9072SOL     OW38851   0.931   3.209   7.878 -0.4076 -0.1587 -0.3439
 9072SOL    HW138852   0.887   3.261   7.946  2.7926  1.1855  0.7039
 9072SOL    HW238853   0.914   3.252   7.795 -0.4410 -0.6116 -0.5732
 9073SOL     OW38854   2.916   0.100  14.290 -0.4011 -0.0210 -0.2108
 9073SOL    HW138855   2.872   0.050  14.222 -0.0470  2.0704 -1.9642
 9073SOL    HW238856   2.972   0.032  14.328  0.1453  0.1997 -0.6206
 9074SOL     OW38857   0.845   4.575   9.248  0.5974 -0.2821 -0.1306
 9074SOL    HW138858   0.847   4.486   9.214 -0.8900 -0.0113 -0.9198
 9074SOL    HW238859   0.841   4.616   9.162  2.5062 -1.1925 -0.6701
 9075SOL     OW38860   3.111   3.089   2.240  0.3352 -0.4264  0.1130
 9075SOL    HW138861   3.188   3.084   2.183  0.6550 -0.3424  0.5325
 9075SOL    HW238862   3.153   3.072   2.324 -0.2964 -1.6198  0.1960
 9076SOL     OW38863   2.554   3.451   4.788  0.3597  0.5803  0.0287
 9076SOL    HW138864   2.569   3.421   4.699 -2.1111 -2.0374  0.5016
 9076SOL    HW238865   2.630   3.423   4.839  0.6754  2.1468  0.4207
 9077SOL     OW38866   0.723   4.242   7.307 -0.0483 -0.0444  1.0316
 9077SOL    HW138867   0.726   4.149   7.330 -2.8742 -0.9331 -2.0409
 9077SOL    HW238868   0.813   4.266   7.286 -0.4262  0.1711 -0.3675
 9078SOL     OW38869   4.375   4.498   7.516 -0.0627  0.1741  0.0074
 9078SOL    HW138870   4.410   4.411   7.535 -1.9287 -1.0819 -2.3174
 9078SOL    HW238871   4.447   4.558   7.499 -0.8083  0.7284 -1.1684
 9079SOL     OW38872   2.358   2.482  15.618 -0.2371  0.7258 -0.2508
 9079SOL    HW138873   2.327   2.445  15.536 -0.5610 -0.4668  0.4011
 9079SOL    HW238874   2.441   2.434  15.613  1.7241  4.3048 -2.2658
 9080SOL     OW38875   0.845   4.565   3.763 -0.6834  0.0559  0.2822
 9080SOL    HW138876   0.767   4.518   3.732  2.2984 -4.0838 -1.0234
 9080SOL    HW238877   0.857   4.533   3.852 -0.2008  0.8346  0.4900
 9081SOL     OW38878   0.168   2.931  10.352  0.9186 -0.1742  0.0676
 9081SOL    HW138879   0.181   2.872  10.278 -0.0252  1.7747 -1.6432
 9081SOL    HW238880   0.212   2.875  10.416  2.4688  1.0219  0.0373
 9082SOL     OW38881   0.806   2.786   3.621  0.3646 -0.1502 -0.0473
 9082SOL    HW138882   0.713   2.795   3.602 -0.0254 -2.2219  0.9410
 9082SOL    HW238883   0.798   2.746   3.707 -1.0726 -1.0448 -0.5948
 9083SOL     OW38884   2.143   2.219   2.371  0.3710  0.3922  0.5564
 9083SOL    HW138885   2.094   2.171   2.304  1.6723 -0.4427  0.2297
 9083SOL    HW238886   2.075   2.258   2.428 -0.8294 -2.1834  0.8742
 9084SOL     OW38887   3.051   0.593  10.152  0.2592  0.5328  0.2668
 9084SOL    HW138888   3.083   0.577  10.240 -2.4210 -4.1334  0.3908
 9084SOL    HW238889   3.097   0.525  10.101  1.1765  0.7692  0.7762
 9085SOL     OW38890   3.797   3.404  14.787  0.2977  0.9181 -0.3443
 9085SOL    HW138891   3.724   3.457  14.819 -0.6622  0.5258 -1.9103
 9085SOL    HW238892   3.809   3.340  14.857  1.5502  0.6406 -0.8153
 9086SOL     OW38893   2.454   0.055  13.829  0.1470  0.1919 -0.1506
 9086SOL    HW138894   2.493   0.121  13.772  1.7873 -1.4758 -0.9653
 9086SOL    HW238895   2.495   4.712  13.798  1.7178  0.7166  0.5188
 9087SOL     OW38896   1.468   0.605   8.368  0.8841  0.2366  0.4928
 9087SOL    HW138897   1.397   0.629   8.427 -1.0032 -0.3406 -1.5055
 9087SOL    HW238898   1.545   0.627   8.420  0.4913  0.2323  1.0719
 9088SOL     OW38899   2.727   3.683   6.386 -0.5537  0.1134  0.2383
 9088SOL    HW138900   2.728   3.598   6.342 -1.7263 -0.2297  0.8745
 9088SOL    HW238901   2.778   3.683   6.467 -0.8409  0.5710  0.4210
 9089SOL     OW38902   4.423   2.982   9.947 -0.3752 -0.6412  0.2378
 9089SOL    HW138903   4.390   3.066   9.915 -0.8322 -0.8010  0.2830
 9089SOL    HW238904   4.349   2.929   9.919  1.2031 -2.1873 -0.9775
 9090SOL     OW38905   3.395   0.749  12.529  0.3803 -0.2963 -0.3670
 9090SOL    HW138906   3.399   0.664  12.484 -4.3492 -0.3616 -0.7034
 9090SOL    HW238907   3.342   0.728  12.606  2.0743 -3.0261  0.0860
 9091SOL     OW38908   3.139   0.723   2.110  0.2935  0.2051  0.3702
 9091SOL    HW138909   3.052   0.684   2.103  0.7475 -1.2444  2.8666
 9091SOL    HW238910   3.177   0.736   2.023 -0.2628 -2.3436 -0.2512
 9092SOL     OW38911   2.100   4.179  11.500  0.0389  0.3447 -0.4593
 9092SOL    HW138912   2.097   4.180  11.595 -2.0685  0.3451 -0.5194
 9092SOL    HW238913   2.178   4.124  11.491  0.1920  0.5151 -0.1636
 9093SOL     OW38914   3.387   0.642  10.480 -0.4463  0.2971  0.0966
 9093SOL    HW138915   3.310   0.698  10.480 -0.6955 -0.0632 -1.5170
 9093SOL    HW238916   3.425   0.681  10.402  1.4354 -0.7258  0.4943
 9094SOL     OW38917   4.086   3.931  17.336  0.0201 -0.1395  0.4969
 9094SOL    HW138918   4.028   3.913  17.262  0.8316 -0.0892 -0.1435
 9094SOL    HW238919   4.155   3.982  17.294 -0.9280  0.2600 -0.5883
 9095SOL     OW38920   4.039   0.536   3.033  0.1781  0.9299  0.1135
 9095SOL    HW138921   4.036   0.551   2.938  0.7070 -0.0278 -0.0513
 9095SOL    HW238922   3.978   0.468   3.058  1.5044  0.2405  1.4830
 9096SOL     OW38923   1.624   4.286   5.459  0.2025 -0.5802 -0.5773
 9096SOL    HW138924   1.602   4.303   5.550 -0.6805  1.5794 -1.2041
 9096SOL    HW238925   1.555   4.223   5.437 -0.2203 -0.3447  0.1147
 9097SOL     OW38926   3.163   1.920   9.081 -0.6358  0.3773 -0.2240
 9097SOL    HW138927   3.199   1.953   8.999  0.2062 -0.5827 -0.2309
 9097SOL    HW238928   3.077   1.891   9.049 -1.1179  0.5001  0.9482
 9098SOL     OW38929   1.438   2.823   8.304 -0.3999  0.1024  0.0667
 9098SOL    HW138930   1.380   2.868   8.243  1.5618  2.1837 -0.2742
 9098SOL    HW238931   1.515   2.880   8.299  0.0320 -0.4369  0.6306
 9099SOL     OW38932   0.519   3.633   6.716 -0.0622 -0.1446  0.0258
 9099SOL    HW138933   0.571   3.613   6.638  1.4302  0.1300  0.9474
 9099SOL    HW238934   0.529   3.728   6.711 -1.6111 -0.0113 -0.6486
 9100SOL     OW38935   0.636   4.384   8.118  0.4708  0.2440  0.1908
 9100SOL    HW138936   0.699   4.436   8.068 -1.0004  0.9540 -0.8970
 9100SOL    HW238937   0.685   4.301   8.124 -0.6346 -0.4042  0.1738
 9101SOL     OW38938   1.423   0.228   5.500  0.4655 -0.0272 -0.1534
 9101SOL    HW138939   1.509   0.185   5.506  0.7848  0.6265  0.0104
 9101SOL    HW238940   1.450   0.311   5.460 -1.3142  1.5549  1.8580
 9102SOL     OW38941   2.276   4.732   1.792  0.3114 -0.4740 -0.8665
 9102SOL    HW138942   2.330   4.723   1.713 -0.6214  2.0055 -1.7817
 9102SOL    HW238943   2.289   0.087   1.812 -0.7213  0.0064 -2.4158
 9103SOL     OW38944   1.207   4.283   8.785  0.2711  0.3056 -0.2769
 9103SOL    HW138945   1.296   4.248   8.794 -0.4723 -1.4578  0.3028
 9103SOL    HW238946   1.237   4.373   8.789  0.1125  0.2196  2.9888
 9104SOL     OW38947   3.179   3.882   6.761 -0.0437  0.0942  0.9239
 9104SOL    HW138948   3.222   3.849   6.840  3.3716 -0.1939 -1.0730
 9104SOL    HW238949   3.251   3.907   6.703  0.5460 -1.1751  1.1059
 9105SOL     OW38950   3.173   4.208  15.309 -0.6664  0.0694 -0.1766
 9105SOL    HW138951   3.250   4.166  15.269  0.2095  0.5932  0.9595
 9105SOL    HW238952   3.126   4.238  15.231 -1.9613 -1.1065  0.1519
 9106SOL     OW38953   0.094   0.887   5.339 -0.0615 -0.0633 -0.4377
 9106SOL    HW138954   0.023   0.860   5.397  1.8760 -3.0543  0.5686
 9106SOL    HW238955   0.061   0.959   5.286  1.6881  0.6581 -0.5347
 9107SOL     OW38956   0.392   0.361  13.907 -0.2502  0.0370 -0.4585
 9107SOL    HW138957   0.402   0.284  13.964  2.6765  0.3722 -0.4921
 9107SOL    HW238958   0.437   0.434  13.950 -0.1366  0.1227 -0.7255
 9108SOL     OW38959   1.457   0.490   6.811 -0.0855 -0.3672 -0.3752
 9108SOL    HW138960   1.405   0.469   6.889 -0.3470 -0.1785 -0.5025
 9108SOL    HW238961   1.389   0.492   6.745 -0.6001  0.8887  0.2036
 9109SOL     OW38962   4.002   4.428   6.198 -0.6372  0.5124  0.1498
 9109SOL    HW138963   3.910   4.456   6.193 -0.6039  0.7320  0.8045
 9109SOL    HW238964   4.029   4.452   6.287 -0.5491  0.1280  0.2256
 9110SOL     OW38965   3.060   0.860   4.513 -0.0752 -0.4690 -0.0936
 9110SOL    HW138966   3.026   0.871   4.424 -1.1195 -0.1866  0.3499
 9110SOL    HW238967   3.009   0.927   4.558 -0.8199 -0.4594 -0.9346
 9111SOL     OW38968   1.254   0.500   6.643  0.0446  0.6753  0.6372
 9111SOL    HW138969   1.189   0.544   6.697 -2.4350 -0.1925 -1.6320
 9111SOL    HW238970   1.277   0.569   6.580  0.4947 -0.9114 -0.9588
 9112SOL     OW38971   0.540   0.390   9.864 -0.4272  0.3790 -0.1215
 9112SOL    HW138972   0.575   0.479   9.856 -1.5157  0.9421  1.3953
 9112SOL    HW238973   0.466   0.393   9.924 -0.6540  0.6981 -0.4175
 9113SOL     OW38974   2.988   4.107   7.430 -0.4590 -0.2714  0.2815
 9113SOL    HW138975   2.938   4.172   7.480 -0.9308  0.0402 -0.5905
 9113SOL    HW238976   2.986   4.151   7.344  0.1761  0.6574  0.7325
 9114SOL     OW38977   2.110   0.692   8.767  0.8047 -0.7210  0.1338
 9114SOL    HW138978   2.048   0.695   8.840  2.4734  2.3246  1.4155
 9114SOL    HW238979   2.195   0.666   8.801  0.1932 -2.8316  0.0437
 9115SOL     OW38980   4.721   2.969  11.781 -0.5366 -0.4626 -0.2053
 9115SOL    HW138981   0.010   3.047  11.734  1.7713  0.1728  2.1809
 9115SOL    HW238982   0.063   2.916  11.788 -0.0021  0.5489  1.3703
 9116SOL     OW38983   0.705   4.321  17.521  0.5987 -0.2208  0.2334
 9116SOL    HW138984   0.651   4.268  17.579 -1.5145 -0.6002 -2.0940
 9116SOL    HW238985   0.759   4.366  17.586  1.4841 -0.6344 -0.2244
 9117SOL     OW38986   2.659   2.400   7.876  0.2369  0.4840  0.1278
 9117SOL    HW138987   2.704   2.316   7.876 -0.6736 -0.0009  1.6058
 9117SOL    HW238988   2.721   2.454   7.925  2.0322  0.7729 -2.4507
 9118SOL     OW38989   1.201   4.584   0.792  0.0218  0.0557 -0.0050
 9118SOL    HW138990   1.129   4.527   0.820 -1.0964  0.9385 -1.0754
 9118SOL    HW238991   1.263   4.536   0.737 -0.4242  1.4466 -1.7543
 9119SOL     OW38992   1.083   2.032   3.421  0.2308 -0.7265  0.2466
 9119SOL    HW138993   1.024   2.082   3.364  1.1572  2.5116  2.1092
 9119SOL    HW238994   1.051   2.055   3.508 -0.0766 -0.1539 -0.0112
 9120SOL     OW38995   2.205   2.467   6.429 -0.1478  0.3081 -0.0674
 9120SOL    HW138996   2.296   2.493   6.415 -0.0924  0.2674  0.2097
 9120SOL    HW238997   2.159   2.529   6.371  0.0473 -0.1775 -0.7405
 9121SOL     OW38998   0.303   0.636   3.598  0.4724 -0.1496  0.0461
 9121SOL    HW138999   0.226   0.611   3.650 -0.1107 -0.1188 -0.8120
 9121SOL    HW239000   0.381   0.626   3.654 -0.4730  0.0724  1.3963
 9122SOL     OW39001   0.201   3.904   5.133 -0.0494 -0.0394  0.8139
 9122SOL    HW139002   0.191   3.811   5.116 -2.2089  0.1353  1.0939
 9122SOL    HW239003   0.110   3.933   5.138 -0.6631 -1.4079 -2.6168
 9123SOL     OW39004   3.846   3.541   6.781  0.1091  0.0080  0.5282
 9123SOL    HW139005   3.789   3.465   6.789 -2.6533  2.1414  1.3564
 9123SOL    HW239006   3.888   3.523   6.698  1.0895  2.5089  0.4784
 9124SOL     OW39007   0.850   2.965   7.673  0.2389  0.0996 -0.2335
 9124SOL    HW139008   0.835   2.910   7.597 -1.2254 -0.3216  0.3482
 9124SOL    HW239009   0.770   2.937   7.718  0.7185 -2.1440 -0.8143
 9125SOL     OW39010   1.608   2.443  12.296 -0.1468 -0.4558  0.0290
 9125SOL    HW139011   1.577   2.515  12.241 -0.8177  1.0545  2.4018
 9125SOL    HW239012   1.576   2.363  12.255 -0.1144  0.4229 -1.7075
 9126SOL     OW39013   2.943   3.557  16.440 -0.5236 -0.1002  0.0759
 9126SOL    HW139014   2.978   3.489  16.382  0.2106  0.6971 -0.3983
 9126SOL    HW239015   2.862   3.518  16.475 -0.0294 -2.2191 -1.1328
 9127SOL     OW39016   1.458   4.136   0.492  0.1093  0.3704  0.9881
 9127SOL    HW139017   1.397   4.203   0.521  0.2357  1.0902 -0.3934
 9127SOL    HW239018   1.411   4.073   0.437 -0.1097  1.8451 -0.5137
 9128SOL     OW39019   0.021   1.631   2.970  0.6840 -0.0522 -0.1885
 9128SOL    HW139020   0.051   1.699   2.909  2.4624 -2.2526 -1.7889
 9128SOL    HW239021   0.068   1.557   2.931  1.8068  1.8786 -2.5336
 9129SOL     OW39022   4.302   0.997   6.259 -0.0945 -1.0506 -0.3802
 9129SOL    HW139023   4.303   0.902   6.245 -0.1405 -1.2543  0.9416
 9129SOL    HW239024   4.300   0.996   6.355  2.0198  0.0928 -0.3344
 9130SOL     OW39025   4.563   3.502  12.026 -0.2912 -0.1530 -0.1303
 9130SOL    HW139026   4.537   3.497  11.935  0.0445  0.6278 -0.2670
 9130SOL    HW239027   4.631   3.569  12.030 -0.6058  0.1743 -0.3710
 9131SOL     OW39028   0.966   0.452   5.641  0.2125  0.8131 -0.0601
 9131SOL    HW139029   0.987   0.375   5.589  2.3034 -0.4361  2.6823
 9131SOL    HW239030   1.000   0.515   5.577 -2.0162  0.0091 -2.0369
 9132SOL     OW39031   3.231   0.859   0.346  0.1941  0.0843 -0.1590
 9132SOL    HW139032   3.152   0.911   0.327  3.7176  4.8780 -1.6499
 9132SOL    HW239033   3.208   0.776   0.304 -0.4032  0.6560 -0.9575
 9133SOL     OW39034   0.180   0.001   5.869  0.4171  0.3343  0.0888
 9133SOL    HW139035   0.143   0.036   5.950  1.9227 -1.5081  1.5517
 9133SOL    HW239036   0.198   4.649   5.896 -2.2814 -0.3548 -0.3920
 9134SOL     OW39037   0.377   0.318   3.508  0.4912  0.4995 -0.0898
 9134SOL    HW139038   0.402   0.280   3.592  1.8904  0.6726 -0.4279
 9134SOL    HW239039   0.289   0.338   3.540 -0.0266 -0.3405 -0.9817
 9135SOL     OW39040   1.712   2.179   5.096  0.0416  0.0306 -0.1346
 9135SOL    HW139041   1.702   2.086   5.117 -0.2615 -0.2187 -1.3729
 9135SOL    HW239042   1.618   2.196   5.088  0.3345  1.8529  0.4319
 9136SOL     OW39043   3.138   0.183   9.298  0.1304 -0.5191  0.5295
 9136SOL    HW139044   3.122   0.088   9.298 -1.8663 -0.1557 -1.3508
 9136SOL    HW239045   3.049   0.214   9.313 -0.0190  0.2701 -2.0963
 9137SOL     OW39046   4.690   0.041   4.814  0.5552 -0.0718  0.0680
 9137SOL    HW139047   0.045   0.020   4.800  0.2477 -0.7024 -1.0267
 9137SOL    HW239048   4.687   0.112   4.878  2.6037  0.9394 -0.9670
 9138SOL     OW39049   1.743   3.325  17.429 -0.3723 -0.0272 -0.0780
 9138SOL    HW139050   1.724   3.264  17.500 -0.8135  1.2377  0.8727
 9138SOL    HW239051   1.837   3.338  17.419 -0.1612 -1.5347 -0.1433
 9139SOL     OW39052   1.880   0.088  10.896 -0.3751 -0.0348 -0.1057
 9139SOL    HW139053   1.814   0.140  10.942  0.0809  0.9816 -0.5878
 9139SOL    HW239054   1.952   0.151  10.905  0.2531 -0.6050 -1.0718
 9140SOL     OW39055   2.862   0.903   7.119 -0.2692 -0.0776 -0.5825
 9140SOL    HW139056   2.797   0.920   7.051 -0.5557 -0.2214 -0.3455
 9140SOL    HW239057   2.809   0.920   7.197  0.5113  0.5507 -0.1854
 9141SOL     OW39058   4.289   2.994   3.017 -0.3673  0.2283 -0.2374
 9141SOL    HW139059   4.309   2.997   2.923  2.1471  1.4587  0.3248
 9141SOL    HW239060   4.360   2.937   3.047 -1.9021 -0.9412  1.1980
 9142SOL     OW39061   0.385   2.133   7.185 -0.5772 -0.4815  0.8399
 9142SOL    HW139062   0.387   2.039   7.170  2.1254 -0.0925 -1.2456
 9142SOL    HW239063   0.432   2.158   7.105  0.3838 -2.0445  0.9262
 9143SOL     OW39064   0.361   3.909   7.436  0.1048  0.7222  0.1833
 9143SOL    HW139065   0.406   3.854   7.500  1.1325  0.7294 -0.5291
 9143SOL    HW239066   0.425   3.895   7.366 -0.7113 -1.7627 -0.0895
 9144SOL     OW39067   4.129   0.901  16.556  0.7494 -0.2593 -0.8498
 9144SOL    HW139068   4.050   0.941  16.592  0.6483 -0.7237 -0.5616
 9144SOL    HW239069   4.161   0.967  16.495 -0.2688  0.3078 -0.7746
 9145SOL     OW39070   2.653   2.984   8.580  0.2118 -0.3804 -0.2262
 9145SOL    HW139071   2.710   2.908   8.590  0.1488 -0.5465 -1.1395
 9145SOL    HW239072   2.633   2.973   8.487  0.3419 -0.7278 -0.2120
 9146SOL     OW39073   1.648   4.124   3.073  0.0137 -0.1773  0.2089
 9146SOL    HW139074   1.630   4.053   3.134 -0.8229  1.0481  1.3868
 9146SOL    HW239075   1.644   4.203   3.127 -0.7723 -0.3241  0.3651
 9147SOL     OW39076   2.835   0.010   4.168 -0.1145 -0.4157 -0.2314
 9147SOL    HW139077   2.904   0.068   4.136 -1.4746  1.3507  0.0229
 9147SOL    HW239078   2.876   4.708   4.245 -0.3491  0.1778  0.2021
 9148SOL     OW39079   2.123   3.706  15.600 -0.3329 -0.0289  0.3057
 9148SOL    HW139080   2.192   3.640  15.607  1.6643  1.7190 -2.7754
 9148SOL    HW239081   2.158   3.760  15.671  0.8665 -0.6531  0.1983
 9149SOL     OW39082   0.163   4.145   9.928 -0.0072  0.4094  0.0947
 9149SOL    HW139083   0.117   4.064   9.953  0.5566 -0.3976 -1.5043
 9149SOL    HW239084   0.151   4.202  10.004  1.6945 -0.9870  1.4279
 9150SOL     OW39085   2.505   2.308   6.798  0.3209 -0.1327 -0.5014
 9150SOL    HW139086   2.519   2.403   6.798 -1.3091  0.0871  1.9588
 9150SOL    HW239087   2.558   2.285   6.722 -2.0177 -0.7737 -1.9438
 9151SOL     OW39088   4.543   1.037   4.019  0.3859  0.4215  0.3728
 9151SOL    HW139089   4.511   1.013   4.106  1.0828 -2.4370 -0.1667
 9151SOL    HW239090   4.455   1.060   3.988  0.6339 -0.0571 -0.6835
 9152SOL     OW39091   4.699   0.107   7.696  0.0862 -0.0687  0.2211
 9152SOL    HW139092   0.027   0.131   7.762 -0.4907 -1.3223  1.2521
 9152SOL    HW239093   4.625   0.155   7.732 -1.6866 -1.5573 -1.4429
 9153SOL     OW39094   0.248   4.020   7.651 -0.4100 -0.3715  0.2281
 9153SOL    HW139095   0.299   4.101   7.647 -0.3669 -0.4014  0.1629
 9153SOL    HW239096   0.267   3.970   7.571  1.2112  2.0096 -0.8975
 9154SOL     OW39097   1.630   1.913   6.639  0.0522  0.0013 -0.0091
 9154SOL    HW139098   1.697   1.950   6.697 -1.4994  0.8533  1.2363
 9154SOL    HW239099   1.678   1.839   6.602  1.4219  0.3566  1.0503
 9155SOL     OW39100   1.065   3.110   3.212 -0.8581 -0.2591  0.2494
 9155SOL    HW139101   1.054   3.015   3.212 -0.0770 -0.3396  2.0691
 9155SOL    HW239102   1.103   3.127   3.298 -0.2695 -3.5229  0.6337
 9156SOL     OW39103   0.993   3.841   3.221 -0.6398  0.6441  0.5972
 9156SOL    HW139104   1.061   3.786   3.262  0.2050  1.2630  0.0026
 9156SOL    HW239105   1.039   3.850   3.138 -1.0808  4.6202  0.8126
 9157SOL     OW39106   1.867   3.782  15.980  0.4240 -0.0933  0.4021
 9157SOL    HW139107   1.936   3.719  16.000  2.4955  1.2859 -2.4345
 9157SOL    HW239108   1.824   3.742  15.904  1.2373  1.9412 -1.1496
 9158SOL     OW39109   3.759   4.250   6.440 -0.5475 -0.3014 -0.3809
 9158SOL    HW139110   3.732   4.193   6.368 -0.4898 -2.2651  1.1481
 9158SOL    HW239111   3.774   4.334   6.397 -0.1039  0.9527  2.2788
 9159SOL     OW39112   4.015   3.347  16.094 -0.0502  0.7540  0.9310
 9159SOL    HW139113   4.100   3.325  16.134  0.8226  0.2991 -1.1866
 9159SOL    HW239114   4.041   3.338  16.002  2.9985  1.1113  1.7451
 9160SOL     OW39115   2.677   3.468  11.491  0.0360 -0.2996  0.3523
 9160SOL    HW139116   2.754   3.472  11.547  0.2461  0.8669 -0.0291
 9160SOL    HW239117   2.711   3.479  11.402  3.3828 -0.1943  1.6607
 9161SOL     OW39118   4.430   4.572   3.388 -0.1097  0.1062 -0.5695
 9161SOL    HW139119   4.386   4.586   3.472 -1.2922  0.6285 -1.2697
 9161SOL    HW239120   4.449   4.655   3.345 -1.2296  0.5150 -0.2727
 9162SOL     OW39121   2.692   3.007   7.717 -0.4638 -0.1856 -0.4016
 9162SOL    HW139122   2.683   2.914   7.738 -1.6876  0.1483  0.5390
 9162SOL    HW239123   2.609   3.013   7.671 -2.0773  1.0286  2.6533
 9163SOL     OW39124   0.021   3.772  11.821 -0.2833 -0.6517 -0.8202
 9163SOL    HW139125   0.023   3.774  11.726 -0.6403  4.5704 -0.7329
 9163SOL    HW239126   0.070   3.693  11.845  0.5839 -0.2618 -1.3527
 9164SOL     OW39127   2.010   0.363  13.405  0.6243 -0.0397 -0.3584
 9164SOL    HW139128   2.069   0.402  13.470 -0.7569  1.1802  0.1546
 9164SOL    HW239129   1.948   0.311  13.456 -1.1987 -0.0613 -2.6410
 9165SOL     OW39130   0.633   3.776   4.666  0.3667  0.6162 -0.4062
 9165SOL    HW139131   0.637   3.705   4.602  0.9953  0.9478 -0.7389
 9165SOL    HW239132   0.658   3.850   4.611 -1.0567  1.5324  0.1867
 9166SOL     OW39133   0.267   3.329  16.846 -0.1139 -0.4211 -0.5942
 9166SOL    HW139134   0.312   3.397  16.896 -2.0175 -0.2845  0.8996
 9166SOL    HW239135   0.312   3.253  16.883 -0.3133  0.4350  1.4115
 9167SOL     OW39136   0.464   1.400   8.006  0.0316  0.4737  0.2053
 9167SOL    HW139137   0.499   1.325   8.054  1.5108  0.2951 -1.1482
 9167SOL    HW239138   0.501   1.381   7.920 -0.6380  0.3406 -0.0538
 9168SOL     OW39139   1.216   1.606   1.789 -0.0309 -0.3278 -0.4667
 9168SOL    HW139140   1.293   1.550   1.802  0.9050  1.4429  1.6002
 9168SOL    HW239141   1.220   1.624   1.695 -0.7731 -1.3021 -0.6812
 9169SOL     OW39142   4.176   4.023   6.731 -0.7526 -0.3235 -0.0698
 9169SOL    HW139143   4.101   4.081   6.718 -2.0550 -1.7938  0.7955
 9169SOL    HW239144   4.144   3.954   6.673  0.0261 -0.7161 -0.0303
 9170SOL     OW39145   1.054   3.807   1.160 -0.3596 -0.2559 -0.2671
 9170SOL    HW139146   1.072   3.720   1.126 -1.1157 -1.0444  1.3669
 9170SOL    HW239147   1.035   3.862   1.084 -0.7779 -0.0182  0.0072
 9171SOL     OW39148   4.683   4.442  13.843  0.3716 -0.3532 -0.0158
 9171SOL    HW139149   4.661   4.484  13.926  2.9108  0.6732  0.1472
 9171SOL    HW239150   4.725   4.360  13.872 -0.0986 -1.3413 -2.0922
 9172SOL     OW39151   2.657   0.331   8.848  0.1235  0.2593  0.1411
 9172SOL    HW139152   2.640   0.405   8.907 -1.9544 -0.5247  0.4971
 9172SOL    HW239153   2.736   0.296   8.889 -0.6343  0.5471  1.8353
 9173SOL     OW39154   4.584   0.029  17.454 -0.1679 -0.2642 -0.1832
 9173SOL    HW139155   4.553   0.119  17.453  0.0200 -0.2026 -0.4522
 9173SOL    HW239156   4.637   0.028  17.534 -0.7035 -3.2408  0.1541
 9174SOL     OW39157   1.119   0.980  10.941  0.4974  0.1819  0.0799
 9174SOL    HW139158   1.212   0.999  10.953  0.7676 -1.4590  0.6177
 9174SOL    HW239159   1.118   0.888  10.915  1.2792  0.0378  0.5798
 9175SOL     OW39160   4.690   0.709   5.512 -0.5085 -0.3042  0.2677
 9175SOL    HW139161   4.712   0.616   5.504 -1.7891 -0.7837  2.2489
 9175SOL    HW239162   4.728   0.736   5.596  0.6704 -1.7449  0.1848
 9176SOL     OW39163   0.228   2.236   4.422  0.5157  0.2193 -0.0358
 9176SOL    HW139164   0.270   2.179   4.358  0.3785 -0.4000  0.4238
 9176SOL    HW239165   0.140   2.238   4.383  0.8783  1.4663 -0.8066
 9177SOL     OW39166   0.333   4.627   2.066  0.1657  0.2316 -0.2298
 9177SOL    HW139167   0.317   4.667   1.981  2.5448  0.7472 -0.4401
 9177SOL    HW239168   0.426   4.606   2.059  0.0406 -0.0663 -1.0299
 9178SOL     OW39169   1.837   4.426  11.844  0.0478 -0.3073 -0.6280
 9178SOL    HW139170   1.761   4.449  11.898 -1.1177  0.1543 -2.4468
 9178SOL    HW239171   1.873   4.513  11.824  2.0140 -1.5022 -2.2544
 9179SOL     OW39172   0.544   3.982   1.665  0.5898  0.0742 -0.4444
 9179SOL    HW139173   0.592   3.936   1.596  0.5480 -0.6972  0.0445
 9179SOL    HW239174   0.604   3.956   1.735  0.3946 -0.6236 -0.5358
 9180SOL     OW39175   0.864   3.226   7.601 -0.3265 -0.0002  0.9347
 9180SOL    HW139176   0.869   3.229   7.505 -1.4480  1.1184  0.9243
 9180SOL    HW239177   0.876   3.132   7.614 -1.3500 -0.0671  1.3375
 9181SOL     OW39178   4.370   2.649   6.434  0.2678 -0.2446  0.0791
 9181SOL    HW139179   4.411   2.656   6.520  1.3898  0.6373 -0.5139
 9181SOL    HW239180   4.357   2.555   6.430  1.3278 -0.4446  1.4754
 9182SOL     OW39181   3.497   0.622   0.082  0.1294 -0.4002 -0.1144
 9182SOL    HW139182   3.557   0.562   0.038  1.6214  1.7877 -1.0721
 9182SOL    HW239183   3.423   0.609   0.022 -1.2426  1.0625  1.2869
 9183SOL     OW39184   3.687   0.107   2.320 -0.1682  0.8533  0.2223
 9183SOL    HW139185   3.630   0.153   2.381 -2.2234 -0.4752 -0.6943
 9183SOL    HW239186   3.660   0.155   2.241  0.7466 -0.0402 -0.6258
 9184SOL     OW39187   1.308   1.730   8.121 -0.1666 -0.0548 -0.0741
 9184SOL    HW139188   1.312   1.810   8.173  0.4398 -0.9331  1.2307
 9184SOL    HW239189   1.245   1.769   8.060  2.0692  1.2709 -1.5574
 9185SOL     OW39190   4.710   0.852   5.810  0.2297 -0.2530  0.3016
 9185SOL    HW139191   4.696   0.766   5.848  1.1966 -0.2307  0.7167
 9185SOL    HW239192   0.051   0.880   5.858 -0.1064 -1.9891  1.8539
 9186SOL     OW39193   3.028   1.928   5.964 -0.0796 -0.2271  0.2044
 9186SOL    HW139194   3.085   1.854   5.942  1.8738  1.0424  1.0460
 9186SOL    HW239195   2.953   1.885   6.006 -1.0613 -0.0444 -1.3605
 9187SOL     OW39196   1.387   3.088   9.904  0.2280 -0.5330 -0.2957
 9187SOL    HW139197   1.423   3.044   9.980 -2.3810 -3.2002 -0.5872
 9187SOL    HW239198   1.440   3.167   9.889 -0.4617  0.2629  1.4352
 9188SOL     OW39199   1.142   3.005   8.864 -0.4488 -0.4032  0.2627
 9188SOL    HW139200   1.212   2.961   8.913 -0.5791 -1.0919 -0.1770
 9188SOL    HW239201   1.157   2.967   8.777 -1.3969 -0.3553  0.0836
 9189SOL     OW39202   2.703   1.501   9.508  0.6292  0.3097  0.0343
 9189SOL    HW139203   2.624   1.551   9.489 -0.6741 -1.4023  1.0207
 9189SOL    HW239204   2.753   1.495   9.426  0.5751  0.0853  0.0168
 9190SOL     OW39205   0.974   2.769   9.618  0.0311 -0.1027 -0.9368
 9190SOL    HW139206   1.007   2.859   9.613  0.1069 -0.0490  0.5214
 9190SOL    HW239207   0.889   2.773   9.663  1.3113  2.6814  1.2704
 9191SOL     OW39208   2.744   0.495  11.008 -0.6159  0.3607 -0.2835
 9191SOL    HW139209   2.806   0.492  10.935 -0.6309  3.6502 -0.4338
 9191SOL    HW239210   2.679   0.561  10.985  0.3478  0.4835 -2.6549
 9192SOL     OW39211   2.795   1.259  11.556  0.0522  0.6247 -0.1889
 9192SOL    HW139212   2.768   1.296  11.472 -2.3103  0.7175  0.6208
 9192SOL    HW239213   2.733   1.188  11.570  0.4547  0.3787  0.3714
 9193SOL     OW39214   1.720   1.816  14.949  0.3045 -0.4316 -0.5284
 9193SOL    HW139215   1.763   1.900  14.965 -0.0207 -0.4911  0.7053
 9193SOL    HW239216   1.687   1.790  15.035  1.8255 -0.2404  0.1047
 9194SOL     OW39217   1.517   1.157   8.451  0.0955  0.1638  0.2164
 9194SOL    HW139218   1.494   1.064   8.445  1.2787  0.0351 -2.3481
 9194SOL    HW239219   1.431   1.197   8.440  0.4357  0.7112 -0.4362
 9195SOL     OW39220   0.510   3.086   4.042 -0.2016 -0.1623  0.0286
 9195SOL    HW139221   0.506   3.033   3.962 -0.0064 -0.8628  0.4782
 9195SOL    HW239222   0.435   3.143   4.029 -0.0999 -0.8292 -3.4065
 9196SOL     OW39223   1.000   2.034   9.553 -0.0977  0.1389 -0.0207
 9196SOL    HW139224   0.973   2.124   9.536 -1.3193 -0.8444 -3.2519
 9196SOL    HW239225   1.046   2.032   9.469 -3.1661 -1.3622 -1.6692
 9197SOL     OW39226   3.386   3.902  17.721  0.7305 -0.4453 -0.0656
 9197SOL    HW139227   3.366   3.971  17.658 -0.1473 -1.6059 -1.0530
 9197SOL    HW239228   3.300   3.885   0.010  0.7145  0.5828  0.3589
 9198SOL     OW39229   4.405   1.960   8.092  0.1999  0.3715  0.2800
 9198SOL    HW139230   4.316   1.992   8.108  0.0337  0.6416 -1.2063
 9198SOL    HW239231   4.388   1.866   8.089 -0.3757  0.4892 -0.2827
 9199SOL     OW39232   1.576   0.952   8.769  0.3373  0.4230 -0.0885
 9199SOL    HW139233   1.629   0.879   8.737 -1.8453 -0.9454 -0.5699
 9199SOL    HW239234   1.488   0.938   8.735  0.1986  1.2208 -0.0761
 9200SOL     OW39235   3.171   4.275   6.086 -0.2408  0.0043  0.3759
 9200SOL    HW139236   3.084   4.298   6.057  0.1311  0.7758 -0.1215
 9200SOL    HW239237   3.210   4.345   6.137 -0.2852  0.7563 -0.6319
 9201SOL     OW39238   3.581   1.137  13.210  0.3539 -0.6575  0.5816
 9201SOL    HW139239   3.527   1.153  13.132  0.2651  1.6505  1.1113
 9201SOL    HW239240   3.639   1.068  13.178  1.6794  0.9580 -0.5154
 9202SOL     OW39241   1.129   1.188   7.590 -0.2904  0.3568 -0.2196
 9202SOL    HW139242   1.048   1.240   7.592 -0.4721  0.0127  0.9446
 9202SOL    HW239243   1.121   1.151   7.502 -1.1549  1.7185 -0.7242
 9203SOL     OW39244   1.698   2.719   2.436 -0.0842  0.8732 -0.1724
 9203SOL    HW139245   1.738   2.746   2.518 -0.5817 -0.6761  0.5863
 9203SOL    HW239246   1.605   2.707   2.455  1.0133 -3.1357  2.6018
 9204SOL     OW39247   4.696   2.086  15.514 -0.7263  0.0756  0.0370
 9204SOL    HW139248   0.038   2.067  15.564 -0.0080 -0.0091 -1.1586
 9204SOL    HW239249   4.693   2.181  15.508 -2.4561  0.1233  1.4569
 9205SOL     OW39250   3.249   2.301   8.369  0.4569 -0.1025  0.2641
 9205SOL    HW139251   3.335   2.322   8.406 -0.1865  1.3091  0.9848
 9205SOL    HW239252   3.226   2.390   8.342  1.9324  0.6933  1.6519
 9206SOL     OW39253   0.439   4.008   6.953 -0.6843 -0.1423  0.0321
 9206SOL    HW139254   0.373   4.071   6.927 -0.3546  1.4821  3.2070
 9206SOL    HW239255   0.491   4.068   7.006  2.2385  0.5729 -3.5798
 9207SOL     OW39256   3.343   4.442   7.874  0.5135 -0.5904 -0.0455
 9207SOL    HW139257   3.269   4.381   7.874  0.3872 -0.4359 -0.0326
 9207SOL    HW239258   3.355   4.469   7.783 -1.9295  0.6322 -0.0037
 9208SOL     OW39259   3.844   3.722   5.946 -0.0959  0.3643  0.1632
 9208SOL    HW139260   3.857   3.779   6.021  0.8927 -0.1477  0.3754
 9208SOL    HW239261   3.799   3.782   5.887  0.2671  0.3382 -0.1447
 9209SOL     OW39262   2.138   1.190   1.776  0.1148  0.0116 -0.4538
 9209SOL    HW139263   2.156   1.270   1.727  0.0565  0.9100  0.9840
 9209SOL    HW239264   2.219   1.203   1.826  0.4620 -1.8846 -0.5042
 9210SOL     OW39265   0.462   4.631   6.906  0.2254  0.0778  0.0605
 9210SOL    HW139266   0.521   4.697   6.870  0.4351 -0.2639 -0.2308
 9210SOL    HW239267   0.490   4.634   6.997 -1.0843 -1.8204  0.5364
 9211SOL     OW39268   1.336   3.308   8.886 -0.3580  0.0512  0.3945
 9211SOL    HW139269   1.390   3.379   8.852  0.0137 -1.1783 -1.6192
 9211SOL    HW239270   1.276   3.291   8.814 -0.3931  4.5146 -0.6450
 9212SOL     OW39271   3.996   0.824   6.362  0.3046  0.2912  0.2318
 9212SOL    HW139272   3.957   0.904   6.396 -0.8336  0.4172 -1.3810
 9212SOL    HW239273   4.046   0.820   6.444  1.3311  2.1389 -0.3112
 9213SOL     OW39274   4.601   4.287   7.760 -0.2520 -0.4054 -0.3787
 9213SOL    HW139275   4.687   4.323   7.741 -1.0802  1.8248  0.1261
 9213SOL    HW239276   4.605   4.212   7.700  0.4970 -0.1057 -0.6923
 9214SOL     OW39277   1.753   3.827   7.271 -0.0914 -0.0276 -0.1657
 9214SOL    HW139278   1.801   3.809   7.190 -1.3281 -1.1113 -0.6659
 9214SOL    HW239279   1.779   3.915   7.300 -0.5246 -0.4380  1.4389
 9215SOL     OW39280   2.124   0.897   6.289 -0.3737 -0.3852 -0.1707
 9215SOL    HW139281   2.179   0.861   6.359 -0.7254  0.7066  0.6644
 9215SOL    HW239282   2.048   0.845   6.315  1.3458 -1.2421  3.1681
 9216SOL     OW39283   0.781   0.245   3.489 -0.1129  0.0151  0.1998
 9216SOL    HW139284   0.777   0.305   3.564 -2.7807  0.7614 -0.5517
 9216SOL    HW239285   0.825   0.170   3.529  2.9817  1.5990 -0.1776
 9217SOL     OW39286   3.180   0.928   7.723 -0.0239  0.3985 -0.8118
 9217SOL    HW139287   3.271   0.935   7.754 -0.3027  1.6406 -0.2646
 9217SOL    HW239288   3.147   1.014   7.749 -0.0625  0.4385 -0.9973
 9218SOL     OW39289   1.226   4.631   1.947 -0.2290 -0.3153 -0.4673
 9218SOL    HW139290   1.198   4.699   1.887 -1.2047 -0.6028 -0.3324
 9218SOL    HW239291   1.316   4.664   1.953 -1.1211  1.6881  1.7489
 9219SOL     OW39292   3.776   2.175   2.427 -0.2844 -0.4056  0.2517
 9219SOL    HW139293   3.824   2.105   2.383 -0.6081 -1.0475  0.9202
 9219SOL    HW239294   3.691   2.162   2.385 -0.0370  1.2626 -0.7951
 9220SOL     OW39295   3.366   1.422   5.936 -0.1825  0.3851  0.8490
 9220SOL    HW139296   3.378   1.376   6.020  0.3383 -1.2816 -0.1491
 9220SOL    HW239297   3.378   1.510   5.972 -0.3023  1.4317 -1.7138
 9221SOL     OW39298   0.772   2.555   9.037 -0.1978  0.3149  0.0496
 9221SOL    HW139299   0.685   2.534   9.072  0.7361 -0.6041  1.8397
 9221SOL    HW239300   0.749   2.602   8.957 -1.4228 -1.2224 -0.5069
 9222SOL     OW39301   1.026   3.344   8.267 -0.5206 -0.3938  0.2159
 9222SOL    HW139302   0.968   3.272   8.243 -1.8542  0.9350 -0.5642
 9222SOL    HW239303   1.055   3.325   8.357  0.0417 -0.5049  0.0114
 9223SOL     OW39304   2.309   3.416   5.879 -0.4711  0.3091  1.1318
 9223SOL    HW139305   2.371   3.397   5.949  1.2381 -0.7378 -0.6510
 9223SOL    HW239306   2.327   3.358   5.804 -1.2752  1.5392 -0.0115
 9224SOL     OW39307   1.987   2.024   6.520  0.2729  0.5169 -0.4447
 9224SOL    HW139308   2.013   2.109   6.558  1.2224  0.2593 -0.5315
 9224SOL    HW239309   2.069   1.977   6.529 -1.1699 -1.8499  0.2303
 9225SOL     OW39310   3.219   1.264   8.857  0.7791  0.4281 -0.4177
 9225SOL    HW139311   3.225   1.306   8.942 -1.0248 -2.7299  1.2584
 9225SOL    HW239312   3.305   1.228   8.834  1.2776  1.9973 -0.9955
 9226SOL     OW39313   0.308   1.891   3.217 -0.0052 -0.0608 -0.0328
 9226SOL    HW139314   0.326   1.978   3.253 -0.4563  1.0235 -2.4319
 9226SOL    HW239315   0.257   1.902   3.137  1.1158  0.5523 -0.6694
 9227SOL     OW39316   1.854   4.710   6.029 -0.7432 -0.1103  0.1295
 9227SOL    HW139317   1.933   4.684   6.079  0.6893  0.5644 -1.7938
 9227SOL    HW239318   1.785   4.714   6.095 -1.3916 -1.3330 -0.4777
 9228SOL     OW39319   0.954   4.449  15.285  0.2339 -0.5268  0.1781
 9228SOL    HW139320   0.945   4.531  15.237 -0.2689  0.7707  2.4733
 9228SOL    HW239321   1.040   4.453  15.328  0.3896  0.5997 -0.2329
 9229SOL     OW39322   0.637   4.117  12.168 -0.2880  0.1879 -0.4608
 9229SOL    HW139323   0.714   4.134  12.222 -1.2707 -1.2254  1.3533
 9229SOL    HW239324   0.589   4.197  12.192 -0.3672  0.7859 -2.5917
 9230SOL     OW39325   2.059   0.788  17.108  0.5166 -0.5483 -0.3638
 9230SOL    HW139326   2.112   0.807  17.031 -0.8072 -3.2361 -1.9597
 9230SOL    HW239327   2.055   0.878  17.139  2.3769 -0.7073  0.3608
 9231SOL     OW39328   0.796   0.442   4.247  0.3360 -0.7221  0.6137
 9231SOL    HW139329   0.729   0.380   4.273  0.0163 -0.1897  1.0427
 9231SOL    HW239330   0.839   0.395   4.175 -0.0196 -1.3759  0.8235
 9232SOL     OW39331   3.211   1.196   4.025  0.3552 -0.2359 -0.0029
 9232SOL    HW139332   3.161   1.233   3.953 -1.8929  0.8696  2.1454
 9232SOL    HW239333   3.202   1.270   4.084 -2.9325  1.0693 -2.1640
 9233SOL     OW39334   0.848   0.202   8.892 -0.3594 -0.3378 -0.0379
 9233SOL    HW139335   0.780   0.223   8.827 -2.0491  1.9548  2.4668
 9233SOL    HW239336   0.927   0.217   8.841 -0.5515 -0.1557 -0.2826
 9234SOL     OW39337   2.840   3.799  15.957  0.6061  0.3242  0.0438
 9234SOL    HW139338   2.854   3.777  16.049 -0.4610  0.9121  0.3463
 9234SOL    HW239339   2.846   3.719  15.905 -0.3270  0.7069 -0.6554
 9235SOL     OW39340   0.422   3.251  16.394 -0.1491  0.4315  0.7958
 9235SOL    HW139341   0.437   3.202  16.313  2.3431  1.0035  0.9169
 9235SOL    HW239342   0.514   3.268  16.416 -0.5449  3.0494  0.4102
 9236SOL     OW39343   4.310   1.261   2.657  0.1047 -0.2897  0.1910
 9236SOL    HW139344   4.316   1.306   2.741  1.3969  1.5488 -0.8922
 9236SOL    HW239345   4.380   1.196   2.669 -0.0460 -0.9311 -2.4514
 9237SOL     OW39346   4.060   4.533   9.108  0.1874  0.2057  0.7419
 9237SOL    HW139347   4.139   4.485   9.083  0.5637  1.0522  0.2995
 9237SOL    HW239348   4.060   4.523   9.203  0.3036  1.2655  0.8559
 9238SOL     OW39349   4.448   2.832   7.217 -0.0664 -0.7541  0.0174
 9238SOL    HW139350   4.486   2.783   7.145  0.2620  1.6839 -1.4486
 9238SOL    HW239351   4.458   2.920   7.182  1.6410 -0.7161  0.6462
 9239SOL     OW39352   3.460   1.151   9.348  0.4172  0.1689 -0.4110
 9239SOL    HW139353   3.490   1.103   9.425 -1.5565 -1.4966 -0.6889
 9239SOL    HW239354   3.389   1.090   9.328  0.3206 -0.3182  1.4057
 9240SOL     OW39355   4.332   3.255   3.170  0.5832  0.3168  0.2031
 9240SOL    HW139356   4.302   3.302   3.092  0.9049  0.4279  0.1488
 9240SOL    HW239357   4.340   3.167   3.135 -1.6186 -0.3399  1.3641
 9241SOL     OW39358   4.604   0.497   6.214 -0.0208 -0.3374 -0.0494
 9241SOL    HW139359   4.573   0.471   6.301 -1.8751  0.2218 -0.5308
 9241SOL    HW239360   4.686   0.543   6.233 -1.3169  1.6419  0.7702
 9242SOL     OW39361   0.154   3.895  12.797 -0.0149  0.2898  0.3505
 9242SOL    HW139362   0.074   3.948  12.798 -0.4863 -0.4171  0.7798
 9242SOL    HW239363   0.212   3.970  12.785 -1.4414  1.2017 -0.8692
 9243SOL     OW39364   2.573   3.855  14.691 -0.4581 -0.0182  0.2516
 9243SOL    HW139365   2.589   3.771  14.648  0.7564 -0.4933  1.6600
 9243SOL    HW239366   2.586   3.827  14.782  1.4629  0.0864  0.0129
 9244SOL     OW39367   2.562   0.702  11.019  0.3447 -0.6143  0.2352
 9244SOL    HW139368   2.485   0.656  10.986  1.8929 -1.6017 -2.0022
 9244SOL    HW239369   2.556   0.784  10.970 -1.9471 -1.1376 -0.3562
 9245SOL     OW39370   3.491   0.640   3.814  0.0846 -0.4406 -0.3893
 9245SOL    HW139371   3.457   0.592   3.738 -0.1335  0.5052 -0.8858
 9245SOL    HW239372   3.421   0.706   3.821  0.3630  0.1062 -2.7129
 9246SOL     OW39373   0.894   0.490   7.624 -0.2351  0.0439  0.1680
 9246SOL    HW139374   0.989   0.479   7.622 -0.5206 -2.5155  0.0202
 9246SOL    HW239375   0.883   0.583   7.603 -1.7653 -0.1342  0.1715
 9247SOL     OW39376   3.031   0.119   0.827 -0.1564 -0.0509 -0.4823
 9247SOL    HW139377   3.076   0.196   0.862 -2.2410  0.3534  1.3218
 9247SOL    HW239378   2.958   0.103   0.887  1.2970 -0.9882  1.0461
 9248SOL     OW39379   1.328   3.260   1.411  0.2161 -0.1831 -0.1949
 9248SOL    HW139380   1.270   3.205   1.464  0.0143 -1.5530 -1.8581
 9248SOL    HW239381   1.392   3.190   1.401 -0.7032 -1.0343 -0.0640
 9249SOL     OW39382   0.237   3.439   6.141 -0.4604  0.1295 -0.1881
 9249SOL    HW139383   0.327   3.455   6.113 -0.6245 -2.0171 -1.9144
 9249SOL    HW239384   0.229   3.506   6.209  0.4372  0.7340 -0.6803
 9250SOL     OW39385   3.485   0.349  14.525  0.1916  0.0283 -0.2907
 9250SOL    HW139386   3.464   0.432  14.567  0.4169  1.0528 -2.2148
 9250SOL    HW239387   3.562   0.367  14.471  0.5763 -0.0072  0.2459
 9251SOL     OW39388   0.170   1.684   5.484  0.4261 -0.7675  0.6269
 9251SOL    HW139389   0.127   1.738   5.550  1.0386 -0.5316  0.8397
 9251SOL    HW239390   0.194   1.743   5.413 -0.8036  1.3482  1.9716
 9252SOL     OW39391   1.877   2.868   7.175  0.0762 -0.0950 -0.3584
 9252SOL    HW139392   1.937   2.915   7.117  1.3889  0.6323  1.5907
 9252SOL    HW239393   1.923   2.854   7.257 -1.0940  1.9353  0.6481
 9253SOL     OW39394   4.125   3.181   2.774 -0.3386  0.8321  0.5008
 9253SOL    HW139395   4.067   3.220   2.709  2.1066  1.7220 -1.1573
 9253SOL    HW239396   4.121   3.089   2.749 -4.5114  0.6224  1.8737
 9254SOL     OW39397   4.203   4.392   6.541 -0.4076  0.2477  0.0619
 9254SOL    HW139398   4.155   4.462   6.497  0.1231  0.3355 -0.3836
 9254SOL    HW239399   4.247   4.445   6.608  0.2759 -0.2854  0.0354
 9255SOL     OW39400   2.374   4.176   2.801  0.4541 -0.7727  0.1971
 9255SOL    HW139401   2.418   4.100   2.840 -1.0455 -1.9967 -0.5018
 9255SOL    HW239402   2.398   4.162   2.709 -1.0632 -1.2878 -0.1137
 9256SOL     OW39403   2.358   0.697   6.962  0.2647  0.4122 -0.0468
 9256SOL    HW139404   2.311   0.634   7.017 -0.8137  1.0299 -0.2569
 9256SOL    HW239405   2.407   0.746   7.028 -1.0343 -0.4160  1.5320
 9257SOL     OW39406   3.764   3.482   2.345 -0.3515  0.0869  0.2888
 9257SOL    HW139407   3.765   3.577   2.354  1.7887 -0.1740  2.7686
 9257SOL    HW239408   3.694   3.459   2.406  0.2635 -2.9517 -0.1680
 9258SOL     OW39409   4.643   1.925   6.433 -0.0025 -0.2532  0.0529
 9258SOL    HW139410   4.640   1.844   6.483  1.3858 -0.9988 -1.0933
 9258SOL    HW239411   4.727   1.908   6.391  0.1023 -0.9473  0.5395
 9259SOL     OW39412   0.312   1.743  14.623 -0.5984  0.8524  0.2139
 9259SOL    HW139413   0.310   1.650  14.600 -0.6433  1.1584 -1.0257
 9259SOL    HW239414   0.304   1.734  14.718  0.4580  1.5264  0.3628
 9260SOL     OW39415   2.519   2.561  12.083  0.2295  0.1559 -0.1922
 9260SOL    HW139416   2.473   2.527  12.006 -1.2555  0.2135  0.6836
 9260SOL    HW239417   2.609   2.529  12.072 -0.0408 -2.1623  4.4172
 9261SOL     OW39418   1.731   3.507   3.002 -0.5180 -0.0959  0.1318
 9261SOL    HW139419   1.649   3.459   3.016 -0.1816 -0.5441  0.5738
 9261SOL    HW239420   1.740   3.516   2.907  1.3092 -0.1336  0.3063
 9262SOL     OW39421   3.884   1.539   4.561  0.2154  0.6304  0.1119
 9262SOL    HW139422   3.888   1.479   4.636  1.9331  0.9413  0.2503
 9262SOL    HW239423   3.905   1.621   4.606 -0.1872  1.7557 -1.7742
 9263SOL     OW39424   3.517   2.152   5.955 -0.4428  0.0285  0.1077
 9263SOL    HW139425   3.501   2.106   6.038  0.1759  1.5341  1.0679
 9263SOL    HW239426   3.451   2.221   5.955  0.3574  0.7963 -0.6047
 9264SOL     OW39427   2.954   4.325   8.641 -0.3523 -0.5963  0.3933
 9264SOL    HW139428   3.045   4.298   8.658 -0.4495 -2.3276 -1.7737
 9264SOL    HW239429   2.906   4.242   8.636  0.8305 -1.1702 -1.5956
 9265SOL     OW39430   2.768   4.123   6.123 -0.5532  0.3221  0.8013
 9265SOL    HW139431   2.828   4.148   6.052 -0.4961  0.7323  0.9939
 9265SOL    HW239432   2.782   4.187   6.192  0.8518  1.9928 -1.0327
 9266SOL     OW39433   0.325   4.485  15.397 -0.1749 -0.3909  0.3461
 9266SOL    HW139434   0.378   4.538  15.457  0.3488 -0.8631  0.2948
 9266SOL    HW239435   0.353   4.399  15.428 -0.4880 -0.4296  0.5241
 9267SOL     OW39436   3.635   2.764   9.091 -0.3466 -0.3947  0.0276
 9267SOL    HW139437   3.606   2.694   9.032 -2.7873  1.0552 -0.4747
 9267SOL    HW239438   3.631   2.839   9.031  1.1683 -1.0238 -0.8620
 9268SOL     OW39439   2.621   2.889  10.254 -0.4478 -0.0352  0.3971
 9268SOL    HW139440   2.591   2.921  10.339 -1.1099  0.3746  0.0049
 9268SOL    HW239441   2.549   2.873  10.194  0.2929  0.9000 -0.7535
 9269SOL     OW39442   2.926   4.154   8.185 -0.1481  0.1149  0.6321
 9269SOL    HW139443   2.984   4.095   8.138  0.0087  0.4525  0.4019
 9269SOL    HW239444   2.902   4.090   8.252  1.2150 -1.4526 -0.3725
 9270SOL     OW39445   4.543   3.949   7.216 -0.0034  0.1088 -0.1208
 9270SOL    HW139446   4.574   3.907   7.136 -1.5255 -3.0206  0.9265
 9270SOL    HW239447   4.624   3.953   7.266  0.1651  2.7842 -0.6213
 9271SOL     OW39448   3.565   4.330  15.671  0.2641  0.7927  0.2264
 9271SOL    HW139449   3.622   4.334  15.747  0.1304  2.0806  0.2651
 9271SOL    HW239450   3.564   4.236  15.651  0.2174  0.7000  0.6709
 9272SOL     OW39451   1.978   4.029   6.752 -0.3100 -0.2810 -0.0840
 9272SOL    HW139452   1.980   4.104   6.692  1.0314  0.3521  0.7569
 9272SOL    HW239453   2.071   4.016   6.771 -0.6771 -1.7755  0.7293
 9273SOL     OW39454   2.486   1.492   9.838 -0.2460 -0.0687 -0.2680
 9273SOL    HW139455   2.489   1.396   9.832 -2.0270 -0.0722 -1.3155
 9273SOL    HW239456   2.578   1.511   9.853 -0.1982  0.4643 -1.2072
 9274SOL     OW39457   2.144   3.698   2.730  0.2817 -0.0618  0.2144
 9274SOL    HW139458   2.235   3.676   2.749  0.2507 -1.4465 -1.1989
 9274SOL    HW239459   2.100   3.613   2.740  1.2445 -0.7805 -1.6752
 9275SOL     OW39460   2.478   1.930   3.320  0.2527 -0.5000  0.1992
 9275SOL    HW139461   2.396   1.946   3.367 -0.5731 -0.1450 -1.3708
 9275SOL    HW239462   2.453   1.847   3.279 -2.6522  0.5241 -0.1736
 9276SOL     OW39463   3.444   3.455   3.844 -0.2154 -0.3065 -0.1858
 9276SOL    HW139464   3.473   3.364   3.832 -0.3409 -0.1335 -1.8581
 9276SOL    HW239465   3.390   3.444   3.921 -1.7933 -0.4531 -1.3143
 9277SOL     OW39466   1.581   0.715   5.206 -0.0117 -0.4567  0.1485
 9277SOL    HW139467   1.582   0.705   5.301  0.7476 -0.1639  0.1682
 9277SOL    HW239468   1.593   0.624   5.178 -1.1469 -0.1566 -1.3173
 9278SOL     OW39469   2.059   0.363   1.769  0.5881 -0.9870 -0.2443
 9278SOL    HW139470   2.144   0.321   1.774  0.2358 -1.5805  0.7899
 9278SOL    HW239471   2.083   0.435   1.826 -0.3626 -0.7508 -0.1466
 9279SOL     OW39472   3.273   1.316   6.179  0.4854  0.1936  0.4390
 9279SOL    HW139473   3.217   1.392   6.192 -1.4873 -1.9042  4.0866
 9279SOL    HW239474   3.241   1.250   6.241  0.6950 -0.7240 -0.4283
 9280SOL     OW39475   0.677   3.789   6.497 -0.0782 -0.5645 -0.1430
 9280SOL    HW139476   0.709   3.760   6.583 -0.2977  2.5368  0.9870
 9280SOL    HW239477   0.678   3.884   6.503 -0.0287 -0.6264  0.9196
 9281SOL     OW39478   4.549   2.957   5.232  0.4043 -0.1860 -0.5647
 9281SOL    HW139479   4.618   3.003   5.279 -1.2102  1.2682  0.3990
 9281SOL    HW239480   4.481   2.986   5.294 -0.2004 -3.2540  0.2109
 9282SOL     OW39481   3.747   0.646   6.713  0.0929 -0.3947  0.1764
 9282SOL    HW139482   3.655   0.625   6.696 -0.4894  2.6605 -0.3928
 9282SOL    HW239483   3.760   0.701   6.636 -1.2107 -0.2161  0.0794
 9283SOL     OW39484   4.682   4.214   1.072 -0.1956  0.3088 -0.2481
 9283SOL    HW139485   0.029   4.255   1.089 -1.8605  3.4426  0.6202
 9283SOL    HW239486   4.661   4.240   0.983  0.7684 -0.4913 -0.7001
 9284SOL     OW39487   4.604   1.566   6.328  0.0624 -0.3935  0.1195
 9284SOL    HW139488   4.674   1.502   6.340 -1.0352 -1.6074 -0.0513
 9284SOL    HW239489   4.610   1.624   6.405  1.7003 -0.1338 -0.1990
 9285SOL     OW39490   4.318   0.068  14.455 -0.0203  0.6415 -0.0988
 9285SOL    HW139491   4.300   4.718  14.489 -0.8843  0.1045 -1.9799
 9285SOL    HW239492   4.276   0.122  14.522 -0.8010 -0.7110  0.4817
 9286SOL     OW39493   0.901   0.020   3.561  0.4306 -0.1168 -0.5660
 9286SOL    HW139494   0.907   4.700   3.637  1.1196 -0.2921 -0.7488
 9286SOL    HW239495   0.848   4.692   3.516  1.2441 -1.2344  0.1309
 9287SOL     OW39496   2.106   2.235   6.614 -0.3847  0.0715  0.2961
 9287SOL    HW139497   2.183   2.211   6.666  0.4935  2.1306 -0.0392
 9287SOL    HW239498   2.137   2.314   6.569  1.3545 -1.2432 -0.7993
 9288SOL     OW39499   0.760   4.072   7.733 -0.1622 -0.4485  0.3375
 9288SOL    HW139500   0.820   4.017   7.784  1.3771  1.9823  1.1611
 9288SOL    HW239501   0.780   4.056   7.640 -1.1747  1.8644 -0.2741
 9289SOL     OW39502   2.699   3.281  13.061  0.3060 -0.1135 -0.0351
 9289SOL    HW139503   2.778   3.237  13.031  0.1323 -0.2705 -0.2542
 9289SOL    HW239504   2.729   3.371  13.077 -0.2358  0.4919 -2.5087
 9290SOL     OW39505   4.494   2.316  10.519  0.3855 -0.7318 -0.2397
 9290SOL    HW139506   4.507   2.252  10.449 -0.2451  0.5172 -1.4870
 9290SOL    HW239507   4.405   2.339  10.495  0.0563  1.3157  2.9723
 9291SOL     OW39508   2.328   2.894   3.390  0.8058 -0.3922 -0.1619
 9291SOL    HW139509   2.390   2.948   3.439 -0.8858  1.3682  0.0350
 9291SOL    HW239510   2.378   2.819   3.357 -1.6548 -1.4384 -1.5446
 9292SOL     OW39511   3.577   4.201   1.048 -0.0305 -0.4608  0.2845
 9292SOL    HW139512   3.557   4.220   1.140 -1.1732  3.1738 -0.7367
 9292SOL    HW239513   3.672   4.202   1.041 -0.1406  3.1955 -0.9071
 9293SOL     OW39514   4.032   2.185  10.560 -0.4977  0.0895  0.4021
 9293SOL    HW139515   4.024   2.118  10.493 -1.2500  0.3885  0.1892
 9293SOL    HW239516   3.964   2.167  10.625 -0.4719 -2.3571 -0.2491
 9294SOL     OW39517   3.668   2.579   2.792 -0.2500 -0.2191 -0.5557
 9294SOL    HW139518   3.731   2.549   2.857 -0.8497 -0.2280  0.0217
 9294SOL    HW239519   3.584   2.543   2.823 -1.5795  3.2655 -0.1373
 9295SOL     OW39520   3.862   0.065   8.346  0.5020 -0.4127 -0.3276
 9295SOL    HW139521   3.946   0.095   8.310 -0.0936  1.6602  0.0155
 9295SOL    HW239522   3.859   4.711   8.320 -0.9407  0.0590 -1.7450
 9296SOL     OW39523   4.416   3.059  17.666 -0.4801  0.1489  0.1564
 9296SOL    HW139524   4.330   3.018  17.665  0.3925 -1.6442 -1.6340
 9296SOL    HW239525   4.438   3.070  17.574  0.1029 -0.3814  0.2274
 9297SOL     OW39526   3.059   1.294   2.838 -0.1043 -0.4331  0.2088
 9297SOL    HW139527   3.024   1.264   2.921 -1.8952 -0.1095 -0.4297
 9297SOL    HW239528   3.002   1.250   2.774  1.5298 -0.2749 -1.3568
 9298SOL     OW39529   3.327   3.826  15.614 -0.1086  0.4394  0.4270
 9298SOL    HW139530   3.304   3.797  15.703  0.6078 -1.2269  0.0598
 9298SOL    HW239531   3.267   3.900  15.610 -1.3773 -0.6497 -0.6723
 9299SOL     OW39532   3.311   1.751  12.340 -0.2907 -0.0317 -0.2353
 9299SOL    HW139533   3.386   1.803  12.367  0.1632 -0.3824 -0.8246
 9299SOL    HW239534   3.237   1.811  12.353  0.7392  1.2611 -0.3798
 9300SOL     OW39535   0.009   3.460  11.562  0.0232  0.3073 -0.0851
 9300SOL    HW139536   0.042   3.547  11.540 -0.3207  1.0468  2.2497
 9300SOL    HW239537   4.679   3.492  11.622 -1.3512 -2.5688 -0.1202
 9301SOL     OW39538   0.826   1.831   0.639 -0.0539  0.0801  0.0337
 9301SOL    HW139539   0.867   1.895   0.582 -0.6628 -1.6877 -2.3671
 9301SOL    HW239540   0.778   1.881   0.705 -0.1562  0.9866 -0.7353
 9302SOL     OW39541   1.686   3.137   6.122 -0.1953 -0.5398  0.2266
 9302SOL    HW139542   1.639   3.099   6.196 -0.1675  1.9301  1.5043
 9302SOL    HW239543   1.774   3.146   6.159  0.8711 -2.7167 -1.7822
 9303SOL     OW39544   0.670   2.215  11.236  0.1999 -0.7073 -0.1785
 9303SOL    HW139545   0.743   2.277  11.243 -0.3271 -0.1486  0.3638
 9303SOL    HW239546   0.634   2.251  11.156 -0.8556 -0.4281  0.4291
 9304SOL     OW39547   3.764   4.405   2.443  0.0707 -0.4162 -0.2800
 9304SOL    HW139548   3.809   4.329   2.479  0.7796  0.6209  1.0334
 9304SOL    HW239549   3.823   4.478   2.462  1.1712 -0.9330 -1.7684
 9305SOL     OW39550   2.659   4.475   3.954  0.0887 -0.0682 -0.3719
 9305SOL    HW139551   2.615   4.478   4.039  2.9992  1.4013  1.0897
 9305SOL    HW239552   2.707   4.393   3.957 -1.1455 -0.7359  1.3693
 9306SOL     OW39553   4.556   2.627   3.897  0.0223  0.3699  0.2361
 9306SOL    HW139554   4.552   2.650   3.989 -1.5868  0.2856  0.1786
 9306SOL    HW239555   4.464   2.600   3.893  0.0486  0.1959  0.7852
 9307SOL     OW39556   4.700   0.805   3.397  0.2668  0.1840  0.6269
 9307SOL    HW139557   4.663   0.889   3.370  2.2976  1.2912  1.2632
 9307SOL    HW239558   4.621   0.753   3.382  1.0080 -1.3011  1.7886
 9308SOL     OW39559   0.905   0.775   2.560 -0.2868 -0.8872  0.2708
 9308SOL    HW139560   0.861   0.856   2.585  1.0861 -0.5020  1.4233
 9308SOL    HW239561   0.949   0.751   2.642 -0.2531 -0.4807  0.3717
 9309SOL     OW39562   4.553   4.079   5.439  0.2307 -0.7403 -0.7794
 9309SOL    HW139563   4.642   4.052   5.463  0.0024 -0.2056  0.6492
 9309SOL    HW239564   4.508   4.117   5.514  0.0102 -0.1745 -1.1939
 9310SOL     OW39565   0.534   3.633  11.753 -0.2047 -0.8379  0.0574
 9310SOL    HW139566   0.628   3.651  11.752 -0.1263 -1.2989 -1.2913
 9310SOL    HW239567   0.493   3.712  11.718  0.7362 -1.0110 -1.4381
 9311SOL     OW39568   2.190   3.423   7.741  0.7854 -0.5780  0.1957
 9311SOL    HW139569   2.223   3.338   7.769 -2.6650 -3.1565 -3.7062
 9311SOL    HW239570   2.212   3.435   7.648  0.4598  2.1378  0.4531
 9312SOL     OW39571   4.285   3.817   4.459 -0.1360 -0.1585  0.2483
 9312SOL    HW139572   4.345   3.775   4.521  0.8977 -1.0453 -1.3635
 9312SOL    HW239573   4.208   3.826   4.515 -0.8325 -0.6766 -0.6307
 9313SOL     OW39574   3.272   0.682   0.962  0.0296 -0.1451  0.5432
 9313SOL    HW139575   3.219   0.620   0.912 -0.1029  1.0939 -0.8552
 9313SOL    HW239576   3.272   0.646   1.050 -1.9669 -0.1757  0.5243
 9314SOL     OW39577   0.252   0.646  16.021  0.4037 -0.5508 -0.0130
 9314SOL    HW139578   0.324   0.700  15.988 -1.1140  0.4976 -1.6338
 9314SOL    HW239579   0.242   0.578  15.954 -0.2778 -0.4356 -0.0309
 9315SOL     OW39580   0.580   3.030  13.362 -0.0575  0.0862  0.5905
 9315SOL    HW139581   0.627   2.950  13.387 -1.9762 -1.1144  0.2984
 9315SOL    HW239582   0.645   3.098  13.381  1.6146 -1.0060 -1.2377
 9316SOL     OW39583   2.935   3.755  17.545 -0.3854  0.1872 -0.0083
 9316SOL    HW139584   2.944   3.836  17.495 -0.4495  0.1530 -0.0763
 9316SOL    HW239585   2.905   3.695  17.476 -0.5240 -0.8691  0.9815
 9317SOL     OW39586   4.677   0.490   0.966 -0.1883 -0.0165 -0.3908
 9317SOL    HW139587   4.696   0.397   0.975  0.5773  0.3752  2.1219
 9317SOL    HW239588   4.588   0.468   0.936  0.0102 -1.0058 -0.2496
 9318SOL     OW39589   1.924   1.893   7.289 -0.5441 -0.2497 -0.4950
 9318SOL    HW139590   1.904   1.974   7.244 -1.7583  0.9639  2.2184
 9318SOL    HW239591   2.016   1.880   7.267 -0.6666  0.0421 -1.1777
 9319SOL     OW39592   2.190   2.790  10.818  0.3322  0.5422  0.0503
 9319SOL    HW139593   2.174   2.868  10.765  1.6822 -1.2767 -2.9779
 9319SOL    HW239594   2.232   2.825  10.897  1.8182 -0.7188 -0.1783
 9320SOL     OW39595   2.354   2.850   5.873  0.5264  0.2853 -0.3857
 9320SOL    HW139596   2.263   2.842   5.902  1.5992 -1.9926  2.3380
 9320SOL    HW239597   2.344   2.873   5.781 -0.6882 -0.8570 -0.5491
 9321SOL     OW39598   0.101   0.188   8.451 -0.0353  0.4173  0.4127
 9321SOL    HW139599   0.142   0.259   8.501 -0.0090 -0.9092  2.3055
 9321SOL    HW239600   0.013   0.224   8.445 -1.2355 -2.4320  0.9107
 9322SOL     OW39601   2.636   4.067   1.040 -0.3609 -0.4812  0.1516
 9322SOL    HW139602   2.659   4.160   1.038  0.3444 -0.6699 -0.2979
 9322SOL    HW239603   2.609   4.050   1.130  0.8488  1.3939  0.8577
 9323SOL     OW39604   1.615   4.385   9.265 -0.3170 -0.4398  0.5316
 9323SOL    HW139605   1.635   4.315   9.203  1.3201  0.2627  0.2580
 9323SOL    HW239606   1.579   4.452   9.207  2.9944 -0.1772 -1.2198
 9324SOL     OW39607   2.753   1.555  12.958  0.1025  0.6300 -0.0813
 9324SOL    HW139608   2.803   1.536  13.037  1.1059  2.8937 -0.1463
 9324SOL    HW239609   2.662   1.569  12.982  0.5525 -0.6229  2.3771
 9325SOL     OW39610   2.939   0.725  11.097 -0.1122  0.6361 -0.1696
 9325SOL    HW139611   2.908   0.813  11.118 -0.7955  0.4590 -0.4395
 9325SOL    HW239612   2.869   0.675  11.055  1.3993 -0.2512 -1.6149
 9326SOL     OW39613   2.745   3.545   2.341  0.3320  0.3548  0.3883
 9326SOL    HW139614   2.781   3.457   2.329  0.1365  0.2356  0.6671
 9326SOL    HW239615   2.697   3.535   2.423  0.3226 -1.1476  0.1865
 9327SOL     OW39616   3.818   1.684   4.982  0.2192 -0.3532 -0.1858
 9327SOL    HW139617   3.797   1.678   5.075 -0.0885  1.5046 -0.1216
 9327SOL    HW239618   3.759   1.756   4.957 -1.5946 -1.8840 -0.3416
 9328SOL     OW39619   1.805   2.920   3.648 -0.5297 -0.5201 -0.3735
 9328SOL    HW139620   1.715   2.887   3.650 -0.5304 -0.4301  1.0952
 9328SOL    HW239621   1.832   2.873   3.728  0.5809 -0.4162 -0.6861
 9329SOL     OW39622   0.485   4.196   2.887 -0.6685  0.1626  0.3080
 9329SOL    HW139623   0.535   4.115   2.902 -1.4144 -0.3628 -0.0808
 9329SOL    HW239624   0.421   4.178   2.955 -1.0875  0.2147 -0.0776
 9330SOL     OW39625   1.239   0.942   2.524  0.1829  0.4393 -0.7269
 9330SOL    HW139626   1.230   0.878   2.595 -0.0098  0.4865 -0.7088
 9330SOL    HW239627   1.225   0.877   2.455  2.3313 -1.5662  0.7118
 9331SOL     OW39628   1.547   3.988  16.703  0.3810  0.4175  0.1717
 9331SOL    HW139629   1.513   3.907  16.667 -1.7123  1.1501  0.4852
 9331SOL    HW239630   1.606   4.015  16.633  0.6369 -0.0763  0.2056
 9332SOL     OW39631   0.295   4.141   3.089 -0.0605 -0.0215 -0.3200
 9332SOL    HW139632   0.227   4.206   3.104  0.3950  0.8024 -1.8105
 9332SOL    HW239633   0.245   4.060   3.086 -0.7557  0.4069 -0.2403
 9333SOL     OW39634   3.475   3.654   4.329  0.2221  0.3380  0.0936
 9333SOL    HW139635   3.464   3.693   4.416 -1.0468  0.2542 -0.0172
 9333SOL    HW239636   3.547   3.709   4.301  0.3391 -0.1007 -0.4715
 9334SOL     OW39637   1.280   3.079   7.402 -0.6412  0.7682 -0.2220
 9334SOL    HW139638   1.236   2.998   7.427  0.5057 -0.1217 -1.0899
 9334SOL    HW239639   1.235   3.118   7.327  0.3424  2.6475  0.1778
 9335SOL     OW39640   2.015   4.216   1.955 -0.2508  0.1976  0.1849
 9335SOL    HW139641   2.067   4.282   1.909 -0.0731 -1.6936 -2.3378
 9335SOL    HW239642   2.088   4.161   1.983 -0.7099 -0.8060 -0.5848
 9336SOL     OW39643   3.578   1.251  17.635  0.9002 -0.2516 -0.5348
 9336SOL    HW139644   3.653   1.200  17.664  3.0031  1.3232 -3.1668
 9336SOL    HW239645   3.539   1.179  17.587 -2.0503  0.2290  1.1502
 9337SOL     OW39646   2.505   1.656   8.678  0.1521  0.4336  0.3280
 9337SOL    HW139647   2.507   1.634   8.771 -1.6032  0.9187  0.4792
 9337SOL    HW239648   2.430   1.606   8.647  1.8405 -1.0958 -1.3231
 9338SOL     OW39649   3.288   4.440   0.685  0.0507  0.6823  0.0500
 9338SOL    HW139650   3.327   4.384   0.753 -1.1994  1.5759  1.4979
 9338SOL    HW239651   3.303   4.527   0.721 -2.0489  1.0242  0.0768
 9339SOL     OW39652   4.540   2.022   4.508  0.2681  0.0251  0.0568
 9339SOL    HW139653   4.564   2.070   4.588 -1.2014  0.7741  0.0459
 9339SOL    HW239654   4.623   1.976   4.500 -0.3150 -1.0913  0.5027
 9340SOL     OW39655   2.763   3.428   6.920  0.2276 -0.2717  0.2529
 9340SOL    HW139656   2.792   3.431   7.011  0.7877 -1.0727  0.0988
 9340SOL    HW239657   2.785   3.513   6.883 -1.5539 -0.6565 -1.6583
 9341SOL     OW39658   3.525   2.968   1.298  0.0621 -0.2129  0.0385
 9341SOL    HW139659   3.571   3.010   1.225  1.0782  0.6580  1.1785
 9341SOL    HW239660   3.449   2.933   1.251 -0.6926  0.9786  0.3612
 9342SOL     OW39661   3.877   3.164   4.920 -0.2644 -0.2608  0.8650
 9342SOL    HW139662   3.955   3.192   4.872 -1.1409  0.2032 -0.2740
 9342SOL    HW239663   3.848   3.100   4.855 -1.5694  1.2949 -0.0764
 9343SOL     OW39664   0.691   2.723  10.007 -0.6574 -0.7065 -0.4926
 9343SOL    HW139665   0.663   2.770  10.086  1.7998  3.1777 -1.9491
 9343SOL    HW239666   0.767   2.778   9.987  0.1227 -1.1066  1.3504
 9344SOL     OW39667   1.947   0.861   2.717 -0.5234 -0.0225 -0.3636
 9344SOL    HW139668   2.031   0.819   2.738 -1.5102 -1.6461  0.3695
 9344SOL    HW239669   1.961   0.857   2.622  0.6844 -1.6893 -0.1222
 9345SOL     OW39670   0.454   0.280  17.222  0.5913 -0.5315 -0.6152
 9345SOL    HW139671   0.384   0.261  17.160  0.1601  3.0709 -1.2312
 9345SOL    HW239672   0.512   0.210  17.192  0.0836 -1.2654  0.1266
 9346SOL     OW39673   4.688   2.352  15.489  0.3782 -0.9193 -0.3240
 9346SOL    HW139674   4.705   2.373  15.397  0.0162  0.2668 -0.1204
 9346SOL    HW239675   4.734   2.423  15.532  0.5095  0.0394 -2.0572
 9347SOL     OW39676   0.548   3.247   7.313  0.5409 -1.2533 -0.8119
 9347SOL    HW139677   0.527   3.154   7.306 -1.5735 -0.6358 -2.7924
 9347SOL    HW239678   0.636   3.246   7.350 -0.6639 -0.1286  2.0675
 9348SOL     OW39679   0.515   4.367  17.332 -0.4000  0.8833  0.6883
 9348SOL    HW139680   0.585   4.432  17.336  0.6526 -0.4890  4.4210
 9348SOL    HW239681   0.512   4.341  17.424  3.0211  0.0360  0.5334
 9349SOL     OW39682   2.540   2.707  17.563  0.1813 -0.2012  0.5761
 9349SOL    HW139683   2.491   2.631  17.593  0.8157 -1.7749 -2.4022
 9349SOL    HW239684   2.582   2.735  17.644  0.0935  0.5959  0.3445
 9350SOL     OW39685   0.650   4.014   3.599 -0.5445  0.2811 -0.2544
 9350SOL    HW139686   0.653   3.974   3.512 -0.3952 -0.2057 -0.0289
 9350SOL    HW239687   0.735   3.985   3.634 -0.8311  0.2111  0.3864
 9351SOL     OW39688   0.047   0.570   2.042 -0.0411 -0.2937  0.0893
 9351SOL    HW139689   0.003   0.641   2.089 -0.7406  0.1353 -1.2364
 9351SOL    HW239690   0.140   0.577   2.060  0.2183 -1.6278 -0.7719
 9352SOL     OW39691   0.479   4.432   3.101 -0.3348  0.2831 -0.2848
 9352SOL    HW139692   0.539   4.373   3.055  0.4241 -0.8759  2.2197
 9352SOL    HW239693   0.512   4.509   3.054  0.4968  0.7598  1.0971
 9353SOL     OW39694   3.757   1.507   4.285 -0.3683 -0.4426  0.5279
 9353SOL    HW139695   3.788   1.541   4.369  1.5232 -0.9707  0.0370
 9353SOL    HW239696   3.666   1.481   4.302 -0.5476 -0.2025 -0.0559
 9354SOL     OW39697   4.170   3.039   6.974  0.0683 -0.4065  0.7990
 9354SOL    HW139698   4.192   2.946   6.977 -1.3427 -0.7878 -0.7197
 9354SOL    HW239699   4.092   3.042   6.919  1.0090  1.2489 -0.4457
 9355SOL     OW39700   0.639   3.585   4.461 -0.0587 -0.2351  0.6054
 9355SOL    HW139701   0.710   3.527   4.489 -0.8669 -1.0159  1.0117
 9355SOL    HW239702   0.662   3.599   4.368  1.6819  0.4890  1.1371
 9356SOL     OW39703   4.469   0.209   7.857  0.2862  0.1522  0.5577
 9356SOL    HW139704   4.386   0.161   7.857  0.8863 -0.8754  0.9043
 9356SOL    HW239705   4.482   0.234   7.948  0.6216  0.1712  0.5056
 9357SOL     OW39706   4.645   3.834  13.018  0.7606 -0.4508  0.3029
 9357SOL    HW139707   4.658   3.915  12.969  0.9837 -0.9038 -0.3851
 9357SOL    HW239708   4.567   3.870  13.059 -0.1899 -0.0706 -1.8167
 9358SOL     OW39709   3.041   4.012   1.462 -0.4130 -0.0822 -0.1900
 9358SOL    HW139710   3.130   4.025   1.496 -0.0231  1.3491 -1.7308
 9358SOL    HW239711   2.994   4.028   1.544 -1.0406 -2.6687 -0.0421
 9359SOL     OW39712   3.649   1.233   7.857  0.4075 -0.1982 -0.1005
 9359SOL    HW139713   3.560   1.260   7.881  0.6229 -1.1280  1.7438
 9359SOL    HW239714   3.643   1.204   7.766 -1.7183  0.9789 -0.3347
 9360SOL     OW39715   1.587   1.716   6.959  0.3056 -0.3267  0.4553
 9360SOL    HW139716   1.665   1.719   7.013  0.1143 -0.0754  0.7175
 9360SOL    HW239717   1.608   1.646   6.897 -1.0125  0.4552 -0.8954
 9361SOL     OW39718   2.741   0.000   3.902  0.5955  0.2019  0.1578
 9361SOL    HW139719   2.717   4.651   3.935  0.4424 -1.0695 -3.2065
 9361SOL    HW239720   2.767   0.041   3.984  0.2029  0.7117  0.0313
 9362SOL     OW39721   3.725   1.084   5.900 -0.0787  0.5148  0.1787
 9362SOL    HW139722   3.715   1.163   5.953  3.0406 -1.0556  3.1517
 9362SOL    HW239723   3.639   1.046   5.919 -0.3286  1.0713  0.1482
 9363SOL     OW39724   1.153   2.276   6.294  0.6002 -0.5624 -0.5692
 9363SOL    HW139725   1.219   2.344   6.278  2.3803 -1.9589  0.8188
 9363SOL    HW239726   1.090   2.332   6.339  0.5085 -1.8351  0.8930
 9364SOL     OW39727   1.728   2.825   1.422  0.1730 -0.2235  0.1780
 9364SOL    HW139728   1.814   2.861   1.440 -0.3144  0.5280  1.0501
 9364SOL    HW239729   1.695   2.836   1.511 -0.9971  1.3683 -0.4512
 9365SOL     OW39730   2.668   0.098   1.772  0.1075  0.2815  0.1373
 9365SOL    HW139731   2.666   0.171   1.834  1.8849  0.0057  0.5242
 9365SOL    HW239732   2.646   0.022   1.825 -1.3621  1.6020  1.4293
 9366SOL     OW39733   2.873   2.830   7.307  0.9891 -0.1313 -0.0053
 9366SOL    HW139734   2.796   2.794   7.353  0.0842  1.3826 -0.3403
 9366SOL    HW239735   2.946   2.821   7.368  0.6764  1.1403  0.5681
 9367SOL     OW39736   3.446   2.150   9.170  0.2975 -0.2660 -0.4146
 9367SOL    HW139737   3.379   2.170   9.105 -0.1898  0.5072  0.3301
 9367SOL    HW239738   3.399   2.094   9.232 -1.3640 -0.5169 -1.9151
 9368SOL     OW39739   4.011   2.514   7.395 -0.1638 -0.3353 -0.3293
 9368SOL    HW139740   4.061   2.593   7.411  0.9272 -0.6599 -2.0765
 9368SOL    HW239741   4.046   2.489   7.309  2.5681  0.6343  0.4884
 9369SOL     OW39742   2.736   2.765   5.391 -0.2801  0.7506  0.5970
 9369SOL    HW139743   2.804   2.831   5.403  0.6204 -0.1357  0.2975
 9369SOL    HW239744   2.747   2.697   5.458  1.4398 -1.8535 -2.3370
 9370SOL     OW39745   1.795   1.671   6.519 -0.6725 -0.1765 -0.0630
 9370SOL    HW139746   1.877   1.701   6.559 -1.0384 -3.0249  2.7970
 9370SOL    HW239747   1.822   1.589   6.478  1.4327 -0.1955  1.3607
 9371SOL     OW39748   0.142   0.855  13.041 -0.1148  0.1677  0.4099
 9371SOL    HW139749   0.183   0.891  13.121  1.4545  1.2401 -0.8772
 9371SOL    HW239750   0.086   0.932  13.026 -0.6353 -0.1466  0.7413
 9372SOL     OW39751   0.047   2.475   8.787  0.5585 -0.3773 -0.1304
 9372SOL    HW139752   0.017   2.557   8.825 -1.6613 -0.2587 -2.1662
 9372SOL    HW239753   0.058   2.508   8.698 -0.8846  1.3708  0.3441
 9373SOL     OW39754   0.494   3.359   4.300 -0.2601  0.1022  0.2053
 9373SOL    HW139755   0.559   3.377   4.369 -1.7434  0.8931  1.3810
 9373SOL    HW239756   0.481   3.264   4.306 -1.6380  0.2430 -0.7805
 9374SOL     OW39757   0.322   4.406   1.589 -0.3092 -0.1563  0.4205
 9374SOL    HW139758   0.381   4.464   1.539  2.4667 -0.2152  3.5841
 9374SOL    HW239759   0.385   4.363   1.647  0.3096 -0.6643 -0.6135
 9375SOL     OW39760   3.903   4.201   3.313  0.7529 -0.2137 -0.1101
 9375SOL    HW139761   3.947   4.205   3.228  0.5061  1.0270 -0.1816
 9375SOL    HW239762   3.933   4.118   3.350  1.8866  0.1077 -0.3218
 9376SOL     OW39763   4.273   0.542   2.476 -0.2364  0.4504  0.1068
 9376SOL    HW139764   4.232   0.460   2.506 -2.3105  2.5263  2.9484
 9376SOL    HW239765   4.326   0.565   2.551  0.1139 -1.1611  0.3606
 9377SOL     OW39766   2.357   0.454  13.748  0.0323 -0.0823  0.0452
 9377SOL    HW139767   2.307   0.536  13.746 -2.3446 -1.5580 -0.8429
 9377SOL    HW239768   2.424   0.474  13.683 -0.6999  1.3361 -0.2691
 9378SOL     OW39769   0.053   0.786   7.439 -0.7672  0.2611 -0.6006
 9378SOL    HW139770   0.093   0.790   7.526  1.6959  1.0922 -1.7715
 9378SOL    HW239771   0.073   0.877   7.418  3.4691 -0.7835 -1.1843
 9379SOL     OW39772   1.585   2.112   9.639 -0.1024  0.0612 -0.3049
 9379SOL    HW139773   1.508   2.105   9.582 -1.2263 -0.1660  1.2211
 9379SOL    HW239774   1.611   2.020   9.640  1.0880  0.3976  0.0275
 9380SOL     OW39775   3.134   2.852   3.822 -0.3212  0.1018  0.9682
 9380SOL    HW139776   3.065   2.827   3.883 -0.6438  0.1354  0.6180
 9380SOL    HW239777   3.193   2.911   3.867 -0.1202  1.5648 -1.2079
 9381SOL     OW39778   0.388   4.186   6.085  0.1067 -0.4752 -0.4740
 9381SOL    HW139779   0.443   4.129   6.138 -1.0843 -2.4661 -1.3699
 9381SOL    HW239780   0.304   4.161   6.123  0.5311 -1.2647 -0.0754
 9382SOL     OW39781   2.933   0.746  13.109  0.1292  0.3262  0.2478
 9382SOL    HW139782   2.989   0.678  13.147  1.2278 -0.0932 -2.1294
 9382SOL    HW239783   2.853   0.738  13.161 -1.5363 -0.0292 -2.3972
 9383SOL     OW39784   0.221   0.323   6.275  0.0931 -0.7360  0.3262
 9383SOL    HW139785   0.197   0.300   6.365 -0.8309 -0.2064  0.2222
 9383SOL    HW239786   0.316   0.329   6.279  0.3318 -2.6996 -2.1959
 9384SOL     OW39787   4.216   1.675   2.545 -0.4250  0.2122 -0.3867
 9384SOL    HW139788   4.198   1.581   2.541  2.4301 -0.2347 -2.2826
 9384SOL    HW239789   4.212   1.689   2.640 -2.4487  2.9901 -0.8501
 9385SOL     OW39790   3.925   1.793  17.190 -0.1219 -0.2330 -0.5496
 9385SOL    HW139791   3.899   1.733  17.259  0.0132  1.0421  0.6055
 9385SOL    HW239792   3.838   1.821  17.160  0.1099  1.1665  0.0873
 9386SOL     OW39793   0.500   3.209   7.897 -0.4181 -0.5473 -0.0321
 9386SOL    HW139794   0.468   3.173   7.980  4.5396 -2.0441  1.2248
 9386SOL    HW239795   0.542   3.140   7.847  1.6759 -0.0903  1.1168
 9387SOL     OW39796   2.764   0.433   5.020 -0.4862 -0.2980  0.3974
 9387SOL    HW139797   2.836   0.409   5.078  0.9063  0.7568 -0.8990
 9387SOL    HW239798   2.782   0.379   4.943 -1.1646 -0.9065  0.6670
 9388SOL     OW39799   3.458   2.206   4.246 -0.0854 -0.0165  0.0992
 9388SOL    HW139800   3.432   2.130   4.194  1.9715 -0.2637 -0.5709
 9388SOL    HW239801   3.392   2.273   4.227 -2.0639 -1.7018  1.0845
 9389SOL     OW39802   1.204   1.497   8.935  0.0333 -0.0905 -0.6128
 9389SOL    HW139803   1.167   1.429   8.878 -0.3053 -0.0500 -0.4422
 9389SOL    HW239804   1.298   1.479   8.934 -0.2356 -1.5696 -0.1270
 9390SOL     OW39805   1.024   2.028   5.250  0.0880  0.4748 -0.6844
 9390SOL    HW139806   1.055   2.115   5.275 -0.2711  1.0948 -2.3754
 9390SOL    HW239807   0.955   2.056   5.190 -0.2080  3.2372  0.9672
 9391SOL     OW39808   0.941   3.039   7.074  0.2164 -0.4297 -0.7060
 9391SOL    HW139809   1.015   3.092   7.103  0.5288 -0.9188 -0.6099
 9391SOL    HW239810   0.960   3.057   6.982  4.4186 -0.6337  0.1244
 9392SOL     OW39811   3.365   1.572   2.601  0.3417 -0.5150 -0.8180
 9392SOL    HW139812   3.341   1.603   2.688 -2.2542  0.2218 -1.7873
 9392SOL    HW239813   3.458   1.560   2.621  0.5213  0.1348 -1.2351
 9393SOL     OW39814   3.768   1.229   6.875  0.2135  0.1189  0.3634
 9393SOL    HW139815   3.825   1.173   6.928  1.4198  1.5810  0.6129
 9393SOL    HW239816   3.676   1.213   6.899  0.0609 -0.8171 -0.8349
 9394SOL     OW39817   2.712   1.771   8.377 -0.7329  0.0215  0.0170
 9394SOL    HW139818   2.718   1.851   8.430  1.9535 -0.8804  1.0668
 9394SOL    HW239819   2.775   1.783   8.306  0.8490  0.5895  1.5199
 9395SOL     OW39820   3.056   2.117   7.856  0.0583  0.1343 -0.9600
 9395SOL    HW139821   3.145   2.120   7.890  0.1629 -0.0497 -1.2189
 9395SOL    HW239822   3.065   2.167   7.775  1.0277  0.7100 -0.4984
 9396SOL     OW39823   3.022   1.851   5.496 -0.2645 -0.7238  0.1203
 9396SOL    HW139824   3.033   1.944   5.515  0.5307 -1.0915  1.4576
 9396SOL    HW239825   3.000   1.851   5.403  0.1506  0.8810  0.0285
 9397SOL     OW39826   2.067   0.973  11.167 -0.4062  0.1686  0.4189
 9397SOL    HW139827   2.033   0.982  11.078  0.8909  4.5429  0.3710
 9397SOL    HW239828   2.016   0.902  11.206 -0.4738  0.0916  0.1955
 9398SOL     OW39829   3.452   3.214   4.036 -0.7720 -0.7242 -0.2082
 9398SOL    HW139830   3.366   3.254   4.023 -0.8925 -0.6412  0.8487
 9398SOL    HW239831   3.470   3.247   4.124 -3.3105 -0.5870  0.2516
 9399SOL     OW39832   2.882   1.499   3.520 -0.6019  0.2781  0.2417
 9399SOL    HW139833   2.891   1.570   3.458  0.0157 -1.3948 -1.5866
 9399SOL    HW239834   2.872   1.553   3.598 -0.1120  1.5265 -0.5707
 9400SOL     OW39835   3.867   2.063   4.902 -0.2194  0.6728 -0.0235
 9400SOL    HW139836   3.935   2.018   4.952 -0.5125  2.6207  2.1436
 9400SOL    HW239837   3.808   2.100   4.968 -0.7988 -1.3602  0.6052
 9401SOL     OW39838   3.397   0.133   6.220 -0.3751  0.2059 -0.4531
 9401SOL    HW139839   3.440   0.096   6.143 -1.2212 -2.7105  0.4523
 9401SOL    HW239840   3.421   0.068   6.287  0.5442  3.5596  2.4624
 9402SOL     OW39841   3.964   2.740   7.082 -0.2067  0.0232  0.3130
 9402SOL    HW139842   3.919   2.765   7.000 -1.5860 -0.1794  1.0002
 9402SOL    HW239843   3.910   2.787   7.145  2.8231  3.1937  0.5019
 9403SOL     OW39844   1.499   0.283   8.341 -0.0685 -0.0134  0.3945
 9403SOL    HW139845   1.551   0.308   8.265 -1.0888  0.4500 -0.1547
 9403SOL    HW239846   1.466   0.369   8.365  0.4680  0.9335 -2.2778
 9404SOL     OW39847   1.899   2.299   9.881 -0.3994 -0.0573  0.4168
 9404SOL    HW139848   1.844   2.320   9.805  1.2636 -2.3096 -1.4088
 9404SOL    HW239849   1.942   2.220   9.849 -2.2524 -1.5538  1.5995
 9405SOL     OW39850   1.150   1.118   5.948  0.0822 -0.0022  0.3044
 9405SOL    HW139851   1.134   1.100   5.855 -1.1292  1.7996  0.1540
 9405SOL    HW239852   1.230   1.170   5.946  0.6906 -1.0322 -2.1116
 9406SOL     OW39853   1.311   4.335   8.205  0.1197  0.6144  0.1734
 9406SOL    HW139854   1.341   4.273   8.138 -2.1570  0.1280 -0.3974
 9406SOL    HW239855   1.389   4.390   8.215  0.8259 -0.1614 -1.0324
 9407SOL     OW39856   3.807   3.752  13.764  0.3491  0.0082 -0.3133
 9407SOL    HW139857   3.900   3.737  13.781 -0.3794 -1.1625  2.6154
 9407SOL    HW239858   3.763   3.697  13.828 -0.1438 -0.9516 -1.4684
 9408SOL     OW39859   2.658   3.561  17.592  0.1351 -0.4180  0.7007
 9408SOL    HW139860   2.735   3.586  17.643 -0.5133  2.5508  0.2351
 9408SOL    HW239861   2.611   3.645  17.591  1.6521  0.4007 -1.6938
 9409SOL     OW39862   1.320   0.648   5.402  0.1268  0.2601  0.3406
 9409SOL    HW139863   1.292   0.681   5.488  1.0855  1.7863  0.0675
 9409SOL    HW239864   1.391   0.590   5.427 -0.0649 -0.8135 -1.6226
 9410SOL     OW39865   0.584   2.988   6.276  0.1666 -0.2849 -0.3357
 9410SOL    HW139866   0.522   3.011   6.207 -1.3571 -1.8890  0.5025
 9410SOL    HW239867   0.620   2.905   6.245  4.9388  1.1190  1.2868
 9411SOL     OW39868   2.896   0.218  16.611  0.2348  0.0165  0.4239
 9411SOL    HW139869   2.886   0.222  16.706  1.7965 -2.5467  0.7171
 9411SOL    HW239870   2.990   0.231  16.597  0.2712 -1.8494 -1.0890
 9412SOL     OW39871   0.102   1.359   2.587  0.4835 -0.6305  0.4126
 9412SOL    HW139872   0.180   1.379   2.536 -0.9883  2.1553 -0.7544
 9412SOL    HW239873   0.143   1.377   2.672 -0.8225  0.7363  0.7514
 9413SOL     OW39874   4.296   1.686   2.247  0.1551 -0.0276  0.1988
 9413SOL    HW139875   4.290   1.602   2.293  0.5810 -0.4374 -0.4959
 9413SOL    HW239876   4.327   1.737   2.322  0.1182 -0.2422  0.3608
 9414SOL     OW39877   4.423   2.323   1.916  0.1485  0.0580  0.4632
 9414SOL    HW139878   4.497   2.330   1.977 -1.8038 -0.3272  2.8350
 9414SOL    HW239879   4.420   2.416   1.891  0.1549 -0.5543 -1.8005
 9415SOL     OW39880   0.314   4.473   2.741 -0.2694 -0.1169  0.8573
 9415SOL    HW139881   0.403   4.466   2.707 -0.5348  0.5298  0.0317
 9415SOL    HW239882   0.300   4.394   2.793  1.5427 -2.5776 -2.3849
 9416SOL     OW39883   2.407   2.637   6.330  0.1292  0.0806 -0.4559
 9416SOL    HW139884   2.376   2.727   6.344 -1.2477 -0.5759  0.7336
 9416SOL    HW239885   2.436   2.641   6.239  0.6413 -0.8994 -0.3376
 9417SOL     OW39886   4.546   0.719   7.352  0.6982 -0.5064  0.1358
 9417SOL    HW139887   4.624   0.760   7.390  0.1809 -0.1650  0.8342
 9417SOL    HW239888   4.527   0.659   7.425  3.4723 -0.3793  0.9764
 9418SOL     OW39889   0.634   0.143   4.575  0.0383  0.2061 -0.5002
 9418SOL    HW139890   0.703   0.203   4.601  1.8160 -1.2179 -1.9004
 9418SOL    HW239891   0.648   0.145   4.480 -0.7310 -1.0711 -0.6362
 9419SOL     OW39892   3.486   2.296   4.732 -0.1562 -0.0198 -0.1490
 9419SOL    HW139893   3.469   2.319   4.823 -3.3750  2.2156 -1.2870
 9419SOL    HW239894   3.567   2.344   4.713 -0.4928  0.4092 -0.5021
 9420SOL     OW39895   2.389   1.281   2.490  0.3654 -0.1388 -0.0154
 9420SOL    HW139896   2.351   1.366   2.514  1.8391  0.3193  0.6995
 9420SOL    HW239897   2.417   1.252   2.577 -0.8109  0.2865  0.5044
 9421SOL     OW39898   1.929   2.771   9.335  0.1534  0.5578 -0.7143
 9421SOL    HW139899   1.868   2.844   9.323 -0.5681 -0.0159 -0.4992
 9421SOL    HW239900   1.896   2.712   9.267 -1.6540  0.5069  0.2152
 9422SOL     OW39901   3.304   0.418   2.539 -0.7288  0.2414  0.4967
 9422SOL    HW139902   3.290   0.512   2.537 -0.0280  0.2823 -1.9001
 9422SOL    HW239903   3.236   0.391   2.601 -0.7453  1.1952  0.8954
 9423SOL     OW39904   1.678   2.695   6.968  0.2014  0.5463  0.3515
 9423SOL    HW139905   1.585   2.675   6.975  0.5433 -0.1419  2.7647
 9423SOL    HW239906   1.700   2.681   7.060  0.1756 -0.3304  0.2214
 9424SOL     OW39907   3.348   0.127   3.250 -0.4799  1.1538  0.1484
 9424SOL    HW139908   3.291   0.149   3.178 -0.1563  0.2818 -0.3807
 9424SOL    HW239909   3.428   0.170   3.220 -2.5544  4.3854 -0.6052
 9425SOL     OW39910   1.354   1.316   6.866 -0.4770  0.1242  0.0321
 9425SOL    HW139911   1.303   1.378   6.919  0.5934 -0.4336  1.7072
 9425SOL    HW239912   1.351   1.350   6.776  0.2924 -0.0274 -0.0501
 9426SOL     OW39913   1.547   1.212   9.407  0.2968  0.0567 -0.0583
 9426SOL    HW139914   1.506   1.287   9.449 -1.0386 -1.4054  1.2783
 9426SOL    HW239915   1.602   1.248   9.337  1.0822  1.3222  1.2156
 9427SOL     OW39916   2.856   0.342  17.197  0.3096  0.7988  0.4945
 9427SOL    HW139917   2.928   0.386  17.242 -1.1449  0.5901  3.0569
 9427SOL    HW239918   2.818   0.422  17.162 -0.5332  0.0672 -0.2613
 9428SOL     OW39919   4.076   4.636   7.299  0.4452  0.1027 -0.4523
 9428SOL    HW139920   4.020   4.559   7.301  1.3101 -0.4821  1.3380
 9428SOL    HW239921   4.085   4.614   7.392  1.5198  0.0550 -0.5620
 9429SOL     OW39922   0.615   1.991   6.925 -0.0238 -0.6133  0.3659
 9429SOL    HW139923   0.658   1.907   6.908  3.1241  1.4556 -1.8941
 9429SOL    HW239924   0.540   1.988   6.867  0.9572 -2.0414 -0.8284
 9430SOL     OW39925   1.386   2.101   3.325 -0.1580 -0.3935 -0.2153
 9430SOL    HW139926   1.306   2.050   3.337 -0.4701  0.1952  0.1956
 9430SOL    HW239927   1.430   2.064   3.248  2.3355  0.1962  0.9222
 9431SOL     OW39928   0.433   3.599   1.756  0.6943 -0.5380 -0.0882
 9431SOL    HW139929   0.341   3.605   1.782  0.5077 -0.6546 -0.7233
 9431SOL    HW239930   0.464   3.554   1.835  0.0258 -0.7921  0.0307
 9432SOL     OW39931   1.939   3.100  17.573  0.1949 -0.4493 -0.2975
 9432SOL    HW139932   1.925   3.179  17.626 -0.0840 -2.0143  1.9482
 9432SOL    HW239933   1.853   3.060  17.558  0.2094 -0.6828  0.2460
 9433SOL     OW39934   1.353   2.508   3.197 -1.1031  0.2957 -0.0548
 9433SOL    HW139935   1.264   2.542   3.202 -1.2953 -0.3142  0.5669
 9433SOL    HW239936   1.402   2.586   3.169 -1.5181  0.4872 -0.2471
 9434SOL     OW39937   2.489   2.820   8.321 -0.1181 -0.2550 -0.2333
 9434SOL    HW139938   2.450   2.906   8.341  2.2717  0.6188  0.6791
 9434SOL    HW239939   2.553   2.807   8.391 -0.3778 -2.9545 -0.5010
 9435SOL     OW39940   0.993   2.460  13.722 -0.9339 -0.4814 -0.5527
 9435SOL    HW139941   1.051   2.535  13.714 -0.1606 -1.0964 -0.7953
 9435SOL    HW239942   0.936   2.486  13.794 -0.9406 -2.3754  0.1338
 9436SOL     OW39943   3.613   1.896   2.332 -0.0767  0.0731  0.9524
 9436SOL    HW139944   3.550   1.823   2.329 -0.5708  0.4934  1.0391
 9436SOL    HW239945   3.676   1.877   2.263  0.0696  3.3982  0.2033
 9437SOL     OW39946   1.892   1.457   9.531  0.2598 -0.1452  0.0174
 9437SOL    HW139947   1.801   1.488   9.533  0.7159  0.9888  2.4306
 9437SOL    HW239948   1.897   1.432   9.439 -1.6252 -1.7678  0.3527
 9438SOL     OW39949   3.004   3.413   8.029 -0.0454 -0.2857  0.2184
 9438SOL    HW139950   3.093   3.447   8.035  0.2249 -0.4838 -2.5964
 9438SOL    HW239951   2.963   3.440   8.111 -0.2503 -0.1100  0.0592
 9439SOL     OW39952   3.339   3.380   2.127 -0.3136  0.3073 -0.0401
 9439SOL    HW139953   3.376   3.292   2.125 -1.8846 -0.3421 -0.6618
 9439SOL    HW239954   3.315   3.384   2.035 -2.1147 -1.9455  0.3229
 9440SOL     OW39955   2.476   3.478   0.665 -0.4101  0.5176  0.1293
 9440SOL    HW139956   2.437   3.536   0.730 -1.1077  0.0439  0.1231
 9440SOL    HW239957   2.423   3.500   0.588 -0.9420  0.0419  0.3615
 9441SOL     OW39958   1.159   0.503   4.216  0.2402 -0.1803 -0.1534
 9441SOL    HW139959   1.135   0.588   4.252  1.4853  0.3477 -0.5666
 9441SOL    HW239960   1.143   0.525   4.124  0.7428 -1.9518 -0.6603
 9442SOL     OW39961   2.783   2.800   6.224  0.6744  0.8681 -0.3259
 9442SOL    HW139962   2.807   2.708   6.235 -2.2482 -0.0275 -1.1601
 9442SOL    HW239963   2.817   2.809   6.135  0.7126  0.8751 -0.3101
 9443SOL     OW39964   2.810   0.117   5.327 -0.2921  0.0689  0.2710
 9443SOL    HW139965   2.855   0.184   5.379 -1.2073 -0.7097  2.0429
 9443SOL    HW239966   2.868   0.097   5.253  0.8049  1.2527  0.8053
 9444SOL     OW39967   2.768   0.227   5.899 -0.0508  0.5108  0.1458
 9444SOL    HW139968   2.846   0.177   5.923 -0.6612 -0.1642  0.7385
 9444SOL    HW239969   2.703   0.193   5.961  0.3506  0.4300  0.5140
 9445SOL     OW39970   1.595   0.284   3.301  0.4101 -0.6691 -0.4204
 9445SOL    HW139971   1.539   0.308   3.228  1.3907  0.3168 -0.8482
 9445SOL    HW239972   1.636   0.205   3.266  1.4727  0.0911 -0.9302
 9446SOL     OW39973   3.603   1.587   2.732  0.0641  0.5308 -0.2291
 9446SOL    HW139974   3.683   1.613   2.686 -0.0792  1.0431 -0.1904
 9446SOL    HW239975   3.581   1.664   2.785 -0.1185  0.5487 -0.3294
 9447SOL     OW39976   3.228   2.132  13.076  0.8624 -0.1404  0.5418
 9447SOL    HW139977   3.172   2.054  13.071 -1.4099  1.5925 -0.8309
 9447SOL    HW239978   3.311   2.095  13.043  0.6230  0.2203 -0.4755
 9448SOL     OW39979   4.197   4.490   6.039 -0.1934 -0.4540 -0.0820
 9448SOL    HW139980   4.184   4.576   6.001  3.7387  0.0655 -0.3241
 9448SOL    HW239981   4.117   4.474   6.088  0.8274 -0.2657  1.6763
 9449SOL     OW39982   4.164   3.230   7.175 -0.6765  0.1471 -0.1149
 9449SOL    HW139983   4.244   3.280   7.187  2.5389 -4.6897 -1.2477
 9449SOL    HW239984   4.188   3.163   7.111 -1.3338  0.1606 -0.3717
 9450SOL     OW39985   3.999   4.632  11.592  0.4387 -0.8157  0.0973
 9450SOL    HW139986   4.031   4.591  11.511 -1.8047 -1.6056 -0.4006
 9450SOL    HW239987   4.074   4.635  11.651 -1.0647 -0.0970  1.9726
 9451SOL     OW39988   0.490   0.355   5.200 -0.0946 -0.0425  0.7378
 9451SOL    HW139989   0.579   0.322   5.186  0.3950  2.5807 -2.3382
 9451SOL    HW239990   0.484   0.430   5.141 -0.7688 -0.4581  0.2749
 9452SOL     OW39991   2.805   2.472   4.703 -0.2234  0.4575 -0.3012
 9452SOL    HW139992   2.900   2.483   4.691 -0.5827  0.9529 -2.7135
 9452SOL    HW239993   2.803   2.381   4.732  1.4526  0.8063  0.9514
 9453SOL     OW39994   4.246   1.992   1.684  0.0012  0.0669  0.3352
 9453SOL    HW139995   4.210   2.066   1.732 -0.2919 -1.8652  3.0514
 9453SOL    HW239996   4.171   1.932   1.689  0.1094 -0.3208 -2.6509
 9454SOL     OW39997   3.000   3.135   9.106 -0.1986  0.4809  0.4835
 9454SOL    HW139998   3.014   3.159   9.198 -0.6985  0.9905  0.4250
 9454SOL    HW239999   3.081   3.088   9.085 -0.5354  0.4916 -0.8378
 9455SOL     OW40000   2.583   4.096   2.009  0.5877  0.1177 -0.0547
 9455SOL    HW140001   2.663   4.057   1.972  0.5629 -0.4762  0.5205
 9455SOL    HW240002   2.545   4.023   2.059  0.4996 -0.2237 -0.6214
 9456SOL     OW40003   2.087   2.349  11.116 -0.7679  0.5308  0.5549
 9456SOL    HW140004   2.164   2.305  11.153 -0.6585  0.0635 -0.2392
 9456SOL    HW240005   2.026   2.276  11.110 -1.7117  1.0994  3.3448
 9457SOL     OW40006   1.976   4.720   5.483  0.0619  0.2862 -0.5300
 9457SOL    HW140007   1.961   0.017   5.570 -2.5141  0.5550 -1.0779
 9457SOL    HW240008   1.965   0.065   5.437  0.8465  0.1564 -0.9604
 9458SOL     OW40009   4.395   1.041  16.941 -0.2701 -0.4181 -0.6946
 9458SOL    HW140010   4.481   1.047  16.983 -0.8682  0.6387  0.3906
 9458SOL    HW240011   4.363   1.117  16.989 -0.4697 -1.1549  0.3463
 9459SOL     OW40012   2.416   0.980   2.283  0.8037  0.9358  0.1751
 9459SOL    HW140013   2.493   0.956   2.335  1.8856  1.5808 -1.0997
 9459SOL    HW240014   2.460   1.047   2.231 -0.5738  1.5366 -0.2134
 9460SOL     OW40015   3.329   3.866   8.007  0.1336  0.0369 -0.1459
 9460SOL    HW140016   3.389   3.804   8.047 -0.1654 -1.2747 -1.7697
 9460SOL    HW240017   3.395   3.936   8.008  0.7302 -0.5367  0.0892
 9461SOL     OW40018   3.050   3.815   0.689  0.0438 -0.1370  0.5081
 9461SOL    HW140019   3.060   3.903   0.726  0.4420  0.1850 -0.3703
 9461SOL    HW240020   3.075   3.754   0.759  0.1749 -1.5694 -0.7856
 9462SOL     OW40021   1.721   0.369  11.264  0.4793 -0.0857  0.2132
 9462SOL    HW140022   1.695   0.322  11.343 -1.6558  1.8173  0.6350
 9462SOL    HW240023   1.810   0.336  11.259 -0.3277 -2.0068 -1.3346
 9463SOL     OW40024   3.398   2.432   9.876 -0.2501  0.2054  0.1120
 9463SOL    HW140025   3.472   2.457   9.822 -1.5484  1.8965 -0.8914
 9463SOL    HW240026   3.373   2.502   9.937 -1.9783  0.8807 -1.3711
 9464SOL     OW40027   0.925   4.217   5.206 -0.2924  0.5352  0.6363
 9464SOL    HW140028   1.006   4.189   5.163  0.4252  2.3051  0.8259
 9464SOL    HW240029   0.921   4.169   5.288 -1.4361 -1.8990 -0.8460
 9465SOL     OW40030   1.916   3.080   4.003  0.0352  0.1558 -0.2227
 9465SOL    HW140031   1.934   3.123   4.087  3.1841  0.7741 -1.2227
 9465SOL    HW240032   1.828   3.112   3.982 -0.6607 -1.8523 -0.3988
 9466SOL     OW40033   0.743   3.552   8.740 -0.4015  0.4508 -0.3533
 9466SOL    HW140034   0.673   3.545   8.805 -0.7214 -1.0389 -0.8691
 9466SOL    HW240035   0.750   3.462   8.709 -2.6080 -0.9197  3.1949
 9467SOL     OW40036   0.716   2.428   2.747 -0.2101 -0.3341  0.6149
 9467SOL    HW140037   0.679   2.513   2.771  0.0105 -0.4182  1.2761
 9467SOL    HW240038   0.749   2.447   2.660  3.5311  0.6928  2.2450
 9468SOL     OW40039   4.690   2.920   9.955 -0.1545 -0.3399 -0.6559
 9468SOL    HW140040   4.695   2.852   9.888 -1.7206 -0.2554 -0.8526
 9468SOL    HW240041   4.597   2.940   9.966  0.0668  0.1545  0.2812
 9469SOL     OW40042   3.685   1.139   7.230  0.1548  0.0291 -0.3681
 9469SOL    HW140043   3.627   1.106   7.162  0.4844 -0.4319 -0.4297
 9469SOL    HW240044   3.709   1.054   7.266  0.8437  0.5546  0.4010
 9470SOL     OW40045   3.173   3.525   9.076 -0.7176  0.0010 -0.0814
 9470SOL    HW140046   3.083   3.505   9.101 -0.7395 -2.1572 -1.8597
 9470SOL    HW240047   3.218   3.464   9.135 -1.8022 -0.2464  0.4829
 9471SOL     OW40048   0.931   1.427   0.813 -0.1782 -0.0394 -0.1565
 9471SOL    HW140049   0.902   1.500   0.757  0.8899  0.4739 -0.0462
 9471SOL    HW240050   1.021   1.419   0.782  0.7253  3.1110  1.5914
 9472SOL     OW40051   3.219   3.564   7.770 -0.0523 -0.3261  0.3696
 9472SOL    HW140052   3.218   3.660   7.779 -0.9642 -0.0112 -3.1424
 9472SOL    HW240053   3.265   3.559   7.686  0.0741  1.6594  0.3215
 9473SOL     OW40054   2.682   0.670   3.586  0.0922  0.7826 -0.7415
 9473SOL    HW140055   2.759   0.618   3.608  0.9669  1.9203 -1.1293
 9473SOL    HW240056   2.723   0.755   3.597  2.3792 -0.7087  2.1153
 9474SOL     OW40057   1.250   0.299  15.000 -0.0309  0.0282 -0.0523
 9474SOL    HW140058   1.195   0.373  15.026  2.4469  1.6999  0.3402
 9474SOL    HW240059   1.252   0.245  15.080 -0.7606 -3.2490 -2.2416
 9475SOL     OW40060   3.242   2.605   0.589  0.7459 -0.2498  0.1860
 9475SOL    HW140061   3.332   2.633   0.573  0.4662 -1.1631 -2.9233
 9475SOL    HW240062   3.239   2.542   0.516  0.5426 -0.3323  0.2660
 9476SOL     OW40063   1.475   4.461   0.455  0.6617  0.0840  0.2410
 9476SOL    HW140064   1.454   4.403   0.528 -2.0509 -0.7161 -1.1538
 9476SOL    HW240065   1.566   4.484   0.473  0.9413 -2.6955  2.3913
 9477SOL     OW40066   1.117   2.656  16.451  0.8178 -0.4977  0.1768
 9477SOL    HW140067   1.088   2.639  16.540  0.1491  0.2453  0.0937
 9477SOL    HW240068   1.041   2.636  16.397 -0.2384  1.8355  0.8077
 9478SOL     OW40069   2.626   3.638   5.088 -0.1221 -0.7818 -0.6066
 9478SOL    HW140070   2.625   3.545   5.112  0.0220 -1.0695 -1.6906
 9478SOL    HW240071   2.632   3.676   5.175 -0.3967 -0.2897 -0.8005
 9479SOL     OW40072   0.699   1.337   2.979  0.0724  0.2911 -0.0372
 9479SOL    HW140073   0.661   1.312   3.063  1.3383 -2.7735 -0.3897
 9479SOL    HW240074   0.627   1.340   2.917 -2.3735  1.0008  2.8373
 9480SOL     OW40075   2.041   0.975  11.621 -0.7481  0.4750 -1.0873
 9480SOL    HW140076   2.088   1.029  11.685 -0.4064  0.9555 -1.7512
 9480SOL    HW240077   2.089   0.972  11.538  1.3320  0.4131  0.1025
 9481SOL     OW40078   2.616   0.479   2.648 -0.1720  0.1393 -0.2125
 9481SOL    HW140079   2.693   0.438   2.689  0.0727  1.6993  0.9126
 9481SOL    HW240080   2.548   0.447   2.707 -0.0629 -2.2943 -1.4290
 9482SOL     OW40081   4.399   0.890   8.810 -0.2638 -0.1030  1.2147
 9482SOL    HW140082   4.480   0.917   8.766  0.1512 -1.6089  1.0474
 9482SOL    HW240083   4.412   0.795   8.816  3.1877  0.1078 -2.5940
 9483SOL     OW40084   3.015   2.788   6.677 -0.3807  0.1152  0.9730
 9483SOL    HW140085   2.979   2.833   6.600  0.6638 -0.7272  0.0114
 9483SOL    HW240086   3.073   2.859   6.707 -0.0115  0.0073  0.5171
 9484SOL     OW40087   3.383   4.406  15.340 -0.1088 -0.0727  0.6700
 9484SOL    HW140088   3.308   4.361  15.377 -0.5099 -1.2152 -1.5047
 9484SOL    HW240089   3.343   4.460  15.271 -0.6260  0.5652  1.4792
 9485SOL     OW40090   1.457   3.093  13.258  0.7224  0.8024  0.4246
 9485SOL    HW140091   1.445   3.083  13.163 -0.9587 -0.6945  0.7843
 9485SOL    HW240092   1.544   3.131  13.257  1.9348 -1.9733 -1.0216
 9486SOL     OW40093   2.071   2.991   6.892 -0.1242 -0.0605 -0.1942
 9486SOL    HW140094   2.135   3.052   6.855 -0.0911 -0.3257 -0.5693
 9486SOL    HW240095   2.119   2.909   6.882 -1.5315 -1.3560  3.9922
 9487SOL     OW40096   2.901   0.538   4.241  0.2135 -0.0248  0.3604
 9487SOL    HW140097   2.924   0.569   4.153  0.1786 -0.6743  0.1283
 9487SOL    HW240098   2.983   0.499   4.272 -0.5930 -0.2577  2.2335
 9488SOL     OW40099   2.226   0.626   3.878  0.6317 -0.1835  0.1851
 9488SOL    HW140100   2.308   0.602   3.921  1.8339 -0.1306 -2.0576
 9488SOL    HW240101   2.267   0.663   3.800  0.8813  0.3224  0.5605
 9489SOL     OW40102   2.835   4.152   0.519 -0.0642 -0.8431 -0.0556
 9489SOL    HW140103   2.790   4.088   0.574  0.8145 -2.2338 -0.9797
 9489SOL    HW240104   2.772   4.158   0.447 -1.0116 -1.1035  0.7485
 9490SOL     OW40105   3.316   0.364   7.850  0.3738 -0.2016  0.2627
 9490SOL    HW140106   3.295   0.270   7.851  0.9539 -0.3431 -0.9277
 9490SOL    HW240107   3.350   0.373   7.939  1.0684 -2.6462  0.2491
 9491SOL     OW40108   3.588   3.091   3.832  0.0835  0.4231  0.5406
 9491SOL    HW140109   3.515   3.089   3.771  1.4649  1.9006 -1.1812
 9491SOL    HW240110   3.540   3.125   3.907  0.4143  0.2222  0.8415
 9492SOL     OW40111   0.534   0.110   4.015 -0.2524  0.1230 -0.2728
 9492SOL    HW140112   0.576   0.117   3.929  0.4205  0.4897  0.0815
 9492SOL    HW240113   0.551   0.017   4.028  1.6846  0.7602  1.7693
 9493SOL     OW40114   0.555   2.838   9.141  0.3486  0.0132  0.4571
 9493SOL    HW140115   0.523   2.840   9.231  0.3777  0.2829  0.4593
 9493SOL    HW240116   0.646   2.808   9.150  0.4319 -0.5495 -1.9928
 9494SOL     OW40117   4.492   4.028   1.099 -0.1455 -0.2749 -0.0063
 9494SOL    HW140118   4.554   4.102   1.092  2.1278 -2.1582  0.1209
 9494SOL    HW240119   4.512   3.988   1.014 -2.5444  1.0636 -1.1984
 9495SOL     OW40120   0.130   2.649   7.000 -0.3300 -0.1489  0.0031
 9495SOL    HW140121   0.092   2.722   6.950 -0.4416  0.2612  0.6878
 9495SOL    HW240122   0.220   2.676   7.020  0.6205 -1.4929 -2.4502
 9496SOL     OW40123   4.662   0.673   2.528 -0.4245 -0.1481  0.3474
 9496SOL    HW140124   4.590   0.685   2.467 -0.6051  0.4401  0.6833
 9496SOL    HW240125   4.731   0.704   2.469 -0.1860 -1.8002 -0.2631
 9497SOL     OW40126   4.469   4.106  15.984 -0.3656 -0.7387 -0.0266
 9497SOL    HW140127   4.500   4.184  16.029  0.2516  0.1594 -2.0070
 9497SOL    HW240128   4.395   4.089  16.042  0.1083 -0.3205  0.6977
 9498SOL     OW40129   2.624   4.045   5.685 -0.6040  0.2593  0.6183
 9498SOL    HW140130   2.544   4.007   5.721  0.4075 -2.0450  0.4010
 9498SOL    HW240131   2.639   3.979   5.618 -0.7729  0.3154  0.5260
 9499SOL     OW40132   4.514   1.283   7.360 -0.5035 -0.0535  0.5247
 9499SOL    HW140133   4.536   1.359   7.307 -1.2670 -0.4560 -0.3617
 9499SOL    HW240134   4.509   1.325   7.446 -3.5904  2.9634 -1.1093
 9500SOL     OW40135   4.320   2.175  17.011  0.0023 -0.2098 -0.3371
 9500SOL    HW140136   4.235   2.174  16.968 -0.7385  1.5820  1.0590
 9500SOL    HW240137   4.325   2.081  17.025  0.1170  0.0397  1.3691
 9501SOL     OW40138   0.907   0.056   8.121  0.2670  0.0529  0.2021
 9501SOL    HW140139   0.818   0.065   8.088  0.8745 -1.0360 -1.7083
 9501SOL    HW240140   0.918   4.701   8.098  2.6890  0.0246  1.4317
 9502SOL     OW40141   2.248   2.583  12.923 -0.4981 -0.0086 -0.1598
 9502SOL    HW140142   2.179   2.586  12.857 -1.9193  1.8794  1.3833
 9502SOL    HW240143   2.296   2.504  12.900  3.0150  1.8176  0.8778
 9503SOL     OW40144   2.198   2.126   5.885  0.3890 -0.0811  0.5985
 9503SOL    HW140145   2.194   2.165   5.798  0.4823  1.2364  1.1752
 9503SOL    HW240146   2.154   2.194   5.937 -0.3353  2.8546 -3.8220
 9504SOL     OW40147   2.723   1.785   5.708 -0.0071 -0.5260 -0.2169
 9504SOL    HW140148   2.754   1.875   5.716 -1.5886  0.2386 -2.3750
 9504SOL    HW240149   2.635   1.798   5.671 -0.4994 -0.9976  0.7930
 9505SOL     OW40150   2.440   3.510   9.033 -0.7498  0.4658 -0.1265
 9505SOL    HW140151   2.531   3.506   9.062 -0.1585  1.0952 -1.9141
 9505SOL    HW240152   2.434   3.422   8.994  1.8909  0.4469 -0.4860
 9506SOL     OW40153   3.433   1.428   7.827  0.0123  1.0740  0.2577
 9506SOL    HW140154   3.509   1.440   7.770  0.0865  0.2533  0.1914
 9506SOL    HW240155   3.366   1.481   7.783  0.8220  2.7499  1.0163
 9507SOL     OW40156   3.937   3.158   5.791  0.1195 -0.2609  0.2553
 9507SOL    HW140157   3.948   3.162   5.886 -1.1911 -0.4119  0.4106
 9507SOL    HW240158   4.028   3.134   5.772  0.0010  1.0739 -2.0660
 9508SOL     OW40159   3.593   4.429   6.858  0.4557  0.1142 -0.1495
 9508SOL    HW140160   3.567   4.420   6.766  1.2887 -0.5650 -0.3243
 9508SOL    HW240161   3.671   4.373   6.859 -0.3894 -1.0325  2.3545
 9509SOL     OW40162   1.379   0.112   2.228  0.4509 -0.3391 -0.0438
 9509SOL    HW140163   1.292   0.150   2.223 -0.0540 -1.7445 -1.8404
 9509SOL    HW240164   1.393   0.067   2.145 -0.0003  0.2646 -0.4481
 9510SOL     OW40165   2.114   2.593   6.067  0.2800  0.5812 -0.3182
 9510SOL    HW140166   2.056   2.630   6.134  0.2456  0.0221 -0.0464
 9510SOL    HW240167   2.057   2.577   5.992  0.5779  1.1219 -0.6644
 9511SOL     OW40168   0.913   2.713  14.182  0.0319 -0.2624 -0.1568
 9511SOL    HW140169   0.878   2.798  14.208 -1.3463 -0.3786 -1.6429
 9511SOL    HW240170   0.831   2.674  14.153 -1.9285  2.1504  2.1812
 9512SOL     OW40171   2.878   4.016  15.782 -0.2445  0.9788 -0.3418
 9512SOL    HW140172   2.965   3.985  15.808 -0.9955  1.4761  2.8694
 9512SOL    HW240173   2.820   3.947  15.813  1.0175 -0.8903 -2.2060
 9513SOL     OW40174   3.643   2.688   4.992  0.2550  0.2112  0.4336
 9513SOL    HW140175   3.591   2.726   4.921 -0.4604 -3.1764 -0.8780
 9513SOL    HW240176   3.718   2.747   4.998  0.7475 -0.4667  0.9523
 9514SOL     OW40177   2.547   2.043   9.994 -0.4467 -0.0536 -0.4063
 9514SOL    HW140178   2.588   2.067  10.077  0.6411  2.1563 -1.5864
 9514SOL    HW240179   2.607   2.097   9.942  1.7225  0.7938  2.9776
 9515SOL     OW40180   0.893   1.524   3.202  0.3558 -0.4872 -0.1633
 9515SOL    HW140181   0.966   1.528   3.141 -1.4395  0.6149 -2.2196
 9515SOL    HW240182   0.902   1.606   3.250  3.0150 -0.7261 -0.2544
 9516SOL     OW40183   1.243   2.376   5.981  0.5356  0.3293 -0.1529
 9516SOL    HW140184   1.280   2.464   5.992 -2.8086  1.4515  2.1738
 9516SOL    HW240185   1.316   2.319   6.002 -0.8772 -1.5376 -0.3500
 9517SOL     OW40186   1.537   0.273   5.975 -0.1844  0.1105 -0.1185
 9517SOL    HW140187   1.535   0.187   5.932 -0.0519 -0.1355  0.3675
 9517SOL    HW240188   1.586   0.256   6.056  0.2709  1.0859 -0.1835
 9518SOL     OW40189   3.903   1.418   6.394 -0.3883  0.6432  0.3200
 9518SOL    HW140190   3.920   1.354   6.463  1.1102  2.2555  1.4780
 9518SOL    HW240191   3.810   1.401   6.379 -0.7872  1.4342  1.8563
 9519SOL     OW40192   1.274   2.282   3.083 -0.2724 -0.9656  0.1714
 9519SOL    HW140193   1.258   2.234   3.164  2.3151  0.4766  1.5136
 9519SOL    HW240194   1.276   2.368   3.126  1.1542 -0.4642 -0.9151
 9520SOL     OW40195   1.972   4.718  14.337 -0.0494 -0.2193 -0.4533
 9520SOL    HW140196   1.981   0.070  14.370  1.3001  0.1666 -1.8539
 9520SOL    HW240197   2.057   4.681  14.361 -0.5148 -0.5876  0.5983
 9521SOL     OW40198   2.327   3.081   6.147 -0.1868  0.3006  0.1125
 9521SOL    HW140199   2.386   3.007   6.161 -0.8427  0.2524  2.6121
 9521SOL    HW240200   2.374   3.117   6.073 -0.2444 -0.6860 -0.4099
 9522SOL     OW40201   2.724   1.197   8.506  0.4562  0.0239 -0.6246
 9522SOL    HW140202   2.696   1.288   8.519 -0.7767 -0.5271  0.5996
 9522SOL    HW240203   2.741   1.165   8.594  2.5066  4.4506  0.5795
 9523SOL     OW40204   2.269   2.399   7.315  0.3730 -0.1598 -0.1110
 9523SOL    HW140205   2.254   2.464   7.384 -0.2201  0.7574 -1.1161
 9523SOL    HW240206   2.351   2.367   7.352  0.1427  1.3092  1.6958
 9524SOL     OW40207   1.565   0.523   5.514 -0.9591  0.3201  0.0764
 9524SOL    HW140208   1.639   0.575   5.482 -0.7095 -0.4863 -0.6424
 9524SOL    HW240209   1.586   0.486   5.600 -1.5856  1.1437  0.5861
 9525SOL     OW40210   3.949   0.179  17.039 -0.2755  0.2209  0.3425
 9525SOL    HW140211   4.000   0.115  17.088  1.5515  0.2133 -1.5586
 9525SOL    HW240212   3.900   0.209  17.115 -1.1609  1.4250 -0.6867
 9526SOL     OW40213   2.163   0.143  10.516  0.0081 -0.1818 -0.7557
 9526SOL    HW140214   2.233   0.149  10.451 -1.6021 -0.4955 -2.5270
 9526SOL    HW240215   2.198   0.086  10.584 -0.4228  1.4743  0.8547
 9527SOL     OW40216   0.608   3.355  13.765 -0.5088  0.2825 -0.6896
 9527SOL    HW140217   0.661   3.350  13.844 -1.1331 -1.2426 -0.3831
 9527SOL    HW240218   0.542   3.418  13.794 -1.5853 -0.4615 -1.5406
 9528SOL     OW40219   1.988   4.257   2.967  0.1448 -0.4775 -0.0765
 9528SOL    HW140220   2.058   4.215   3.017 -0.0932  0.2374  0.8632
 9528SOL    HW240221   2.010   4.218   2.882  0.0249  1.2820 -0.9165
 9529SOL     OW40222   0.623   1.003   3.017 -0.1232  0.0463 -0.0466
 9529SOL    HW140223   0.637   1.095   2.991 -1.3431  0.8520  2.1567
 9529SOL    HW240224   0.713   0.972   3.023 -1.1916 -2.6305  1.7753
 9530SOL     OW40225   1.343   2.589  13.710  0.2743 -0.4829  0.4260
 9530SOL    HW140226   1.397   2.648  13.763  1.1781 -0.5554 -0.4087
 9530SOL    HW240227   1.302   2.656  13.656  2.1230  2.5112  2.6801
 9531SOL     OW40228   1.290   2.194   4.356  1.3495  0.3503  0.2228
 9531SOL    HW140229   1.287   2.177   4.450  0.0553 -0.3467  0.0457
 9531SOL    HW240230   1.271   2.107   4.322 -0.8771  1.1525 -0.6088
 9532SOL     OW40231   2.135   1.318   2.136 -0.3935 -0.0557  0.6679
 9532SOL    HW140232   2.086   1.389   2.177 -1.5276  0.5114 -1.7035
 9532SOL    HW240233   2.086   1.292   2.058  0.2923 -1.5451  0.7244
 9533SOL     OW40234   0.764   1.677   8.119 -0.1192 -0.2205  0.4011
 9533SOL    HW140235   0.714   1.684   8.200 -0.9892  1.8997 -0.3292
 9533SOL    HW240236   0.822   1.750   8.142  1.6228 -1.2508 -0.6426
 9534SOL     OW40237   0.874   3.522   0.796  0.3563 -0.9031 -0.3011
 9534SOL    HW140238   0.930   3.448   0.772 -0.4892 -1.1431 -1.5062
 9534SOL    HW240239   0.920   3.600   0.763  2.2917 -0.8788  2.4475
 9535SOL     OW40240   3.646   2.477   6.901 -0.5371  0.1484 -0.6255
 9535SOL    HW140241   3.682   2.419   6.834  0.0290  0.7415 -0.8314
 9535SOL    HW240242   3.720   2.478   6.961 -1.6617  1.1283  0.7576
 9536SOL     OW40243   2.520   0.967   8.754 -0.0153  0.5181 -0.6576
 9536SOL    HW140244   2.469   0.944   8.677 -1.4989  0.8154  0.2293
 9536SOL    HW240245   2.457   1.019   8.803  0.3581  0.4896 -0.1399
 9537SOL     OW40246   2.034   4.415   6.889 -0.0092  0.0748 -0.2409
 9537SOL    HW140247   2.025   4.510   6.895 -0.7606  0.0737 -1.5362
 9537SOL    HW240248   2.129   4.412   6.905 -0.0627  0.5883  0.1868
 9538SOL     OW40249   2.616   0.726   5.597  0.2338 -0.0399  0.6380
 9538SOL    HW140250   2.561   0.681   5.533 -1.8867  1.5845  1.3025
 9538SOL    HW240251   2.601   0.673   5.675 -0.5012 -1.1377 -0.2541
 9539SOL     OW40252   4.640   4.611   7.537 -0.2074 -0.4365 -0.0820
 9539SOL    HW140253   4.721   4.570   7.566  0.2859  1.3277  0.9595
 9539SOL    HW240254   4.653   4.694   7.582 -0.6452 -0.4547  0.0878
 9540SOL     OW40255   1.318   2.157   9.217  0.1876 -0.2285 -0.1824
 9540SOL    HW140256   1.263   2.079   9.207 -0.5814  0.2496  0.2908
 9540SOL    HW240257   1.263   2.213   9.162  1.0556 -2.3081 -3.1933
 9541SOL     OW40258   1.116   4.720   3.893 -0.4552 -0.3616 -0.1993
 9541SOL    HW140259   1.130   4.732   3.987  0.3299 -2.6946 -0.0185
 9541SOL    HW240260   1.140   0.064   3.848 -0.8632  0.1978  0.5981
 9542SOL     OW40261   4.058   3.764   4.164  0.3254  0.1755  0.1433
 9542SOL    HW140262   3.993   3.793   4.228  1.1982  1.9705  0.1988
 9542SOL    HW240263   4.014   3.808   4.090  0.5597  0.2020  0.0206
 9543SOL     OW40264   2.984   1.494   6.724 -0.5022 -0.5751  0.3373
 9543SOL    HW140265   3.069   1.476   6.685 -0.6156 -0.1713 -0.0970
 9543SOL    HW240266   3.008   1.490   6.816 -1.3798 -0.1226  0.5929
 9544SOL     OW40267   0.124   1.318   3.575  0.2731 -0.1346 -0.3834
 9544SOL    HW140268   0.209   1.358   3.557 -0.5136 -0.3041 -4.5524
 9544SOL    HW240269   0.076   1.333   3.494 -2.1773  1.1592  1.3090
 9545SOL     OW40270   2.124   2.999   2.237  0.4226  0.1705  0.2501
 9545SOL    HW140271   2.101   3.091   2.246 -2.4261 -0.4320 -0.7969
 9545SOL    HW240272   2.038   2.956   2.245 -0.4235  1.5977 -1.0769
 9546SOL     OW40273   1.410   0.733   1.203  0.8630  0.5908 -0.1865
 9546SOL    HW140274   1.379   0.704   1.289  0.0524  0.4051 -0.5522
 9546SOL    HW240275   1.469   0.662   1.177  1.3827  0.9578 -0.0212
 9547SOL     OW40276   1.934   3.546   6.097  0.0733 -0.1107 -0.1509
 9547SOL    HW140277   2.006   3.605   6.119 -0.2657  0.9436 -1.9078
 9547SOL    HW240278   1.977   3.470   6.058 -2.7354 -1.0800 -1.3926
 9548SOL     OW40279   3.439   0.186  17.281  0.3588 -0.8683 -0.1937
 9548SOL    HW140280   3.474   0.257  17.227  0.6231 -0.8045  0.0663
 9548SOL    HW240281   3.440   0.118  17.213  0.6641 -0.3831 -0.6769
 9549SOL     OW40282   0.444   3.458   7.158 -0.1321 -0.0423  0.2276
 9549SOL    HW140283   0.487   3.380   7.193 -2.2762 -2.0716 -1.6621
 9549SOL    HW240284   0.509   3.478   7.091 -1.1331  2.1950 -0.0685
 9550SOL     OW40285   2.356   2.054   1.187  0.6452 -0.3557  0.0590
 9550SOL    HW140286   2.376   2.109   1.111  0.1698  1.5752  1.3445
 9550SOL    HW240287   2.437   2.050   1.237 -0.2637 -0.9216  1.4909
 9551SOL     OW40288   3.662   4.535   9.276  0.2737 -0.0102 -0.7575
 9551SOL    HW140289   3.707   4.539   9.360  0.0875  1.5928 -0.7430
 9551SOL    HW240290   3.596   4.469   9.297  1.7131 -1.9212 -2.2722
 9552SOL     OW40291   2.203   3.785   8.494 -0.2149 -0.1720 -0.0169
 9552SOL    HW140292   2.291   3.770   8.530  0.2120  2.4816  0.0636
 9552SOL    HW240293   2.151   3.752   8.567  0.9158  1.2520  1.4403
 9553SOL     OW40294   0.533   3.907   7.196  0.4193  0.2198 -0.1851
 9553SOL    HW140295   0.465   3.932   7.134  0.9396 -1.9356 -1.6029
 9553SOL    HW240296   0.576   3.835   7.150  0.8259  1.7007 -2.0968
 9554SOL     OW40297   4.150   0.930   5.420 -0.2731  0.4114 -0.0311
 9554SOL    HW140298   4.152   0.839   5.450  1.0849  0.3187 -0.3532
 9554SOL    HW240299   4.243   0.951   5.434  0.2955 -3.2834  1.6642
 9555SOL     OW40300   3.706   0.741   5.498  0.6254 -0.0093 -0.5677
 9555SOL    HW140301   3.769   0.812   5.504 -1.8350  2.0047  1.8609
 9555SOL    HW240302   3.730   0.685   5.572 -2.6183 -0.7112 -0.0454
 9556SOL     OW40303   4.296   2.977   8.977  0.0730 -0.3690 -0.1364
 9556SOL    HW140304   4.383   2.967   9.017  0.4613  0.9047 -0.6553
 9556SOL    HW240305   4.250   2.937   9.051 -0.5492 -0.2110 -0.4333
 9557SOL     OW40306   0.058   2.188   8.792  0.2812 -0.0515  0.1777
 9557SOL    HW140307   4.705   2.187   8.761  0.6839 -0.0307 -1.0328
 9557SOL    HW240308   0.075   2.281   8.799  0.0119 -0.1280  1.7159
 9558SOL     OW40309   2.686   4.540   7.648 -0.2091 -0.3581  0.2182
 9558SOL    HW140310   2.651   4.496   7.726  0.8980 -0.8942  0.4138
 9558SOL    HW240311   2.692   4.628   7.683 -1.8998  0.0798 -0.5591
 9559SOL     OW40312   1.869   1.401   7.280 -0.4460  0.6857  1.1946
 9559SOL    HW140313   1.799   1.429   7.221 -1.7408  0.0545  2.4331
 9559SOL    HW240314   1.941   1.379   7.220 -3.1232  0.0026 -1.7852
 9560SOL     OW40315   3.799   2.967  12.483 -0.0359  0.0172  0.1279
 9560SOL    HW140316   3.878   3.021  12.490 -0.7495  0.8512  1.6845
 9560SOL    HW240317   3.798   2.966  12.387 -0.7317 -0.3305  0.1387
 9561SOL     OW40318   3.757   0.055   0.188  0.2333  0.8815 -0.2839
 9561SOL    HW140319   3.758   0.084   0.097 -1.4179 -1.8885 -1.2083
 9561SOL    HW240320   3.845   0.078   0.219 -0.2731  1.3782  0.7780
 9562SOL     OW40321   4.419   3.755  14.820 -1.0066 -0.7011  0.0953
 9562SOL    HW140322   4.432   3.729  14.911 -1.9473  1.2799  0.8110
 9562SOL    HW240323   4.385   3.676  14.778 -0.4506 -1.3113  0.8091
 9563SOL     OW40324   1.730   3.164  12.187  0.3748  0.3252  0.4744
 9563SOL    HW140325   1.754   3.254  12.209  1.4181  0.3103 -0.6068
 9563SOL    HW240326   1.640   3.175  12.155 -0.0490 -1.6451  0.9612
 9564SOL     OW40327   2.084   4.167  12.032  0.5441  0.5944 -0.4296
 9564SOL    HW140328   2.132   4.139  12.111  0.5189  1.8704  0.0474
 9564SOL    HW240329   2.044   4.245  12.072 -1.5864 -0.4221 -0.6255
 9565SOL     OW40330   2.011   1.027   7.340 -0.6286  0.2393  0.3204
 9565SOL    HW140331   1.964   0.983   7.410 -0.7696  1.2984  0.8902
 9565SOL    HW240332   1.939   1.053   7.282 -1.9783 -0.5369  1.6322
 9566SOL     OW40333   0.924   2.212  17.409  0.0934 -0.7679 -0.3568
 9566SOL    HW140334   0.943   2.120  17.427 -2.3456 -1.3025 -0.5579
 9566SOL    HW240335   0.847   2.228  17.463  2.7266  1.5913  2.6971
 9567SOL     OW40336   4.275   0.367   7.542 -0.4777  0.5176  0.1466
 9567SOL    HW140337   4.245   0.357   7.632 -0.5796  3.0891  0.4211
 9567SOL    HW240338   4.302   0.459   7.539  2.2707 -0.3206 -0.6791
 9568SOL     OW40339   3.690   0.429   9.856 -0.4052 -0.5421 -0.0093
 9568SOL    HW140340   3.786   0.421   9.861 -0.4674  0.8316  3.5536
 9568SOL    HW240341   3.663   0.484   9.929 -3.3502 -1.2601 -0.5801
 9569SOL     OW40342   0.496   1.578   8.584  0.3194 -0.5962 -0.3102
 9569SOL    HW140343   0.469   1.669   8.591  1.0672 -0.3587 -0.5996
 9569SOL    HW240344   0.404   1.552   8.577  0.3635 -0.9708  0.4665
   4.73753   4.73753  17.74833
